Membrane in water
40347
    1TMC1    C1    1   2.671   0.667  11.284 -0.6859  0.2217 -0.1476
    1TMC1    C2    2   2.656   0.537  11.249  0.0901  1.0155 -0.0023
    1TMC1    C3    3   2.621   0.502  11.122  0.6316  0.1839  0.2934
    1TMC1    C4    4   2.632   0.766  11.198  1.0347  0.4121  0.2762
    1TMC1    C5    5   2.585   0.728  11.078 -0.2729 -0.5530  0.9116
    1TMC1    C6    6   2.583   0.598  11.036 -0.1681 -0.0034 -0.1837
    1TMC1     C    7   2.737   0.700  11.407 -0.5341  0.0691 -0.3965
    1TMC1     O    8   2.704   0.808  11.454 -0.6425 -0.3546  0.5964
    1TMC1     H    9   2.701   0.462  11.313  0.8559  1.4477 -0.0353
    1TMC1    H1   10   2.658   0.870  11.210 -0.8147  0.7235  1.6313
    1TMC1    H2   11   2.528   0.579  10.945  0.7861 -0.7402 -0.5990
    1TMC1    C7   12   2.544   0.831  10.984  0.7994 -0.1821 -0.2717
    1TMC1    C8   13   2.594   0.362  11.095  0.0783  0.3451 -0.7979
    1TMC1    O1   14   2.514   0.810  10.865  0.0801 -0.0392  0.3822
    1TMC1    O2   15   2.608   0.284  11.189  0.0446 -0.3447 -0.3848
    1TMC1    O3   16   2.466   0.906  11.064  0.0213  0.6155 -0.5602
    1TMC1    H3   17   2.499   0.914  11.156  0.1596  3.4098 -0.8645
    1TMC1    O5   18   2.620   0.333  10.965 -0.2259  0.3156  0.1232
    1TMC1    H5   19   2.611   0.416  10.915  0.1272 -0.2785 -0.9166
    2MPD2     C   20   3.117   0.678  11.745 -0.6141  0.2323 -0.3559
    2MPD2    C1   21   2.991   0.742  11.744  0.3707 -0.6540 -0.2271
    2MPD2    C2   22   2.899   0.729  11.645 -0.5475  0.6725  0.1589
    2MPD2    C3   23   2.936   0.652  11.532  0.5342 -0.1735 -0.4413
    2MPD2    C4   24   3.054   0.580  11.537  0.6063  0.4985  0.4750
    2MPD2    C5   25   3.143   0.596  11.642  0.1391 -0.1386 -0.3593
    2MPD2     H   26   2.802   0.775  11.651 -1.5293 -1.4085  0.3655
    2MPD2    H1   27   3.085   0.522  11.451 -0.5117 -1.5302  1.4447
    2MPD2    H2   28   3.195   0.695  11.819  0.5860 -0.6403 -1.4268
    2MPD2    H3   29   3.235   0.539  11.634  0.3662  0.6079 -3.3576
    2MPD2     N   30   2.847   0.625  11.428 -0.3118  1.0039  0.2144
    2MPD2    H5   31   2.870   0.555  11.359  0.3035  0.7127  0.7089
    2MPD2    N1   32   2.946   0.837  11.837 -0.0830 -0.7576 -0.5958
    2MPD2    H7   33   2.864   0.891  11.814  2.3502  2.1948 -2.4023
    3TMC1    C1   34   2.962   3.158  10.912  0.5340  0.0791  0.8078
    3TMC1    C2   35   2.877   3.097  10.819  0.5391 -0.3546 -0.0423
    3TMC1    C3   36   2.896   3.120  10.681  0.1283 -1.0758 -0.2503
    3TMC1    C4   37   3.056   3.244  10.863 -0.8899  0.0407 -0.2691
    3TMC1    C5   38   3.075   3.267  10.724  0.2618  0.5363  0.3743
    3TMC1    C6   39   3.000   3.193  10.635  0.2557 -0.0543 -0.1465
    3TMC1     C   40   2.914   3.172  11.049  0.2522  0.1416 -0.1210
    3TMC1     O   41   2.938   3.277  11.109 -0.1018 -0.2228 -0.7504
    3TMC1     H   42   2.793   3.032  10.838 -0.3495  1.2029  1.3728
    3TMC1    H1   43   3.118   3.287  10.941 -0.6058  1.2757 -1.1624
    3TMC1    H2   44   3.024   3.220  10.533  0.1156  0.1049 -0.1378
    3TMC1    C7   45   3.186   3.346  10.667  0.2167 -0.1204 -0.0262
    3TMC1    C8   46   2.816   3.032  10.592 -0.0309 -0.4667 -0.7591
    3TMC1    O1   47   3.229   3.336  10.553  1.1197  0.3298 -0.0313
    3TMC1    O2   48   2.759   2.926  10.634  0.2405 -0.5635  0.4078
    3TMC1    O3   49   3.255   3.400  10.763  0.0217  0.4299 -0.1157
    3TMC1    H3   50   3.206   3.443  10.836  1.1250 -0.0687  0.8997
    3TMC1    O5   51   2.833   3.080  10.464  0.2012  0.0029  0.0866
    3TMC1    H5   52   2.846   3.177  10.457 -0.6829  0.0362 -1.0978
    4MPD2     C   53   2.630   3.022  11.430 -0.1130  0.0252  0.5333
    4MPD2    C1   54   2.710   3.125  11.414 -0.7480 -0.2233  0.0450
    4MPD2    C2   55   2.797   3.140  11.314 -0.5053 -0.0433  0.5151
    4MPD2    C3   56   2.804   3.037  11.219  0.6900 -0.2307  0.5598
    4MPD2    C4   57   2.737   2.918  11.246 -0.2202  0.0799  0.3113
    4MPD2    C5   58   2.648   2.910  11.346  1.0034  0.0378  0.2584
    4MPD2     H   59   2.851   3.234  11.311 -1.9152  0.6726 -2.1266
    4MPD2    H1   60   2.759   2.828  11.189  0.8883  0.1343  0.6714
    4MPD2    H2   61   2.549   3.008  11.501  0.3455 -0.0623  1.0432
    4MPD2    H3   62   2.591   2.817  11.346  0.9467  0.0607 -3.2775
    4MPD2     N   63   2.863   3.053  11.095  0.4478  0.4757 -0.4029
    4MPD2    H5   64   2.862   2.970  11.036  0.4334  0.1461  0.0646
    4MPD2    N1   65   2.683   3.249  11.476  0.4104 -0.4595 -0.1617
    4MPD2    H7   66   2.741   3.327  11.447 -2.3795  0.4372 -3.3298
    5TCq1    O1   67   3.355   4.550  12.361 -0.0257 -0.1096 -0.0835
    5TCq1    C1   68   3.410   4.537  12.239  0.1096  0.5243 -0.0099
    5TCq1    O2   69   3.527   4.514  12.216  0.0499  0.7199 -0.2820
    5TCq1    C2   70   3.321   4.576  12.129 -0.1684 -0.0924  0.8495
    5TCq1    C3   71   3.188   4.547  12.150  0.1296 -0.4979 -0.1320
    5TCq1    C4   72   3.108   4.539  12.036  0.1310  0.6576  0.5000
    5TCq1    C5   73   3.154   4.564  11.907  1.4414  0.0864 -0.8094
    5TCq1    C6   74   3.288   4.591  11.896  0.2690  0.7881  0.7349
    5TCq1    C7   75   3.377   4.585  12.000 -0.0792  0.4988  0.5126
    5TCq1    C8   76   3.344   4.602  11.764  0.6392  0.1924  0.6094
    5TCq1    O4   77   3.448   4.543  11.742  0.0885 -0.2283  0.3172
    5TCq1    C9   78   2.970   4.492  12.055 -1.0887  0.0103 -0.1108
    5TCq1    O5   79   2.928   4.471  12.170 -0.0584 -0.1739 -0.1429
    5TCq1    O6   80   2.911   4.474  11.947  0.6406  0.2100  0.1000
    5TCq1    H1   81   3.264   4.585  12.357 -0.2544 -0.5668  1.0129
    5TCq1    H2   82   3.139   4.518  12.242  0.4065 -1.5632 -0.3279
    5TCq1    H3   83   3.088   4.541  11.824  0.7419  2.6133 -0.9490
    5TCq1    H4   84   3.483   4.600  11.984 -0.7694  1.7525 -2.9615
    6MPD2     C   85   3.243   0.105  11.510 -0.8851 -0.4101 -0.9293
    6MPD2    C1   86   3.301   4.734  11.558  0.0346  0.6938  0.0103
    6MPD2    C2   87   3.397   4.662  11.482 -0.5961 -0.7193 -0.0810
    6MPD2    C3   88   3.432   4.714  11.359  0.2099  0.3640 -0.6946
    6MPD2    C4   89   3.363   0.082  11.311  0.6750  0.5553  0.6174
    6MPD2    C5   90   3.279   0.154  11.389 -0.6109 -0.1438 -0.6360
    6MPD2     H   91   3.456   4.578  11.517  1.7813  1.3212  0.8262
    6MPD2    H1   92   3.377   0.110  11.207 -2.1159  0.2166  0.1528
    6MPD2    H2   93   3.170   0.158  11.570 -3.2246 -2.2591 -2.1208
    6MPD2    H3   94   3.233   0.243  11.347 -0.0360  1.4315  2.1110
    6MPD2     N   95   3.524   4.638  11.272  0.4347 -0.3034 -0.1156
    6MPD2    H5   96   3.573   4.560  11.313  1.8295  0.3090 -0.6248
    6MPD2    N1   97   3.266   4.685  11.686 -0.1262  0.1149  1.0167
    6MPD2    H7   98   3.189   4.728  11.736 -1.0167  0.6975 -0.8696
    7TCq1    O1   99   1.592   3.367  12.307  0.5549 -0.9558  0.9247
    7TCq1    C1  100   1.503   3.321  12.399  0.0031 -0.0747  0.1182
    7TCq1    O2  101   1.488   3.206  12.433 -0.3680 -0.1822  0.7505
    7TCq1    C2  102   1.447   3.428  12.480  0.2279  0.4408  0.9478
    7TCq1    C3  103   1.409   3.542  12.415 -0.2699  0.3348  0.3854
    7TCq1    C4  104   1.326   3.629  12.482 -0.5447  0.4483 -0.8454
    7TCq1    C5  105   1.289   3.602  12.609  0.0462  0.3433 -0.5322
    7TCq1    C6  106   1.323   3.485  12.666  0.0548  0.1026  0.6478
    7TCq1    C7  107   1.403   3.401  12.601 -0.3194 -0.4006  0.3345
    7TCq1    C8  108   1.274   3.454  12.797 -0.3843 -0.1174 -0.3735
    7TCq1    O4  109   1.271   3.337  12.835  0.4700  0.0826 -0.8018
    7TCq1    C9  110   1.269   3.745  12.415  0.5958  0.0365 -0.2496
    7TCq1    O5  111   1.199   3.821  12.485 -0.1203 -0.3069 -0.5061
    7TCq1    O6  112   1.321   3.776  12.305 -0.1509  0.4366  0.4662
    7TCq1    H1  113   1.606   3.463  12.326 -0.9018 -0.4529 -0.5066
    7TCq1    H2  114   1.422   3.568  12.310  0.5568  2.3414  0.9866
    7TCq1    H3  115   1.217   3.669  12.653 -0.7410 -0.0157 -1.2818
    7TCq1    H4  116   1.432   3.307  12.647 -1.2197 -0.0840  1.5441
    8MPD2     C  117   0.975   3.620  13.186 -0.4825  0.2935 -0.3337
    8MPD2    C1  118   0.998   3.492  13.141 -0.2698  0.3602  0.2727
    8MPD2    C2  119   1.096   3.479  13.044  0.0976  0.2528  0.4253
    8MPD2    C3  120   1.159   3.584  12.985  0.0706 -0.1753 -0.2447
    8MPD2    C4  121   1.124   3.709  13.030 -0.3725 -0.5909 -0.0566
    8MPD2    C5  122   1.042   3.730  13.141 -0.1702 -0.2855  0.4362
    8MPD2     H  123   1.125   3.385  12.998 -0.9519  0.0009  0.2794
    8MPD2    H1  124   1.176   3.798  12.998 -0.6993 -1.1541 -2.1416
    8MPD2    H2  125   0.901   3.640  13.262  0.3121  3.7365 -0.5010
    8MPD2    H3  126   1.018   3.829  13.179 -1.5561 -0.9835  1.3490
    8MPD2     N  127   1.248   3.575  12.871  0.0365 -0.6606  0.1184
    8MPD2    H5  128   1.295   3.657  12.835 -1.2197 -1.1501 -2.6723
    8MPD2    N1  129   0.922   3.388  13.202 -0.0166 -0.2795 -0.0788
    8MPD2    H7  130   0.858   3.415  13.276  1.3780  2.0585  0.2775
    9TMC1    C1  131   2.746   2.506  10.693  0.7918 -0.1576  1.1852
    9TMC1    C2  132   2.814   2.571  10.801  0.9558  0.3368  0.3063
    9TMC1    C3  133   2.907   2.667  10.761 -0.4063 -0.3184  0.5988
    9TMC1    C4  134   2.799   2.507  10.567  0.4781  0.6591  0.0940
    9TMC1    C5  135   2.910   2.590  10.543 -0.4714 -0.1127 -0.1138
    9TMC1    C6  136   2.957   2.678  10.634  0.7671 -0.0245 -0.2867
    9TMC1     C  137   2.627   2.419  10.719 -1.1886 -0.5781  0.1821
    9TMC1     O  138   2.554   2.398  10.626 -0.0817 -0.0774 -0.4371
    9TMC1     H  139   2.767   2.577  10.899 -0.0700  0.6690 -0.1987
    9TMC1    H1  140   2.759   2.436  10.495 -0.3217  1.0984  0.1061
    9TMC1    H2  141   3.026   2.758  10.611 -1.5490  1.2253 -2.8265
    9TMC1    C7  142   2.962   2.604  10.410  0.4141  0.6812  0.1747
    9TMC1    C8  143   2.948   2.775  10.858  0.0529  0.5072  0.0334
    9TMC1    O1  144   3.020   2.709  10.393  0.2822  0.2100  0.6347
    9TMC1    O2  145   2.891   2.804  10.967 -0.0850  0.0613  0.0405
    9TMC1    O3  146   3.015   2.476  10.395 -0.4137 -0.2293  0.3402
    9TMC1    H3  147   2.977   2.391  10.425 -0.2099 -0.1923  0.6932
    9TMC1    O5  148   3.074   2.803  10.838  0.0608 -0.4825 -0.2338
    9TMC1    H5  149   3.110   2.755  10.760 -0.3526 -2.7587  0.9764
   10MPD2     C  150   2.406   2.263  10.849  0.3796 -0.1714  0.2056
   10MPD2    C1  151   2.513   2.305  10.914 -1.1337 -0.2130 -0.2943
   10MPD2    C2  152   2.536   2.273  11.045  0.9896 -0.7370  0.6498
   10MPD2    C3  153   2.454   2.184  11.114 -0.8074  0.5975  0.5044
   10MPD2    C4  154   2.331   2.145  11.053  0.2894  0.1080 -0.0645
   10MPD2    C5  155   2.321   2.180  10.914 -0.1398  0.3819  0.5867
   10MPD2     H  156   2.622   2.320  11.091 -0.4889  0.9217  1.7169
   10MPD2    H1  157   2.257   2.081  11.100 -0.1649  0.8950  0.2781
   10MPD2    H2  158   2.390   2.292  10.746  0.7189  0.0477  0.2164
   10MPD2    H3  159   2.229   2.154  10.862  0.3453 -1.2783  0.5566
   10MPD2     N  160   2.459   2.170  11.260  0.2080 -0.5256  0.1031
   10MPD2    H5  161   2.390   2.103  11.291  0.4872 -0.8706 -0.0127
   10MPD2    N1  162   2.614   2.384  10.850 -0.6367  0.0176  0.4923
   10MPD2    H7  163   2.692   2.411  10.910 -0.6528 -3.2181  1.9635
   11TCq1    O1  164   2.903   2.882  14.123 -0.2764  0.4424 -0.1110
   11TCq1    C1  165   2.838   2.765  14.087  0.6506 -0.1488 -0.3449
   11TCq1    O2  166   2.721   2.760  14.056 -0.1941  0.4272  0.1426
   11TCq1    C2  167   2.935   2.682  14.022  0.1987  0.5816  0.4003
   11TCq1    C3  168   3.065   2.670  14.060  0.1824  0.0395 -0.3331
   11TCq1    C4  169   3.157   2.610  13.974  0.4153  0.3526 -0.5341
   11TCq1    C5  170   3.118   2.552  13.856 -0.3116 -0.8445 -0.1875
   11TCq1    C6  171   2.990   2.564  13.819 -0.0864  0.0378 -0.1170
   11TCq1    C7  172   2.901   2.636  13.889 -0.2378  0.0572  0.2390
   11TCq1    C8  173   2.940   2.475  13.717 -0.3721  0.7009  0.8723
   11TCq1    O4  174   2.819   2.480  13.702 -0.1447  0.7881 -0.0677
   11TCq1    C9  175   3.290   2.589  14.031  0.4560 -0.1089  0.6609
   11TCq1    O5  176   3.289   2.579  14.156 -0.3748  0.1759 -0.2580
   11TCq1    O6  177   3.370   2.541  13.949  0.1662  0.1609 -0.0141
   11TCq1    H1  178   2.986   2.863  14.171 -0.6599 -1.9230 -0.3731
   11TCq1    H2  179   3.094   2.701  14.160 -3.2494  2.6013 -0.1218
   11TCq1    H3  180   3.191   2.520  13.783 -0.3700 -0.8720 -0.2342
   11TCq1    H4  181   2.799   2.648  13.856 -0.4609 -3.1906 -0.2074
   12MPD2     C  182   2.874   2.292  13.513 -0.7799  0.4880 -0.0204
   12MPD2    C1  183   2.979   2.268  13.599  0.6865  0.4988 -0.5501
   12MPD2    C2  184   3.039   2.142  13.615  0.6765 -0.0002 -0.7487
   12MPD2    C3  185   2.996   2.039  13.535  0.7391  0.6242  0.7144
   12MPD2    C4  186   2.892   2.066  13.444  0.1024  0.1647 -0.1366
   12MPD2    C5  187   2.831   2.192  13.436 -0.6549  0.1238 -0.8361
   12MPD2     H  188   3.130   2.139  13.675  0.3212  0.9958 -0.1573
   12MPD2    H1  189   2.853   1.990  13.376 -0.8008 -0.2519  0.8455
   12MPD2    H2  190   2.853   2.394  13.482 -0.1647  1.0702  1.4934
   12MPD2    H3  191   2.752   2.220  13.366 -1.2364 -2.6359 -1.3022
   12MPD2     N  192   3.058   1.911  13.528 -0.2497  0.1983 -0.4941
   12MPD2    H5  193   3.036   1.843  13.455  0.3379  1.5987 -1.9815
   12MPD2    N1  194   3.017   2.368  13.690  0.5622  0.0452 -0.1593
   12MPD2    H7  195   3.102   2.356  13.743 -0.5859  1.9410  2.0932
   13TCq1    O1  196   3.958   2.922  10.919  0.0046  0.7470  0.1585
   13TCq1    C1  197   4.049   2.821  10.938 -0.3086  0.3803  1.0225
   13TCq1    O2  198   4.171   2.840  10.946 -0.0297  0.3468  0.5251
   13TCq1    C2  199   3.995   2.703  11.001 -0.1335 -0.2040 -0.0046
   13TCq1    C3  200   4.079   2.599  11.023 -0.2053 -0.7057 -0.8096
   13TCq1    C4  201   4.034   2.485  11.088  0.0923 -0.2353  0.0501
   13TCq1    C5  202   3.899   2.476  11.140  0.2595  0.7364 -0.4401
   13TCq1    C6  203   3.814   2.577  11.100  0.4673  0.5792 -0.2892
   13TCq1    C7  204   3.861   2.686  11.031  0.4680 -1.1263 -0.0629
   13TCq1    C8  205   3.672   2.575  11.138 -0.2700 -0.2583  0.0041
   13TCq1    O4  206   3.596   2.669  11.109 -0.5952  0.1094 -0.4267
   13TCq1    C9  207   4.131   2.385  11.129  0.0700  0.5954  0.1908
   13TCq1    O5  208   4.244   2.425  11.148 -0.2743 -0.1399  0.2919
   13TCq1    O6  209   4.081   2.285  11.184  0.0415  0.2093  0.2647
   13TCq1    H1  210   3.873   2.898  10.878 -0.7105  1.9236  0.9727
   13TCq1    H2  211   4.184   2.605  10.997 -0.3282  1.0687 -0.8718
   13TCq1    H3  212   3.871   2.393  11.204 -0.0798  0.3568 -1.0777
   13TCq1    H4  213   3.786   2.757  10.997  0.8641 -1.0046 -0.6704
   14MPD2     C  214   3.510   2.287  11.299  0.1115 -0.4702 -0.5226
   14MPD2    C1  215   3.525   2.417  11.253 -0.5561  0.5458 -0.1628
   14MPD2    C2  216   3.412   2.497  11.258  0.1907  0.0477  0.0378
   14MPD2    C3  217   3.292   2.449  11.299  0.2491 -0.3114  0.3530
   14MPD2    C4  218   3.282   2.314  11.334  0.6494 -0.0011 -0.6058
   14MPD2    C5  219   3.393   2.234  11.334 -0.6061  0.3586  0.0111
   14MPD2     H  220   3.418   2.605  11.244  1.6641  0.3864  3.3172
   14MPD2    H1  221   3.186   2.273  11.364  1.5461 -1.6082  0.0531
   14MPD2    H2  222   3.592   2.216  11.296  0.8704  0.5066 -2.8772
   14MPD2    H3  223   3.392   2.129  11.359 -0.4896  0.8863  2.2204
   14MPD2     N  224   3.182   2.539  11.308 -0.0562 -0.7250  0.0297
   14MPD2    H5  225   3.193   2.639  11.322 -0.6295 -0.5691 -0.6558
   14MPD2    N1  226   3.653   2.461  11.208  0.4768  0.4113 -0.6764
   14MPD2    H7  227   3.737   2.414  11.242  0.9629  1.1417 -0.8562
   15TCq1    O1  228   0.519   2.227   2.159 -0.3311 -0.7832 -0.4021
   15TCq1    C1  229   0.573   2.215   2.038  0.7668 -0.2118  0.1872
   15TCq1    O2  230   0.561   2.293   1.945  0.1128  0.2414 -0.4479
   15TCq1    C2  231   0.568   2.071   2.024  0.2734  0.0994  0.8646
   15TCq1    C3  232   0.639   1.997   2.114 -0.5804 -0.4104  0.5599
   15TCq1    C4  233   0.670   1.868   2.089 -0.0759  0.8578  0.0787
   15TCq1    C5  234   0.646   1.820   1.968  0.0841 -0.1044  0.3780
   15TCq1    C6  235   0.579   1.897   1.880 -0.7443 -0.2593  0.5657
   15TCq1    C7  236   0.536   2.024   1.902 -0.3420 -0.5753 -0.1760
   15TCq1    C8  237   0.558   1.846   1.748  0.9146  0.5963 -0.3991
   15TCq1    O4  238   0.638   1.764   1.708 -0.1816  0.0801 -0.2911
   15TCq1    C9  239   0.725   1.777   2.187 -0.2303 -0.5350  0.2338
   15TCq1    O5  240   0.795   1.826   2.284 -0.7154  0.1869 -0.4009
   15TCq1    O6  241   0.705   1.657   2.161  0.0615  0.8748  0.3932
   15TCq1    H1  242   0.486   2.147   2.207  0.6540 -2.0962 -1.9304
   15TCq1    H2  243   0.663   2.032   2.214  1.5306 -1.0064  0.2731
   15TCq1    H3  244   0.669   1.719   1.938  0.1433  0.4982 -1.6370
   15TCq1    H4  245   0.541   2.093   1.819  1.1472  0.7561  1.0144
   16MPD2     C  246   0.267   1.851   1.553 -0.4542  0.7453  0.5496
   16MPD2    C1  247   0.398   1.831   1.566  0.4972 -0.6317  0.7194
   16MPD2    C2  248   0.468   1.772   1.469 -0.2627  0.8622  0.4074
   16MPD2    C3  249   0.411   1.722   1.355  0.1946  0.1514 -0.7369
   16MPD2    C4  250   0.273   1.728   1.345 -0.1656 -0.2228 -0.0678
   16MPD2    C5  251   0.206   1.788   1.445  0.4004  0.3991 -0.3536
   16MPD2     H  252   0.573   1.754   1.487 -1.1661 -1.2490  3.5506
   16MPD2    H1  253   0.216   1.683   1.264 -1.0741 -0.6342  0.7918
   16MPD2    H2  254   0.218   1.912   1.628 -1.8631 -1.1549  1.1911
   16MPD2    H3  255   0.099   1.804   1.450  0.1276 -2.0683  1.7875
   16MPD2     N  256   0.486   1.652   1.257 -0.7064 -0.0236 -0.3364
   16MPD2    H5  257   0.583   1.629   1.277 -0.9502 -1.1794 -0.4797
   16MPD2    N1  258   0.443   1.880   1.693  0.4021 -0.1119 -0.0054
   16MPD2    H7  259   0.379   1.937   1.748 -1.6434 -0.7087 -1.7271
   17TMC1    C1  260   2.845   1.870  11.162 -0.1214 -0.2755  0.4477
   17TMC1    C2  261   2.910   1.876  11.280  0.3340  0.5958 -0.2086
   17TMC1    C3  262   2.873   1.789  11.380 -0.0433 -0.3946  0.4707
   17TMC1    C4  263   2.750   1.775  11.139 -0.2775  0.2347 -0.0468
   17TMC1    C5  264   2.717   1.690  11.241 -0.3872  0.3858 -0.2238
   17TMC1    C6  265   2.776   1.698  11.360 -0.1909 -0.1776  0.1159
   17TMC1     C  266   2.870   1.971  11.059  0.5015  0.4031  0.3281
   17TMC1     O  267   2.779   1.998  10.984  0.1399  0.1278 -0.4190
   17TMC1     H  268   2.978   1.956  11.307  0.4824  0.3403  0.1775
   17TMC1    H1  269   2.700   1.762  11.044 -0.7995  2.5459 -0.0909
   17TMC1    H2  270   2.757   1.619  11.432  0.4458  0.8469  1.4116
   17TMC1    C7  271   2.625   1.572  11.224 -0.1590  0.1875  0.4195
   17TMC1    C8  272   2.956   1.773  11.496  0.3501 -0.2262 -0.3913
   17TMC1    O1  273   2.559   1.520  11.311 -0.2747 -0.0178 -0.6933
   17TMC1    O2  274   2.917   1.731  11.603 -0.0215 -0.4490 -0.6125
   17TMC1    O3  275   2.611   1.527  11.097 -0.0066  0.0136 -0.2424
   17TMC1    H3  276   2.686   1.560  11.043  2.1599  1.1502  3.4137
   17TMC1    O5  277   3.085   1.781  11.449 -0.2272  0.1805 -0.1318
   17TMC1    H5  278   3.102   1.793  11.354 -1.2419 -1.6292 -0.5344
   18MPD2     C  279   2.999   2.185  10.887  0.0940 -0.0297 -0.1563
   18MPD2    C1  280   3.065   2.108  10.982 -0.2626 -0.0108 -0.1811
   18MPD2    C2  281   3.201   2.115  10.997  0.5289  0.2576  0.7563
   18MPD2    C3  282   3.269   2.203  10.917  0.1410 -0.0475  0.2293
   18MPD2    C4  283   3.201   2.274  10.816 -0.6590 -0.2213 -0.1916
   18MPD2    C5  284   3.058   2.273  10.805 -0.0960 -0.3583 -0.9032
   18MPD2     H  285   3.244   2.059  11.079  1.0819 -0.9713 -0.3786
   18MPD2    H1  286   3.260   2.351  10.768  1.4574 -2.1348 -0.6604
   18MPD2    H2  287   2.891   2.180  10.882  0.1386 -1.3293  0.3904
   18MPD2    H3  288   2.998   2.314  10.724  0.0941 -1.8447 -1.7909
   18MPD2     N  289   3.401   2.237  10.929 -0.1342 -0.4958 -0.7502
   18MPD2    H5  290   3.444   2.300  10.863  0.8224 -0.9043 -0.5154
   18MPD2    N1  291   2.999   2.009  11.057 -0.1008 -0.1352 -0.3087
   18MPD2    H7  292   3.057   1.950  11.116 -1.4781  0.6192  1.7892
   19TMC2    C1  293   4.450   2.544  14.148 -0.0851  0.6862 -0.1321
   19TMC2    C2  294   4.373   2.654  14.132 -0.2209  0.1696  0.1254
   19TMC2    C3  295   4.238   2.634  14.135  0.1238 -0.0475 -0.1815
   19TMC2    C4  296   4.399   2.413  14.148  0.6515  0.1895 -0.1805
   19TMC2    C5  297   4.266   2.405  14.125  0.2011  0.4148  0.5252
   19TMC2    C6  298   4.184   2.510  14.135  0.0805  0.1149  0.1145
   19TMC2     C  299   4.587   2.573  14.185  0.6715  0.3026  1.2095
   19TMC2     O  300   4.629   2.689  14.169 -0.1340  0.3098 -0.5858
   19TMC2     H  301   4.406   2.756  14.146  0.7764 -0.0184 -0.7985
   19TMC2    H1  302   4.461   2.324  14.157 -1.5090 -1.1409  1.6862
   19TMC2    H2  303   4.075   2.506  14.134  0.1108 -0.5222 -0.4939
   19TMC2    C7  304   4.221   2.269  14.093  0.9598  0.4451 -0.6042
   19TMC2    C8  305   4.149   2.747  14.158  0.7392 -1.1236  0.4392
   19TMC2    O1  306   4.299   2.176  14.122 -0.2955 -0.0457 -0.3315
   19TMC2    O2  307   4.162   2.826  14.253 -0.2157 -0.3773  0.5294
   19TMC2    O5  308   4.064   2.740  14.063 -0.2365  0.4967 -0.2411
   19TMC2    H5  309   4.102   2.678  13.997 -0.2628  1.6694 -1.3495
   20MPD2     C  310   0.120   2.546  14.330  0.2678 -0.7538 -0.8107
   20MPD2    C1  311   0.017   2.467  14.340 -0.1612 -0.1480  0.6657
   20MPD2    C2  312   0.025   2.361  14.430 -0.1526  0.3172 -0.3637
   20MPD2    C3  313   0.126   2.337  14.523 -0.4862 -0.4690 -0.9259
   20MPD2    C4  314   0.228   2.426  14.509  0.0684  0.3228 -0.3757
   20MPD2    C5  315   0.228   2.524  14.407  0.2530  0.1525 -0.2601
   20MPD2     H  316   4.680   2.291  14.432 -0.5276  0.9045  3.1462
   20MPD2    H1  317   0.315   2.412  14.572 -0.0275 -0.9331 -0.5142
   20MPD2    H2  318   0.135   2.615  14.248 -1.9033  1.4393  0.6145
   20MPD2    H3  319   0.318   2.583  14.394  0.1699  0.2616 -0.3417
   20MPD2     N  320   0.131   2.237  14.627  0.4742 -0.3371  0.1838
   20MPD2    H5  321   0.217   2.235  14.680  1.0544 -0.7303 -0.7678
   20MPD2    N1  322   4.631   2.473  14.270 -0.4147  0.5567  0.5879
   20MPD2    H7  323   4.564   2.398  14.282 -1.5862  1.4053 -0.5438
   21TMC2    C1  324   1.980   2.304  14.775  0.3420  0.2357  0.5283
   21TMC2    C2  325   2.006   2.203  14.857  0.1598  0.1306 -0.2350
   21TMC2    C3  326   1.931   2.193  14.972  0.1761 -0.7031 -0.7717
   21TMC2    C4  327   1.887   2.403  14.801 -0.8369  0.5332 -0.3738
   21TMC2    C5  328   1.813   2.389  14.917 -0.3579  0.4115 -0.3263
   21TMC2    C6  329   1.842   2.287  15.007 -0.5676 -0.0142  0.1057
   21TMC2     C  330   2.040   2.288  14.644  0.3907 -0.0354  0.8780
   21TMC2     O  331   2.135   2.213  14.624  0.1205  0.0472 -0.3403
   21TMC2     H  332   2.072   2.123  14.824 -0.9341 -0.8176 -0.1103
   21TMC2    H1  333   1.884   2.493  14.740  0.5626  0.4408 -0.5647
   21TMC2    H2  334   1.801   2.287  15.107 -0.4633 -1.7831  0.1519
   21TMC2    C7  335   1.709   2.469  14.961 -0.1423  0.2692 -0.3613
   21TMC2    C8  336   1.949   2.083  15.062  0.7071  0.2331  0.0874
   21TMC2    O1  337   1.644   2.434  15.059 -0.0878 -0.3333  0.2139
   21TMC2    O2  338   1.875   2.046  15.149  0.1360 -0.2081 -0.0835
   21TMC2    O5  339   2.061   2.008  15.038 -0.4873  0.1957  0.4457
   21TMC2    H5  340   2.121   2.053  14.975 -0.2403  0.6166  0.9824
   22MPD2     C  341   2.170   2.520  14.203 -0.1780 -0.3969  0.0498
   22MPD2    C1  342   2.239   2.434  14.284  0.4112 -0.5583  0.0603
   22MPD2    C2  343   2.180   2.373  14.392  0.1156  0.1577  0.0262
   22MPD2    C3  344   2.053   2.409  14.429  0.5696  0.1088 -0.0156
   22MPD2    C4  345   1.983   2.505  14.359 -0.7751  0.4139  0.0042
   22MPD2    C5  346   2.045   2.555  14.248 -0.3380  0.4167  0.5700
   22MPD2     H  347   2.243   2.320  14.463  0.1472 -0.1179 -0.2065
   22MPD2    H1  348   1.883   2.537  14.385 -1.0105  0.6633 -1.2369
   22MPD2    H2  349   2.204   2.554  14.106 -0.6319 -0.1392 -0.0193
   22MPD2    H3  350   1.979   2.618  14.189  0.8430 -0.4477 -1.6637
   22MPD2     N  351   1.994   2.378  14.550 -0.6378  0.0307 -0.2513
   22MPD2    H5  352   1.912   2.435  14.568 -0.2265  0.9677 -1.3546
   22MPD2    N1  353   2.381   2.394  14.265  0.2679  0.1037 -0.2538
   22MPD2    H7  354   2.424   2.328  14.328  1.4208  0.9829 -0.1079
   23TMC2    C1  355   2.768   3.707  14.926 -0.0184  0.6882  0.0660
   23TMC2    C2  356   2.808   3.812  14.995 -0.7592 -0.0270  0.2833
   23TMC2    C3  357   2.715   3.884  15.058  0.4527  0.6820  0.1507
   23TMC2    C4  358   2.636   3.657  14.928  0.3409 -0.5343 -0.4239
   23TMC2    C5  359   2.553   3.727  15.004 -0.4226  0.3547 -0.7337
   23TMC2    C6  360   2.588   3.833  15.078  0.4226  1.2734  0.1409
   23TMC2     C  361   2.859   3.621  14.860 -1.0461  0.9066 -0.1835
   23TMC2     O  362   2.813   3.525  14.799 -0.0167  0.3551  0.4141
   23TMC2     H  363   2.902   3.856  14.964 -0.5859  0.7739  1.9176
   23TMC2    H1  364   2.600   3.565  14.883  0.9559 -0.6582 -0.6581
   23TMC2    H2  365   2.511   3.873  15.143 -1.9455  1.5779 -2.8353
   23TMC2    C7  366   2.423   3.669  15.030  0.7188 -0.4452 -0.6215
   23TMC2    C8  367   2.745   4.017  15.107  0.2681  0.2571  0.8536
   23TMC2    O1  368   2.390   3.663  15.152  0.5507  0.1114 -0.4066
   23TMC2    O2  369   2.669   4.084  15.174 -0.0174 -0.2113 -0.3234
   23TMC2    O5  370   2.883   4.023  15.108  0.3100  0.2048 -0.4438
   23TMC2    H5  371   2.935   4.106  15.114 -1.0475  1.2205 -2.7335
   24MPD2     C  372   3.299   3.367  14.840  0.2573 -0.7976 -0.2792
   24MPD2    C1  373   3.285   3.426  14.961  0.5252 -0.2490  0.0700
   24MPD2    C2  374   3.188   3.520  14.986 -0.4733 -0.1404 -0.6644
   24MPD2    C3  375   3.083   3.536  14.897 -1.2016  0.1312  0.4649
   24MPD2    C4  376   3.092   3.459  14.780  0.4641 -0.3632  0.2167
   24MPD2    C5  377   3.199   3.382  14.747 -0.1311 -0.1086  0.2332
   24MPD2     H  378   3.180   3.568  15.083  1.2417 -2.0129  0.4077
   24MPD2    H1  379   3.013   3.463  14.706  0.9333  1.4651 -0.1821
   24MPD2    H2  380   3.386   3.310  14.811  0.7714 -0.2351  0.1463
   24MPD2    H3  381   3.186   3.333  14.651 -3.1181  0.9323  0.0870
   24MPD2     N  382   2.984   3.628  14.920 -0.3966  0.1198 -1.0567
   24MPD2    H5  383   2.979   3.687  15.003 -0.3905 -1.0548 -0.2142
   24MPD2    N1  384   3.384   3.410  15.058 -0.0475  0.0076 -0.1157
   24MPD2    H7  385   3.373   3.474  15.136 -0.3445  1.0425 -1.0148
   25TMC2    C1  386   2.922   0.650  12.259 -0.2620 -0.4957  0.4728
   25TMC2    C2  387   3.000   0.618  12.366  0.2270  0.6135  0.0788
   25TMC2    C3  388   2.989   0.699  12.472 -0.2557 -0.0936 -0.0344
   25TMC2    C4  389   2.846   0.756  12.251  0.5502 -0.1388 -0.3660
   25TMC2    C5  390   2.823   0.827  12.367 -0.6113  0.6290  0.2312
   25TMC2    C6  391   2.897   0.802  12.484 -0.0709  0.8647 -0.0690
   25TMC2     C  392   2.922   0.558  12.144  0.3701  0.2204  0.3955
   25TMC2     O  393   3.024   0.499  12.127  0.2277  0.1089 -0.1583
   25TMC2     H  394   3.050   0.523  12.378 -1.2851 -0.3140 -0.9008
   25TMC2    H1  395   2.790   0.784  12.162  0.8622  1.0435 -0.1950
   25TMC2    H2  396   2.888   0.858  12.577  0.5093  0.8331  0.0059
   25TMC2    C7  397   2.729   0.937  12.369  0.2570  0.0163  0.2278
   25TMC2    C8  398   3.029   0.638  12.594  0.0230  0.1771  0.0186
   25TMC2    O1  399   2.692   0.980  12.259 -0.8702  0.3812 -0.5821
   25TMC2    O2  400   2.972   0.658  12.699  0.3175 -0.6505  0.2801
   25TMC2    O5  401   3.152   0.592  12.574 -0.3812  0.5077  0.4798
   25TMC2    H5  402   3.177   0.618  12.483 -2.1073  3.2853  0.7985
   26MPD2     C  403   2.723   0.374  11.712  0.6041 -0.6206 -1.0082
   26MPD2    C1  404   2.610   0.426  11.779  0.0614 -0.0273  0.8325
   26MPD2    C2  405   2.637   0.484  11.904 -0.4552 -0.4246  0.1745
   26MPD2    C3  406   2.765   0.486  11.960  0.2905  0.4041  0.2118
   26MPD2    C4  407   2.868   0.448  11.883  0.2205 -0.2444  0.7636
   26MPD2    C5  408   2.849   0.388  11.764  0.3807  0.3467  0.6375
   26MPD2     H  409   2.552   0.522  11.959  0.3434 -0.6587  1.5634
   26MPD2    H1  410   2.970   0.453  11.919  0.3427  1.3318  0.2182
   26MPD2    H2  411   2.706   0.316  11.622  1.6725 -0.9863 -0.9717
   26MPD2    H3  412   2.934   0.355  11.706  0.1452 -1.9236  1.5966
   26MPD2     N  413   2.799   0.546  12.084  0.0466  0.0482 -0.0929
   26MPD2    H5  414   2.724   0.605  12.120  0.0136  0.2069 -0.4205
   26MPD2    N1  415   2.485   0.409  11.719  0.2805  0.2406  0.1708
   26MPD2    H7  416   2.484   0.385  11.620  0.2493 -1.8296  0.6704
   27TMC2    C1  417   1.921   3.146  12.128  0.3112 -0.5477 -0.0004
   27TMC2    C2  418   1.961   3.015  12.131  0.0271  0.6890  0.1087
   27TMC2    C3  419   1.981   2.962  12.248 -0.3797  0.1884 -0.8822
   27TMC2    C4  420   1.890   3.217  12.238 -0.1481 -0.3110 -0.6015
   27TMC2    C5  421   1.909   3.149  12.355 -0.5156  0.5026 -0.8100
   27TMC2    C6  422   1.964   3.030  12.365 -0.1116  0.1497  0.2876
   27TMC2     C  423   1.841   3.172  12.009 -0.2257 -0.2180 -0.2113
   27TMC2     O  424   1.896   3.137  11.907 -0.2400  0.0876  0.5773
   27TMC2     H  425   1.965   2.956  12.040  0.3149 -0.3086  0.7615
   27TMC2    H1  426   1.844   3.316  12.238  1.5110  0.4531  0.2334
   27TMC2    H2  427   1.979   2.984  12.462  0.7704 -1.9120 -0.8305
   27TMC2    C7  428   1.841   3.195  12.477 -0.0171  0.8638 -0.2931
   27TMC2    C8  429   2.022   2.822  12.245  0.2741  0.3141 -0.8693
   27TMC2    O1  430   1.811   3.104  12.554 -0.2287  0.6661  0.1164
   27TMC2    O2  431   2.131   2.786  12.205  0.2100 -0.3656  0.0744
   27TMC2    O5  432   1.959   2.771  12.354 -0.2674 -0.7583  0.2609
   27TMC2    H5  433   1.872   2.815  12.363  0.4686  0.8765 -0.7077
   28MPD2     C  434   1.423   3.332  11.774 -0.2202 -0.2675  0.4568
   28MPD2    C1  435   1.401   3.342  11.911  0.4091  0.1959 -0.2418
   28MPD2    C2  436   1.505   3.305  11.995 -0.0934  0.0715  0.3536
   28MPD2    C3  437   1.622   3.246  11.946  1.3929  0.1337 -0.1424
   28MPD2    C4  438   1.633   3.236  11.807 -0.2934  0.2484 -0.5157
   28MPD2    C5  439   1.532   3.280  11.726  0.0279  0.2249 -0.4201
   28MPD2     H  440   1.491   3.306  12.103  0.0060 -1.4378  0.3748
   28MPD2    H1  441   1.728   3.217  11.759 -0.5407 -1.3686 -0.3560
   28MPD2    H2  442   1.362   3.374  11.695 -0.3611 -1.9365 -0.3172
   28MPD2    H3  443   1.546   3.273  11.619  0.1319 -0.0896 -0.3861
   28MPD2     N  444   1.720   3.215  12.040 -0.0874 -0.0899 -0.3863
   28MPD2    H5  445   1.691   3.245  12.133  0.5638  0.2498 -0.2933
   28MPD2    N1  446   1.273   3.397  11.949 -0.0674 -0.5481  0.5695
   28MPD2    H7  447   1.216   3.426  11.870  0.0697  0.0938  0.7129
   29TMC2    C1  448   1.134   1.033  14.417  0.0980  0.7086 -0.3000
   29TMC2    C2  449   1.267   1.021  14.418  0.4689  0.7166 -0.4433
   29TMC2    C3  450   1.338   1.138  14.413 -0.2559  0.2379 -0.2575
   29TMC2    C4  451   1.067   1.150  14.394  0.2262 -0.1446  0.2325
   29TMC2    C5  452   1.142   1.259  14.384 -0.2909  0.0783  0.6513
   29TMC2    C6  453   1.278   1.258  14.396 -0.4062  0.3342 -0.3971
   29TMC2     C  454   1.055   0.911  14.441  0.2572 -0.6255 -0.1163
   29TMC2     O  455   1.111   0.808  14.476 -0.1222  0.0226  0.2305
   29TMC2     H  456   1.322   0.934  14.450  1.5978  1.4348 -0.4388
   29TMC2    H1  457   0.959   1.159  14.390  0.2513 -0.4878 -1.2363
   29TMC2    H2  458   1.328   1.352  14.377 -2.1463  1.3197 -0.1306
   29TMC2    C7  459   1.068   1.378  14.428 -0.3559  0.2679  0.0291
   29TMC2    C8  460   1.478   1.138  14.455 -0.3953  1.0152  0.8044
   29TMC2    O1  461   0.953   1.378  14.393  0.5782  0.1434  0.0052
   29TMC2    O2  462   1.532   1.053  14.524  0.2074  0.2785  0.1667
   29TMC2    O5  463   1.543   1.201  14.349 -0.0399 -0.2489  0.2240
   29TMC2    H5  464   1.487   1.244  14.281  0.1355  1.1983  1.0040
   30MPD2     C  465   0.642   0.652  14.330 -0.7097 -0.3212  0.0232
   30MPD2    C1  466   0.769   0.606  14.337  0.0090  0.2520  0.1344
   30MPD2    C2  467   0.864   0.696  14.367  0.9038 -0.6362  0.6729
   30MPD2    C3  468   0.840   0.828  14.393  0.0977  0.3695  0.6834
   30MPD2    C4  469   0.710   0.869  14.395 -0.2132 -0.1709  0.5440
   30MPD2    C5  470   0.615   0.779  14.360 -0.1110 -0.2564  0.2440
   30MPD2     H  471   0.967   0.663  14.363  1.3266  0.7814 -0.0318
   30MPD2    H1  472   0.690   0.971  14.426  3.9573  0.4148  1.2696
   30MPD2    H2  473   0.563   0.584  14.300 -0.1564 -0.5844 -0.8426
   30MPD2    H3  474   0.514   0.818  14.367 -0.4132 -0.5075 -2.6520
   30MPD2     N  475   0.926   0.933  14.423  0.1281 -0.1961  0.2433
   30MPD2    H5  476   0.879   1.023  14.420  0.0416 -0.2532 -0.1917
   30MPD2    N1  477   0.807   0.469  14.338  0.4622  0.3028 -0.0363
   30MPD2    H7  478   0.901   0.451  14.370 -0.1914  1.7286  2.7179
   31TMC2    C1  479   3.043   4.252  15.658  0.6287 -0.4434  0.1282
   31TMC2    C2  480   2.930   4.329  15.679 -0.2139  0.1649 -0.3316
   31TMC2    C3  481   2.871   4.319  15.803 -0.1778  0.4163  0.8301
   31TMC2    C4  482   3.099   4.178  15.761  0.2359 -0.0869  0.0219
   31TMC2    C5  483   3.032   4.174  15.880  0.4948 -0.1157 -0.5677
   31TMC2    C6  484   2.922   4.258  15.908  0.4183 -1.2027  0.5206
   31TMC2     C  485   3.111   4.280  15.531 -0.0676 -0.7321  0.3857
   31TMC2     O  486   3.070   4.371  15.471 -0.1816  0.4137  0.0590
   31TMC2     H  487   2.894   4.408  15.614  1.2795  0.7022 -0.5038
   31TMC2    H1  488   3.190   4.119  15.754  0.4466 -0.1417  3.0370
   31TMC2    H2  489   2.879   4.267  16.007 -0.9669 -0.0260 -0.1730
   31TMC2    C7  490   3.119   4.114  15.979 -0.0697 -1.1163 -0.4684
   31TMC2    C8  491   2.758   4.399  15.839 -0.0676 -1.1449 -0.9668
   31TMC2    O1  492   3.147   3.997  15.962 -0.2176 -0.1390  0.7921
   31TMC2    O2  493   2.655   4.352  15.887  0.0530 -0.0751 -0.9359
   31TMC2    O5  494   2.799   4.525  15.836 -0.5437  0.5214 -0.0467
   31TMC2    H5  495   2.893   4.536  15.811 -0.1146 -0.2167  1.2415
   32MPD2     C  496   3.544   4.293  15.260 -0.0172 -0.5716  0.4682
   32MPD2    C1  497   3.419   4.332  15.220 -0.4233  0.7118  0.5272
   32MPD2    C2  498   3.312   4.309  15.309  0.6736  0.2013  0.0506
   32MPD2    C3  499   3.326   4.233  15.424 -0.0872  0.8631 -0.0968
   32MPD2    C4  500   3.451   4.180  15.448 -1.0537  0.4674 -0.7502
   32MPD2    C5  501   3.563   4.212  15.372  0.6003  0.6295  0.5831
   32MPD2     H  502   3.214   4.346  15.280  1.4378  2.3191  0.1346
   32MPD2    H1  503   3.466   4.134  15.545  1.5451  0.8100 -0.9730
   32MPD2    H2  504   3.631   4.327  15.205  0.2523  1.5565  2.2147
   32MPD2    H3  505   3.657   4.181  15.414  0.5207 -1.3882 -0.7026
   32MPD2     N  506   3.227   4.206  15.519 -0.0063  0.1695  0.5165
   32MPD2    H5  507   3.259   4.140  15.589  1.4222  0.0551 -0.2332
   32MPD2    N1  508   3.393   4.397  15.094 -0.3201 -0.0481 -0.1730
   32MPD2    H7  509   3.299   4.408  15.057 -0.5227  1.3893  0.8095
   33TMC2    C1  510   3.756   2.952  10.325 -0.5582  0.2111 -0.2321
   33TMC2    C2  511   3.645   3.028  10.373  0.1274  0.3308 -0.1740
   33TMC2    C3  512   3.613   3.151  10.306  0.1237 -0.3458  0.4124
   33TMC2    C4  513   3.817   2.986  10.208  0.2247 -0.0217  0.4235
   33TMC2    C5  514   3.774   3.098  10.140 -0.6503 -0.3499 -0.2210
   33TMC2    C6  515   3.681   3.182  10.194  0.2620 -0.2713 -0.2265
   33TMC2     C  516   3.785   2.827  10.388 -0.2322  0.4789  0.8312
   33TMC2     O  517   3.700   2.785  10.467  0.1641 -0.4545  0.2662
   33TMC2     H  518   3.588   2.989  10.456  0.8288  1.5213  0.8725
   33TMC2    H1  519   3.899   2.926  10.171 -1.4460 -0.9323 -1.7670
   33TMC2    H2  520   3.666   3.275  10.141 -0.7393 -0.2363  0.1125
   33TMC2    C7  521   3.876   3.163  10.053 -0.4905 -0.6095 -0.2361
   33TMC2    C8  522   3.507   3.235  10.357  0.1448  0.3377 -0.2942
   33TMC2    O1  523   3.989   3.141  10.081 -0.1634 -0.1537 -0.2052
   33TMC2    O2  524   3.460   3.317  10.281 -0.0291  0.2068 -0.1547
   33TMC2    O5  525   3.542   3.263  10.482  0.0122 -0.7989 -0.0604
   33TMC2    H5  526   3.563   3.184  10.537  1.2345  0.1162  0.7743
   34MPD2     C  527   4.137   2.529  10.629  0.0154 -0.0031 -0.3178
   34MPD2    C1  528   4.000   2.518  10.633 -0.9287 -0.3731 -0.2277
   34MPD2    C2  529   3.925   2.597  10.545 -0.2177 -0.1986 -0.0193
   34MPD2    C3  530   3.988   2.701  10.474 -0.7240  0.9368 -0.1187
   34MPD2    C4  531   4.127   2.706  10.473  0.4852  0.0269  0.0393
   34MPD2    C5  532   4.198   2.624  10.551 -0.2429 -0.0078  0.5583
   34MPD2     H  533   3.817   2.584  10.540  0.2202 -3.4842 -0.7548
   34MPD2    H1  534   4.184   2.779  10.416  1.1863 -0.8797 -0.4187
   34MPD2    H2  535   4.205   2.469  10.688  1.1319  0.2269 -1.3707
   34MPD2    H3  536   4.306   2.627  10.546 -0.1215 -0.2796  2.7965
   34MPD2     N  537   3.918   2.799  10.391  0.2019 -0.4079 -0.0919
   34MPD2    H5  538   3.981   2.855  10.336  0.9934 -2.0432 -0.8636
   34MPD2    N1  539   3.956   2.423  10.725 -0.0875 -0.6411 -0.8386
   34MPD2    H7  540   4.026   2.356  10.753  2.4653  1.6822 -1.5863
   35TMC2    C1  541   0.289   3.649  11.248 -0.2766 -0.6265  0.9711
   35TMC2    C2  542   0.257   3.784  11.265 -0.6615  0.0247 -0.2557
   35TMC2    C3  543   0.221   3.830  11.386  0.1592  0.3220 -0.9024
   35TMC2    C4  544   0.263   3.557  11.357  0.2015 -0.4469 -0.1284
   35TMC2    C5  545   0.216   3.614  11.475 -0.1033 -0.0411  0.2583
   35TMC2    C6  546   0.202   3.747  11.497  0.7129 -0.0971 -0.1518
   35TMC2     C  547   0.380   3.618  11.131  1.0957 -0.9920 -0.2897
   35TMC2     O  548   0.387   3.703  11.043  0.0783 -0.3830 -0.8289
   35TMC2     H  549   0.283   3.858  11.190 -0.4034  0.8214  0.6198
   35TMC2    H1  550   0.281   3.450  11.353 -0.9728 -0.6351 -0.0805
   35TMC2    H2  551   0.153   3.783  11.587  0.8206 -1.4651  0.4582
   35TMC2    C7  552   0.172   3.514  11.577  0.3492  0.2155 -0.3710
   35TMC2    C8  553   0.220   3.979  11.399 -0.3059  0.2108  0.0649
   35TMC2    O1  554   0.233   3.406  11.579 -0.0509  0.2734  0.4575
   35TMC2    O2  555   0.233   4.049  11.305  0.3228  0.1772  0.1799
   35TMC2    O5  556   0.266   4.015  11.522  0.2327  0.3047  0.1032
   35TMC2    H5  557   0.266   3.944  11.590  0.2855  1.2592  1.0932
   36MPD2     C  558   0.847   3.469  10.995  0.8714 -0.2368  0.5190
   36MPD2    C1  559   0.816   3.390  11.101 -0.2808  0.4373 -0.9277
   36MPD2    C2  560   0.683   3.399  11.150  0.3046 -0.4806 -0.6152
   36MPD2    C3  561   0.591   3.484  11.090 -0.1098 -0.0899 -0.0472
   36MPD2    C4  562   0.630   3.550  10.972  0.3649  0.4471  0.4112
   36MPD2    C5  563   0.758   3.548  10.931  0.2888  0.1286  0.2558
   36MPD2     H  564   0.661   3.357  11.247 -0.6056  0.8353 -0.2601
   36MPD2    H1  565   0.573   3.626  10.920  1.1936  0.9807  0.2770
   36MPD2    H2  566   0.950   3.469  10.962  0.1701 -0.0252 -1.7318
   36MPD2    H3  567   0.783   3.613  10.849 -1.0707  0.1019 -0.1667
   36MPD2     N  568   0.470   3.514  11.164 -0.3918 -0.0398  0.4461
   36MPD2    H5  569   0.465   3.475  11.257 -0.8516  1.5316  1.0890
   36MPD2    N1  570   0.921   3.314  11.171  0.0287 -0.1116 -0.1082
   36MPD2    H7  571   1.018   3.321  11.141 -0.1836  0.9794 -0.5589
   37TMC2    C1  572   2.962   3.951  11.756 -0.2037 -0.7374 -0.1044
   37TMC2    C2  573   2.913   4.011  11.647 -0.4159  0.5026  0.4201
   37TMC2    C3  574   3.003   4.042  11.546 -0.1145 -0.7729  0.9396
   37TMC2    C4  575   3.097   3.920  11.769 -0.9157 -0.1724 -0.0990
   37TMC2    C5  576   3.181   3.946  11.659 -0.0457  0.5324  0.2366
   37TMC2    C6  577   3.137   4.019  11.545  0.7948 -0.2102  0.1683
   37TMC2     C  578   2.861   3.878  11.830 -0.0711  0.0171 -0.0547
   37TMC2     O  579   2.753   3.858  11.778 -0.0985 -0.2024 -0.4222
   37TMC2     H  580   2.810   4.044  11.643 -0.0196  1.6436 -0.1771
   37TMC2    H1  581   3.146   3.882  11.858  0.6903 -2.6121 -2.0321
   37TMC2    H2  582   3.190   4.027  11.451 -1.2028 -2.5639 -1.1511
   37TMC2    C7  583   3.319   3.903  11.678 -0.4868  0.2270 -0.2731
   37TMC2    C8  584   2.959   4.137  11.444  0.0381 -0.1923  0.3065
   37TMC2    O1  585   3.347   3.814  11.754  0.1031 -0.6484  0.2868
   37TMC2    O2  586   3.022   4.239  11.415  0.0678 -0.0741  0.4180
   37TMC2    O5  587   2.837   4.092  11.393  0.0151 -0.3904  0.4237
   37TMC2    H5  588   2.821   4.004  11.433  2.0747 -0.6678  0.5985
   38MPD2     C  589   2.787   3.533  12.216  0.4064  0.3283  0.2266
   38MPD2    C1  590   2.916   3.582  12.219  0.3955  0.4827 -0.4167
   38MPD2    C2  591   2.955   3.666  12.121  0.1762 -0.3315  0.1146
   38MPD2    C3  592   2.866   3.715  12.027 -0.4152  0.5232 -0.8251
   38MPD2    C4  593   2.732   3.680  12.031  0.4022  0.1129  0.3904
   38MPD2    C5  594   2.693   3.584  12.129 -0.1452  0.1161 -0.0779
   38MPD2     H  595   3.056   3.705  12.121 -0.3264  0.9604  0.2330
   38MPD2    H1  596   2.661   3.726  11.963  1.8302  0.0304 -1.1506
   38MPD2    H2  597   2.760   3.447  12.276  0.0786 -1.6893 -2.8543
   38MPD2    H3  598   2.595   3.540  12.119 -0.3330  0.4581  0.2493
   38MPD2     N  599   2.924   3.815  11.939  0.4478 -0.1763  0.1051
   38MPD2    H5  600   3.017   3.845  11.967  0.3345  1.1245 -0.9167
   38MPD2    N1  601   3.014   3.546  12.313  0.1386  0.2506 -0.2334
   38MPD2    H7  602   3.111   3.576  12.302  0.1908  0.0240 -0.3849
   39TMC2    C1  603   0.914   1.100   1.367 -0.5210 -0.1537  0.4770
   39TMC2    C2  604   0.938   0.978   1.307  0.7500 -0.0139  0.3327
   39TMC2    C3  605   1.053   0.915   1.328 -0.1572 -0.2318 -0.7559
   39TMC2    C4  606   1.016   1.161   1.434 -0.4366  0.0951  0.1983
   39TMC2    C5  607   1.126   1.086   1.456 -0.4006 -0.1259  0.1888
   39TMC2    C6  608   1.149   0.964   1.409  0.5060 -0.2600 -0.0052
   39TMC2     C  609   0.783   1.157   1.354  0.1410  0.7913 -1.0559
   39TMC2     O  610   0.705   1.121   1.268 -0.1463 -1.0559 -0.1287
   39TMC2     H  611   0.860   0.930   1.249 -0.1946  2.0783 -0.1594
   39TMC2    H1  612   1.012   1.268   1.451 -2.5812  0.2323 -1.2632
   39TMC2    H2  613   1.249   0.923   1.414  0.0971 -1.1614  1.0078
   39TMC2    C7  614   1.235   1.144   1.532 -0.2594  0.3503 -0.8625
   39TMC2    C8  615   1.070   0.785   1.264  0.0196 -0.1360 -0.2507
   39TMC2    O1  616   1.351   1.100   1.518  0.2953  0.3029 -0.1291
   39TMC2    O2  617   1.014   0.749   1.163  0.0973  0.2966 -0.6951
   39TMC2    O5  618   1.123   0.698   1.350  0.0482  0.4888 -0.5680
   39TMC2    H5  619   1.121   0.728   1.443 -2.7249 -0.2439 -0.3925
   40MPD2     C  620   0.638   1.379   1.604 -0.1236  0.4083  0.7804
   40MPD2    C1  621   0.634   1.297   1.491  0.3970 -0.2917 -0.2589
   40MPD2    C2  622   0.513   1.283   1.421  0.0262  0.1970  0.5320
   40MPD2    C3  623   0.402   1.364   1.460  0.5513  0.2083 -0.0110
   40MPD2    C4  624   0.419   1.441   1.575  0.0309 -0.3510 -0.4270
   40MPD2    C5  625   0.527   1.443   1.646 -0.4602  0.3925 -0.2334
   40MPD2     H  626   0.503   1.238   1.323  1.8220  1.7102 -0.3603
   40MPD2    H1  627   0.343   1.499   1.624 -1.0891 -1.1539 -1.2221
   40MPD2    H2  628   0.732   1.398   1.653  0.2702 -1.5971  0.8350
   40MPD2    H3  629   0.528   1.500   1.738 -1.0622 -1.5916  1.0039
   40MPD2     N  630   0.281   1.378   1.394  0.0525  0.0523 -0.8195
   40MPD2    H5  631   0.230   1.460   1.426  3.0898  2.5361 -2.2655
   40MPD2    N1  632   0.754   1.239   1.458 -0.1580  0.0502  0.0893
   40MPD2    H7  633   0.820   1.245   1.534 -0.6833  0.1280  0.5364
   41TMC2    C1  634   4.285   3.394  13.963 -0.0724 -1.0151  0.3503
   41TMC2    C2  635   4.215   3.469  13.874  0.2943 -0.1737 -0.1190
   41TMC2    C3  636   4.280   3.495  13.757 -0.1242  0.3655 -0.4657
   41TMC2    C4  637   4.410   3.363  13.951  0.3265 -0.6408  0.4574
   41TMC2    C5  638   4.478   3.400  13.840  0.2660 -0.1629 -0.3168
   41TMC2    C6  639   4.413   3.463  13.739  0.9070 -0.5962 -0.0278
   41TMC2     C  640   4.221   3.334  14.077  0.1767  0.2363 -0.0931
   41TMC2     O  641   4.267   3.235  14.130  0.1949 -0.1921 -1.0235
   41TMC2     H  642   4.113   3.496  13.898 -0.0938  0.5169 -2.6278
   41TMC2    H1  643   4.457   3.305  14.030 -1.2497 -2.1259  0.2985
   41TMC2    H2  644   4.461   3.479  13.644  0.7090  0.9969  0.1393
   41TMC2    C7  645   4.610   3.343  13.817 -0.5558 -0.3014  0.9449
   41TMC2    C8  646   4.218   3.567  13.653 -0.1144  0.2937 -0.0366
   41TMC2    O1  647   4.661   3.300  13.916  0.2881  0.2178 -0.4389
   41TMC2    O2  648   4.276   3.620  13.558  0.6132  0.3705  0.2059
   41TMC2    O5  649   4.095   3.504  13.634 -0.2352  0.2685 -0.0452
   41TMC2    H5  650   4.054   3.471  13.718  0.6062  1.9648  1.0257
   42MPD2     C  651   3.994   3.250  14.220  0.3426  0.2693 -0.9645
   42MPD2    C1  652   4.021   3.382  14.200 -0.0511  0.0565  0.3940
   42MPD2    C2  653   3.931   3.480  14.243  0.8301 -0.2560 -0.0354
   42MPD2    C3  654   3.817   3.443  14.312 -0.3179 -0.1061  0.5491
   42MPD2    C4  655   3.788   3.310  14.333 -0.0629  0.0552  0.0490
   42MPD2    C5  656   3.879   3.215  14.286 -0.0344 -0.2472 -0.3097
   42MPD2     H  657   3.944   3.585  14.221  0.6709 -0.1727  0.2621
   42MPD2    H1  658   3.708   3.279  14.400 -1.3111  0.9775 -1.0323
   42MPD2    H2  659   4.066   3.175  14.190 -1.9880 -1.9259 -1.1022
   42MPD2    H3  660   3.862   3.114  14.322 -0.4504  0.6785  2.0772
   42MPD2     N  661   3.715   3.530  14.354  0.9262 -0.6390 -0.4530
   42MPD2    H5  662   3.633   3.491  14.400 -0.3268  1.5226 -0.8603
   42MPD2    N1  663   4.129   3.423  14.120 -0.3790 -0.1799  0.3433
   42MPD2    H7  664   4.136   3.523  14.109 -0.4166 -0.1188  0.8849
   43TMC2    C1  665   1.036   1.728   0.372 -0.7794  0.1733 -0.5111
   43TMC2    C2  666   0.908   1.744   0.414  0.2164 -0.0000 -0.3845
   43TMC2    C3  667   0.886   1.789   0.542  0.2689  0.2593  0.1595
   43TMC2    C4  668   1.139   1.741   0.456 -0.0269 -0.4179 -0.4962
   43TMC2    C5  669   1.113   1.790   0.579  0.7951  0.3343  0.3633
   43TMC2    C6  670   0.988   1.813   0.627 -0.5899 -0.1668 -0.8168
   43TMC2     C  671   1.059   1.694   0.232  0.0388  0.5832 -0.0641
   43TMC2     O  672   1.155   1.749   0.178  0.3310 -0.2316  0.2294
   43TMC2     H  673   0.820   1.736   0.351  0.3673 -0.7911 -0.4911
   43TMC2    H1  674   1.240   1.742   0.417  0.0302 -2.1064 -0.4056
   43TMC2    H2  675   0.961   1.839   0.729  0.0878  1.0645 -0.9471
   43TMC2    C7  676   1.226   1.835   0.654  0.5934 -0.5471  0.6986
   43TMC2    C8  677   0.757   1.814   0.597  0.2398 -1.1562  0.4917
   43TMC2    O1  678   1.339   1.799   0.619  0.4731  0.1651  0.2185
   43TMC2    O2  679   0.736   1.881   0.697 -0.3996  0.0599 -0.2176
   43TMC2    O5  680   0.674   1.714   0.558  0.6993 -0.5631 -0.2342
   43TMC2    H5  681   0.716   1.657   0.490  0.2441 -1.6409  0.3869
   44MPD2     C  682   1.054   1.355  17.614  0.7309  0.2628 -0.8997
   44MPD2    C1  683   1.154   1.426  17.675 -0.5465  0.0733  0.6260
   44MPD2    C2  684   1.130   1.503   0.029  1.1428 -0.6104 -0.4829
   44MPD2    C3  685   1.005   1.524   0.070  0.7139 -0.0247  0.0955
   44MPD2    C4  686   0.902   1.454   0.010  0.1073  0.0680  0.0322
   44MPD2    C5  687   0.929   1.382  17.652  0.0257 -0.6880  0.3506
   44MPD2     H  688   1.215   1.547   0.081 -0.3236 -0.7480  2.0130
   44MPD2    H1  689   0.797   1.461   0.037 -0.6269 -2.2616 -2.1746
   44MPD2    H2  690   1.070   1.293  17.526 -0.5702 -2.9040  1.0811
   44MPD2    H3  691   0.842   1.332  17.609 -0.7038 -0.6785  1.8149
   44MPD2     N  692   0.974   1.594   0.185  0.1675  0.9045 -0.2325
   44MPD2    H5  693   0.889   1.568   0.235  0.4762 -1.6028 -1.0240
   44MPD2    N1  694   1.286   1.409  17.638 -0.1602  0.4397  0.3655
   44MPD2    H7  695   1.358   1.427  17.707 -1.0629 -0.2720  1.4862
   45TMC2    C1  696   2.097   3.782   9.911  0.1618 -0.2833  0.2810
   45TMC2    C2  697   2.175   3.675   9.915  0.2364  0.9411 -0.4914
   45TMC2    C3  698   2.294   3.682   9.983  0.6154 -0.2354  0.2732
   45TMC2    C4  699   2.118   3.893   9.993 -0.0027 -0.2003  0.1728
   45TMC2    C5  700   2.239   3.904  10.043 -0.0790  0.4532 -0.1217
   45TMC2    C6  701   2.327   3.800  10.040 -0.2210 -0.2647 -0.5803
   45TMC2     C  702   1.962   3.777   9.863  0.3697 -0.4190  0.1207
   45TMC2     O  703   1.873   3.817   9.938  0.3509 -0.2063  0.6281
   45TMC2     H  704   2.155   3.583   9.861  0.8315 -0.2619  1.3366
   45TMC2    H1  705   2.049   3.976   9.985 -0.1949 -0.5730 -2.0254
   45TMC2    H2  706   2.414   3.804  10.105  1.4387 -0.9879 -2.7776
   45TMC2    C7  707   2.276   4.021  10.110  0.1771  0.0409 -0.8018
   45TMC2    C8  708   2.370   3.565  10.015 -0.0445 -0.5570  0.1101
   45TMC2    O1  709   2.185   4.093  10.152 -0.3203  0.2587  0.6965
   45TMC2    O2  710   2.397   3.522  10.126 -0.4665  0.3252  0.1992
   45TMC2    O5  711   2.401   3.511   9.894 -0.9092 -0.0567  0.2550
   45TMC2    H5  712   2.370   3.577   9.829 -1.9732 -1.5750 -0.7929
   46MPD2     C  713   1.784   3.585   9.605  0.0727 -0.0244 -0.1880
   46MPD2    C1  714   1.818   3.692   9.686  0.2404 -0.3567 -0.1642
   46MPD2    C2  715   1.721   3.791   9.705  0.5965 -0.2860  0.8398
   46MPD2    C3  716   1.591   3.760   9.670 -0.1576 -0.6230 -0.0740
   46MPD2    C4  717   1.556   3.648   9.597 -0.3674  0.0244 -0.0394
   46MPD2    C5  718   1.656   3.570   9.556  0.4419  0.1134  0.1925
   46MPD2     H  719   1.737   3.884   9.758  0.7707 -0.5670  1.2875
   46MPD2    H1  720   1.456   3.630   9.561  0.7514  0.7295 -3.5041
   46MPD2    H2  721   1.853   3.507   9.576 -0.9003 -0.9369 -0.0640
   46MPD2    H3  722   1.630   3.481   9.499 -1.1765  0.5948  0.1663
   46MPD2     N  723   1.497   3.862   9.709 -0.0457 -0.1074  0.1704
   46MPD2    H5  724   1.538   3.942   9.755  1.4292 -0.5411 -0.4006
   46MPD2    N1  725   1.945   3.705   9.748 -0.0609 -0.5334 -0.8927
   46MPD2    H7  726   2.019   3.647   9.709  0.5887 -1.2481  1.4394
   47TMC2    C1  727   4.736   0.659   9.068  0.4542 -0.1184 -0.6522
   47TMC2    C2  728   0.071   0.629   8.951 -0.1247  0.0670  1.1660
   47TMC2    C3  729   0.033   0.691   8.836  0.5890  0.1532  0.0078
   47TMC2    C4  730   4.640   0.752   9.069  0.4138 -0.1127  0.5273
   47TMC2    C5  731   4.609   0.814   8.953  0.0327 -0.7549 -0.0009
   47TMC2    C6  732   4.668   0.784   8.831  0.7672 -0.1716  0.5943
   47TMC2     C  733   0.055   0.619   9.193 -0.2787 -0.6866 -0.3703
   47TMC2     O  734   0.052   0.696   9.285  0.1956  0.1212 -0.6172
   47TMC2     H  735   0.167   0.584   8.974  0.0498  0.9804  2.2202
   47TMC2    H1  736   4.594   0.799   9.155 -0.3003 -0.8251  0.5339
   47TMC2    H2  737   4.637   0.827   8.737 -1.8366 -3.2900  0.0495
   47TMC2    C7  738   4.485   0.892   8.973 -0.1785 -0.3731  0.4396
   47TMC2    C8  739   0.087   0.648   8.711  0.1061 -0.5968  0.5175
   47TMC2    O1  740   4.404   0.850   9.059  0.4511 -0.0595  0.0907
   47TMC2    O2  741   0.091   0.719   8.611  0.4128 -0.1520  0.1426
   47TMC2    O5  742   0.172   0.545   8.739  0.6877  0.2007  0.2114
   47TMC2    H5  743   0.150   0.506   8.826  0.1471 -0.0818 -0.0497
   48MPD2     C  744   0.230   0.519   9.391  0.6335 -0.0761 -0.6568
   48MPD2    C1  745   0.183   0.436   9.292  0.3278  0.5052 -0.1906
   48MPD2    C2  746   0.221   0.297   9.296 -0.5153 -0.0186  0.0564
   48MPD2    C3  747   0.282   0.237   9.404  0.6724 -0.4910 -0.3179
   48MPD2    C4  748   0.295   0.323   9.511  0.3383  0.7912  0.2498
   48MPD2    C5  749   0.290   0.461   9.499  0.2003 -0.1036 -0.7674
   48MPD2     H  750   0.183   0.232   9.218  1.5092  0.1164 -1.0201
   48MPD2    H1  751   0.337   0.297   9.608 -3.0180 -2.8701  0.7229
   48MPD2    H2  752   0.223   0.627   9.391  2.2698  0.0272  1.1151
   48MPD2    H3  753   0.322   0.526   9.580 -1.0599  1.0726 -1.2182
   48MPD2     N  754   0.306   0.103   9.409  0.1690 -0.0422  0.3389
   48MPD2    H5  755   0.293   0.045   9.326  2.1682  0.4125 -0.2947
   48MPD2    N1  756   0.106   0.494   9.187 -0.3848  0.2475  0.2519
   48MPD2    H7  757   0.088   0.437   9.104 -3.0102  2.1539 -0.4922
   49TMC2    C1  758   2.275   1.903  10.341 -0.6370  0.4902 -0.4558
   49TMC2    C2  759   2.315   1.991  10.243 -0.0598 -0.3662  0.8405
   49TMC2    C3  760   2.249   1.975  10.123 -0.1381  0.0274  0.5659
   49TMC2    C4  761   2.182   1.805  10.321 -0.2145  0.6973  0.3514
   49TMC2    C5  762   2.140   1.781  10.195 -0.7357  0.5859  0.3221
   49TMC2    C6  763   2.150   1.881  10.101 -0.4967  0.8057  0.2262
   49TMC2     C  764   2.363   1.907  10.457  0.3827 -0.0617 -0.0226
   49TMC2     O  765   2.406   2.018  10.489 -0.6141 -0.3172 -0.3090
   49TMC2     H  766   2.371   2.082  10.256  0.1211 -0.5865  1.6284
   49TMC2    H1  767   2.144   1.742  10.401  0.6081 -0.4181 -0.1447
   49TMC2    H2  768   2.111   1.867  10.001  1.0798 -0.4246 -0.2049
   49TMC2    C7  769   2.064   1.656  10.186  0.5050  0.8166  0.2977
   49TMC2    C8  770   2.274   2.091  10.030 -0.2459 -0.1934  0.1116
   49TMC2    O1  771   2.093   1.566  10.267 -0.0548  0.2833  0.0011
   49TMC2    O2  772   2.193   2.125   9.945  0.4871 -0.5767  0.4169
   49TMC2    O5  773   2.409   2.092  10.015  0.1691 -0.3730 -0.2098
   49TMC2    H5  774   2.460   2.036  10.078  0.3935  0.4476  0.3284
   50MPD2     C  775   2.449   1.886  10.741 -0.1705 -0.8460 -0.3242
   50MPD2    C1  776   2.411   1.781  10.658 -0.7554  0.8634  0.1588
   50MPD2    C2  777   2.390   1.654  10.718 -0.2774 -0.2410  0.9968
   50MPD2    C3  778   2.412   1.641  10.857  0.3795  0.3406 -0.2766
   50MPD2    C4  779   2.444   1.748  10.934 -0.1760  0.5251  0.9380
   50MPD2    C5  780   2.474   1.870  10.876 -0.0942 -0.1479  0.3073
   50MPD2     H  781   2.358   1.572  10.655 -0.8961  0.0661  0.9031
   50MPD2    H1  782   2.449   1.738  11.042 -0.0515 -0.5460  0.8368
   50MPD2    H2  783   2.462   1.991  10.717 -1.5419 -0.1871  1.7601
   50MPD2    H3  784   2.521   1.948  10.935  1.9374 -0.4511 -0.9118
   50MPD2     N  785   2.383   1.523  10.927  0.0540 -0.1642 -0.0413
   50MPD2    H5  786   2.387   1.529  11.028  1.8409  0.0448 -0.1262
   50MPD2    N1  787   2.371   1.791  10.525 -0.1003 -0.1007 -0.2474
   50MPD2    H7  788   2.346   1.703  10.483 -0.9298  0.0110  0.0088
   51TMC2    C1  789   1.799   1.166   1.459 -0.0531  0.4711 -0.0445
   51TMC2    C2  790   1.712   1.270   1.467  0.1503  0.7328 -0.9136
   51TMC2    C3  791   1.761   1.402   1.483  0.1121 -0.0793  0.2642
   51TMC2    C4  792   1.936   1.196   1.461 -0.2782 -0.1280 -0.1926
   51TMC2    C5  793   1.974   1.327   1.479  0.3009 -0.2571  0.3388
   51TMC2    C6  794   1.894   1.435   1.493  0.1073 -0.3568  0.1608
   51TMC2     C  795   1.759   1.034   1.455  0.3907 -1.0424  0.3749
   51TMC2     O  796   1.847   0.949   1.479 -0.0155 -0.2795  0.0425
   51TMC2     H  797   1.612   1.250   1.504  0.7782  1.4105  1.1382
   51TMC2    H1  798   2.013   1.120   1.474  3.2462  3.5174  0.3472
   51TMC2    H2  799   1.926   1.538   1.494 -3.7325  0.8239 -0.0372
   51TMC2    C7  800   2.120   1.348   1.481 -0.1607  0.1192 -0.3141
   51TMC2    C8  801   1.667   1.506   1.510 -0.0717 -0.4510  0.1348
   51TMC2    O1  802   2.193   1.255   1.448  0.0761 -0.1075  0.2197
   51TMC2    O2  803   1.547   1.500   1.485  0.3110 -0.2764  0.1471
   51TMC2    O5  804   1.707   1.557   1.627 -0.5250 -0.2233 -0.2490
   51TMC2    H5  805   1.792   1.519   1.660 -0.9796 -1.1011 -0.0926
   52MPD2     C  806   1.456   0.682   1.222  0.1008 -0.9810  0.9971
   52MPD2    C1  807   1.568   0.658   1.294  0.3191  0.2783  0.0374
   52MPD2    C2  808   1.628   0.768   1.351  0.4239  0.7692 -0.2492
   52MPD2    C3  809   1.577   0.898   1.331  0.0701 -0.2134 -0.0246
   52MPD2    C4  810   1.468   0.919   1.252 -0.4090 -0.0702 -0.6204
   52MPD2    C5  811   1.409   0.807   1.196  0.1927 -0.2377 -0.1461
   52MPD2     H  812   1.715   0.761   1.416  0.0619 -0.7039  0.0736
   52MPD2    H1  813   1.429   1.015   1.222  0.7777  1.3645  2.3397
   52MPD2    H2  814   1.417   0.605   1.155 -0.5057  0.1022  0.1091
   52MPD2    H3  815   1.332   0.827   1.122 -1.8520  0.0813  2.0999
   52MPD2     N  816   1.649   1.015   1.378  0.2224 -0.3477 -0.1181
   52MPD2    H5  817   1.605   1.101   1.348 -0.9616 -0.5593  0.9836
   52MPD2    N1  818   1.628   0.531   1.307  0.5795 -0.2499  0.0422
   52MPD2    H7  819   1.719   0.528   1.352  1.3020 -1.0008 -1.4713
   53TMC2    C1  820   3.920   3.921  12.077  0.1873  0.2390 -0.0300
   53TMC2    C2  821   4.042   3.945  12.129  0.2011  0.4397 -0.4632
   53TMC2    C3  822   4.059   3.895  12.253 -0.2907 -0.3570 -0.7228
   53TMC2    C4  823   3.821   3.845  12.136 -0.0596 -0.1431  0.5360
   53TMC2    C5  824   3.846   3.798  12.264 -0.5464 -0.4621  0.1222
   53TMC2    C6  825   3.964   3.827  12.327  0.5135  0.2111  0.4821
   53TMC2     C  826   3.896   3.992  11.958 -0.4308  0.4248 -0.5134
   53TMC2     O  827   3.961   4.093  11.935 -0.7917  0.2397 -0.2303
   53TMC2     H  828   4.120   4.001  12.078  0.5009  1.5494  1.2242
   53TMC2    H1  829   3.723   3.827  12.094  0.0277  0.3466  0.1281
   53TMC2    H2  830   3.987   3.806  12.431  1.2721  1.4601  0.5741
   53TMC2    C7  831   3.731   3.743  12.338 -0.1398  0.7803 -0.1509
   53TMC2    C8  832   4.192   3.896  12.311  0.0907 -0.7813  0.3846
   53TMC2    O1  833   3.624   3.746  12.276  0.0025 -0.0907  0.0678
   53TMC2    O2  834   4.209   3.886  12.428  0.0360  1.0568  0.1553
   53TMC2    O5  835   4.243   3.802  12.230 -0.0370 -0.0848 -0.2071
   53TMC2    H5  836   4.236   3.818  12.134 -0.1368  3.0663  0.3263
   54MPD2     C  837   3.799   4.091  11.691  0.6568 -0.1132  0.0474
   54MPD2    C1  838   3.735   3.999  11.773 -0.0755 -0.7916 -0.2404
   54MPD2    C2  839   3.608   3.957  11.735 -0.7726 -0.3993  0.3740
   54MPD2    C3  840   3.538   4.013  11.630  0.3531 -0.0622 -0.3936
   54MPD2    C4  841   3.609   4.103  11.552  0.5985 -0.3709  0.0355
   54MPD2    C5  842   3.735   4.144  11.583  0.6251 -0.1826  0.1321
   54MPD2     H  843   3.560   3.889  11.805 -0.9712 -1.5931 -0.9376
   54MPD2    H1  844   3.557   4.135  11.462  1.1841  1.4684  0.3577
   54MPD2    H2  845   3.900   4.125  11.712  0.4919 -0.1379  0.8585
   54MPD2    H3  846   3.783   4.215  11.517 -0.8213  1.0663  0.4246
   54MPD2     N  847   3.400   3.988  11.607 -0.9015  0.5907 -0.5097
   54MPD2    H5  848   3.358   4.047  11.536  0.1237  2.1301  0.1847
   54MPD2    N1  849   3.787   3.952  11.897 -0.0812 -0.5229  0.1615
   54MPD2    H7  850   3.735   3.877  11.943 -0.5989  0.1078  0.6044
   55TMC2    C1  851   3.708   2.120  17.576  0.2738 -0.5538  0.4895
   55TMC2    C2  852   3.790   2.197  17.500 -0.0546 -0.5101 -0.0002
   55TMC2    C3  853   3.914   2.148  17.467 -0.4258 -0.1642 -0.3801
   55TMC2    C4  854   3.754   2.005  17.642  0.6962  0.2514 -0.6627
   55TMC2    C5  855   3.877   1.959  17.606  0.8202 -0.2414 -0.2894
   55TMC2    C6  856   3.958   2.031  17.522  0.0933 -0.2740 -0.3305
   55TMC2     C  857   3.582   2.179  17.621 -0.3425  1.0755 -0.3132
   55TMC2     O  858   3.539   2.146  17.731 -0.0346 -0.1199 -0.1087
   55TMC2     H  859   3.752   2.288  17.455  1.3111 -0.5123 -1.1558
   55TMC2    H1  860   3.679   1.945  17.692 -0.1478  0.5770 -1.5385
   55TMC2    H2  861   4.059   1.999  17.499 -0.8923 -2.9102 -0.9375
   55TMC2    C7  862   3.930   1.865  17.701 -0.8352  0.0496  0.3837
   55TMC2    C8  863   4.008   2.225  17.381  0.3421 -0.7934  0.2839
   55TMC2    O1  864   4.053   1.870  17.698 -0.2750  0.3464  0.0381
   55TMC2    O2  865   4.101   2.180  17.318 -0.1457 -0.6337 -0.3601
   55TMC2    O5  866   3.983   2.357  17.399  0.6684  0.3247  0.6294
   55TMC2    H5  867   3.925   2.372  17.476 -0.2002  0.4030 -0.0469
   56MPD2     C  868   3.375   2.404  17.429 -0.6020 -0.6663 -0.0985
   56MPD2    C1  869   3.418   2.339  17.539  0.3541 -0.2848 -0.4506
   56MPD2    C2  870   3.355   2.371  17.660  0.7176  0.5128  0.0956
   56MPD2    C3  871   3.250   2.462  17.671  0.1312  0.2828  0.1849
   56MPD2    C4  872   3.202   2.519  17.549 -0.1869 -0.2200 -0.3714
   56MPD2    C5  873   3.273   2.499  17.432  0.1838  0.3182  0.1402
   56MPD2     H  874   3.381   2.313  17.748 -0.5301  1.0654  0.8344
   56MPD2    H1  875   3.112   2.579  17.546 -0.6119 -0.7544  1.4489
   56MPD2    H2  876   3.422   2.379  17.334  1.5019  0.7105  0.5743
   56MPD2    H3  877   3.239   2.553  17.345 -1.1876 -1.2681 -0.3138
   56MPD2     N  878   3.187   2.492   0.046  0.1007  0.0876  0.6273
   56MPD2    H5  879   3.191   2.417   0.114  2.3255 -0.9042 -0.5780
   56MPD2    N1  880   3.520   2.244  17.516  0.3726  0.0738 -0.2408
   56MPD2    H7  881   3.558   2.231  17.422  0.7721 -0.6885  0.0232
   57TMC2    C1  882   2.692   1.692  12.980 -0.2347  0.0243  0.3485
   57TMC2    C2  883   2.603   1.694  12.877  0.2239 -0.0154  0.0376
   57TMC2    C3  884   2.656   1.749  12.762 -0.7370 -1.0911 -0.1770
   57TMC2    C4  885   2.818   1.733  12.980  0.5831  0.1542 -0.1801
   57TMC2    C5  886   2.868   1.776  12.860 -0.5675  0.1234 -0.2314
   57TMC2    C6  887   2.784   1.796  12.755 -0.1966  0.0746  0.2202
   57TMC2     C  888   2.631   1.721  13.112  0.1471  0.3367  0.4891
   57TMC2     O  889   2.679   1.814  13.171  0.2160 -0.4827  0.5430
   57TMC2     H  890   2.512   1.635  12.886  0.9208 -1.0397  0.2950
   57TMC2    H1  891   2.878   1.716  13.069  0.3039  0.5600  0.0849
   57TMC2    H2  892   2.808   1.837  12.657  1.7013  0.9605  1.0500
   57TMC2    C7  893   2.984   1.859  12.865  0.2061  0.3405  0.2444
   57TMC2    C8  894   2.569   1.768  12.653 -0.2872 -0.4950 -0.3367
   57TMC2    O1  895   2.976   1.955  12.785  0.2693  0.2263  0.3476
   57TMC2    O2  896   2.615   1.788  12.538  0.0994 -0.0551  0.0708
   57TMC2    O5  897   2.446   1.812  12.691  0.3035  0.6877  0.8069
   57TMC2    H5  898   2.448   1.810  12.789 -0.0197 -3.3166  0.7445
   58MPD2     C  899   2.208   1.663  13.398 -0.0645 -0.3464 -0.5902
   58MPD2    C1  900   2.286   1.771  13.373 -0.2786 -0.3378  0.3870
   58MPD2    C2  901   2.404   1.754  13.301 -0.0091  0.2920 -0.2102
   58MPD2    C3  902   2.436   1.631  13.252  0.6667  0.7191  0.3393
   58MPD2    C4  903   2.358   1.520  13.280  0.1474 -0.0523  0.9245
   58MPD2    C5  904   2.244   1.539  13.354  0.5721 -1.0097  1.0647
   58MPD2     H  905   2.468   1.839  13.279  2.4363 -1.0000  1.8964
   58MPD2    H1  906   2.377   1.419  13.245 -0.1020  0.9230 -2.0330
   58MPD2    H2  907   2.113   1.665  13.451  0.0627  0.2308 -0.3729
   58MPD2    H3  908   2.184   1.451  13.368  0.0485 -0.3738  2.7797
   58MPD2     N  909   2.544   1.621  13.161  0.0160  0.5303 -0.1854
   58MPD2    H5  910   2.549   1.531  13.113 -1.1428  0.5326 -0.3141
   58MPD2    N1  911   2.260   1.902  13.422  0.0418  0.1049 -0.0181
   58MPD2    H7  912   2.323   1.977  13.393 -2.5808  2.2142 -0.2277
   59TMC2    C1  913   1.360   2.394  12.343  0.1354 -0.0883 -0.2617
   59TMC2    C2  914   1.287   2.488  12.412 -0.7898  0.2446  0.3493
   59TMC2    C3  915   1.204   2.567  12.338 -0.7889  0.6455 -0.5274
   59TMC2    C4  916   1.352   2.385  12.205  0.6170  0.2633  0.2669
   59TMC2    C5  917   1.264   2.461  12.138  0.3689  0.4594 -0.3489
   59TMC2    C6  918   1.181   2.553  12.202  0.7430  0.0885  0.7756
   59TMC2     C  919   1.459   2.321  12.418 -0.2783 -0.9402  0.4555
   59TMC2     O  920   1.533   2.249  12.347 -0.1367 -0.3156  0.3907
   59TMC2     H  921   1.308   2.519  12.514 -0.5345 -2.5887  1.1442
   59TMC2    H1  922   1.432   2.340  12.147  1.0028 -0.1020  1.0930
   59TMC2    H2  923   1.112   2.614  12.145  1.6189  0.1076 -0.2667
   59TMC2    C7  924   1.281   2.464  12.001  0.5647  0.1242  0.4416
   59TMC2    C8  925   1.151   2.687  12.397 -0.1132  0.1877 -0.1418
   59TMC2    O1  926   1.353   2.370  11.963  0.0068  0.0290  0.0630
   59TMC2    O2  927   1.111   2.680  12.515  0.3247 -0.0505  0.3801
   59TMC2    O5  928   1.236   2.781  12.360  0.2926 -0.2105  0.3097
   59TMC2    H5  929   1.291   2.751  12.285 -0.0709 -0.8684  0.2985
   60MPD2     C  930   1.673   2.231  12.620 -0.4284  0.4037 -0.4035
   60MPD2    C1  931   1.554   2.298  12.650 -0.5438 -0.6696 -0.0420
   60MPD2    C2  932   1.533   2.332  12.779  0.3141 -0.6295  0.3422
   60MPD2    C3  933   1.622   2.302  12.876  0.6016  0.5451 -0.1624
   60MPD2    C4  934   1.732   2.230  12.851  0.6685 -0.1393  0.4552
   60MPD2    C5  935   1.763   2.197  12.722  0.0814  0.3627 -0.3585
   60MPD2     H  936   1.438   2.373  12.812  1.3091  1.3580  0.7676
   60MPD2    H1  937   1.815   2.218  12.920 -0.0943 -2.4156  0.9737
   60MPD2    H2  938   1.692   2.200  12.518  2.1016 -2.0448  0.7944
   60MPD2    H3  939   1.858   2.147  12.703  1.4549  2.4487  1.0632
   60MPD2     N  940   1.623   2.345  13.011 -0.5640 -0.4633  0.7315
   60MPD2    H5  941   1.694   2.309  13.074  1.2397  1.2504 -0.3226
   60MPD2    N1  942   1.457   2.341  12.553  0.5191 -0.7698  0.1755
   60MPD2    H7  943   1.372   2.388  12.583 -0.1885 -1.7099 -0.3684
   61TMC2    C1  944   4.318   3.895  15.533 -0.2146  0.5190  0.0141
   61TMC2    C2  945   4.292   3.819  15.642  0.5557  0.0847  0.0282
   61TMC2    C3  946   4.239   3.878  15.753 -0.1697  0.8393 -0.2279
   61TMC2    C4  947   4.307   4.033  15.538  0.7137  0.0565 -0.0313
   61TMC2    C5  948   4.264   4.079  15.655 -0.1941 -0.4052 -0.6699
   61TMC2    C6  949   4.233   4.008  15.767 -0.1306  0.6357 -0.2018
   61TMC2     C  950   4.403   3.837  15.434 -0.4225 -0.2495  0.3185
   61TMC2     O  951   4.476   3.742  15.459  0.4906  0.4462  0.0018
   61TMC2     H  952   4.288   3.712  15.624 -0.6254  0.3279 -1.1570
   61TMC2    H1  953   4.340   4.091  15.453 -2.8065 -0.3078 -1.6169
   61TMC2    H2  954   4.180   4.061  15.846 -1.5166 -0.8858 -0.1105
   61TMC2    C7  955   4.275   4.223  15.670  0.3451 -0.1251  0.0285
   61TMC2    C8  956   4.201   3.791  15.862 -0.2038  0.1467  0.2721
   61TMC2    O1  957   4.281   4.272  15.560 -0.7275  0.2264  0.4868
   61TMC2    O2  958   4.163   3.677  15.848  0.3516  0.1244 -0.1891
   61TMC2    O5  959   4.235   3.846  15.984  0.3766 -0.3539  0.9386
   61TMC2    H5  960   4.268   3.934  15.956 -1.9541 -0.4146 -1.9244
   62MPD2     C  961   4.606   3.812  15.210 -0.0294  0.3314  0.5463
   62MPD2    C1  962   4.488   3.888  15.206 -0.1102 -0.0432 -0.4394
   62MPD2    C2  963   4.466   3.951  15.086  0.2250  0.0392 -0.3129
   62MPD2    C3  964   4.551   3.947  14.979 -0.2011  0.7324 -0.3795
   62MPD2    C4  965   4.655   3.868  14.982  0.7777 -0.0720  0.4015
   62MPD2    C5  966   4.687   3.797  15.095 -0.1551 -0.4907 -0.1853
   62MPD2     H  967   4.383   4.021  15.086  0.5805  0.4531 -0.6250
   62MPD2    H1  968   4.720   3.848  14.897  1.0260  0.4422  0.4703
   62MPD2    H2  969   4.633   3.769  15.306 -1.3906  1.3522  1.3848
   62MPD2    H3  970   0.031   3.726  15.090  0.3508  0.0053  0.9482
   62MPD2     N  971   4.542   4.034  14.873  0.2189 -0.1470 -0.3970
   62MPD2    H5  972   4.622   4.032  14.810 -0.0440 -1.0392 -0.6956
   62MPD2    N1  973   4.405   3.911  15.317  0.1573 -0.2535  0.5473
   62MPD2    H7  974   4.323   3.966  15.291  1.0220  1.4049  1.3074
   63TMC2    C1  975   0.351   4.421  10.727  0.4719  0.1262 -0.1015
   63TMC2    C2  976   0.461   4.479  10.783  0.0064  0.0604  0.3981
   63TMC2    C3  977   0.522   4.575  10.716  0.0154 -0.4555  0.4157
   63TMC2    C4  978   0.306   4.451  10.606  0.7589  0.4182  0.3607
   63TMC2    C5  979   0.378   4.542  10.535 -0.0209 -0.2319  0.8550
   63TMC2    C6  980   0.482   4.615  10.586  0.2865  0.3699 -0.3557
   63TMC2     C  981   0.291   4.323  10.810  0.0697  0.3505  0.4697
   63TMC2     O  982   0.300   4.337  10.933  0.1003 -0.3214  1.0445
   63TMC2     H  983   0.496   4.451  10.881  2.8262 -0.8948 -0.8894
   63TMC2    H1  984   0.215   4.407  10.567  2.1608 -1.2591 -1.0657
   63TMC2    H2  985   0.542   4.679  10.523  2.1604  0.0251  1.0625
   63TMC2    C7  986   0.329   4.577  10.400  0.7992  0.2711  0.1990
   63TMC2    C8  987   0.649   4.616  10.767  0.4073 -0.7752  0.6599
   63TMC2    O1  988   0.245   4.505  10.351 -0.2789 -0.6064  0.1457
   63TMC2    O2  989   0.666   4.611  10.889  0.1671 -0.3629  0.0965
   63TMC2    O5  990   0.734   4.575  10.673  0.8998 -0.0011 -0.1849
   63TMC2    H5  991   0.698   4.552  10.585  1.5770 -2.7246  0.2349
   64MPD2     C  992   4.679   3.941  10.899  0.2500  0.9066  0.7319
   64MPD2    C1  993   4.689   3.968  10.769 -0.5856 -0.1825  0.2207
   64MPD2    C2  994   0.038   4.067  10.723  0.0943  0.0981  0.5707
   64MPD2    C3  995   0.120   4.142  10.802  0.7501 -1.1525  0.1159
   64MPD2    C4  996   0.126   4.097  10.931 -0.2293 -0.3926 -0.1429
   64MPD2    C5  997   0.039   4.000  10.980  0.2152  0.8760 -0.1816
   64MPD2     H  998   0.049   4.088  10.617 -1.6502  0.6393  0.5015
   64MPD2    H1  999   0.202   4.123  11.004  0.7214 -0.0530 -1.2615
   64MPD2    H2 1000   4.615   3.866  10.943 -0.6237  2.4259  2.0459
   64MPD2    H3 1001   0.044   3.986  11.088 -1.6759 -0.0641 -0.2202
   64MPD2     N 1002   0.204   4.242  10.743  0.0196 -0.6467 -0.4321
   64MPD2    H5 1003   0.203   4.241  10.642  3.2000 -0.7813 -0.4640
   64MPD2    N1 1004   4.623   3.895  10.666  0.2198 -0.7655  0.7949
   64MPD2    H7 1005   4.641   3.926  10.571  1.0676 -2.5196  0.3727
   65TMC2    C1 1006   0.261   3.656  15.723 -0.1655 -0.4799 -1.4113
   65TMC2    C2 1007   0.224   3.593  15.610 -0.4470  0.6709  0.6065
   65TMC2    C3 1008   0.120   3.637  15.532  0.4300 -0.5468  0.1999
   65TMC2    C4 1009   0.199   3.776  15.752 -0.3713  0.4605 -0.2886
   65TMC2    C5 1010   0.111   3.830  15.657 -0.4544 -0.3203 -0.1857
   65TMC2    C6 1011   0.059   3.756  15.553 -0.3704 -0.1201 -0.1941
   65TMC2     C 1012   0.326   3.578  15.831  0.0588  0.4801  0.2044
   65TMC2     O 1013   0.284   3.598  15.944 -0.3296  0.1096 -0.0072
   65TMC2     H 1014   0.264   3.495  15.584 -0.1220  1.1580 -0.6888
   65TMC2    H1 1015   0.221   3.822  15.848  1.1434 -0.9149  0.0190
   65TMC2    H2 1016   4.710   3.787  15.496 -0.6593 -0.4286  0.0799
   65TMC2    C7 1017   0.053   3.962  15.669 -0.2174 -0.1441  0.2429
   65TMC2    C8 1018   0.072   3.561  15.421  0.2212 -0.2056  0.1318
   65TMC2    O1 1019   4.727   3.991  15.569 -0.4222 -0.5003 -0.2709
   65TMC2    O2 1020   0.146   3.512  15.335  0.4798  0.1211 -0.8041
   65TMC2    O5 1021   4.705   3.501  15.469 -0.3108  0.0068  0.2439
   65TMC2    H5 1022   4.683   3.544  15.554 -2.9232 -0.1309 -0.3611
   66MPD2     C 1023   0.440   3.334  15.978 -0.1665 -0.0406 -0.1496
   66MPD2    C1 1024   0.441   3.359  15.841 -0.2304  0.2340 -0.1399
   66MPD2    C2 1025   0.469   3.249  15.760 -0.1622  0.0923  0.4058
   66MPD2    C3 1026   0.492   3.126  15.804 -0.3189 -0.2044  0.4322
   66MPD2    C4 1027   0.496   3.105  15.942  0.5335 -0.0891 -0.5393
   66MPD2    C5 1028   0.485   3.213  16.029  0.4562  0.3233  0.8775
   66MPD2     H 1029   0.456   3.277  15.656  1.5003 -4.5651 -1.0652
   66MPD2    H1 1030   0.513   3.004  15.975  2.2742  0.0852 -0.8692
   66MPD2    H2 1031   0.420   3.409  16.053 -1.5338 -0.4587 -0.0959
   66MPD2    H3 1032   0.478   3.198  16.136  1.7988 -2.4866  0.5740
   66MPD2     N 1033   0.479   3.011  15.722  0.6940 -0.4407 -0.0538
   66MPD2    H5 1034   0.438   2.925  15.755  0.4441  0.8352  2.9486
   66MPD2    N1 1035   0.400   3.478  15.775  0.5407  0.1658 -0.1400
   66MPD2    H7 1036   0.405   3.483  15.673 -1.5032  0.5258 -0.2182
   67TMC2    C1 1037   0.902   3.040  14.326  0.3404 -0.2919  0.3761
   67TMC2    C2 1038   0.832   3.154  14.309  0.1502  0.0359  0.0647
   67TMC2    C3 1039   0.816   3.231  14.420 -0.1168  0.0504 -0.2476
   67TMC2    C4 1040   0.964   3.006  14.437  0.5345  0.0907  0.1124
   67TMC2    C5 1041   0.941   3.081  14.547 -0.3287  0.1995  0.7627
   67TMC2    C6 1042   0.875   3.199  14.539 -0.2230  0.5455  1.0244
   67TMC2     C 1043   0.935   2.957  14.211  0.0425 -0.1796  0.5494
   67TMC2     O 1044   1.043   2.899  14.211  0.0347 -0.0589 -0.0190
   67TMC2     H 1045   0.792   3.183  14.212  0.1986 -0.7895 -0.2043
   67TMC2    H1 1046   1.021   2.914  14.437 -0.7799 -0.7273 -0.3257
   67TMC2    H2 1047   0.869   3.259  14.628  1.2527  0.7120  1.0076
   67TMC2    C7 1048   1.031   3.071  14.658 -1.1976  0.6942  0.0007
   67TMC2    C8 1049   0.750   3.362  14.399  0.3041 -0.6341 -0.0030
   67TMC2    O1 1050   1.123   2.988  14.638  0.1807 -0.3830  0.5363
   67TMC2    O2 1051   0.784   3.467  14.460 -0.6269  0.4965 -0.2013
   67TMC2    O5 1052   0.624   3.326  14.373  0.2095  0.0956 -0.0505
   67TMC2    H5 1053   0.611   3.234  14.340  0.3001  1.3432 -3.5234
   68MPD2     C 1054   0.941   2.812  13.951 -0.0102  1.0144 -0.4093
   68MPD2    C1 1055   0.829   2.877  14.003  0.3324  0.2379  0.2294
   68MPD2    C2 1056   0.709   2.872  13.942 -0.2111 -0.6600  0.2793
   68MPD2    C3 1057   0.692   2.817  13.818  0.0395  0.2640  0.5237
   68MPD2    C4 1058   0.804   2.764  13.751 -0.8906  0.8194 -0.3670
   68MPD2    C5 1059   0.923   2.759  13.821  0.4801 -0.8467  0.1677
   68MPD2     H 1060   0.627   2.925  13.989  1.3798  1.0419  1.1484
   68MPD2    H1 1061   0.806   2.720  13.652  1.5109  0.5720 -0.2059
   68MPD2    H2 1062   1.040   2.809  13.993  0.0833  0.0383 -0.6988
   68MPD2    H3 1063   0.999   2.696  13.775  0.9747  0.9242 -1.4535
   68MPD2     N 1064   0.567   2.824  13.751  0.7645 -0.2658  0.2008
   68MPD2    H5 1065   0.566   2.818  13.649 -0.7450  1.9927  0.0761
   68MPD2    N1 1066   0.829   2.954  14.121  0.2371 -0.0457 -0.1338
   68MPD2    H7 1067   0.743   3.000  14.149  2.4681  3.5591  0.7874
   69TMC2    C1 1068   2.916   4.227  12.642  0.0542 -0.1563  0.7989
   69TMC2    C2 1069   2.798   4.250  12.570 -0.1317 -0.2464  0.0490
   69TMC2    C3 1070   2.800   4.249  12.439  0.5412 -0.4056 -0.1643
   69TMC2    C4 1071   3.031   4.211  12.563  0.1486  1.4065 -0.1913
   69TMC2    C5 1072   3.023   4.214  12.427 -0.0513 -0.1286 -0.1378
   69TMC2    C6 1073   2.905   4.248  12.356  0.2159  0.3614  0.7223
   69TMC2     C 1074   2.907   4.171  12.774  1.0260  0.5737  0.0978
   69TMC2     O 1075   2.805   4.124  12.816 -0.3169 -0.2849 -0.3322
   69TMC2     H 1076   2.709   4.258  12.632  0.4744 -1.6483  1.1013
   69TMC2    H1 1077   3.122   4.175  12.608 -1.7593 -0.2540  2.3253
   69TMC2    H2 1078   2.899   4.230  12.250 -0.6530 -1.7769  1.1247
   69TMC2    C7 1079   3.146   4.204  12.356 -0.3025  0.2925  0.3438
   69TMC2    C8 1080   2.676   4.289  12.377  0.1887 -0.3349  0.0106
   69TMC2    O1 1081   3.253   4.184  12.411  0.5030  0.3293  0.4021
   69TMC2    O2 1082   2.574   4.286  12.444  0.0311  0.6413  0.1410
   69TMC2    O5 1083   2.715   4.389  12.299  0.3981  0.0189  0.0405
   69TMC2    H5 1084   2.809   4.399  12.274  0.1517  1.0796 -0.4704
   70MPD2     C 1085   3.215   4.078  12.938 -0.0058 -0.0071 -0.1698
   70MPD2    C1 1086   3.079   4.079  12.929 -0.5548  0.0919  0.1070
   70MPD2    C2 1087   2.999   3.980  12.988  0.5232 -0.4745  0.3884
   70MPD2    C3 1088   3.061   3.876  13.056 -0.6546  0.2421  0.2941
   70MPD2    C4 1089   3.203   3.859  13.051  0.3730 -0.2833  0.1592
   70MPD2    C5 1090   3.273   3.962  12.996  0.0889 -0.6072 -0.3962
   70MPD2     H 1091   2.894   3.992  12.968  0.2269 -3.4984  0.1395
   70MPD2    H1 1092   3.254   3.773  13.095 -1.0005 -0.1551  2.0189
   70MPD2    H2 1093   3.277   4.156  12.895  2.0713 -3.4208 -3.3654
   70MPD2    H3 1094   3.381   3.960  12.992  0.0815 -2.7075  0.5662
   70MPD2     N 1095   2.988   3.767  13.115 -0.5219 -0.3012  0.3626
   70MPD2    H5 1096   3.038   3.682  13.138  1.9881  0.3484 -2.6334
   70MPD2    N1 1097   3.032   4.166  12.829  0.0785 -0.3494 -0.0865
   70MPD2    H7 1098   3.099   4.231  12.790 -1.4156  0.9988 -0.3959
   71TMC2    C1 1099   4.295   1.016   1.581 -0.6092 -0.2605  0.4036
   71TMC2    C2 1100   4.379   1.091   1.659  0.5222 -0.3508 -0.3098
   71TMC2    C3 1101   4.333   1.165   1.765 -0.1467  1.3153  0.1378
   71TMC2    C4 1102   4.161   1.011   1.612 -0.6527 -0.3530 -0.1455
   71TMC2    C5 1103   4.118   1.094   1.712  0.3480 -0.1086  0.7532
   71TMC2    C6 1104   4.201   1.175   1.785 -0.6144  0.3161 -0.5752
   71TMC2     C 1105   4.356   0.940   1.466  0.1515  0.3179  0.0524
   71TMC2     O 1106   4.477   0.941   1.461 -0.0733 -0.0865  0.1014
   71TMC2     H 1107   4.486   1.081   1.641  0.4062 -0.7423 -0.8071
   71TMC2    H1 1108   4.098   0.939   1.561  0.6747 -0.6714 -1.3405
   71TMC2    H2 1109   4.167   1.213   1.880  0.6094  0.9900 -0.4192
   71TMC2    C7 1110   3.993   1.057   1.774 -0.0320  0.0371 -0.5273
   71TMC2    C8 1111   4.420   1.239   1.845  0.0607  0.2096 -0.0678
   71TMC2    O1 1112   3.981   1.074   1.894 -0.4387 -0.6595 -0.4978
   71TMC2    O2 1113   4.542   1.226   1.840 -0.0557  0.5791 -0.3019
   71TMC2    O5 1114   4.361   1.360   1.855  0.4026 -0.5521 -0.0852
   71TMC2    H5 1115   4.263   1.356   1.853  0.3889 -0.8773  1.4810
   72MPD2     C 1116   4.263   0.670   1.035  0.7633 -0.6233  0.3169
   72MPD2    C1 1117   4.381   0.704   1.099 -0.5525  0.3191  0.8215
   72MPD2    C2 1118   4.384   0.785   1.212 -0.9334  0.3010 -0.4850
   72MPD2    C3 1119   4.263   0.814   1.275  0.9815  0.4689  0.3610
   72MPD2    C4 1120   4.149   0.759   1.232 -0.1466  0.5574 -0.2929
   72MPD2    C5 1121   4.153   0.685   1.111 -0.0965  0.0830  0.2010
   72MPD2     H 1122   4.479   0.824   1.245 -0.4760  0.1707 -1.6396
   72MPD2    H1 1123   4.053   0.784   1.276  0.4083  2.4295 -0.1377
   72MPD2    H2 1124   4.264   0.599   0.953 -0.0058  1.8020 -1.7893
   72MPD2    H3 1125   4.053   0.656   1.079  1.1234 -2.2956 -1.4200
   72MPD2     N 1126   4.259   0.895   1.382  0.5957 -0.1045  0.8845
   72MPD2    H5 1127   4.166   0.921   1.413  0.2153 -1.9884  1.3272
   72MPD2    N1 1128   4.502   0.665   1.042 -0.8356 -0.0071 -0.5034
   72MPD2    H7 1129   4.588   0.688   1.091  0.9862 -2.2938 -2.6165
   73TMC2    C1 1130   4.533   1.891  14.081 -0.1858 -0.0339  0.3000
   73TMC2    C2 1131   4.431   1.919  14.166 -0.5463 -1.3215 -0.0097
   73TMC2    C3 1132   4.456   1.912  14.299 -0.3603  0.4022  0.3195
   73TMC2    C4 1133   4.658   1.855  14.121 -0.2690 -0.5289  0.6479
   73TMC2    C5 1134   4.675   1.848  14.252 -0.3160 -0.2732 -0.5004
   73TMC2    C6 1135   4.574   1.862  14.343 -0.1556  0.3042 -1.0663
   73TMC2     C 1136   4.545   1.974  13.962  0.1869 -0.1770 -0.2956
   73TMC2     O 1137   4.661   2.019  13.954  0.2563 -0.8608 -0.0998
   73TMC2     H 1138   4.336   1.960  14.135  0.3734 -0.7312 -2.0663
   73TMC2    H1 1139   0.012   1.845  14.064 -1.8377 -1.4525 -1.7210
   73TMC2    H2 1140   4.588   1.860  14.450  2.6878  0.6594 -1.4215
   73TMC2    C7 1141   0.061   1.908  14.299  0.1870 -0.5968  0.6260
   73TMC2    C8 1142   4.349   1.950  14.395  0.4529 -0.2844 -0.0220
   73TMC2    O1 1143   0.107   1.883  14.410 -0.3291  0.5297 -0.4689
   73TMC2    O2 1144   4.363   1.915  14.513 -0.1384 -0.0120 -0.1801
   73TMC2    O5 1145   4.330   2.079  14.360 -0.1868  0.0012  0.3511
   73TMC2    H5 1146   4.317   2.103  14.265  0.1198  0.9380  0.5446
   74MPD2     C 1147   4.367   2.354  13.668  0.1978 -0.3433  0.6745
   74MPD2    C1 1148   4.476   2.344  13.748  0.6757 -0.0886  0.2836
   74MPD2    C2 1149   4.500   2.225  13.818  0.8685  0.4735 -0.2937
   74MPD2    C3 1150   4.407   2.127  13.824 -0.0786 -0.4729 -0.2470
   74MPD2    C4 1151   4.287   2.152  13.764 -0.2180  0.3567 -0.1983
   74MPD2    C5 1152   4.266   2.264  13.678 -0.1904  0.3857  0.2701
   74MPD2     H 1153   4.583   2.221  13.887  0.1700 -0.3027  0.5031
   74MPD2    H1 1154   4.203   2.089  13.790 -0.2238  0.4221 -0.0621
   74MPD2    H2 1155   4.350   2.436  13.600  3.6718 -1.9949 -2.1822
   74MPD2    H3 1156   4.176   2.285  13.622  0.1664  0.8476 -0.1408
   74MPD2     N 1157   4.422   2.008  13.901  0.7966 -0.0498  0.3874
   74MPD2    H5 1158   4.344   1.944  13.911 -0.3369  1.0862 -1.2528
   74MPD2    N1 1159   4.560   2.460  13.747  0.0735 -0.4140 -0.0502
   74MPD2    H7 1160   4.541   2.531  13.677 -0.3071 -0.9948 -0.5362
   75TMC2    C1 1161   0.339   2.900  13.699  0.1515  0.7129 -0.3750
   75TMC2    C2 1162   0.213   2.932  13.751  0.3413  0.7412  0.3610
   75TMC2    C3 1163   0.106   2.936  13.664  0.5409  0.4265 -0.3125
   75TMC2    C4 1164   0.359   2.875  13.564  0.2588  0.0271 -0.2014
   75TMC2    C5 1165   0.245   2.869  13.488  0.2669  0.8656  0.1295
   75TMC2    C6 1166   0.118   2.900  13.532  0.2996 -0.2291 -0.0028
   75TMC2     C 1167   0.445   2.868  13.798  0.1350 -0.5171 -0.9850
   75TMC2     O 1168   0.412   2.867  13.916  0.4616  0.2619 -0.2221
   75TMC2     H 1169   0.205   2.939  13.859 -0.8567  1.0933  0.2466
   75TMC2    H1 1170   0.460   2.871  13.524  0.7816 -0.6070  1.1601
   75TMC2    H2 1171   0.034   2.905  13.465 -1.0672  0.3958  1.7556
   75TMC2    C7 1172   0.259   2.842  13.349  0.4522 -0.3234 -0.4851
   75TMC2    C8 1173   4.715   2.955  13.724 -0.5456  0.5143 -1.2336
   75TMC2    O1 1174   0.160   2.854  13.278 -0.5539 -0.1904 -0.2046
   75TMC2    O2 1175   4.706   2.936  13.844  0.6004 -0.1741  0.2009
   75TMC2    O5 1176   4.621   2.907  13.640  0.2305  0.4248  0.5701
   75TMC2    H5 1177   4.636   2.940  13.549  1.2252  2.5555  1.5034
   76TMC2    C1 1178   4.653   3.741  12.050 -0.3168  0.0776  0.1366
   76TMC2    C2 1179   0.048   3.731  12.023 -0.2373 -0.6830  0.8595
   76TMC2    C3 1180   0.103   3.606  12.034  0.1153  0.5215  0.2094
   76TMC2    C4 1181   4.578   3.634  12.085  0.7617 -0.0107  0.7291
   76TMC2    C5 1182   4.641   3.512  12.104 -0.3227 -0.1927 -0.4150
   76TMC2    C6 1183   0.035   3.498  12.080 -0.4960 -0.3594 -0.2201
   76TMC2     C 1184   4.586   3.873  12.069 -0.1292 -0.3138  1.1526
   76TMC2     O 1185   4.518   3.907  11.977  0.5907  0.0604 -0.2581
   76TMC2     H 1186   0.102   3.816  11.983 -3.1743  0.3996 -0.7939
   76TMC2    H1 1187   4.475   3.647  12.117  0.2557 -1.6997 -0.1741
   76TMC2    H2 1188   0.081   3.401  12.067  1.8876  1.0404 -2.0437
   76TMC2    C7 1189   4.567   3.418  12.183  0.1515 -0.0128 -0.1704
   76TMC2    C8 1190   0.243   3.588  11.976 -0.3717  0.8596 -0.7252
   76TMC2    O1 1191   4.444   3.418  12.181  0.2134  0.1470  0.0500
   76TMC2    O2 1192   0.281   3.671  11.896 -0.0036  0.1620 -0.5713
   76TMC2    O5 1193   0.322   3.549  12.078 -0.0095  0.4587 -0.8553
   76TMC2    H5 1194   0.274   3.497  12.147  0.1457  1.9355  0.3702
   77MPD2     C 1195   4.355   4.206  12.395 -0.2652 -0.0638 -0.1102
   77MPD2    C1 1196   4.343   4.191  12.258  0.1455 -0.1148  0.1156
   77MPD2    C2 1197   4.428   4.094  12.196  0.3821  0.1736 -0.1551
   77MPD2    C3 1198   4.509   4.014  12.265 -0.8562  0.1468  0.1580
   77MPD2    C4 1199   4.521   4.034  12.399 -0.1597 -1.0682 -0.4132
   77MPD2    C5 1200   4.441   4.121  12.464 -0.1875  0.6250  0.6532
   77MPD2     H 1201   4.420   4.085  12.088 -0.5457 -0.2069 -0.0508
   77MPD2    H1 1202   4.588   3.977  12.463  2.6008  0.8220 -1.6344
   77MPD2    H2 1203   4.303   4.284  12.450  0.8990 -1.5901  3.1568
   77MPD2    H3 1204   4.462   4.148  12.566 -0.5865 -1.0799  1.1794
   77MPD2     N 1205   4.586   3.904  12.207 -0.5223 -0.1685 -0.3752
   77MPD2    H5 1206   4.649   3.851  12.265 -0.0072  2.0718  1.1040
   77MPD2    N1 1207   4.244   4.254  12.183 -0.8111 -0.1197  1.0961
   77MPD2    H7 1208   4.260   4.244  12.083  0.1220 -0.0426  1.2317
   78TMC2    C1 1209   4.170   0.347   1.371  0.3889  0.5777 -0.0845
   78TMC2    C2 1210   4.144   0.434   1.472 -0.2363  0.4337 -0.1131
   78TMC2    C3 1211   4.240   0.523   1.502  0.3468  0.3800  0.5638
   78TMC2    C4 1212   4.278   0.353   1.290 -0.1117  0.3201 -0.0900
   78TMC2    C5 1213   4.376   0.446   1.325 -0.1298  0.7093 -0.1835
   78TMC2    C6 1214   4.359   0.526   1.437  0.7057 -0.4773  0.1580
   78TMC2     C 1215   4.049   0.282   1.326  0.0119  0.5271 -0.3417
   78TMC2     O 1216   3.954   0.274   1.406  0.2932 -0.2135 -0.0095
   78TMC2     H 1217   4.055   0.425   1.534 -0.6808  1.6371 -0.5861
   78TMC2    H1 1218   4.307   0.284   1.212 -0.2153 -0.5336  0.6296
   78TMC2    H2 1219   4.425   0.608   1.461 -0.5257  0.6395 -0.2366
   78TMC2    C7 1220   4.508   0.428   1.266 -0.0472 -0.0051  0.0516
   78TMC2    C8 1221   4.226   0.625   1.605  0.3464 -0.2503  0.3808
   78TMC2    O1 1222   4.525   0.360   1.165  0.2328  0.0516  0.4004
   78TMC2    O2 1223   4.307   0.655   1.690 -0.2979 -0.1802  0.4629
   78TMC2    O5 1224   4.098   0.661   1.608 -0.1060 -0.3354 -0.3608
   78TMC2    H5 1225   4.037   0.636   1.535  2.4868 -1.0073 -2.2970
   79MPD1     C 1226   3.785   4.686   1.042  0.1376  0.2296  0.1576
   79MPD1    C1 1227   3.746   0.017   1.156  0.8166 -0.4897 -0.1996
   79MPD1    C2 1228   3.834   0.108   1.210 -0.2999  0.1449  0.5112
   79MPD1    C3 1229   3.959   0.131   1.155 -0.5107  0.0907 -0.0851
   79MPD1    C4 1230   3.989   0.066   1.035  0.1703  0.2443  0.3289
   79MPD1    C5 1231   3.910   4.708   0.989 -0.1620  0.3372 -0.1128
   79MPD1     H 1232   3.790   0.174   1.284 -1.0829  0.7752 -0.5121
   79MPD1    H1 1233   4.082   0.090   0.986 -0.5777  0.6268 -0.9188
   79MPD1    H2 1234   3.724   4.605   1.005  0.9136 -1.0342  1.6311
   79MPD1    H3 1235   3.937   4.644   0.905  0.8725  0.2312  0.2962
   79MPD1     N 1236   4.056   0.220   1.202 -0.1555 -0.0653  0.2984
   79MPD1    H5 1237   4.140   0.236   1.147 -0.2743  0.5461  0.2926
   79MPD1    N1 1238   3.621   0.003   1.214  0.5588  0.4103  0.0126
   79MPD1    H6 1239   3.624   0.033   1.311  1.2685  1.7511 -0.4142
   79MPD1    H7 1240   3.579   4.649   1.204 -0.0594  0.8496 -1.5411
   80TMC2    C1 1241   3.628   3.039  11.651  0.4510  0.7292 -0.0402
   80TMC2    C2 1242   3.667   3.080  11.532 -1.3018 -0.1639 -0.7386
   80TMC2    C3 1243   3.614   3.025  11.426 -0.4644  0.4202 -0.0501
   80TMC2    C4 1244   3.535   2.942  11.671 -0.5009 -1.0573  0.0022
   80TMC2    C5 1245   3.470   2.902  11.562  0.2090 -0.3749 -0.2960
   80TMC2    C6 1246   3.505   2.945  11.438 -0.2696  0.6026  0.2055
   80TMC2     C 1247   3.697   3.087  11.771  0.1210 -0.2919 -0.5574
   80TMC2     O 1248   3.813   3.127  11.756 -0.0901  0.2302  0.0270
   80TMC2     H 1249   3.744   3.157  11.530 -1.5325  0.0892 -0.0840
   80TMC2    H1 1250   3.519   2.903  11.771  0.5513  0.1596  0.6565
   80TMC2    H2 1251   3.448   2.911  11.353 -0.2017  1.5679 -0.2243
   80TMC2    C7 1252   3.364   2.806  11.560  0.4140  0.1754  0.2540
   80TMC2    C8 1253   3.708   3.032  11.315 -0.0993  0.3123 -0.1161
   80TMC2    O1 1254   3.338   2.746  11.457 -0.2049  0.2242  0.0034
   80TMC2    O2 1255   3.767   3.134  11.283 -0.2411 -0.2019  0.8402
   80TMC2    O5 1256   3.728   2.911  11.268  0.2355  0.3741  0.1458
   80TMC2    H5 1257   3.712   2.843  11.338  1.4517 -0.2318 -0.1738
   81MPD2     C 1258   3.790   3.111  12.062  0.0822 -0.3662  0.1782
   81MPD2    C1 1259   3.656   3.107  12.020  0.5467  0.2281 -0.1028
   81MPD2    C2 1260   3.557   3.119  12.113 -0.5642  0.4710 -0.2844
   81MPD2    C3 1261   3.599   3.140  12.244  0.1470  1.0101 -0.0640
   81MPD2    C4 1262   3.730   3.125  12.289  0.8194 -0.0360  0.8582
   81MPD2    C5 1263   3.828   3.115  12.197  0.8665 -0.3887 -0.4616
   81MPD2     H 1264   3.453   3.110  12.084 -0.2251 -3.3204 -0.4169
   81MPD2    H1 1265   3.758   3.137  12.393 -0.1539  1.0146  1.0010
   81MPD2    H2 1266   3.873   3.102  11.993  0.3933 -2.5711  0.8418
   81MPD2    H3 1267   3.935   3.118  12.218  0.1105  1.3015  3.1786
   81MPD2     N 1268   3.515   3.180  12.350  0.5035  0.2235 -0.6263
   81MPD2    H5 1269   3.559   3.189  12.441 -1.7404  0.0486  0.4937
   81MPD2    N1 1270   3.621   3.094  11.884 -0.1097 -0.2933 -0.0843
   81MPD2    H7 1271   3.519   3.091  11.875 -0.1413 -0.0545  0.2270
   82TMC2    C1 1272   1.414   1.838  11.440  0.6434 -0.1942  0.6451
   82TMC2    C2 1273   1.529   1.823  11.515  0.1036  0.4833  0.5991
   82TMC2    C3 1274   1.531   1.750  11.632 -0.2234  0.0550 -0.8650
   82TMC2    C4 1275   1.306   1.759  11.467  0.0558 -0.0096  0.2177
   82TMC2    C5 1276   1.317   1.684  11.583 -0.3372 -0.1979  0.1976
   82TMC2    C6 1277   1.424   1.683  11.669 -0.2352  0.0100  0.3845
   82TMC2     C 1278   1.389   1.958  11.366  0.0249 -1.1439  0.6106
   82TMC2     O 1279   1.279   1.970  11.311 -0.0793 -0.6225  0.9056
   82TMC2     H 1280   1.623   1.861  11.476  0.3769 -1.2322 -0.4149
   82TMC2    H1 1281   1.212   1.774  11.415  1.2535 -0.0275 -1.9620
   82TMC2    H2 1282   1.423   1.628  11.762 -0.6912  0.1126  0.4393
   82TMC2    C7 1283   1.201   1.612  11.642  0.4144  0.8102  0.7969
   82TMC2    C8 1284   1.660   1.693  11.672 -0.1748 -0.5535  0.0014
   82TMC2    O1 1285   1.191   1.609  11.765  0.2775  0.2877 -0.0172
   82TMC2    O2 1286   1.746   1.687  11.587  0.3839 -0.4614  0.3924
   82TMC2    O5 1287   1.653   1.635  11.800 -0.6869 -0.2900  0.2013
   82TMC2    H5 1288   1.584   1.679  11.853 -1.0407  0.3748 -0.8151
   83MPD2     C 1289   1.464   2.471  11.335 -0.8891 -0.3845 -0.1277
   83MPD2    C1 1290   1.366   2.391  11.275  0.5505  0.5298 -0.6307
   83MPD2    C2 1291   1.368   2.252  11.297 -0.3652  0.0400  1.2869
   83MPD2    C3 1292   1.461   2.201  11.377 -0.7380  0.4340 -0.0420
   83MPD2    C4 1293   1.560   2.276  11.429  0.4531 -1.1421 -0.0179
   83MPD2    C5 1294   1.557   2.419  11.414  0.2466  0.2917  0.0069
   83MPD2     H 1295   1.300   2.188  11.243  4.0269 -1.4576 -2.3733
   83MPD2    H1 1296   1.629   2.233  11.500 -1.9876 -1.4819  2.1869
   83MPD2    H2 1297   1.461   2.577  11.315  0.4092 -0.2246  0.5677
   83MPD2    H3 1298   1.624   2.484  11.469  0.6490  0.7294 -0.9988
   83MPD2     N 1299   1.477   2.060  11.403 -0.6042 -0.5802 -0.0103
   83MPD2    H5 1300   1.560   2.039  11.458 -0.0904 -0.1025 -0.6092
   83MPD2    N1 1301   1.276   2.457  11.194 -0.3339 -0.0543  0.0015
   83MPD2    H7 1302   1.300   2.553  11.172  1.0255  0.2750  2.8301
   84TMC2    C1 1303   2.243   1.252  11.184 -0.1353 -0.1490  0.2653
   84TMC2    C2 1304   2.186   1.137  11.128 -0.2027 -0.0577 -0.5343
   84TMC2    C3 1305   2.210   1.112  10.999  0.2061 -0.4284  0.4184
   84TMC2    C4 1306   2.315   1.335  11.100  0.4598  0.3022  0.4982
   84TMC2    C5 1307   2.331   1.303  10.970  0.1766 -0.4198 -0.1345
   84TMC2    C6 1308   2.274   1.196  10.916  0.1144  0.4311  0.2522
   84TMC2     C 1309   2.208   1.306  11.318 -0.2382 -0.2629 -0.1359
   84TMC2     O 1310   2.228   1.426  11.342  0.0399  0.1089 -0.0087
   84TMC2     H 1311   2.122   1.064  11.177  0.6023 -1.2511 -1.2734
   84TMC2    H1 1312   2.358   1.422  11.150  3.7975 -1.7561  1.2221
   84TMC2    H2 1313   2.255   1.192  10.809  1.9214 -1.8105  0.0112
   84TMC2    C7 1314   2.364   1.404  10.872  0.5387 -0.3476 -0.7467
   84TMC2    C8 1315   2.171   0.984  10.958 -0.7576 -0.0914  1.2465
   84TMC2    O1 1316   2.370   1.373  10.754  0.2346 -0.0158 -0.5906
   84TMC2    O2 1317   2.098   0.906  11.027  0.2927 -0.0585 -0.1770
   84TMC2    O5 1318   2.220   0.964  10.833 -0.8130 -0.5230 -0.2066
   84TMC2    H5 1319   2.296   1.019  10.804 -0.3130 -0.4954  1.1511
   85TMC2    C1 1320   2.740   4.729  16.138 -0.1387  0.0734 -0.7324
   85TMC2    C2 1321   2.635   4.720  16.050  0.2216  0.2209  0.3011
   85TMC2    C3 1322   2.651   0.065  15.940  0.3830 -0.5208 -0.3695
   85TMC2    C4 1323   2.854   0.064  16.119  0.1030  0.9153 -0.9527
   85TMC2    C5 1324   2.861   0.139  16.005 -0.0877 -0.4227 -0.1197
   85TMC2    C6 1325   2.759   0.145  15.912  0.1671  0.1153  0.0664
   85TMC2     C 1326   2.753   4.623  16.243  0.4536 -0.2713 -0.7108
   85TMC2     O 1327   2.811   4.655  16.345 -0.1505 -0.1995 -0.0488
   85TMC2     H 1328   2.545   4.663  16.071  1.4966 -2.0093 -0.2270
   85TMC2    H1 1329   2.926   0.073  16.199 -1.8630 -2.4520  1.1792
   85TMC2    H2 1330   2.770   0.199  15.819  3.0158  2.0094  1.5129
   85TMC2    C7 1331   2.962   0.243  16.001  0.4074 -0.7464  0.0415
   85TMC2    C8 1332   2.545   0.082  15.840 -0.0269  0.2280 -0.1583
   85TMC2    O1 1333   3.074   0.214  16.038 -0.3376  0.4118  0.2767
   85TMC2    O2 1334   2.550   0.159  15.744  0.4496 -0.1011 -0.3855
   85TMC2    O5 1335   2.440   4.738  15.870  0.4163 -0.0083 -0.6694
   85TMC2    H5 1336   2.465   4.670  15.936 -0.1459  2.1135  1.7306
   86MPD2     C 1337   2.647   4.148  16.449  0.7516 -0.6033  0.3803
   86MPD2    C1 1338   2.587   4.158  16.320  0.2253 -0.2872  0.5853
   86MPD2    C2 1339   2.598   4.275  16.248 -0.1085  0.0840 -0.3852
   86MPD2    C3 1340   2.679   4.384  16.293 -0.4073 -1.2470 -0.5349
   86MPD2    C4 1341   2.736   4.372  16.419  0.2063 -0.3895 -0.7452
   86MPD2    C5 1342   2.728   4.255  16.489  0.0887  0.1550  0.0891
   86MPD2     H 1343   2.540   4.293  16.158  0.0379 -2.0524 -0.9139
   86MPD2    H1 1344   2.794   4.454  16.461  0.4366 -0.5301 -0.7857
   86MPD2    H2 1345   2.630   4.069  16.522  0.6033 -0.9691 -0.0458
   86MPD2    H3 1346   2.773   4.231  16.585 -0.7970 -0.3953  0.3710
   86MPD2     N 1347   2.687   4.505  16.212  0.5767  0.5314  0.8525
   86MPD2    H5 1348   2.648   4.489  16.120 -1.3036 -1.5127  2.0111
   86MPD2    N1 1349   2.494   4.064  16.271 -0.4825 -0.0624  0.2972
   86MPD2    H7 1350   2.455   4.072  16.178  0.1257 -2.2679 -0.1569
   87TMC2    C1 1351   0.097   2.797   0.407 -0.1310  0.0377 -0.1566
   87TMC2    C2 1352   4.726   2.776   0.323 -0.5396  0.8406 -0.0421
   87TMC2    C3 1353   4.609   2.838   0.362 -0.2425 -0.6797 -0.5092
   87TMC2    C4 1354   0.096   2.893   0.503 -0.1669  0.1050  0.0166
   87TMC2    C5 1355   4.721   2.969   0.525 -0.6218 -0.3773 -0.7210
   87TMC2    C6 1356   4.603   2.926   0.462 -0.1050  0.0144  0.2572
   87TMC2     C 1357   0.221   2.724   0.373 -0.3129  0.1332 -0.3377
   87TMC2     O 1358   0.225   2.674   0.261  0.8030  0.4035 -0.0200
   87TMC2     H 1359   4.718   2.691   0.257  0.3593 -1.5867  2.9655
   87TMC2    H1 1360   0.187   2.924   0.553 -1.5917  2.1344  1.3666
   87TMC2    H2 1361   4.508   2.974   0.484  0.0018 -0.4234  1.6439
   87TMC2    C7 1362   4.716   3.083   0.612 -0.2637  0.0193  0.0197
   87TMC2    C8 1363   4.495   2.848   0.274  0.5926  0.4349  0.2804
   87TMC2    O1 1364   4.632   3.164   0.586  0.6812 -0.7150  0.0689
   87TMC2    O2 1365   4.396   2.910   0.308  0.0838 -0.2225 -0.5689
   87TMC2    O5 1366   4.523   2.809   0.141 -0.3187 -0.0266  0.0870
   87TMC2    H5 1367   4.605   2.761   0.117 -1.0108 -0.7182 -0.8668
   88MPD2     C 1368   0.245   3.199   0.830 -0.3493 -0.2939  0.0509
   88MPD2    C1 1369   0.114   3.198   0.778 -0.6683 -0.0281  0.5145
   88MPD2    C2 1370   0.035   3.302   0.812 -0.5061 -0.9944 -0.0820
   88MPD2    C3 1371   0.076   3.407   0.885 -0.1551 -0.2600  0.1050
   88MPD2    C4 1372   0.205   3.413   0.931  0.7010  0.1491  0.6159
   88MPD2    C5 1373   0.289   3.305   0.901 -0.2767 -0.0800 -0.3989
   88MPD2     H 1374   4.674   3.294   0.770 -0.1842 -3.4282 -0.3903
   88MPD2    H1 1375   0.256   3.485   0.994  0.9224 -1.7900  2.6629
   88MPD2    H2 1376   0.304   3.112   0.804  1.0811  1.0769 -1.2946
   88MPD2    H3 1377   0.393   3.305   0.934  0.0774 -1.2621 -1.5393
   88MPD2     N 1378   0.008   3.528   0.911  0.2538  0.2061  0.0143
   88MPD2    H5 1379   0.059   3.607   0.948  2.4952 -1.1347 -0.1901
   88MPD2    N1 1380   0.088   3.087   0.697 -0.2942 -0.2409  0.2085
   88MPD2    H7 1381   0.158   3.014   0.707  0.5219  0.4867 -0.2353
   89TMC2    C1 1382   1.121   1.820   1.995  0.4570  0.2242 -0.1887
   89TMC2    C2 1383   1.072   1.863   2.121 -0.1128  0.0340  0.1707
   89TMC2    C3 1384   0.999   1.981   2.106  0.3160 -0.1014 -0.1081
   89TMC2    C4 1385   1.101   1.878   1.874 -0.4179  0.2391  0.5736
   89TMC2    C5 1386   1.027   1.997   1.875  0.0830 -0.1032  0.0002
   89TMC2    C6 1387   0.972   2.038   1.988 -0.4503  0.2377  0.6180
   89TMC2     C 1388   1.215   1.710   1.991 -0.7977  0.4964 -0.2054
   89TMC2     O 1389   1.292   1.697   2.085 -0.7507  0.0229 -0.3847
   89TMC2     H 1390   1.112   1.837   2.218  0.5697  1.7806  0.3559
   89TMC2    H1 1391   1.149   1.838   1.786  0.5765  2.2487  0.2091
   89TMC2    H2 1392   0.926   2.136   1.983 -0.8540  0.0341  0.3751
   89TMC2    C7 1393   0.959   2.031   1.748  0.0883  0.4675 -0.1653
   89TMC2    C8 1394   0.993   2.067   2.215 -0.3609 -0.1347 -0.0493
   89TMC2    O1 1395   0.840   2.067   1.751 -0.1107 -0.8069  0.2496
   89TMC2    O2 1396   1.001   2.191   2.212 -0.2147 -0.2453 -0.5317
   89TMC2    O5 1397   0.967   2.000   2.329  0.1812 -0.3233  0.3028
   89TMC2    H5 1398   0.919   1.917   2.310 -0.3071  0.1366 -0.4430
   90MPD2     C 1399   1.395   1.304   1.726  0.1266  0.4528  0.1017
   90MPD2    C1 1400   1.257   1.322   1.699 -0.0602  0.5891 -1.0290
   90MPD2    C2 1401   1.190   1.422   1.759 -0.4961 -0.7500 -0.0807
   90MPD2    C3 1402   1.248   1.508   1.852 -0.5618  0.3091 -0.3152
   90MPD2    C4 1403   1.383   1.491   1.889  0.4118  0.3398  0.4208
   90MPD2    C5 1404   1.451   1.392   1.816  0.4471  0.7849 -0.5250
   90MPD2     H 1405   1.085   1.444   1.741  0.3878  0.5590 -3.6619
   90MPD2    H1 1406   1.439   1.540   1.967  2.7413  1.4518 -1.9452
   90MPD2    H2 1407   1.463   1.238   1.674 -0.2270 -0.2403  0.5278
   90MPD2    H3 1408   1.559   1.387   1.827  0.4604 -0.6696 -1.3531
   90MPD2     N 1409   1.172   1.617   1.902 -0.0541  0.3006  0.0649
   90MPD2    H5 1410   1.083   1.637   1.857 -0.4503  0.5158  0.9441
   90MPD2    N1 1411   1.185   1.253   1.601 -0.4904  0.4660 -0.3915
   90MPD2    H7 1412   1.088   1.280   1.585 -0.2594  1.7209  0.2851
   91TMC2    C1 1413   2.793   0.813  16.563 -0.1500 -0.0490 -0.1412
   91TMC2    C2 1414   2.770   0.932  16.496 -0.8033 -0.2158 -0.1647
   91TMC2    C3 1415   2.635   0.951  16.456  0.3730  0.0624 -0.2700
   91TMC2    C4 1416   2.692   0.727  16.605  0.0389 -0.0813  0.4223
   91TMC2    C5 1417   2.564   0.767  16.572  0.2706 -0.6062 -0.7788
   91TMC2    C6 1418   2.530   0.877  16.497 -0.2696 -0.3652  0.6061
   91TMC2     C 1419   2.927   0.784  16.608 -0.0460  0.0205 -0.4301
   91TMC2     O 1420   2.944   0.715  16.705  0.6559 -0.1346  0.1068
   91TMC2     H 1421   2.848   1.000  16.465 -0.3215 -0.5346  0.3380
   91TMC2    H1 1422   2.713   0.640  16.666  0.5189  0.1376  0.5645
   91TMC2    H2 1423   2.434   0.905  16.455 -0.0627 -0.5151  0.0314
   91TMC2    C7 1424   2.465   0.668  16.598  0.0340  0.2867 -0.5709
   91TMC2    C8 1425   2.603   1.049  16.350  0.3811  0.5577 -0.2062
   91TMC2    O1 1426   2.474   0.591  16.690  0.0630 -0.4799  0.3137
   91TMC2    O2 1427   2.592   1.026  16.230  0.5131 -0.2293  0.1077
   91TMC2    O5 1428   2.683   1.146  16.403 -0.2230 -0.3296 -0.3264
   91TMC2    H5 1429   2.678   1.146  16.501 -0.1968 -0.9316 -0.3255
   92MPD2     C 1430   3.232   0.758  16.648  0.7216  0.1126 -0.2375
   92MPD2    C1 1431   3.163   0.817  16.536  0.4446 -0.0297 -0.3221
   92MPD2    C2 1432   3.234   0.865  16.425 -0.2874 -0.5216  0.1849
   92MPD2    C3 1433   3.371   0.869  16.422  0.2342 -0.3841  0.5458
   92MPD2    C4 1434   3.435   0.822  16.535  0.6455 -0.2756 -1.1684
   92MPD2    C5 1435   3.368   0.773  16.646  0.6729  0.2398 -0.6252
   92MPD2     H 1436   3.181   0.901  16.338  2.0590 -1.8006 -1.8003
   92MPD2    H1 1437   3.542   0.826  16.547  0.2715  1.3471  1.6392
   92MPD2    H2 1438   3.186   0.712  16.735  0.3071 -0.8785 -0.9864
   92MPD2    H3 1439   3.420   0.726  16.729  2.4369  0.5645 -1.5466
   92MPD2     N 1440   3.437   0.921  16.308  0.2950 -0.5662  0.0489
   92MPD2    H5 1441   3.385   0.969  16.235  1.2328 -0.2527 -0.4077
   92MPD2    N1 1442   3.023   0.828  16.519  0.0421  0.5922 -0.6685
   92MPD2    H7 1443   2.993   0.869  16.431  2.1500  0.9598 -1.2220
   93TMC2    C1 1444   0.314   0.673  14.079 -0.3095  0.4506 -0.4010
   93TMC2    C2 1445   0.253   0.700  14.202 -0.5537  0.0321 -0.1197
   93TMC2    C3 1446   0.272   0.822  14.253 -0.4384 -0.3408 -0.2917
   93TMC2    C4 1447   0.402   0.755  14.021  0.3223  0.4724  0.0439
   93TMC2    C5 1448   0.430   0.869  14.086 -0.1603  0.6032 -0.0331
   93TMC2    C6 1449   0.359   0.915  14.192  0.3055  0.8144 -0.3559
   93TMC2     C 1450   0.259   0.558  13.994  0.2227  0.2844  0.2446
   93TMC2     O 1451   0.322   0.516  13.897 -0.5816  0.1033  0.5331
   93TMC2     H 1452   0.185   0.629  14.246 -1.0400  0.7965  0.3636
   93TMC2    H1 1453   0.445   0.714  13.930  1.5016 -1.1731  1.3480
   93TMC2    H2 1454   0.385   1.005  14.246  1.2043  1.4854 -1.9295
   93TMC2    C7 1455   0.554   0.925  14.040 -0.3667 -0.0207  0.0988
   93TMC2    C8 1456   0.189   0.874  14.360  0.4011 -0.0577 -0.0281
   93TMC2    O1 1457   0.616   0.863  13.950  0.0974 -0.0576  0.5962
   93TMC2    O2 1458   0.238   0.944  14.448  0.1231  0.4654 -0.3038
   93TMC2    O5 1459   0.089   0.787  14.375 -0.2034  0.0566 -0.1377
   93TMC2    H5 1460   0.040   0.762  14.294  0.2239 -1.3631  0.0291
   94MPD2     C 1461   0.088   0.349  13.888  0.3018  0.5971  0.3950
   94MPD2    C1 1462   0.038   0.442  13.971  0.2568  0.0154 -0.4514
   94MPD2    C2 1463   4.641   0.444  13.986  0.1650 -0.5328  0.1652
   94MPD2    C3 1464   4.565   0.334  13.934 -0.1217  0.0508  0.5307
   94MPD2    C4 1465   4.622   0.235  13.862  0.0061  0.9733 -0.2718
   94MPD2    C5 1466   0.019   0.247  13.833  0.0545  0.2435  0.4107
   94MPD2     H 1467   4.595   0.524  14.042  0.6767 -1.8752  2.5036
   94MPD2    H1 1468   4.556   0.162  13.816  0.7277  0.0779  0.1277
   94MPD2    H2 1469   0.191   0.353  13.855 -0.6151  0.0854 -2.5649
   94MPD2    H3 1470   0.063   0.172  13.767 -2.3791 -0.7368 -0.0833
   94MPD2     N 1471   4.428   0.318  13.952 -0.6700 -0.1249 -0.0471
   94MPD2    H5 1472   4.384   0.233  13.918  1.8720 -0.2234 -3.0896
   94MPD2    N1 1473   0.124   0.545  14.024  0.1216 -0.4233 -0.3137
   94MPD2    H7 1474   0.081   0.618  14.079 -0.1734 -1.0957  0.3360
   95TMC2    C1 1475   4.498   2.955  16.159 -0.0659 -0.4194 -0.5314
   95TMC2    C2 1476   4.496   3.089  16.179  0.1713  0.6097 -0.0121
   95TMC2    C3 1477   4.463   3.147  16.297  0.9456 -0.2652  0.6222
   95TMC2    C4 1478   4.476   2.872  16.271  0.9169 -0.9683 -0.0484
   95TMC2    C5 1479   4.442   2.934  16.386 -0.2806 -0.8755 -1.2102
   95TMC2    C6 1480   4.434   3.072  16.405 -1.0062 -0.5670 -0.1581
   95TMC2     C 1481   4.545   2.898  16.031 -0.1619 -0.0632 -0.6904
   95TMC2     O 1482   4.605   2.970  15.952  0.2166 -0.3425  0.0329
   95TMC2     H 1483   4.512   3.158  16.097 -2.3253  1.7034  0.4182
   95TMC2    H1 1484   4.458   2.766  16.266  1.9182 -1.1832  0.9553
   95TMC2    H2 1485   4.427   3.120  16.503  1.4757 -1.1757  0.3149
   95TMC2    C7 1486   4.429   2.851  16.503 -0.0828 -0.4416 -0.2624
   95TMC2    C8 1487   4.520   3.281  16.318  0.0785  0.3344 -0.0553
   95TMC2    O1 1488   4.504   2.756  16.516  0.0535  0.1003  0.0731
   95TMC2    O2 1489   4.588   3.338  16.235 -0.3970 -0.5004 -0.1269
   95TMC2    O5 1490   4.464   3.347  16.431 -0.3749 -0.3448 -0.4723
   95TMC2    H5 1491   4.385   3.308  16.475 -0.1370 -0.6915 -0.3463
   96MPD2     C 1492   4.578   2.533  15.677  0.2446 -1.0831 -0.0150
   96MPD2    C1 1493   4.650   2.653  15.690 -0.2169  0.6608  0.1739
   96MPD2    C2 1494   4.630   2.734  15.800 -0.0566 -0.0733  0.4895
   96MPD2    C3 1495   4.524   2.697  15.889 -0.1867 -0.5176  0.1691
   96MPD2    C4 1496   4.437   2.596  15.864  0.0783 -0.1855 -0.2221
   96MPD2    C5 1497   4.480   2.504  15.768  0.0718  0.3341 -0.4461
   96MPD2     H 1498   4.703   2.810  15.828 -0.5288  1.4315 -2.4312
   96MPD2    H1 1499   4.354   2.578  15.932  0.9422 -0.2577  0.8184
   96MPD2    H2 1500   4.595   2.474  15.587  2.0001  1.4243 -1.3173
   96MPD2    H3 1501   4.420   2.414  15.760 -1.3824  1.1017  1.7887
   96MPD2     N 1502   4.506   2.765  16.007  0.3670  0.5677 -0.6272
   96MPD2    H5 1503   4.456   2.711  16.077  0.4345  0.6303 -0.5295
   96MPD2    N1 1504   0.013   2.682  15.595 -0.8609 -0.2939 -0.1253
   96MPD2    H7 1505   0.040   2.608  15.531  0.0913 -0.5041  0.5330
   97TMC2    C1 1506   2.560   0.437   0.535 -0.0766  0.2754  0.4196
   97TMC2    C2 1507   2.684   0.406   0.581  0.6966  0.0863 -0.0996
   97TMC2    C3 1508   2.785   0.501   0.564 -0.7113 -0.0555 -0.5260
   97TMC2    C4 1509   2.523   0.562   0.497  0.4377 -0.0607 -0.9851
   97TMC2    C5 1510   2.631   0.652   0.486  0.1106 -0.2514  0.0652
   97TMC2    C6 1511   2.754   0.626   0.531  0.2970  0.5923  0.4106
   97TMC2     C 1512   2.452   0.339   0.533  0.3582  0.2157  0.4326
   97TMC2     O 1513   2.334   0.371   0.546 -0.0071 -0.2816  0.6978
   97TMC2     H 1514   2.692   0.321   0.648 -1.4050 -0.1643 -0.1664
   97TMC2    H1 1515   2.424   0.597   0.468  0.5345  2.4798  1.7969
   97TMC2    H2 1516   2.837   0.694   0.519  1.0926  0.0467  2.7746
   97TMC2    C7 1517   2.623   0.780   0.418  0.1231 -0.1723  0.3554
   97TMC2    C8 1518   2.918   0.476   0.615  0.2328 -0.1243 -0.1470
   97TMC2    O1 1519   2.698   0.870   0.452 -0.0174 -0.2823  0.8723
   97TMC2    O2 1520   2.997   0.563   0.640 -0.4380 -0.1739 -0.4868
   97TMC2    O5 1521   2.933   0.348   0.656  0.7894 -0.2187  0.0746
   97TMC2    H5 1522   2.863   0.287   0.626  0.4019 -0.2514  1.0264
   98MPD2     C 1523   2.232   4.630   0.434  0.4927  0.6601  0.5371
   98MPD2    C1 1524   2.207   4.717   0.531 -0.3088  0.5808 -1.0491
   98MPD2    C2 1525   2.290   0.092   0.546  0.6666  0.1769  0.5107
   98MPD2    C3 1526   2.405   0.114   0.469  0.5320 -0.3290 -0.5693
   98MPD2    C4 1527   2.433   0.008   0.379  0.2871 -0.4106  0.0988
   98MPD2    C5 1528   2.351   4.639   0.360 -0.1337  0.1270  0.4354
   98MPD2     H 1529   2.269   0.167   0.621  0.2506  0.0403  0.5272
   98MPD2    H1 1530   2.523   0.018   0.319 -0.1333  0.6636 -0.3439
   98MPD2    H2 1531   2.167   4.549   0.402  0.2415  0.2698  2.0327
   98MPD2    H3 1532   2.371   4.573   0.277  0.3738  0.6338  0.1557
   98MPD2     N 1533   2.498   0.217   0.484  0.1851 -0.6778  0.0029
   98MPD2    H5 1534   2.578   0.218   0.423  0.5312 -0.3654  0.4592
   98MPD2    N1 1535   2.092   4.693   0.605 -0.5582  0.0802  0.2403
   98MPD2    H7 1536   2.028   4.617   0.585  1.8689 -1.1047 -2.8917
   99TMC2    C1 1537   1.171   2.302   1.339  0.9219  0.5737  0.2536
   99TMC2    C2 1538   1.239   2.422   1.360 -0.6089  0.5759  0.0975
   99TMC2    C3 1539   1.169   2.540   1.358  0.1742  0.6105  0.0183
   99TMC2    C4 1540   1.036   2.299   1.312  0.7622 -0.2018 -0.2844
   99TMC2    C5 1541   0.971   2.417   1.318  0.4259 -0.8143 -0.2816
   99TMC2    C6 1542   1.034   2.540   1.337 -0.1625 -0.0508  0.5251
   99TMC2     C 1543   1.258   2.194   1.290  0.0441  0.0439  0.5526
   99TMC2     O 1544   1.374   2.175   1.332 -0.4045 -0.2369  0.3467
   99TMC2     H 1545   1.347   2.413   1.351 -0.6726  1.1079 -1.1418
   99TMC2    H1 1546   0.981   2.207   1.295  2.5061 -1.2925 -0.1392
   99TMC2    H2 1547   0.974   2.629   1.346 -0.2378  0.2231 -2.4253
   99TMC2    C7 1548   0.846   2.409   1.387 -0.4613  0.0006  0.5415
   99TMC2    C8 1549   1.237   2.666   1.368  0.4427 -0.0958 -0.6525
   99TMC2    O1 1550   0.830   2.482   1.481 -0.3282  0.3496 -0.1741
   99TMC2    O2 1551   1.192   2.770   1.317 -0.4679  0.2845 -0.2548
   99TMC2    O5 1552   1.365   2.645   1.412 -0.0564  0.3032  0.4639
   99TMC2    H5 1553   1.382   2.553   1.441  0.2174  0.5088  0.9617
  100MPD2     C 1554   1.419   2.077   1.070  0.3762  0.4432 -0.3748
  100MPD2    C1 1555   1.281   2.076   1.077 -0.0474 -0.4202 -0.0193
  100MPD2    C2 1556   1.208   2.028   0.970  0.2834  0.7815  0.1275
  100MPD2    C3 1557   1.266   1.976   0.848 -0.4241 -0.3821  0.2548
  100MPD2    C4 1558   1.405   1.974   0.855 -0.0456 -0.1635 -0.2628
  100MPD2    C5 1559   1.476   2.022   0.959  0.4221  0.4509 -0.4472
  100MPD2     H 1560   1.099   2.025   0.972  0.2842 -0.0858 -0.6276
  100MPD2    H1 1561   1.461   1.928   0.774  2.0097  3.1775 -0.7660
  100MPD2    H2 1562   1.484   2.119   1.144  0.9693  0.0586 -0.6791
  100MPD2    H3 1563   1.584   2.022   0.965  0.5857  4.8975 -3.6092
  100MPD2     N 1564   1.182   1.914   0.753  0.2426  0.0231 -0.0540
  100MPD2    H5 1565   1.083   1.934   0.754  0.6637  2.0652  0.7556
  100MPD2    N1 1566   1.204   2.149   1.174 -0.3707 -1.0820  0.0078
  100MPD2    H7 1567   1.107   2.171   1.155 -0.0726 -2.1196 -2.6786
  101TMC2    C1 1568   2.039   3.311  13.053 -0.0443  0.0828 -0.6375
  101TMC2    C2 1569   1.936   3.391  13.099  0.8672  0.3846 -0.9319
  101TMC2    C3 1570   1.945   3.520  13.072  0.3633 -0.3726  0.0557
  101TMC2    C4 1571   2.153   3.361  13.004  0.4443 -0.2305 -0.6437
  101TMC2    C5 1572   2.148   3.496  12.974 -0.2709  0.1967  0.1808
  101TMC2    C6 1573   2.050   3.577  13.004 -0.1529  0.2017  0.3211
  101TMC2     C 1574   2.024   3.166  13.083 -0.1336 -0.7247  1.0236
  101TMC2     O 1575   1.916   3.131  13.129 -0.5551 -0.4464  0.0637
  101TMC2     H 1576   1.836   3.362  13.132  2.1002  0.3999  2.7879
  101TMC2    H1 1577   2.242   3.298  13.002 -0.3672 -1.4191  0.1848
  101TMC2    H2 1578   2.031   3.676  12.964 -0.2977 -0.1746 -0.5552
  101TMC2    C7 1579   2.281   3.562  12.985  0.5380 -0.8969  0.1767
  101TMC2    C8 1580   1.833   3.609  13.102 -1.0838  0.5075 -0.7068
  101TMC2    O1 1581   2.378   3.497  12.955  0.1664 -0.2367 -0.0708
  101TMC2    O2 1582   1.838   3.728  13.064 -0.6115 -0.7420  0.2781
  101TMC2    O5 1583   1.803   3.594  13.232 -0.2691  0.0860  0.3144
  101TMC2    H5 1584   1.821   3.506  13.272 -0.3986 -0.9030 -1.8411
  102MPD2     C 1585   2.231   2.873  12.980 -0.9995 -0.6085 -0.2347
  102MPD2    C1 1586   2.131   2.936  13.050  0.6327  0.7473 -0.0348
  102MPD2    C2 1587   2.033   2.865  13.122  0.1486  0.5712 -0.2424
  102MPD2    C3 1588   2.036   2.724  13.119  0.2208 -0.1988 -0.2129
  102MPD2    C4 1589   2.139   2.664  13.040 -0.4987  0.4647  0.3193
  102MPD2    C5 1590   2.240   2.739  12.981  0.6413 -0.2429 -0.7954
  102MPD2     H 1591   1.964   2.919  13.186 -0.6961 -1.6996  0.7534
  102MPD2    H1 1592   2.144   2.557  13.023  0.6956  0.4139  1.0501
  102MPD2    H2 1593   2.303   2.915  12.910  0.3376  1.5486  2.4365
  102MPD2    H3 1594   2.321   2.692  12.926 -0.0707 -0.3308 -1.7620
  102MPD2     N 1595   1.944   2.643  13.191  0.0274  0.2990  0.1078
  102MPD2    H5 1596   1.946   2.545  13.164 -0.8994  0.4425 -0.4813
  102MPD2    N1 1597   2.127   3.084  13.033  0.0920  0.2759 -0.7632
  102MPD2    H7 1598   2.192   3.130  12.971  0.4089  0.9250  0.0414
  103TMC2    C1 1599   0.228   3.205  12.862 -0.4293 -0.4563 -0.1758
  103TMC2    C2 1600   0.366   3.188  12.864 -0.1333 -0.2438 -0.4870
  103TMC2    C3 1601   0.428   3.169  12.985 -0.5444  0.2263 -0.6214
  103TMC2    C4 1602   0.150   3.217  12.978 -0.1061 -0.0512 -0.1329
  103TMC2    C5 1603   0.213   3.188  13.098 -0.2457 -0.7264 -0.4123
  103TMC2    C6 1604   0.346   3.157  13.093  0.3359  0.0810 -0.4768
  103TMC2     C 1605   0.160   3.247  12.738  0.2878 -0.7281 -0.2021
  103TMC2     O 1606   0.215   3.322  12.663  0.2802 -0.0492 -0.1294
  103TMC2     H 1607   0.426   3.211  12.777  0.2201 -1.8308 -0.6683
  103TMC2    H1 1608   0.043   3.239  12.976 -0.0648  0.2019  0.4244
  103TMC2    H2 1609   0.396   3.116  13.180  2.4825  0.9427 -1.3023
  103TMC2    C7 1610   0.141   3.213  13.226  0.6838  0.1937  0.2709
  103TMC2    C8 1611   0.552   3.096  12.976  0.1945  0.0083  0.1700
  103TMC2    O1 1612   0.021   3.208  13.224 -0.2926 -0.0739  0.5271
  103TMC2    O2 1613   0.598   3.049  12.874  0.2662 -0.4519 -0.2689
  103TMC2    O5 1614   0.618   3.131  13.086 -0.1348 -0.5900  0.4529
  103TMC2    H5 1615   0.586   3.212  13.132 -1.3595  0.7976 -2.8367
  104MPD2     C 1616   4.547   3.222  12.663  0.4719  0.4935  0.6602
  104MPD2    C1 1617   4.676   3.240  12.623 -0.2917 -0.1150 -0.1649
  104MPD2    C2 1618   4.706   3.292  12.501 -0.1138 -0.3620 -0.1013
  104MPD2    C3 1619   4.606   3.321  12.408  0.3119 -0.2458  0.0096
  104MPD2    C4 1620   4.471   3.301  12.453 -0.3630 -0.0665 -0.1637
  104MPD2    C5 1621   4.446   3.260  12.581 -0.4085  0.5272  0.2600
  104MPD2     H 1622   0.069   3.313  12.470 -1.1315  1.2279 -2.3406
  104MPD2    H1 1623   4.389   3.314  12.383 -1.2166  0.2371  0.8944
  104MPD2    H2 1624   4.519   3.184  12.761 -0.1548  0.8760  0.6319
  104MPD2    H3 1625   4.341   3.244  12.605 -0.4696  0.3785 -0.0983
  104MPD2     N 1626   4.649   3.377  12.284  0.8523 -0.1387  0.0351
  104MPD2    H5 1627   0.010   3.386  12.267  0.4359  2.9380 -0.8710
  104MPD2    N1 1628   0.030   3.209  12.730 -0.4905 -0.1361 -0.5605
  104MPD2    H7 1629   4.734   3.162  12.813  2.3519 -0.9765  0.1628
  105TMC2    C1 1630   0.907   2.122   0.037 -0.2127  0.1864 -0.3554
  105TMC2    C2 1631   0.815   2.107  17.691  0.2627  0.1589  0.6410
  105TMC2    C3 1632   0.688   2.160  17.709  0.0180  0.0186 -0.7889
  105TMC2    C4 1633   0.884   2.201   0.149  0.2732 -0.3221 -0.5245
  105TMC2    C5 1634   0.757   2.248   0.166  0.1608 -0.0343  0.5742
  105TMC2    C6 1635   0.657   2.224   0.072 -0.0150  0.2255 -0.2144
  105TMC2     C 1636   1.041   2.121  17.733  0.5272 -0.7688 -0.3855
  105TMC2     O 1637   1.108   2.021  17.746 -0.1855  0.3811  0.4036
  105TMC2     H 1638   0.833   2.039  17.608  0.3893  2.4428 -1.2249
  105TMC2    H1 1639   0.951   2.222   0.232 -1.3736 -0.4296  0.8254
  105TMC2    H2 1640   0.558   2.263   0.089 -0.9518 -1.5594 -1.5440
  105TMC2    C7 1641   0.717   2.302   0.294 -0.4026  0.8530 -0.2632
  105TMC2    C8 1642   0.579   2.134  17.614 -0.0941 -0.1999 -0.3166
  105TMC2    O1 1643   0.776   2.260   0.391  0.0801 -0.4529 -0.1964
  105TMC2    O2 1644   0.461   2.124  17.640  0.1902  0.2558 -0.1662
  105TMC2    O5 1645   0.629   2.086  17.497  0.5316 -0.6190 -0.0035
  105TMC2    H5 1646   0.725   2.100  17.482  0.2214  0.8305 -0.7232
  106MPD2     C 1647   1.378   2.304  17.383  0.5268 -0.0812  0.0136
  106MPD2    C1 1648   1.283   2.394  17.415 -0.0169 -0.5250  0.7221
  106MPD2    C2 1649   1.187   2.368  17.513 -0.9131 -0.3690  0.1532
  106MPD2    C3 1650   1.184   2.255  17.583 -0.5497  0.1121 -0.0362
  106MPD2    C4 1651   1.275   2.156  17.552 -0.9113  0.2545  0.1973
  106MPD2    C5 1652   1.372   2.181  17.453  0.4447 -0.3352  0.2602
  106MPD2     H 1653   1.118   2.449  17.535  1.3915  1.7214 -0.3637
  106MPD2    H1 1654   1.278   2.064  17.610 -0.6913 -1.1393 -2.0240
  106MPD2    H2 1655   1.438   2.304  17.293 -0.8893 -0.2508 -0.9384
  106MPD2    H3 1656   1.431   2.095  17.422 -1.3818 -1.7312  0.7293
  106MPD2     N 1657   1.077   2.240  17.672  0.1170  0.1295 -0.5248
  106MPD2    H5 1658   1.017   2.322  17.674 -1.8132 -1.3605  1.3238
  106MPD2    N1 1659   1.266   2.515  17.344  0.1926  0.0607  0.5480
  106MPD2    H7 1660   1.178   2.557  17.373  0.7457  2.5008 -1.2935
  107TMC2    C1 1661   1.881   1.867  12.033  0.0780 -0.8323  0.1945
  107TMC2    C2 1662   1.856   1.955  11.930  0.1125  0.7768  0.5546
  107TMC2    C3 1663   1.894   1.912  11.812 -0.4124 -0.1276  0.8009
  107TMC2    C4 1664   1.947   1.751  12.028  0.5538  0.3937 -0.2014
  107TMC2    C5 1665   1.982   1.712  11.901  0.2665  0.2816  0.2427
  107TMC2    C6 1666   1.958   1.794  11.796 -0.5373 -0.0222  0.5835
  107TMC2     C 1667   1.801   1.884  12.150  0.1694 -0.1225 -0.2201
  107TMC2     O 1668   1.688   1.922  12.124 -0.4594 -0.2586 -0.5954
  107TMC2     H 1669   1.810   2.053  11.938  0.5663  1.1076 -0.9455
  107TMC2    H1 1670   1.935   1.685  12.114  2.9555  2.4389  1.7203
  107TMC2    H2 1671   1.977   1.762  11.694 -0.1753  0.9965  0.3277
  107TMC2    C7 1672   2.010   1.573  11.888  0.4351  0.1435 -0.6863
  107TMC2    C8 1673   1.872   1.994  11.685  0.0198  0.4985 -0.1669
  107TMC2    O1 1674   1.999   1.509  11.990  0.6972  0.1574 -0.4214
  107TMC2    O2 1675   1.919   1.974  11.572 -0.6007  0.1531 -0.5606
  107TMC2    O5 1676   1.762   2.064  11.701 -0.3009  0.3131 -0.1569
  107TMC2    H5 1677   1.707   2.039  11.778 -1.3861 -0.6816 -1.2556
  108MPD2     C 1678   1.876   1.798  12.489  0.0370 -0.8424  1.2387
  108MPD2    C1 1679   1.791   1.827  12.389  0.0876 -0.2803  0.2097
  108MPD2    C2 1680   1.661   1.862  12.416  0.2200 -0.4432  0.8350
  108MPD2    C3 1681   1.618   1.856  12.544  0.1050 -0.6542 -0.2254
  108MPD2    C4 1682   1.701   1.819  12.648  0.1711  0.8249 -0.1399
  108MPD2    C5 1683   1.835   1.803  12.616  0.5927 -0.0467 -0.8678
  108MPD2     H 1684   1.593   1.901  12.341 -0.0382 -1.3169  0.6163
  108MPD2    H1 1685   1.673   1.828  12.752  0.5865  0.6295 -0.0118
  108MPD2    H2 1686   1.983   1.783  12.475 -0.1563 -0.8965 -0.2480
  108MPD2    H3 1687   1.907   1.781  12.694 -0.5771  1.3989  0.6098
  108MPD2     N 1688   1.483   1.881  12.587  0.3639  0.3014  0.6152
  108MPD2    H5 1689   1.472   1.885  12.688  0.0927 -1.6585  0.6513
  108MPD2    N1 1690   1.855   1.841  12.265 -0.8272 -0.0712 -0.4119
  108MPD2    H7 1691   1.955   1.827  12.274 -0.9314 -0.7106 -0.2208
  109TMC2    C1 1692   1.043   0.768   0.586  0.3003  0.3040  0.3902
  109TMC2    C2 1693   1.082   0.887   0.641 -0.2112 -0.2133  0.6384
  109TMC2    C3 1694   1.221   0.893   0.655 -0.1595 -0.4045  0.0980
  109TMC2    C4 1695   1.123   0.664   0.546  0.6479 -0.0744  0.0551
  109TMC2    C5 1696   1.254   0.687   0.545  0.4489 -0.9350  0.0004
  109TMC2    C6 1697   1.307   0.799   0.605  0.1432 -0.2279 -0.0165
  109TMC2     C 1698   0.896   0.756   0.571 -0.4001  0.0508 -0.3333
  109TMC2     O 1699   0.836   0.861   0.567  0.2152  0.3239  0.4339
  109TMC2     H 1700   1.015   0.966   0.673 -1.3617 -0.0249 -2.2187
  109TMC2    H1 1701   1.086   0.577   0.492  1.7994 -1.4671  1.5217
  109TMC2    H2 1702   1.414   0.819   0.604  0.2831 -1.0526 -2.1356
  109TMC2    C7 1703   1.341   0.575   0.521 -0.5141  1.2378 -0.2429
  109TMC2    C8 1704   1.272   1.006   0.721  0.0045 -0.5436 -1.0331
  109TMC2    O1 1705   1.297   0.468   0.561 -0.2607 -0.1278  0.4671
  109TMC2    O2 1706   1.214   1.113   0.737  0.2940 -0.4399 -0.1476
  109TMC2    O5 1707   1.360   0.949   0.812  0.2337 -0.3905 -0.2618
  109TMC2    H5 1708   1.379   0.854   0.799  1.4002 -0.1458 -0.3500
  110MPD2     C 1709   0.448   0.532   0.580  0.9027  0.2114  0.5796
  110MPD2    C1 1710   0.545   0.438   0.622  0.3910 -0.0412  0.4336
  110MPD2    C2 1711   0.676   0.470   0.597  0.5625  0.4346 -0.2418
  110MPD2    C3 1712   0.710   0.597   0.561 -0.3798  0.0099 -0.2556
  110MPD2    C4 1713   0.617   0.689   0.522  0.4293 -0.0631 -0.6177
  110MPD2    C5 1714   0.485   0.654   0.522  0.0540 -0.4745  0.2930
  110MPD2     H 1715   0.758   0.409   0.634 -1.4382 -0.2107  3.1196
  110MPD2    H1 1716   0.629   0.794   0.496 -0.3430  1.1045  3.6619
  110MPD2    H2 1717   0.344   0.503   0.577  0.8332  0.2727  2.1573
  110MPD2    H3 1718   0.417   0.726   0.479 -0.1647 -1.5933 -1.2171
  110MPD2     N 1719   0.851   0.627   0.569  0.0605  1.0527  0.0814
  110MPD2    H5 1720   0.921   0.556   0.588 -1.2213 -0.4969 -0.9697
  110MPD2    N1 1721   0.497   0.321   0.682  0.1945 -0.0192 -0.4119
  110MPD2    H7 1722   0.397   0.316   0.697  0.1971 -1.0552 -0.7800
  111TMC2    C1 1723   1.920   3.934  12.080 -0.4889 -0.6126 -0.4628
  111TMC2    C2 1724   1.849   3.826  12.143  0.0320  0.2714 -0.2657
  111TMC2    C3 1725   1.915   3.737  12.223 -0.4719 -0.6561 -0.4931
  111TMC2    C4 1726   2.046   3.962  12.119 -1.2934  0.8255 -0.3402
  111TMC2    C5 1727   2.100   3.891  12.220 -0.1041  0.5618  0.3892
  111TMC2    C6 1728   2.040   3.775  12.265 -0.3611  0.9047  0.5220
  111TMC2     C 1729   1.841   4.034  12.012 -0.4332  0.3318  0.6683
  111TMC2     O 1730   1.896   4.125  11.954 -0.3569 -0.3438 -0.1809
  111TMC2     H 1731   1.756   3.784  12.104 -0.1129  0.1094  0.2497
  111TMC2    H1 1732   2.074   4.063  12.093  0.2982 -0.0950 -2.1954
  111TMC2    H2 1733   2.093   3.715  12.338 -2.6238 -2.3334 -0.5049
  111TMC2    C7 1734   2.237   3.904  12.262  0.0870  0.1995 -0.1804
  111TMC2    C8 1735   1.859   3.607  12.262 -0.1543 -0.0510  0.2029
  111TMC2    O1 1736   2.266   3.854  12.366  0.2187 -0.0963  0.0616
  111TMC2    O2 1737   1.925   3.519  12.317 -0.4588  0.8326 -0.0966
  111TMC2    O5 1738   1.728   3.620  12.276 -0.5991 -0.9703 -0.1516
  111TMC2    H5 1739   1.689   3.700  12.235 -0.9235 -1.3285 -0.5419
  112MPD2     C 1740   1.379   4.180  11.813  0.3565 -0.0946 -0.3911
  112MPD2    C1 1741   1.509   4.202  11.763 -1.2376 -0.1308 -0.4252
  112MPD2    C2 1742   1.619   4.151  11.842  0.3888  0.1762 -0.2328
  112MPD2    C3 1743   1.602   4.083  11.964 -0.0229  0.3294  0.3558
  112MPD2    C4 1744   1.468   4.064  12.005 -0.1701 -0.2004 -0.9084
  112MPD2    C5 1745   1.365   4.114  11.929 -0.2136 -0.7330  0.0967
  112MPD2     H 1746   1.722   4.155  11.808  0.9337 -1.5738  1.1891
  112MPD2    H1 1747   1.444   4.002  12.091 -1.2397 -0.7226 -1.5923
  112MPD2    H2 1748   1.291   4.225  11.767  1.1167 -1.3055 -2.9825
  112MPD2    H3 1749   1.268   4.107  11.977  0.0369  1.4545  0.9075
  112MPD2     N 1750   1.709   4.016  12.037  0.1263 -0.2971  0.0598
  112MPD2    H5 1751   1.675   3.954  12.109 -0.3235  0.5778  0.6014
  112MPD2    N1 1752   1.539   4.270  11.647 -0.3215  0.7873 -0.3942
  112MPD2    H7 1753   1.636   4.293  11.631 -0.7240  2.1048 -0.9341
  113TMC2    C1 1754   4.307   2.045   0.365  0.0533 -0.7436  0.4141
  113TMC2    C2 1755   4.344   2.072   0.237 -0.5488  0.0584 -0.2155
  113TMC2    C3 1756   4.241   2.087   0.147 -0.7135 -0.3447  0.4811
  113TMC2    C4 1757   4.172   2.033   0.406 -0.2905  0.2935 -0.1697
  113TMC2    C5 1758   4.077   2.028   0.303  0.0584 -0.5520 -0.1564
  113TMC2    C6 1759   4.110   2.074   0.173  0.0339  0.7151 -0.0365
  113TMC2     C 1760   4.397   2.096   0.468  0.6089  0.7897 -0.1716
  113TMC2     O 1761   4.344   2.144   0.571 -0.2282  1.0479  0.6241
  113TMC2     H 1762   4.437   2.120   0.209 -1.1790  0.2687 -1.9383
  113TMC2    H1 1763   4.162   2.004   0.510  1.3558 -1.7064 -0.5736
  113TMC2    H2 1764   4.036   2.096   0.097  1.5189  3.0932 -0.7855
  113TMC2    C7 1765   3.940   2.045   0.347 -0.5274  0.2768 -0.4359
  113TMC2    C8 1766   4.291   2.125   0.008  0.1258 -0.8193  0.1951
  113TMC2    O1 1767   3.858   2.085   0.265 -1.0175  0.1115 -0.7938
  113TMC2    O2 1768   4.409   2.116  17.735 -0.1456 -0.3143  0.6659
  113TMC2    O5 1769   4.209   2.210  17.697  0.0424 -0.4048 -0.4282
  113TMC2    H5 1770   4.123   2.229  17.741  0.0247 -0.5672 -0.3948
  114MPD2     C 1771   0.104   2.048   0.740  0.3983 -0.1274  0.5983
  114MPD2    C1 1772   4.733   2.126   0.768 -0.6108  0.3936 -0.0726
  114MPD2    C2 1773   4.626   2.132   0.669 -0.6859 -0.4137 -0.5994
  114MPD2    C3 1774   4.630   2.064   0.544 -0.2370 -0.5266 -0.5888
  114MPD2    C4 1775   0.015   2.002   0.518  0.4522 -0.4034  0.2117
  114MPD2    C5 1776   0.112   1.990   0.612 -0.5893 -0.1650  0.0698
  114MPD2     H 1777   4.529   2.174   0.694 -1.6396 -2.1591 -1.3934
  114MPD2    H1 1778   0.033   1.952   0.423  2.6774 -1.6356  1.2712
  114MPD2    H2 1779   0.193   2.027   0.799 -0.7016 -2.9143  1.2891
  114MPD2    H3 1780   0.203   1.931   0.604  0.8733  2.0851  0.1062
  114MPD2     N 1781   4.528   2.054   0.447 -0.0393  0.0313 -0.4996
  114MPD2    H5 1782   4.543   2.001   0.362  1.1680 -2.4861  1.2727
  114MPD2    N1 1783   4.735   2.209   0.885  0.3071 -0.8574 -0.2622
  114MPD2    H7 1784   4.657   2.272   0.895  2.2100  0.9612  3.3299
  115TMC2    C1 1785   0.602   0.128  17.615 -0.3108 -0.1935  0.6488
  115TMC2    C2 1786   0.734   0.093  17.641 -0.4578  0.1076  0.3456
  115TMC2    C3 1787   0.824   0.193  17.657  0.2898 -1.5900  0.0751
  115TMC2    C4 1788   0.556   0.256  17.595  0.0309 -0.5462 -0.2712
  115TMC2    C5 1789   0.658   0.350  17.594  0.1063  0.4921 -0.6502
  115TMC2    C6 1790   0.790   0.321  17.624 -0.0331 -0.1752  0.1938
  115TMC2     C 1791   0.529   0.015  17.559 -0.1145  0.3687  0.3423
  115TMC2     O 1792   0.569   4.640  17.576  0.0998  0.3596  0.7544
  115TMC2     H 1793   0.759   4.726  17.644 -1.5567 -0.1410  0.6485
  115TMC2    H1 1794   0.454   0.291  17.581  0.3226  0.6195  0.5288
  115TMC2    H2 1795   0.861   0.402  17.625 -1.7283  1.2884  1.3196
  115TMC2    C7 1796   0.616   0.490  17.569 -0.4747 -0.5049  0.5265
  115TMC2    C8 1797   0.969   0.166  17.673  0.0025  0.2980  0.2641
  115TMC2    O1 1798   0.501   0.526  17.595 -0.3458 -0.0480 -0.3805
  115TMC2    O2 1799   1.059   0.227  17.625 -0.5029  0.2356  0.1242
  115TMC2    O5 1800   0.976   0.067   0.019 -0.2935  0.7209  0.3402
  115TMC2    H5 1801   0.889   0.042   0.057 -1.3516  1.7084 -1.4522
  116MPD2     C 1802   0.117   4.579  17.290 -0.6755 -0.3367  0.3720
  116MPD2    C1 1803   0.235   4.512  17.332  0.6363  0.5461  0.0179
  116MPD2    C2 1804   0.337   4.585  17.398 -0.4116  0.5809 -0.1710
  116MPD2    C3 1805   0.322   4.721  17.422 -0.6706  0.0127  0.0458
  116MPD2    C4 1806   0.210   0.046  17.364  0.9850  0.4192  0.5544
  116MPD2    C5 1807   0.110   4.714  17.307 -0.5503 -0.1461 -0.9819
  116MPD2     H 1808   0.424   4.535  17.438 -2.1797 -3.0553 -0.8448
  116MPD2    H1 1809   0.190   0.150  17.386  1.6981  0.7117 -0.1833
  116MPD2    H2 1810   0.034   4.543  17.230  0.6683  0.7944 -2.2053
  116MPD2    H3 1811   0.022   0.029  17.273 -1.2762  0.3125  1.5799
  116MPD2     N 1812   0.414   0.060  17.495 -0.1588 -0.6448 -0.0818
  116MPD2    H5 1813   0.399   0.160  17.484  1.2765 -0.3390  0.8751
  116MPD2    N1 1814   0.241   4.367  17.317 -0.4973  0.2100 -0.1350
  116MPD2    H7 1815   0.160   4.334  17.265  0.4710 -0.4502 -1.2466
  117TMC2    C1 1816   4.107   1.368  13.945 -0.3909 -0.2523 -0.3836
  117TMC2    C2 1817   4.230   1.322  13.904  0.4391  0.2553  0.1942
  117TMC2    C3 1818   4.320   1.415  13.874 -0.5032  1.3639 -0.4410
  117TMC2    C4 1819   4.079   1.501  13.955  0.3727  0.3464 -0.0846
  117TMC2    C5 1820   4.175   1.591  13.927  0.1491 -0.0008  0.0699
  117TMC2    C6 1821   4.305   1.550  13.892 -0.4478 -0.4761  0.6242
  117TMC2     C 1822   3.996   1.272  13.960  0.4697  0.4825  0.2804
  117TMC2     O 1823   4.027   1.153  13.948  0.1327  0.3794  0.3128
  117TMC2     H 1824   4.263   1.219  13.900 -1.1947 -0.2102 -1.1493
  117TMC2    H1 1825   3.994   1.527  14.017 -0.0271 -1.4692  0.1253
  117TMC2    H2 1826   4.392   1.613  13.879  0.1679 -1.5351 -0.3091
  117TMC2    C7 1827   4.159   1.737  13.939 -0.2714 -0.9557 -0.0584
  117TMC2    C8 1828   4.463   1.372  13.849 -0.1311 -0.0469  0.3716
  117TMC2    O1 1829   4.264   1.802  13.926  0.6693 -0.5876  0.2014
  117TMC2    O2 1830   4.491   1.287  13.768  0.0157 -0.1995 -0.7425
  117TMC2    O5 1831   4.505   1.380  13.969 -0.8061 -0.1429 -0.0087
  117TMC2    H5 1832   4.443   1.426  14.030  0.1053  3.3659 -1.7200
  118MPD2     C 1833   3.853   1.933  13.953  0.0665  0.0733  0.4723
  118MPD2    C1 1834   3.983   1.904  13.981  0.9969 -0.9279  0.7858
  118MPD2    C2 1835   4.066   2.015  14.005  0.3701 -0.4901 -0.1794
  118MPD2    C3 1836   4.015   2.147  14.020 -0.2683 -0.2567  0.3740
  118MPD2    C4 1837   3.885   2.167  13.982 -0.0790  0.0116  0.0187
  118MPD2    C5 1838   3.806   2.064  13.948  0.2253  0.6385 -0.2278
  118MPD2     H 1839   4.173   1.996  14.010  0.7253  1.2028 -1.7584
  118MPD2    H1 1840   3.852   2.270  13.980 -1.3343 -0.4036 -0.5910
  118MPD2    H2 1841   3.789   1.855  13.914  0.9801 -0.6258  0.3580
  118MPD2    H3 1842   3.705   2.074  13.910  0.2395  1.1949 -0.1084
  118MPD2     N 1843   4.086   2.266  14.041  0.3859 -0.1011  0.5897
  118MPD2    H5 1844   4.037   2.353  14.024  0.6606 -0.1642 -0.5732
  118MPD2    N1 1845   4.029   1.772  13.966 -0.1547 -0.5292  0.0897
  118MPD2    H7 1846   3.962   1.697  13.957 -0.4497 -0.1044 -1.3372
  119TMC2    C1 1847   1.652   1.969  13.263 -0.5523  0.5008 -0.0602
  119TMC2    C2 1848   1.581   1.889  13.177  0.3668  0.4417  0.2287
  119TMC2    C3 1849   1.464   1.829  13.216  0.2998  1.0338 -0.1414
  119TMC2    C4 1850   1.594   2.004  13.388 -0.3521 -0.3202 -0.0070
  119TMC2    C5 1851   1.482   1.941  13.420 -0.0646 -0.2260 -0.5581
  119TMC2    C6 1852   1.423   1.851  13.340  0.0969  0.3582  0.4781
  119TMC2     C 1853   1.751   2.062  13.207 -0.0634  0.0124 -0.1726
  119TMC2     O 1854   1.759   2.172  13.260  0.0521 -0.2161  0.2024
  119TMC2     H 1855   1.619   1.869  13.078  1.0457  1.0320  0.3693
  119TMC2    H1 1856   1.655   2.063  13.456 -0.0845 -0.1567 -0.3859
  119TMC2    H2 1857   1.339   1.796  13.380  0.7323 -0.1998  1.0219
  119TMC2    C7 1858   1.414   1.968  13.547  0.8791 -0.1798  0.2576
  119TMC2    C8 1859   1.422   1.709  13.152  0.2611  0.1101  0.2646
  119TMC2    O1 1860   1.323   1.892  13.578  0.5805 -0.0181  0.0141
  119TMC2    O2 1861   1.488   1.657  13.062 -0.1706 -0.4354 -0.2682
  119TMC2    O5 1862   1.289   1.714  13.161  0.1927 -0.7845 -0.3942
  119TMC2    H5 1863   1.255   1.780  13.225 -1.9806  0.0179 -2.3575
  120MPD2     C 1864   2.196   2.149  12.977 -0.0058  0.2411  0.3975
  120MPD2    C1 1865   2.147   2.215  13.086 -0.1831 -0.3766 -0.0993
  120MPD2    C2 1866   2.023   2.177  13.133  0.3715  0.5245  0.3130
  120MPD2    C3 1867   1.964   2.059  13.079 -0.5165  0.0219  0.5784
  120MPD2    C4 1868   2.016   1.986  12.977 -0.5249 -0.2393 -0.0848
  120MPD2    C5 1869   2.128   2.043  12.919 -0.1131 -0.4827  0.4053
  120MPD2     H 1870   1.973   2.225  13.216  0.6750 -1.0145  1.3896
  120MPD2    H1 1871   1.964   1.896  12.946 -0.4011  0.3807 -2.0602
  120MPD2    H2 1872   2.282   2.194  12.927 -0.7227 -0.9407 -1.8916
  120MPD2    H3 1873   2.162   2.005  12.823  0.4262 -0.0900  0.4386
  120MPD2     N 1874   1.839   2.002  13.118  0.2146  0.1826  0.3875
  120MPD2    H5 1875   1.817   1.907  13.089  0.2545  0.5712 -0.9259
  120MPD2    N1 1876   2.235   2.307  13.147  0.3608 -0.3617  0.2346
  120MPD2    H7 1877   2.305   2.339  13.081 -0.2686  1.9777  0.6974
  121TMC2    C1 1878   3.579   3.640  14.018  0.3802  0.6217  0.6877
  121TMC2    C2 1879   3.596   3.505  14.022  0.1941 -0.2532 -0.5495
  121TMC2    C3 1880   3.489   3.424  13.987  0.1157 -0.2418 -0.2830
  121TMC2    C4 1881   3.455   3.698  13.982 -0.1919 -0.3153  0.1600
  121TMC2    C5 1882   3.353   3.612  13.945  0.5772  0.8519 -0.1195
  121TMC2    C6 1883   3.363   3.475  13.954  0.0380  0.8941  0.5568
  121TMC2     C 1884   3.696   3.720  14.020 -0.2513 -0.0398  0.1759
  121TMC2     O 1885   3.796   3.656  14.038 -0.0190 -0.1486 -0.3388
  121TMC2     H 1886   3.690   3.459  14.048  0.3557 -0.0248 -0.7339
  121TMC2    H1 1887   3.439   3.805  13.981 -1.4545 -0.4830  1.6495
  121TMC2    H2 1888   3.282   3.403  13.952 -0.1673  1.1732 -1.0372
  121TMC2    C7 1889   3.217   3.664  13.941  0.0385 -0.0984  0.2988
  121TMC2    C8 1890   3.484   3.299  14.057 -0.2294 -0.1837 -0.0366
  121TMC2    O1 1891   3.198   3.778  13.986  0.2006 -0.5635 -0.5564
  121TMC2    O2 1892   3.417   3.276  14.157  0.5570  0.0653  0.4028
  121TMC2    O5 1893   3.591   3.228  14.010  0.4469  0.3348 -0.3181
  121TMC2    H5 1894   3.630   3.260  13.927 -0.2310 -0.2673 -0.8693
  122MPD2     C 1895   3.895   3.927  14.063  0.0407  0.1939 -0.0076
  122MPD2    C1 1896   3.795   3.940  13.970  0.2640 -0.5014  0.4780
  122MPD2    C2 1897   3.783   4.050  13.889  0.2130 -0.2917  0.0046
  122MPD2    C3 1898   3.877   4.153  13.905  0.2064  0.7124 -0.2681
  122MPD2    C4 1899   3.975   4.147  14.003  0.8095  0.1487 -0.3710
  122MPD2    C5 1900   3.978   4.040  14.088 -0.1067  0.0747 -0.2592
  122MPD2     H 1901   3.700   4.059  13.819 -1.5528  0.6828  2.2150
  122MPD2    H1 1902   4.017   4.244  14.026 -0.1978  0.4542  0.1839
  122MPD2    H2 1903   3.890   3.840  14.127  0.1879  2.8096  3.5952
  122MPD2    H3 1904   4.052   4.046  14.168  0.2273  1.0635 -0.6333
  122MPD2     N 1905   3.885   4.256  13.810  0.1395 -0.0840 -0.0293
  122MPD2    H5 1906   3.958   4.326  13.823  2.1276 -1.9914 -0.9367
  122MPD2    N1 1907   3.686   3.851  13.967 -0.3632  0.2039  0.2309
  122MPD2    H7 1908   3.601   3.880  13.919 -0.7339 -2.1247 -0.5185
  123TMC2    C1 1909   2.717   3.593  11.100 -0.9924  0.5674 -0.1682
  123TMC2    C2 1910   2.737   3.725  11.135 -0.1474  0.0963  0.5408
  123TMC2    C3 1911   2.806   3.806  11.056  0.1717  0.0559 -0.5499
  123TMC2    C4 1912   2.776   3.540  10.990 -0.2273 -0.1687  0.0378
  123TMC2    C5 1913   2.840   3.630  10.909 -0.3995 -0.0590  1.0798
  123TMC2    C6 1914   2.850   3.768  10.937 -0.1324 -0.9519  0.4972
  123TMC2     C 1915   2.621   3.520  11.176 -0.8055 -0.2744  0.4772
  123TMC2     O 1916   2.551   3.575  11.264 -0.6238 -0.6245  0.6033
  123TMC2     H 1917   2.694   3.763  11.227 -0.4911  0.7972  0.0884
  123TMC2    H1 1918   2.773   3.435  10.964 -3.7688 -0.5966  2.1759
  123TMC2    H2 1919   2.873   3.841  10.860  0.9263 -0.0438  1.6823
  123TMC2    C7 1920   2.880   3.584  10.782  0.1671  0.4797  0.0864
  123TMC2    C8 1921   2.778   3.952  11.070 -1.0371  0.3980 -0.2820
  123TMC2    O1 1922   2.849   3.472  10.744 -0.4268  0.3049  0.3030
  123TMC2    O2 1923   2.854   4.040  11.039  0.2105  0.4045  0.2182
  123TMC2    O5 1924   2.646   3.967  11.079  0.1719 -1.0653  0.2915
  123TMC2    H5 1925   2.602   3.879  11.077  0.1517 -1.0861  1.4087
  124MPD2     C 1926   2.344   3.081  11.242  0.2980 -0.3288  0.0539
  124MPD2    C1 1927   2.425   3.059  11.133  0.0888  0.4929 -0.3103
  124MPD2    C2 1928   2.514   3.162  11.106 -0.2866 -0.4712  0.9495
  124MPD2    C3 1929   2.516   3.290  11.173 -0.2753 -0.0677  0.1372
  124MPD2    C4 1930   2.426   3.310  11.277 -0.2449 -0.1799  0.1405
  124MPD2    C5 1931   2.345   3.204  11.310  0.2259  0.2122 -0.7439
  124MPD2     H 1932   2.596   3.150  11.037 -0.7197  0.1009  0.3317
  124MPD2    H1 1933   2.416   3.401  11.334 -0.1429 -0.2680  0.2991
  124MPD2    H2 1934   2.270   3.008  11.271 -0.1386 -0.4888 -1.4446
  124MPD2    H3 1935   2.261   3.225  11.376  2.3702 -0.1021  2.1103
  124MPD2     N 1936   2.604   3.390  11.126  1.2993 -0.1321  0.8234
  124MPD2    H5 1937   2.663   3.358  11.050 -0.1432  0.9677 -0.7525
  124MPD2    N1 1938   2.417   2.933  11.064  0.1931 -0.2064 -0.3476
  124MPD2    H7 1939   2.364   2.861  11.111  0.1357 -0.2979 -0.5543
  125TMC2    C1 1940   3.916   1.119   9.478  0.6350 -0.1109  0.2563
  125TMC2    C2 1941   3.890   1.211   9.579 -0.8529 -0.4475 -0.4498
  125TMC2    C3 1942   3.934   1.338   9.561 -0.0927 -0.2557 -0.4604
  125TMC2    C4 1943   3.976   1.157   9.362 -0.3869 -0.2119  0.3745
  125TMC2    C5 1944   4.010   1.288   9.340  0.8539 -0.3116 -0.2095
  125TMC2    C6 1945   4.000   1.377   9.441  0.2678  0.6569  1.1183
  125TMC2     C 1946   3.873   0.979   9.491  0.7394 -0.3810 -0.1206
  125TMC2     O 1947   3.916   0.895   9.413  0.1863  0.1965  0.3960
  125TMC2     H 1948   3.847   1.189   9.676 -0.3918 -0.4657 -0.2494
  125TMC2    H1 1949   3.980   1.080   9.286 -0.9631  0.2243 -0.1007
  125TMC2    H2 1950   4.038   1.478   9.433 -1.5774  1.2930  0.5599
  125TMC2    C7 1951   4.096   1.329   9.228 -0.3077 -0.1083 -0.6626
  125TMC2    C8 1952   3.919   1.430   9.673 -0.1237  1.1107 -0.2756
  125TMC2    O1 1953   4.130   1.448   9.222 -0.5919  0.0687 -0.3348
  125TMC2    O2 1954   3.912   1.392   9.788 -0.3500  0.1301 -0.0617
  125TMC2    O5 1955   3.928   1.553   9.624  0.0092 -0.5202 -0.3308
  125TMC2    H5 1956   3.915   1.564   9.527 -1.9368 -0.6856 -0.0702
  126MPD1     C 1957   3.553   0.611   9.656  0.2298  0.3404 -0.0499
  126MPD1    C1 1958   3.519   0.727   9.717 -0.5167  0.5630 -0.3359
  126MPD1    C2 1959   3.587   0.837   9.676  0.1323  0.0484  0.5571
  126MPD1    C3 1960   3.709   0.829   9.612 -0.5821  0.3646  0.1514
  126MPD1    C4 1961   3.762   0.714   9.569 -0.3567  0.1753  0.2601
  126MPD1    C5 1962   3.674   0.604   9.584  0.0253  0.7021  0.2257
  126MPD1     H 1963   3.538   0.932   9.694  2.4002  1.1795  0.6615
  126MPD1    H1 1964   3.856   0.699   9.517 -0.5870 -1.0553  0.1933
  126MPD1    H2 1965   3.494   0.520   9.666  0.3901  0.2412  0.0010
  126MPD1    H3 1966   3.703   0.508   9.544  0.4609  0.7693  0.3897
  126MPD1     N 1967   3.771   0.958   9.582 -0.4022 -0.3745  0.2022
  126MPD1    H5 1968   3.723   1.040   9.617 -0.3554 -0.1320 -0.2910
  126MPD1    N1 1969   3.388   0.738   9.773  0.2410 -0.0393 -0.1075
  126MPD1    H6 1970   3.361   0.650   9.817  0.8447  0.9491  2.2389
  126MPD1    H7 1971   3.379   0.827   9.820 -1.3849 -0.7980  1.0322
  127TMC2    C1 1972   4.611   3.669   9.703 -0.0815 -0.6288  0.1981
  127TMC2    C2 1973   4.668   3.604   9.808 -0.4770 -0.0337  0.8651
  127TMC2    C3 1974   4.597   3.506   9.873  0.4081  0.9858  0.4455
  127TMC2    C4 1975   4.483   3.645   9.668 -0.2642  0.2613  0.4944
  127TMC2    C5 1976   4.416   3.542   9.733  0.0036 -1.1403 -0.2241
  127TMC2    C6 1977   4.472   3.465   9.830  0.4496  0.2945  0.2347
  127TMC2     C 1978   4.675   3.792   9.660  0.0839  0.3591 -0.0949
  127TMC2     O 1979   4.733   3.859   9.744  0.0406  0.1770 -0.6599
  127TMC2     H 1980   0.027   3.641   9.840 -1.0669 -0.5339  3.2331
  127TMC2    H1 1981   4.436   3.706   9.592 -0.7904  0.9488  1.3779
  127TMC2    H2 1982   4.416   3.417   9.909 -0.1075 -0.6997 -0.7612
  127TMC2    C7 1983   4.277   3.530   9.693 -1.1602 -0.6223  0.3414
  127TMC2    C8 1984   4.629   3.498  10.013 -0.0856 -0.7868 -0.2896
  127TMC2    O1 1985   4.234   3.605   9.611 -0.1863 -0.0472 -0.2392
  127TMC2    O2 1986   0.005   3.478  10.052  0.0779 -0.2935  0.4997
  127TMC2    O5 1987   4.526   3.541  10.085 -0.3174  0.1324 -0.2858
  127TMC2    H5 1988   4.452   3.580  10.036 -0.2613 -0.1355 -0.5817
  128MPD2     C 1989   4.654   3.923   9.309 -0.0575 -0.1245 -0.4010
  128MPD2    C1 1990   4.689   3.929   9.443  0.1250  0.1274  0.2228
  128MPD2    C2 1991   0.038   4.023   9.487  0.1219  0.3058 -0.4340
  128MPD2    C3 1992   0.078   4.131   9.405  0.1195  0.4117 -1.1443
  128MPD2    C4 1993   0.015   4.144   9.281  0.2423  0.2690 -0.6723
  128MPD2    C5 1994   4.685   4.031   9.238 -0.1364 -0.2772  0.0284
  128MPD2     H 1995   0.083   4.007   9.585 -1.0916 -0.6170 -0.0268
  128MPD2    H1 1996   0.042   4.218   9.207 -0.2957  0.1726 -0.9645
  128MPD2    H2 1997   4.603   3.845   9.254 -2.2400  1.2662 -0.3546
  128MPD2    H3 1998   4.638   4.028   9.140 -1.3730  0.1688  0.5970
  128MPD2     N 1999   0.163   4.229   9.462  0.3179 -0.1362 -0.6846
  128MPD2    H5 2000   0.222   4.204   9.541 -1.5747 -0.8561  0.4882
  128MPD2    N1 2001   4.651   3.812   9.525 -0.1225 -0.0485 -0.5173
  128MPD2    H7 2002   4.600   3.738   9.477 -0.0342 -0.0789 -0.5651
  129TMC2    C1 2003   2.070   3.995   1.395 -0.1342  0.5898  0.6708
  129TMC2    C2 2004   2.184   4.067   1.410  0.8059 -1.0691  0.2630
  129TMC2    C3 2005   2.302   4.013   1.383 -0.3416  0.2500 -0.3479
  129TMC2    C4 2006   2.088   3.875   1.335  0.3644 -1.0634  0.3452
  129TMC2    C5 2007   2.209   3.819   1.309  0.1221 -0.3337 -0.6210
  129TMC2    C6 2008   2.322   3.882   1.343  0.2661 -0.3065 -0.0475
  129TMC2     C 2009   1.939   4.041   1.420  0.3275  0.0590  0.5040
  129TMC2     O 2010   1.842   3.966   1.400 -0.0869 -0.6024  0.7662
  129TMC2     H 2011   2.179   4.156   1.471  0.7839 -1.3078  0.6162
  129TMC2    H1 2012   2.000   3.812   1.329 -0.5669  0.3728 -0.9378
  129TMC2    H2 2013   2.422   3.842   1.341  0.4392  0.0856  0.7372
  129TMC2    C7 2014   2.220   3.674   1.299  0.2101 -0.4440  0.0540
  129TMC2    C8 2015   2.413   4.081   1.453  0.1185  0.2158 -0.2095
  129TMC2    O1 2016   2.118   3.605   1.297  0.0214 -0.6441 -0.1598
  129TMC2    O2 2017   2.407   4.200   1.483 -0.0375 -0.6331  0.5367
  129TMC2    O5 2018   2.450   3.990   1.546  0.5127 -0.2848 -0.4730
  129TMC2    H5 2019   2.417   3.900   1.527  0.2550 -0.1196 -0.8080
  130MPD2     C 2020   1.690   4.199   1.469 -0.2181 -0.4415 -0.2980
  130MPD2    C1 2021   1.813   4.250   1.464  0.5477  0.0409 -0.0733
  130MPD2    C2 2022   1.824   4.388   1.484  0.0856  0.0554  0.1832
  130MPD2    C3 2023   1.712   4.464   1.490  0.1088  0.3119  0.0593
  130MPD2    C4 2024   1.587   4.410   1.487 -0.4283  1.0889 -0.8266
  130MPD2    C5 2025   1.580   4.272   1.491  0.5299  0.0337  0.6404
  130MPD2     H 2026   1.917   4.444   1.488  0.1253  0.1676 -1.9410
  130MPD2    H1 2027   1.494   4.465   1.485 -0.4832  1.1362  3.2991
  130MPD2    H2 2028   1.677   4.091   1.462  1.0492 -0.5558 -0.9167
  130MPD2    H3 2029   1.486   4.219   1.495  0.0221  0.8678 -0.2173
  130MPD2     N 2030   1.730   4.610   1.489  0.2647  0.7688  0.6171
  130MPD2    H5 2031   1.828   4.636   1.483  0.7878 -1.1701  0.7688
  130MPD2    N1 2032   1.936   4.178   1.442  0.3900 -0.1945 -0.1739
  130MPD2    H7 2033   2.022   4.232   1.445  0.6431 -0.5728 -0.6646
  131TMC2    C1 2034   2.592   3.519  10.445 -0.1292  0.1931 -0.5382
  131TMC2    C2 2035   2.606   3.587  10.561  0.2337  0.7680 -0.7209
  131TMC2    C3 2036   2.632   3.722  10.549  0.4456  0.1832  0.1968
  131TMC2    C4 2037   2.612   3.573  10.322 -0.0606 -0.0676  0.8720
  131TMC2    C5 2038   2.639   3.708  10.316  0.2615  0.2806 -0.4624
  131TMC2    C6 2039   2.649   3.784  10.428 -0.5723 -0.7291 -0.1467
  131TMC2     C 2040   2.569   3.373  10.462  0.1651 -0.5348  0.0699
  131TMC2     O 2041   2.572   3.326  10.577  0.0205 -0.4196 -0.1701
  131TMC2     H 2042   2.574   3.540  10.654  0.4599 -1.0632 -1.5610
  131TMC2    H1 2043   2.619   3.518  10.229 -0.8956 -0.1321  0.8414
  131TMC2    H2 2044   2.652   3.892  10.418  3.4283 -1.1152 -3.1678
  131TMC2    C7 2045   2.697   3.758  10.188 -0.3076 -0.0485  0.0201
  131TMC2    C8 2046   2.617   3.794  10.675  0.0299  0.1951  0.0376
  131TMC2    O1 2047   2.699   3.684  10.092 -0.4539 -0.2087 -0.1851
  131TMC2    O2 2048   2.543   3.754  10.764  1.0290 -0.2471 -0.1633
  131TMC2    O5 2049   2.665   3.914  10.674 -0.4370 -0.2494 -0.2622
  131TMC2    H5 2050   2.719   3.921  10.593  1.0191 -0.3512  0.7057
  132MPD2     C 2051   2.363   3.170  10.237  0.4076  0.6984 -0.1630
  132MPD2    C1 2052   2.453   3.194  10.335 -1.1964 -0.4682 -0.4996
  132MPD2    C2 2053   2.481   3.098  10.425 -0.4761  0.4601  0.6096
  132MPD2    C3 2054   2.430   2.969  10.421 -0.3756 -1.0717  0.4530
  132MPD2    C4 2055   2.345   2.944  10.315  0.3744 -1.1277 -0.1683
  132MPD2    C5 2056   2.316   3.041  10.219  0.2060  0.4062  0.1946
  132MPD2     H 2057   2.557   3.114  10.500  4.6114 -1.8088 -3.9643
  132MPD2    H1 2058   2.320   2.842  10.286  1.8945 -1.3221 -0.7564
  132MPD2    H2 2059   2.346   3.246  10.161 -0.5326  0.9992  0.3477
  132MPD2    H3 2060   2.251   3.008  10.138  1.5996 -1.4494 -0.1803
  132MPD2     N 2061   2.452   2.877  10.527  0.2894  0.8444  0.3604
  132MPD2    H5 2062   2.518   2.911  10.596  0.4359  0.1870  0.5382
  132MPD2    N1 2063   2.498   3.325  10.355  0.2366 -0.0004 -0.2196
  132MPD2    H7 2064   2.470   3.394  10.286  1.7744  0.3368 -0.5007
  133TMC2    C1 2065   2.172   4.356   9.958  0.1707 -0.2132 -0.3571
  133TMC2    C2 2066   2.222   4.484   9.980  0.4720  0.3896  0.5686
  133TMC2    C3 2067   2.340   4.512   9.917 -1.1240 -0.2229  0.1579
  133TMC2    C4 2068   2.239   4.260   9.887 -0.0573 -0.2794  0.4190
  133TMC2    C5 2069   2.367   4.287   9.837  0.0782 -0.6299  0.5650
  133TMC2    C6 2070   2.417   4.411   9.854  0.9595  0.2329  0.7012
  133TMC2     C 2071   2.027   4.344   9.958 -0.0227 -0.3177 -0.7213
  133TMC2     O 2072   1.980   4.233   9.941  0.4135 -0.2508  0.0472
  133TMC2     H 2073   2.179   4.566  10.037  0.5487  0.1119  1.0244
  133TMC2    H1 2074   2.199   4.159   9.894 -0.9984  0.1741  1.5020
  133TMC2    H2 2075   2.515   4.442   9.820  0.8935 -2.0570 -1.5802
  133TMC2    C7 2076   2.455   4.179   9.799  0.6745  0.2373 -0.3869
  133TMC2    C8 2077   2.400   4.633   9.963 -0.8693  0.0877  0.1355
  133TMC2    O1 2078   2.570   4.214   9.780 -0.3226  0.5081 -0.1980
  133TMC2    O2 2079   2.374   4.701  10.065 -0.4045  0.1127  0.1104
  133TMC2    O5 2080   2.477   4.677   9.867  0.0178 -0.1118 -0.0949
  133TMC2    H5 2081   2.489   4.632   9.780 -0.0235 -0.0164 -0.1503
  134MPD2     C 2082   1.781   4.568  10.132  0.1044  0.3097 -0.8387
  134MPD2    C1 2083   1.822   4.468  10.047  0.6229 -0.2892 -0.3995
  134MPD2    C2 2084   1.727   4.378  10.001 -0.3166 -0.1925  0.6058
  134MPD2    C3 2085   1.600   4.375  10.046 -0.2284  0.3485  0.3887
  134MPD2    C4 2086   1.554   4.480  10.121 -0.5352  0.6426  0.0141
  134MPD2    C5 2087   1.648   4.569  10.163  0.4999 -0.2442 -0.7166
  134MPD2     H 2088   1.759   4.291   9.944 -0.3479  0.5785 -0.5809
  134MPD2    H1 2089   1.450   4.498  10.146 -0.0280 -0.4096  2.8722
  134MPD2    H2 2090   1.845   4.642  10.178  1.0060 -1.0307  0.0412
  134MPD2    H3 2091   1.614   4.644  10.234  1.7576 -0.5017  0.1617
  134MPD2     N 2092   1.497   4.289  10.004 -0.3164 -0.1649 -0.4463
  134MPD2    H5 2093   1.405   4.313  10.040 -1.8605 -1.7380 -3.3897
  134MPD2    N1 2094   1.959   4.461  10.003  0.6127 -0.9755  0.1226
  134MPD2    H7 2095   2.012   4.544  10.028 -0.0622  0.2946 -2.5859
  135TMC2    C1 2096   3.984   0.820   9.862  0.4993  1.0424 -0.3260
  135TMC2    C2 2097   3.880   0.798   9.943  0.0999  0.1412 -0.1780
  135TMC2    C3 2098   3.840   0.668   9.967  0.5652 -0.5248  0.3911
  135TMC2    C4 2099   4.056   0.724   9.803  0.2154  0.1348 -0.9103
  135TMC2    C5 2100   4.009   0.597   9.822 -0.7356  0.3215  0.2731
  135TMC2    C6 2101   3.906   0.564   9.907  0.1133  0.4053 -0.1099
  135TMC2     C 2102   4.018   0.954   9.834  0.3581 -0.0374  0.6007
  135TMC2     O 2103   3.942   1.037   9.884  0.0743  0.0194 -0.0414
  135TMC2     H 2104   3.822   0.881   9.982  2.1414  1.4245  0.1292
  135TMC2    H1 2105   4.149   0.737   9.749  0.3049 -1.2741 -1.0736
  135TMC2    H2 2106   3.859   0.466   9.901 -0.3518  0.5758  0.7655
  135TMC2    C7 2107   4.083   0.487   9.754 -0.1811  0.8425 -0.0317
  135TMC2    C8 2108   3.713   0.653  10.025  0.1623  0.3019  0.0631
  135TMC2    O1 2109   4.168   0.508   9.675 -0.0090  0.4019 -0.1816
  135TMC2    O2 2110   3.614   0.724  10.004 -0.4570 -0.3689  0.2566
  135TMC2    O5 2111   3.725   0.554  10.125  0.1484  0.2023 -0.8192
  135TMC2    H5 2112   3.813   0.513  10.143 -0.0157 -0.1252 -0.7602
  136MPD2     C 2113   4.168   1.206   9.780  0.0217 -0.7797  0.1532
  136MPD2    C1 2114   4.179   1.092   9.703  0.6120  0.5007 -0.5686
  136MPD2    C2 2115   4.256   1.094   9.588  1.0410 -0.4736 -0.1898
  136MPD2    C3 2116   4.329   1.211   9.556  0.0551  0.7707 -0.6627
  136MPD2    C4 2117   4.312   1.324   9.634  0.0879 -0.0552  0.6252
  136MPD2    C5 2118   4.229   1.321   9.746 -0.3343 -0.7166 -0.0951
  136MPD2     H 2119   4.258   0.998   9.538  0.4721 -0.2379 -0.6762
  136MPD2    H1 2120   4.380   1.407   9.617 -1.2997  0.6758 -1.2845
  136MPD2    H2 2121   4.118   1.212   9.876 -1.1944  1.2145 -0.5955
  136MPD2    H3 2122   4.227   1.404   9.816  2.0128 -1.6027  1.0567
  136MPD2     N 2123   4.422   1.226   9.443  0.0285 -0.4322 -0.1785
  136MPD2    H5 2124   4.459   1.317   9.418  0.2409 -0.5369 -0.2361
  136MPD2    N1 2125   4.118   0.971   9.739  0.1489  0.9045  0.4505
  136MPD2    H7 2126   4.144   0.889   9.685  0.7446  1.8178 -0.6617
  137TMC2    C1 2127   3.927   4.620   9.338  0.2307  0.0890  0.4976
  137TMC2    C2 2128   4.017   4.680   9.257 -0.1666  0.1941  0.1622
  137TMC2    C3 2129   4.018   0.078   9.266  0.1216 -0.1391  0.4564
  137TMC2    C4 2130   3.847   4.682   9.429  0.5530 -0.1889  0.9000
  137TMC2    C5 2131   3.852   0.083   9.434 -0.2857  0.5723  0.3733
  137TMC2    C6 2132   3.933   0.150   9.348  0.1365 -0.5222  0.1759
  137TMC2     C 2133   3.962   4.481   9.368  0.4824 -0.0021 -0.1753
  137TMC2     O 2134   3.949   4.443   9.480  0.1200 -0.1481 -0.4831
  137TMC2     H 2135   4.092   4.631   9.196  1.2709  0.6929  1.5278
  137TMC2    H1 2136   3.781   4.620   9.488 -1.1480 -0.1848 -0.9833
  137TMC2    H2 2137   3.973   0.250   9.362  1.7334 -0.8735 -1.9608
  137TMC2    C7 2138   3.796   0.153   9.548 -0.4505 -0.0436  0.3528
  137TMC2    C8 2139   4.136   0.151   9.227  0.2315  0.2113 -0.1591
  137TMC2    O1 2140   3.819   0.272   9.544 -0.2411  0.3664  0.2633
  137TMC2    O2 2141   4.209   0.203   9.312  0.5069 -0.4729 -0.0442
  137TMC2    O5 2142   4.180   0.093   9.117  0.5540  0.2657  0.3435
  137TMC2    H5 2143   4.100   0.078   9.063 -1.1302 -0.4346  3.0305
  138MPD2     C 2144   3.988   4.207   9.130 -0.2209 -0.2169  0.2292
  138MPD2    C1 2145   3.997   4.264   9.255  0.5494 -0.4678 -0.0197
  138MPD2    C2 2146   4.020   4.183   9.365  0.1691  0.2752  0.6434
  138MPD2    C3 2147   4.018   4.050   9.352 -0.3144  0.1208  0.1193
  138MPD2    C4 2148   4.009   3.989   9.232 -0.7208  0.8810 -0.6414
  138MPD2    C5 2149   3.998   4.070   9.114 -0.8656  0.3171 -0.6604
  138MPD2     H 2150   4.036   4.228   9.462  0.3688  0.1419  0.6712
  138MPD2    H1 2151   4.021   3.881   9.228 -1.7497  0.7430  0.2130
  138MPD2    H2 2152   3.984   4.267   9.040 -2.7193 -0.4944  0.1609
  138MPD2    H3 2153   4.000   4.025   9.015 -0.2628 -0.7040 -0.1866
  138MPD2     N 2154   4.024   3.979   9.472 -0.6151  0.4239 -0.3087
  138MPD2    H5 2155   4.045   4.032   9.556 -0.0818 -0.8629  0.3690
  138MPD2    N1 2156   3.994   4.403   9.258  0.1384 -0.1942 -0.3752
  138MPD2    H7 2157   3.980   4.442   9.166  0.1247 -0.2235 -0.3857
  139TMC2    C1 2158   4.053   2.149  13.384 -0.3719  0.1228 -0.4881
  139TMC2    C2 2159   4.163   2.226  13.351 -0.6463  0.3687  0.9541
  139TMC2    C3 2160   4.134   2.339  13.291 -0.0376  0.2068 -0.5341
  139TMC2    C4 2161   3.925   2.192  13.358 -0.0076 -0.0505  0.4151
  139TMC2    C5 2162   3.903   2.317  13.304 -0.1434  0.4497 -0.1014
  139TMC2    C6 2163   4.010   2.392  13.275 -0.5776 -0.3457 -0.2223
  139TMC2     C 2164   4.081   2.018  13.443 -0.1323 -0.5029  0.8080
  139TMC2     O 2165   4.198   1.986  13.436  0.3045  0.1952  0.1027
  139TMC2     H 2166   4.265   2.196  13.372 -0.9521 -0.6759  0.9293
  139TMC2    H1 2167   3.842   2.124  13.376  0.2504 -0.0014  1.7521
  139TMC2    H2 2168   3.999   2.497  13.251  1.3758 -0.0118  0.3128
  139TMC2    C7 2169   3.767   2.383  13.309 -1.0919 -0.0242 -0.1158
  139TMC2    C8 2170   4.240   2.427  13.251  0.6224 -0.0372  0.3594
  139TMC2    O1 2171   3.755   2.503  13.278 -0.2495  0.2683  0.6538
  139TMC2    O2 2172   4.354   2.407  13.292  0.0663 -0.1353 -0.0790
  139TMC2    O5 2173   4.211   2.486  13.133 -0.4230  0.6451 -0.0186
  139TMC2    H5 2174   4.117   2.480  13.105 -0.1247 -1.6817 -0.5193
  140MPD2     C 2175   3.861   1.803  13.644 -0.1456 -0.1438  0.6304
  140MPD2    C1 2176   3.968   1.832  13.572  0.5491  0.4974 -1.0208
  140MPD2    C2 2177   4.063   1.736  13.552  0.4288 -0.1516 -0.0789
  140MPD2    C3 2178   4.044   1.607  13.606  0.5931  0.0898 -0.1376
  140MPD2    C4 2179   3.931   1.584  13.685 -0.1961  0.3058  0.0180
  140MPD2    C5 2180   3.843   1.681  13.700 -0.1070 -0.0633 -0.3344
  140MPD2     H 2181   4.153   1.759  13.497  0.2018  1.3255  0.1578
  140MPD2    H1 2182   3.899   1.487  13.722 -0.8734  0.4318 -0.2270
  140MPD2    H2 2183   3.782   1.877  13.651  0.0720  0.0070  1.5392
  140MPD2    H3 2184   3.758   1.667  13.767 -1.3197  0.5041 -1.7509
  140MPD2     N 2185   4.129   1.508  13.562 -0.8664  0.1738  0.4958
  140MPD2    H5 2186   4.202   1.537  13.497 -0.2485  0.1320  1.1697
  140MPD2    N1 2187   3.975   1.962  13.509  0.1525 -0.5271 -0.4678
  140MPD2    H7 2188   3.894   2.021  13.523  0.2323 -0.5503  0.0927
  141TMC2    C1 2189   3.614   3.747  14.411  0.1785  0.1378  0.1061
  141TMC2    C2 2190   3.492   3.709  14.363  0.8695 -0.1440  0.3425
  141TMC2    C3 2191   3.382   3.793  14.386  0.1752  0.5145  0.3207
  141TMC2    C4 2192   3.633   3.857  14.483 -0.0218  0.3040 -0.8643
  141TMC2    C5 2193   3.528   3.939  14.504  0.3078  0.0627 -0.1507
  141TMC2    C6 2194   3.402   3.916  14.452  0.7347 -0.3390  0.6965
  141TMC2     C 2195   3.729   3.669  14.362  0.8294  0.2946 -0.7904
  141TMC2     O 2196   3.837   3.734  14.348  0.2616  0.3384 -0.1558
  141TMC2     H 2197   3.490   3.619  14.303 -1.1183  0.8769 -1.1210
  141TMC2    H1 2198   3.727   3.878  14.532  0.0130  0.1687 -0.8731
  141TMC2    H2 2199   3.317   3.981  14.471  1.4087  0.5565  0.6574
  141TMC2    C7 2200   3.556   4.070  14.559 -0.7301  0.5370 -0.1700
  141TMC2    C8 2201   3.250   3.743  14.354 -0.5519  0.5409 -0.2635
  141TMC2    O1 2202   3.462   4.139  14.596 -0.1090 -0.3273 -0.0362
  141TMC2    O2 2203   3.223   3.628  14.322  0.0705  0.2691 -0.2632
  141TMC2    O5 2204   3.174   3.856  14.321 -0.0941  0.0489  0.0130
  141TMC2    H5 2205   3.216   3.945  14.329  0.9034 -0.4696  0.5352
  142TMC2    C1 2206   2.736   3.177  10.028  0.5634  0.6603 -0.1474
  142TMC2    C2 2207   2.709   3.262   9.921 -0.4602  0.3651  0.6199
  142TMC2    C3 2208   2.768   3.379   9.927 -0.4188 -0.0985  0.0552
  142TMC2    C4 2209   2.809   3.212  10.141 -0.3568 -0.0423  0.4152
  142TMC2    C5 2210   2.857   3.341  10.136 -0.3839  0.0573  0.0496
  142TMC2    C6 2211   2.837   3.426  10.034 -0.8615 -0.4700 -0.0986
  142TMC2     C 2212   2.657   3.060  10.031 -0.0462 -0.2788 -0.9050
  142TMC2     O 2213   2.562   3.050   9.961 -1.1587 -0.2484 -0.2131
  142TMC2     H 2214   2.661   3.241   9.826 -1.0267  1.4269  0.6650
  142TMC2    H1 2215   2.823   3.152  10.231 -2.7208  0.1388  0.8974
  142TMC2    H2 2216   2.875   3.528  10.035  0.6349 -1.0324 -0.6304
  142TMC2    C7 2217   2.907   3.392  10.271 -0.6198 -0.2410  0.1797
  142TMC2    C8 2218   2.786   3.447   9.804  0.2950 -0.6791 -0.0346
  142TMC2    O1 2219   2.865   3.335  10.372 -0.1483  0.4600 -0.5608
  142TMC2    O2 2220   2.713   3.429   9.711  0.4523  0.2546 -0.1080
  142TMC2    O5 2221   2.909   3.503   9.808 -0.0416 -0.2720 -0.0626
  142TMC2    H5 2222   2.963   3.463   9.880 -0.6740 -1.2541 -0.1294
  143MPD2     C 2223   2.563   2.576  10.179  0.2141 -0.6834 -0.5671
  143MPD2    C1 2224   2.493   2.659  10.100  0.0783 -0.0256  0.3100
  143MPD2    C2 2225   2.535   2.788  10.077  0.0822 -0.0920  0.2543
  143MPD2    C3 2226   2.651   2.836  10.137  0.4710  0.0779 -0.1883
  143MPD2    C4 2227   2.719   2.750  10.217  0.1742 -0.8337 -0.1110
  143MPD2    C5 2228   2.673   2.619  10.237 -0.2737 -0.4418 -0.0392
  143MPD2     H 2229   2.471   2.859  10.025 -0.1687 -0.2076  0.4057
  143MPD2    H1 2230   2.805   2.786  10.272 -1.7073  0.2415  2.1035
  143MPD2    H2 2231   2.531   2.473  10.187  0.7596 -0.9139 -1.3940
  143MPD2    H3 2232   2.710   2.550  10.312  1.7093  1.8464  1.0936
  143MPD2     N 2233   2.711   2.961  10.108 -0.2901 -0.3398  0.1419
  143MPD2    H5 2234   2.802   2.980  10.147  0.4067 -2.2103 -0.5520
  143MPD2    N1 2235   2.366   2.614  10.053 -0.5726  0.1487 -0.2087
  143MPD2    H7 2236   2.332   2.526  10.091  2.4053  0.0639  2.2679
  144TMC2    C1 2237   4.601   1.080   0.430  0.5531  0.3130 -0.0900
  144TMC2    C2 2238   4.611   1.012   0.314 -0.1183 -0.2663 -0.1551
  144TMC2    C3 2239   4.735   0.978   0.280 -0.4212 -0.0796 -0.0360
  144TMC2    C4 2240   4.706   1.151   0.486  0.1124  0.3882  0.6968
  144TMC2    C5 2241   0.093   1.131   0.432 -0.0406 -0.1814  0.2409
  144TMC2    C6 2242   0.105   1.041   0.327 -0.1313  0.7113  0.0348
  144TMC2     C 2243   4.466   1.103   0.493 -0.8301 -0.6199 -0.0978
  144TMC2     O 2244   4.374   1.025   0.462 -0.5543 -0.2658  0.8919
  144TMC2     H 2245   4.523   0.964   0.273  1.5396 -0.2786 -3.7162
  144TMC2    H1 2246   4.690   1.200   0.581  0.3159  1.0195  0.4033
  144TMC2    H2 2247   0.204   1.016   0.289  0.4774 -1.4176  3.0715
  144TMC2    C7 2248   0.198   1.223   0.452 -0.3422  0.2510 -0.4998
  144TMC2    C8 2249   0.005   0.868   0.187 -0.2452  0.0062 -0.1405
  144TMC2    O1 2250   0.302   1.206   0.392  0.1744 -0.0330 -0.4213
  144TMC2    O2 2251   4.641   0.818   0.139  0.3917  0.0063  0.1711
  144TMC2    O5 2252   0.102   0.784   0.236 -0.1952 -0.7078 -0.3118
  144TMC2    H5 2253   0.186   0.829   0.258  0.2230 -1.0229 -1.2372
  145MPD2     C 2254   4.067   1.380   0.660 -0.5112  0.3235  0.1674
  145MPD2    C1 2255   4.091   1.295   0.553 -0.7126  0.4927 -0.3825
  145MPD2    C2 2256   4.212   1.229   0.533 -0.3799 -0.8313 -0.9643
  145MPD2    C3 2257   4.319   1.263   0.607 -0.3371  0.2191  0.0245
  145MPD2    C4 2258   4.300   1.345   0.719 -0.8121  0.1582 -0.5192
  145MPD2    C5 2259   4.171   1.390   0.748  0.8412 -0.3960 -0.1651
  145MPD2     H 2260   4.228   1.174   0.440  1.0317 -1.9785 -0.0508
  145MPD2    H1 2261   4.384   1.363   0.786 -2.4939  0.9378  1.3985
  145MPD2    H2 2262   3.974   1.428   0.688 -0.3641 -0.0345  1.2571
  145MPD2    H3 2263   4.156   1.461   0.828 -1.1675 -0.0749 -0.8248
  145MPD2     N 2264   4.447   1.206   0.581 -0.3969  0.5219 -0.0798
  145MPD2    H5 2265   4.525   1.234   0.639  0.2629 -1.4550 -0.0123
  145MPD2    N1 2266   3.994   1.270   0.457  0.6389  0.2799 -0.2945
  145MPD2    H7 2267   4.026   1.216   0.378  0.4953 -1.5668  0.9079
  146TMC2    C1 2268   1.284   4.483  12.421  0.0052 -0.2915  0.0076
  146TMC2    C2 2269   1.295   4.534  12.297 -0.2350  0.4331 -0.0221
  146TMC2    C3 2270   1.355   4.457  12.201  0.4810  0.3727 -0.4365
  146TMC2    C4 2271   1.346   4.361  12.454  0.4315  0.4354 -0.2142
  146TMC2    C5 2272   1.423   4.301  12.361 -0.5758 -0.2998 -0.1751
  146TMC2    C6 2273   1.434   4.353  12.234 -0.2121  0.3147  0.6353
  146TMC2     C 2274   1.276   4.584  12.525  0.1767 -0.1513 -0.1371
  146TMC2     O 2275   1.281   4.702  12.492 -0.4147  0.4852 -0.0593
  146TMC2     H 2276   1.228   4.615  12.272  2.1035  1.3328 -3.4777
  146TMC2    H1 2277   1.341   4.312  12.551  1.0409  3.7955  1.5014
  146TMC2    H2 2278   1.480   4.292  12.158  0.8116  1.7718  0.0723
  146TMC2    C7 2279   1.518   4.195  12.394  0.2691 -0.3143  0.1574
  146TMC2    C8 2280   1.401   4.518  12.075  0.2256 -0.9621 -0.3493
  146TMC2    O1 2281   1.586   4.152  12.301 -0.3418  0.7305  0.1621
  146TMC2    O2 2282   1.478   4.470  11.997  0.1096 -0.2854  0.3824
  146TMC2    O5 2283   1.394   4.651  12.081 -0.2197  0.4860 -0.4613
  146TMC2    H5 2284   1.320   4.686  12.136 -0.5555  0.0020 -0.6085
  147MPD2     C 2285   1.856   3.971  12.704 -0.8637  0.3794  0.5535
  147MPD2    C1 2286   1.757   4.015  12.782 -0.2397 -0.3964  0.7822
  147MPD2    C2 2287   1.647   4.076  12.724 -0.8623 -0.1632  0.4780
  147MPD2    C3 2288   1.647   4.098  12.583 -0.6161  0.4536 -0.6547
  147MPD2    C4 2289   1.755   4.063  12.506  0.1326 -0.2103 -0.5975
  147MPD2    C5 2290   1.859   3.997  12.569 -0.1919  0.5149  0.2641
  147MPD2     H 2291   1.557   4.102  12.778 -0.2357  0.4292  1.2489
  147MPD2    H1 2292   1.771   4.081  12.400  1.5277  1.2215 -0.1432
  147MPD2    H2 2293   1.940   3.917  12.748 -0.5929  0.5272  0.2164
  147MPD2    H3 2294   1.948   3.973  12.513 -0.8152 -2.2924  0.4724
  147MPD2     N 2295   1.528   4.157  12.527  0.2155  0.4831 -0.0378
  147MPD2    H5 2296   1.460   4.197  12.591 -0.0394  0.8825 -0.5541
  147MPD2    N1 2297   1.775   3.991  12.919  0.1287  0.3806 -0.4517
  147MPD2    H7 2298   1.865   3.950  12.942 -0.4893  0.0473  1.3074
  148TMC2    C1 2299   1.901   3.625  10.615 -0.0415 -0.3250 -0.4029
  148TMC2    C2 2300   1.879   3.703  10.724 -0.1003 -0.7398 -0.4497
  148TMC2    C3 2301   1.920   3.659  10.845  0.7788 -0.5373  0.4354
  148TMC2    C4 2302   1.945   3.494  10.632 -0.7016 -0.1475 -0.0439
  148TMC2    C5 2303   1.975   3.453  10.757 -0.6680 -0.3288 -0.0156
  148TMC2    C6 2304   1.960   3.527  10.868 -0.0140 -0.6884 -0.4676
  148TMC2     C 2305   1.788   3.630  10.520  1.4711  0.7608 -0.0904
  148TMC2     O 2306   1.723   3.736  10.523  0.3640  0.4278 -0.0770
  148TMC2     H 2307   1.836   3.802  10.711  0.0578 -0.7996 -1.3957
  148TMC2    H1 2308   1.971   3.428  10.550  1.0617  0.6025 -0.0879
  148TMC2    H2 2309   1.990   3.491  10.966  0.7711  0.9795 -0.0830
  148TMC2    C7 2310   1.979   3.307  10.772 -1.1905 -0.7375  0.0391
  148TMC2    C8 2311   1.875   3.740  10.958  0.3375  0.8540  0.4646
  148TMC2    O1 2312   1.909   3.245  10.690 -0.2103  0.5539 -0.0870
  148TMC2    O2 2313   1.783   3.819  10.954  0.1570 -0.0948 -0.1219
  148TMC2    O5 2314   1.978   3.739  11.051  0.1025 -0.8623 -0.6213
  148TMC2    H5 2315   2.058   3.694  11.017 -0.0825 -0.3783 -1.6941
  149MPD2     C 2316   1.562   3.570  10.344  0.7031  0.2049  0.3288
  149MPD2    C1 2317   1.642   3.470  10.402  0.7487 -0.2392 -0.4189
  149MPD2    C2 2318   1.612   3.332  10.405 -0.4778 -0.1693  0.3798
  149MPD2    C3 2319   1.496   3.295  10.347 -0.0925 -0.2895 -0.0687
  149MPD2    C4 2320   1.409   3.394  10.293 -0.4276 -0.3744  0.0973
  149MPD2    C5 2321   1.449   3.523  10.295  0.3696  0.1108  0.5848
  149MPD2     H 2322   1.677   3.263  10.458  0.5594  0.9189  0.5508
  149MPD2    H1 2323   1.311   3.370  10.254 -0.2135  0.7698 -1.1310
  149MPD2    H2 2324   1.582   3.677  10.348 -0.0553  0.4379 -1.9647
  149MPD2    H3 2325   1.379   3.600  10.264  2.0543  1.0555 -0.8948
  149MPD2     N 2326   1.459   3.165  10.327 -0.9477 -0.1658  1.0140
  149MPD2    H5 2327   1.373   3.154  10.275 -1.7901 -0.4957  2.4882
  149MPD2    N1 2328   1.748   3.504  10.480 -0.0545 -0.1614  0.3109
  149MPD2    H7 2329   1.807   3.429  10.516 -0.1436 -0.3482  0.0680
  150TMC2    C1 2330   3.432   2.376  12.013  0.0180  1.1046 -0.2921
  150TMC2    C2 2331   3.429   2.412  11.881  0.4844  0.5862 -0.5471
  150TMC2    C3 2332   3.551   2.444  11.827  0.0200 -0.0843 -0.2820
  150TMC2    C4 2333   3.545   2.386  12.083  0.8632 -0.2302  0.2914
  150TMC2    C5 2334   3.662   2.419  12.027 -0.8641  0.7146  0.5335
  150TMC2    C6 2335   3.667   2.451  11.901  0.3912 -0.2876  0.2665
  150TMC2     C 2336   3.314   2.331  12.076 -0.1039 -0.4225  0.0770
  150TMC2     O 2337   3.308   2.352  12.194  0.2988  0.8164  0.0768
  150TMC2     H 2338   3.342   2.410  11.816  0.9219  0.5110 -1.1301
  150TMC2    H1 2339   3.534   2.361  12.188  0.5581 -2.4994 -0.2845
  150TMC2    H2 2340   3.760   2.482  11.854 -0.8978  2.1600 -0.6181
  150TMC2    C7 2341   3.782   2.428  12.108 -0.2913  0.3868  0.2335
  150TMC2    C8 2342   3.554   2.484  11.682 -0.3829  0.0808  0.2365
  150TMC2    O1 2343   3.864   2.511  12.067 -0.5396  0.6278  0.0472
  150TMC2    O2 2344   3.646   2.540  11.622  0.1728 -0.0547 -0.1074
  150TMC2    O5 2345   3.478   2.391  11.621  0.6712  0.9816 -0.1910
  150TMC2    H5 2346   3.421   2.335  11.677  2.9342 -0.1821  0.9604
  151MPD2     C 2347   2.873   2.062  12.079 -0.0453  0.3339  0.1669
  151MPD2    C1 2348   2.910   2.094  11.950  0.0242  1.4644 -0.3310
  151MPD2    C2 2349   3.033   2.155  11.924 -0.4597  0.1090 -0.1778
  151MPD2    C3 2350   3.113   2.186  12.030  0.0358 -0.7116  0.2609
  151MPD2    C4 2351   3.077   2.165  12.155 -0.9405  0.8757  0.3259
  151MPD2    C5 2352   2.962   2.094  12.180  0.5605 -0.5853 -0.1490
  151MPD2     H 2353   3.055   2.176  11.820  0.8384 -0.4998 -0.0221
  151MPD2    H1 2354   3.139   2.190  12.241  0.1363 -2.3261  0.4655
  151MPD2    H2 2355   2.775   2.016  12.089  0.8041 -0.9398  2.5564
  151MPD2    H3 2356   2.939   2.077  12.284  0.8325 -1.4616 -0.2379
  151MPD2     N 2357   3.233   2.252  11.996  0.1438  0.5886  0.1299
  151MPD2    H5 2358   3.257   2.246  11.898  1.0066  0.5461  0.3427
  151MPD2    N1 2359   2.807   2.080  11.848 -0.0041  0.0951 -0.0610
  151MPD2    H7 2360   2.732   2.018  11.878 -1.1992  1.3162 -0.5294
  152TMC2    C1 2361   3.694   2.461  12.618  0.7908  0.0679 -0.6683
  152TMC2    C2 2362   3.736   2.421  12.742 -0.0476  0.4936 -0.5026
  152TMC2    C3 2363   3.860   2.475  12.794  1.2363  0.0100 -0.6860
  152TMC2    C4 2364   3.777   2.541  12.541  0.2316 -0.5680  0.5010
  152TMC2    C5 2365   3.903   2.578  12.591 -0.1391 -0.5165 -0.1735
  152TMC2    C6 2366   3.952   2.539  12.712  0.7480 -0.5145  0.4997
  152TMC2     C 2367   3.566   2.416  12.568  0.1580 -0.9082 -0.3409
  152TMC2     O 2368   3.529   2.463  12.459 -0.6823  0.0440  0.1198
  152TMC2     H 2369   3.667   2.372  12.810 -0.1294 -0.2939 -1.1486
  152TMC2    H1 2370   3.751   2.566  12.438 -2.8549  0.2687  1.4869
  152TMC2    H2 2371   4.047   2.572  12.752 -0.5087  1.4936  1.8154
  152TMC2    C7 2372   3.963   2.684  12.518  0.7798 -0.0087  0.1570
  152TMC2    C8 2373   3.896   2.424  12.918 -0.1683  0.1614 -0.6477
  152TMC2    O1 2374   3.893   2.727  12.427  0.3559 -0.3218  0.2836
  152TMC2    O2 2375   3.987   2.480  12.978 -0.2076 -0.3123 -0.0220
  152TMC2    O5 2376   3.882   2.288  12.910  0.8725  0.9193 -0.2904
  152TMC2    H5 2377   3.816   2.263  12.842  0.5815  1.5658 -0.2456
  153MPD2     C 2378   3.365   2.135  12.658 -0.3856 -0.3397 -0.0394
  153MPD2    C1 2379   3.387   2.258  12.612  0.5381 -0.6565 -0.5892
  153MPD2    C2 2380   3.289   2.332  12.550  0.4989  0.1171 -1.2082
  153MPD2    C3 2381   3.156   2.276  12.528  0.3716  0.2716  0.0173
  153MPD2    C4 2382   3.134   2.153  12.584  0.8016  1.2549 -0.2063
  153MPD2    C5 2383   3.241   2.078  12.636  0.4309  0.1262 -0.0078
  153MPD2     H 2384   3.320   2.428  12.512  2.1971  0.2773  0.5424
  153MPD2    H1 2385   3.041   2.098  12.585  1.6671 -0.2312 -1.9987
  153MPD2    H2 2386   3.440   2.073  12.706  0.3579 -0.1982 -1.0047
  153MPD2    H3 2387   3.211   1.977  12.663 -1.1906  0.2807 -1.1955
  153MPD2     N 2388   3.062   2.360  12.463 -0.8074  0.5285  0.1095
  153MPD2    H5 2389   3.092   2.449  12.425 -0.8947  0.5842  0.1698
  153MPD2    N1 2390   3.516   2.307  12.636 -0.6047 -0.6462 -0.2053
  153MPD2    H7 2391   3.577   2.255  12.698  1.4432 -0.5091 -2.1235
  154TMC2    C1 2392   0.146   2.408   0.580  0.5619 -0.5305 -0.3179
  154TMC2    C2 2393   0.196   2.472   0.692  0.6274  0.4418  0.3764
  154TMC2    C3 2394   0.318   2.433   0.732 -0.3265  0.3746 -0.5068
  154TMC2    C4 2395   0.220   2.314   0.508  0.3457  0.2636 -0.8710
  154TMC2    C5 2396   0.347   2.285   0.548  0.0015 -0.5718 -0.4958
  154TMC2    C6 2397   0.390   2.339   0.665 -0.2235 -0.2164 -0.3292
  154TMC2     C 2398   0.007   2.432   0.551 -1.4515  0.4523 -0.6047
  154TMC2     O 2399   4.693   2.508   0.634  0.1720 -0.0129 -0.4101
  154TMC2     H 2400   0.149   2.550   0.750 -1.2659 -0.5255  0.1531
  154TMC2    H1 2401   0.170   2.251   0.436  1.1352 -0.0848 -1.1225
  154TMC2    H2 2402   0.494   2.317   0.683 -0.4342 -1.8870 -1.2062
  154TMC2    C7 2403   0.399   2.162   0.505  0.1477 -0.3319 -0.0698
  154TMC2    C8 2404   0.378   2.501   0.852 -0.2071 -0.1600  0.2145
  154TMC2    O1 2405   0.468   2.101   0.583  0.2271 -0.1403 -0.3163
  154TMC2    O2 2406   0.340   2.606   0.901 -0.3748  0.5330 -0.3209
  154TMC2    O5 2407   0.467   2.418   0.910  0.0621  0.9514  0.6551
  154TMC2    H5 2408   0.469   2.340   0.850 -0.3428  1.7010 -0.3233
  155MPD2     C 2409   4.568   2.386   0.228  0.5038  0.8007  0.6049
  155MPD2    C1 2410   4.576   2.428   0.359 -0.5212 -0.3950 -0.1431
  155MPD2    C2 2411   4.469   2.488   0.424  0.2589 -0.5341  0.3598
  155MPD2    C3 2412   4.355   2.530   0.350 -0.1627 -0.3251 -0.0230
  155MPD2    C4 2413   4.355   2.513   0.214 -0.1682  0.2533 -0.3095
  155MPD2    C5 2414   4.456   2.434   0.159 -0.1060  0.1781  0.8094
  155MPD2     H 2415   4.480   2.511   0.529  1.6976  1.5298 -0.2362
  155MPD2    H1 2416   4.269   2.543   0.155 -0.8194 -1.0963 -0.0551
  155MPD2    H2 2417   4.647   2.323   0.189 -0.5110  0.3108 -0.6364
  155MPD2    H3 2418   4.452   2.430   0.051  1.5035  1.1261  0.7117
  155MPD2     N 2419   4.258   2.603   0.423  0.2955 -0.1463 -0.2052
  155MPD2    H5 2420   4.254   2.591   0.524 -1.8004  0.7579 -0.1851
  155MPD2    N1 2421   4.699   2.388   0.421 -0.1118  0.6670  0.1577
  155MPD2    H7 2422   0.033   2.347   0.362  0.3778  3.7511 -1.3923
  156TMC2    C1 2423   4.186   0.170  11.525  0.5425  0.2776 -0.2105
  156TMC2    C2 2424   4.127   0.069  11.450 -0.2124  0.5059 -0.3627
  156TMC2    C3 2425   4.061   0.112  11.341  1.1517 -0.3233 -0.0972
  156TMC2    C4 2426   4.192   0.301  11.484  0.4960  0.8225  0.0362
  156TMC2    C5 2427   4.114   0.332  11.381 -0.0438 -0.3800  0.0887
  156TMC2    C6 2428   4.054   0.239  11.302 -0.2840 -0.6383 -0.0789
  156TMC2     C 2429   4.168   0.151  11.672  0.2228  0.1103 -0.6807
  156TMC2     O 2430   4.102   0.238  11.732  0.0086 -0.0403  0.5076
  156TMC2     H 2431   4.127   4.702  11.479 -0.3517  0.8879  1.0373
  156TMC2    H1 2432   4.239   0.374  11.548 -0.4001 -1.1707  2.9880
  156TMC2    H2 2433   3.971   0.267  11.237  0.2010  2.3762  0.5841
  156TMC2    C7 2434   4.033   0.450  11.411 -0.1869 -0.2010 -0.0311
  156TMC2    C8 2435   3.967   0.013  11.286  0.1210 -0.7047 -0.7788
  156TMC2    O1 2436   3.970   0.515  11.323 -0.0470  0.0998 -0.4869
  156TMC2    O2 2437   3.910   4.672  11.363 -0.0647  0.0645  0.1761
  156TMC2    O5 2438   3.902   0.053  11.176  0.3601 -0.6188 -0.3018
  156TMC2    H5 2439   3.956   0.094  11.105  2.7948 -1.3315  1.1368
  157MPD2     C 2440   4.372   4.667  11.877  0.6363  0.2937  0.1171
  157MPD2    C1 2441   4.263   0.005  11.848 -0.1758  0.1615 -0.2592
  157MPD2    C2 2442   4.169   0.022  11.948  0.4276 -0.7355  0.7206
  157MPD2    C3 2443   4.184   4.714  12.079  0.0287  0.2108 -0.0152
  157MPD2    C4 2444   4.307   4.645  12.106 -0.3161  0.8516  0.0533
  157MPD2    C5 2445   4.393   4.619  12.001 -0.2021  0.2475  0.0142
  157MPD2     H 2446   4.085   0.086  11.923 -1.9672 -3.4507  1.9186
  157MPD2    H1 2447   4.342   4.623  12.206  0.7723  0.2424 -0.4716
  157MPD2    H2 2448   4.439   4.643  11.795 -1.4408 -5.2582 -0.0037
  157MPD2    H3 2449   4.477   4.558  12.032  0.2727  1.2412  0.6752
  157MPD2     N 2450   4.078   4.735  12.171 -0.0591 -0.5828 -0.3740
  157MPD2    H5 2451   4.001   0.055  12.140 -0.3955 -0.8466 -0.0462
  157MPD2    N1 2452   4.246   0.051  11.716  0.1952 -0.2284 -0.3812
  157MPD2    H7 2453   4.302   0.006  11.645  0.8302  1.4525 -0.9374
  158TMC2    C1 2454   4.243   3.369  13.364 -0.4253  0.0481 -0.3820
  158TMC2    C2 2455   4.341   3.452  13.315 -0.2996  0.0610 -0.3615
  158TMC2    C3 2456   4.289   3.557  13.240  0.4410 -0.8234 -1.2910
  158TMC2    C4 2457   4.115   3.384  13.348  0.3156  0.0423 -0.2188
  158TMC2    C5 2458   4.076   3.488  13.266 -0.8312  0.3231 -0.0998
  158TMC2    C6 2459   4.161   3.580  13.218 -1.1141 -0.3343  0.1905
  158TMC2     C 2460   4.295   3.281  13.468  0.5253  0.2078 -0.0128
  158TMC2     O 2461   4.417   3.273  13.477  0.2924 -0.0815  0.4202
  158TMC2     H 2462   4.448   3.437  13.315 -0.5633 -1.7549 -2.9306
  158TMC2    H1 2463   4.041   3.323  13.399 -0.9108  1.2240 -0.5748
  158TMC2    H2 2464   4.127   3.672  13.173 -0.5793  0.2928  1.0558
  158TMC2    C7 2465   3.934   3.510  13.234 -0.2026 -0.1610  0.3709
  158TMC2    C8 2466   4.377   3.658  13.194  0.1693 -0.5280  0.7509
  158TMC2    O1 2467   3.914   3.585  13.141 -0.6700 -0.2975  0.5206
  158TMC2    O2 2468   4.367   3.731  13.098  0.1797  0.1571  0.1498
  158TMC2    O5 2469   4.433   3.690  13.314 -0.4070  0.3437 -0.2069
  158TMC2    H5 2470   4.396   3.622  13.374 -1.1166 -0.8297 -1.9766
  159MPD2     C 2471   4.241   3.007  13.900 -0.2535  0.4414 -0.1551
  159MPD2    C1 2472   4.115   3.016  13.834 -0.1092  0.0003  0.9455
  159MPD2    C2 2473   4.111   3.087  13.715  0.2599  0.5596  0.3192
  159MPD2    C3 2474   4.227   3.132  13.658  0.3215 -0.5731 -0.1009
  159MPD2    C4 2475   4.351   3.106  13.708 -0.0414  0.7007  0.9867
  159MPD2    C5 2476   4.355   3.045  13.830  0.2263  0.0218  0.6027
  159MPD2     H 2477   4.014   3.106  13.671  0.3736 -0.4146 -0.3746
  159MPD2    H1 2478   4.450   3.123  13.668  1.0477 -0.9822  2.9439
  159MPD2    H2 2479   4.245   2.958  13.997  0.2658 -0.4038 -0.6021
  159MPD2    H3 2480   4.453   3.030  13.874  0.6691  0.6418 -0.1680
  159MPD2     N 2481   4.201   3.212  13.536 -0.3090  0.6931  0.6977
  159MPD2    H5 2482   4.108   3.211  13.496 -0.6078 -0.2522  1.4045
  159MPD2    N1 2483   4.001   2.961  13.900 -0.0108 -0.6041 -0.0255
  159MPD2    H7 2484   4.014   2.910  13.987  2.0361 -0.8234 -0.4626
  160TMC2    C1 2485   2.974   2.730   1.705 -0.3920 -0.3450 -0.3470
  160TMC2    C2 2486   2.948   2.724   1.838 -0.1188 -0.4549 -0.6032
  160TMC2    C3 2487   2.951   2.606   1.903  0.0290  0.7676  0.1490
  160TMC2    C4 2488   2.998   2.617   1.627  0.4570 -0.3472 -0.2235
  160TMC2    C5 2489   2.991   2.500   1.695  0.0572  0.4720 -0.1106
  160TMC2    C6 2490   2.976   2.488   1.831  0.4734 -0.5525 -0.3312
  160TMC2     C 2491   3.004   2.862   1.654 -0.0637 -0.5889  0.4829
  160TMC2     O 2492   3.016   2.959   1.729  0.7255 -0.0410 -0.3206
  160TMC2     H 2493   2.928   2.817   1.891  1.2981 -1.0033  0.8858
  160TMC2    H1 2494   3.026   2.621   1.522  3.8309  0.4921  0.7317
  160TMC2    H2 2495   3.014   2.397   1.875  0.5716  0.0731  0.8585
  160TMC2    C7 2496   3.032   2.382   1.617 -0.0981  0.2103 -0.1193
  160TMC2    C8 2497   2.930   2.612   2.048 -0.4566  0.3972 -0.0729
  160TMC2    O1 2498   2.942   2.302   1.599 -0.4993  0.1913  0.3643
  160TMC2    O2 2499   2.908   2.717   2.105  0.1906 -0.2750  0.2335
  160TMC2    O5 2500   2.890   2.489   2.088 -0.1618  0.1440  0.5211
  160TMC2    H5 2501   2.913   2.410   2.035  0.3074 -0.3732  1.4960
  161MPD2     C 2502   3.125   3.087   1.473  0.5666  0.2362  0.1832
  161MPD2    C1 2503   3.081   2.957   1.440 -0.1472 -0.4326  0.3516
  161MPD2    C2 2504   3.107   2.929   1.313 -0.4067  0.4250 -0.0354
  161MPD2    C3 2505   3.165   3.011   1.216  0.4731  0.0801  0.3242
  161MPD2    C4 2506   3.207   3.135   1.250 -0.4606  0.1470 -0.0722
  161MPD2    C5 2507   3.183   3.177   1.379 -0.3964  0.0924 -0.6676
  161MPD2     H 2508   3.077   2.828   1.285  2.3176 -0.2136 -0.6506
  161MPD2    H1 2509   3.249   3.199   1.173 -0.2300 -0.5892 -0.5709
  161MPD2    H2 2510   3.115   3.116   1.577 -2.0821 -0.8188  0.2408
  161MPD2    H3 2511   3.206   3.277   1.412  1.9744 -0.2796 -1.1930
  161MPD2     N 2512   3.158   2.984   1.071  0.0638  0.8735 -0.7024
  161MPD2    H5 2513   3.176   3.056   1.002 -0.2003 -0.4184 -2.1314
  161MPD2    N1 2514   3.031   2.853   1.515  0.0926  0.2162  0.0100
  161MPD2    H7 2515   3.007   2.766   1.469  0.2682 -0.1353  0.5889
  162TMC2    C1 2516   1.386   3.679   1.203 -0.0461 -0.2629 -0.4193
  162TMC2    C2 2517   1.338   3.796   1.257  0.4331  0.5410  0.2899
  162TMC2    C3 2518   1.287   3.791   1.381  0.0909  0.1582  0.1653
  162TMC2    C4 2519   1.374   3.553   1.258  0.6651  0.0267 -1.1111
  162TMC2    C5 2520   1.314   3.554   1.385 -0.1337  0.3746  0.2866
  162TMC2    C6 2521   1.270   3.671   1.441  0.5114  0.1537  0.2379
  162TMC2     C 2522   1.370   3.668   1.056 -0.0941 -0.1128  0.2438
  162TMC2     O 2523   1.426   3.579   0.992  0.1685 -0.2562  0.6885
  162TMC2     H 2524   1.367   3.892   1.215  2.2899  0.1404  0.6371
  162TMC2    H1 2525   1.395   3.464   1.199 -0.9123 -0.6874 -0.5831
  162TMC2    H2 2526   1.251   3.679   1.548  0.0951 -1.6361  0.3004
  162TMC2    C7 2527   1.299   3.436   1.464 -0.6415 -0.6091 -0.3285
  162TMC2    C8 2528   1.283   3.912   1.465 -0.3800  0.1145 -0.6955
  162TMC2    O1 2529   1.202   3.415   1.536 -1.2058 -0.2584 -0.0846
  162TMC2    O2 2530   1.193   3.957   1.540 -0.1505 -0.1460  0.0112
  162TMC2    O5 2531   1.414   3.939   1.491 -0.0858  0.7183  0.0672
  162TMC2    H5 2532   1.471   3.902   1.420  1.4408  1.2634  0.9964
  163MPD2     C 2533   1.090   3.766   0.636 -0.5090 -0.3017  0.0709
  163MPD2    C1 2534   1.210   3.698   0.643 -0.0550  0.2848 -0.0979
  163MPD2    C2 2535   1.263   3.698   0.767 -0.0251 -0.0719  0.3233
  163MPD2    C3 2536   1.203   3.747   0.888 -0.0716  0.7108 -0.4763
  163MPD2    C4 2537   1.082   3.797   0.874 -0.3809  0.7179  0.5340
  163MPD2    C5 2538   1.029   3.807   0.755  1.1718  0.1857 -0.3606
  163MPD2     H 2539   1.358   3.647   0.775 -1.0329 -1.9188  0.5668
  163MPD2    H1 2540   1.023   3.826   0.960 -0.1122  0.4062  0.8245
  163MPD2    H2 2541   1.030   3.781   0.547  0.2172  0.3592 -0.3119
  163MPD2    H3 2542   0.933   3.857   0.766  0.8273 -0.4092 -0.6793
  163MPD2     N 2543   1.269   3.749   1.008  1.3120  0.1729 -0.1791
  163MPD2    H5 2544   1.217   3.796   1.083  0.0563  0.1596 -1.0379
  163MPD2    N1 2545   1.269   3.637   0.527  0.4005 -0.1482  0.5160
  163MPD2    H7 2546   1.356   3.587   0.542  1.6288  1.7420 -0.3322
  164TMC2    C1 2547   2.586   3.404  11.604 -0.2051  0.0121 -0.1610
  164TMC2    C2 2548   2.696   3.485  11.573  0.1824  0.5295 -0.4950
  164TMC2    C3 2549   2.676   3.623  11.563 -0.0095  0.4592 -0.2349
  164TMC2    C4 2550   2.464   3.452  11.604  0.2694  0.7823  0.0894
  164TMC2    C5 2551   2.449   3.585  11.579  0.2767 -0.0287  0.2744
  164TMC2    C6 2552   2.546   3.675  11.558 -0.6055  0.1497  0.0140
  164TMC2     C 2553   2.588   3.266  11.569  0.3113 -0.1351 -0.2325
  164TMC2     O 2554   2.504   3.192  11.623 -0.7694 -0.0846 -0.2393
  164TMC2     H 2555   2.790   3.440  11.602  0.7443  0.0571 -3.0630
  164TMC2    H1 2556   2.383   3.388  11.641  1.2429 -1.5267 -1.7647
  164TMC2    H2 2557   2.520   3.776  11.528 -0.7703 -0.6032 -2.4461
  164TMC2    C7 2558   2.312   3.625  11.570  0.5313  0.2422 -0.8220
  164TMC2    C8 2559   2.781   3.725  11.525 -0.0547 -0.0075 -0.2259
  164TMC2    O1 2560   2.237   3.534  11.540  0.0349 -0.2525 -0.2565
  164TMC2    O2 2561   2.761   3.829  11.464  0.5275 -0.4971  0.0602
  164TMC2    O5 2562   2.900   3.663  11.530 -0.7150  0.8561  0.6394
  164TMC2    H5 2563   2.906   3.596  11.602 -0.5167 -1.1813 -1.2712
  165TMC2    C1 2564   2.754   1.382   1.260 -0.6133 -0.5352  0.5926
  165TMC2    C2 2565   2.798   1.253   1.228 -0.4093  0.2864  0.7803
  165TMC2    C3 2566   2.925   1.242   1.184  1.3966 -0.1340 -0.0249
  165TMC2    C4 2567   2.829   1.497   1.243  0.0270 -0.0544 -0.3553
  165TMC2    C5 2568   2.956   1.482   1.193  0.3083  0.7442 -0.5719
  165TMC2    C6 2569   3.007   1.355   1.175  0.2917  0.2908  0.5254
  165TMC2     C 2570   2.638   1.387   1.345  0.3367 -0.1806  0.1013
  165TMC2     O 2571   2.567   1.288   1.349 -0.8364  0.0916  0.4309
  165TMC2     H 2572   2.738   1.166   1.254 -1.1886  0.8932  0.9842
  165TMC2    H1 2573   2.783   1.594   1.252  1.1093  0.5098 -0.9416
  165TMC2    H2 2574   3.103   1.339   1.128  1.0827  2.0442  1.5679
  165TMC2    C7 2575   3.050   1.592   1.203 -0.4187  0.0753 -0.2189
  165TMC2    C8 2576   2.997   1.122   1.191 -0.2965  0.3315  0.0845
  165TMC2    O1 2577   3.146   1.566   1.133  0.4467  0.1224 -0.4425
  165TMC2    O2 2578   3.101   1.119   1.249 -0.9843 -0.6930  0.5931
  165TMC2    O5 2579   2.905   1.021   1.202 -0.2356  0.3771 -0.1942
  165TMC2    H5 2580   2.859   1.017   1.116  0.6978  1.4145 -0.7468
  166MPD2     C 2581   2.305   1.619   1.655  0.0093 -0.0494 -0.9163
  166MPD2    C1 2582   2.286   1.519   1.562  0.0680 -0.6016 -0.1409
  166MPD2    C2 2583   2.390   1.476   1.486  0.0271  0.4075  0.0187
  166MPD2    C3 2584   2.511   1.538   1.499  0.9417  0.5350 -0.0415
  166MPD2    C4 2585   2.529   1.638   1.593  0.6224  0.6922 -0.8344
  166MPD2    C5 2586   2.426   1.668   1.679 -0.2401 -0.2516  0.6182
  166MPD2     H 2587   2.370   1.405   1.407  1.5708  0.0558 -0.0554
  166MPD2    H1 2588   2.626   1.681   1.613  0.4025  0.3452  0.9960
  166MPD2    H2 2589   2.226   1.669   1.708  0.7798  0.6612 -0.4394
  166MPD2    H3 2590   2.438   1.747   1.752 -0.2599  2.0030 -1.7838
  166MPD2     N 2591   2.629   1.496   1.431  0.2412 -0.2282 -0.0752
  166MPD2    H5 2592   2.715   1.548   1.445  0.3093 -0.0524 -1.1389
  166MPD2    N1 2593   2.149   1.467   1.544  0.1196 -0.0291 -0.6633
  166MPD2    H7 2594   2.081   1.509   1.607  0.3041  0.4466 -0.7751
  167TMC2    C1 2595   1.509   3.314  13.124 -0.0969  0.2633 -0.6334
  167TMC2    C2 2596   1.396   3.324  13.194  0.0243  0.5686  0.2935
  167TMC2    C3 2597   1.356   3.210  13.253 -0.8033 -0.1500 -0.1372
  167TMC2    C4 2598   1.590   3.202  13.120  1.2590  0.1820  0.2549
  167TMC2    C5 2599   1.541   3.090  13.183 -1.2426  0.8447  0.5309
  167TMC2    C6 2600   1.422   3.086  13.251  0.0792 -0.0853  0.2724
  167TMC2     C 2601   1.535   3.412  13.011 -0.2818  0.1049  0.0808
  167TMC2     O 2602   1.532   3.525  13.049  0.1193 -0.3527 -0.3427
  167TMC2     H 2603   1.334   3.413  13.191 -1.1440 -0.3855 -3.0432
  167TMC2    H1 2604   1.684   3.199  13.067  0.9946  2.0003 -0.2986
  167TMC2    H2 2605   1.377   3.000  13.300  2.1025 -0.3785  1.5574
  167TMC2    C7 2606   1.569   2.963  13.118 -0.2690 -0.5286  1.0809
  167TMC2    C8 2607   1.245   3.232  13.346 -0.5349  0.0584  0.5663
  167TMC2    O1 2608   1.478   2.880  13.106  0.1171  0.1257  0.5273
  167TMC2    O2 2609   1.217   3.332  13.409  0.3400  0.2411 -0.8714
  167TMC2    O5 2610   1.172   3.122  13.336 -0.0744 -0.1327  0.5190
  167TMC2    H5 2611   1.213   3.073  13.262 -0.3749 -1.3878  1.1623
  168MPD2     C 2612   1.673   3.560  12.804  0.0411  0.5496 -0.1739
  168MPD2    C1 2613   1.651   3.424  12.803 -0.7066  0.2940  0.4017
  168MPD2    C2 2614   1.712   3.343  12.708 -0.1920 -0.0912 -0.1601
  168MPD2    C3 2615   1.796   3.401  12.609 -0.2758  0.0166 -0.4369
  168MPD2    C4 2616   1.816   3.538  12.616  0.5822  0.1225 -0.1730
  168MPD2    C5 2617   1.752   3.617  12.703 -0.9695 -0.2375 -0.1424
  168MPD2     H 2618   1.700   3.236  12.715  1.0055 -0.2423 -0.4261
  168MPD2    H1 2619   1.888   3.587  12.552 -0.3497  2.3535  0.4826
  168MPD2    H2 2620   1.626   3.632  12.870 -0.4216 -1.2536  1.4540
  168MPD2    H3 2621   1.768   3.723  12.690  2.7195 -0.9152 -0.9662
  168MPD2     N 2622   1.859   3.333  12.502 -0.2660  0.0837 -0.3441
  168MPD2    H5 2623   1.905   3.394  12.435  1.4862 -2.2657 -1.2632
  168MPD2    N1 2624   1.586   3.351  12.903 -0.9152 -0.4222 -0.1740
  168MPD2    H7 2625   1.569   3.253  12.882  1.3932 -0.5598 -1.4321
  169MPD1     C 2626   3.845   3.623   8.977 -0.1642  0.6795 -0.6105
  169MPD1    C1 2627   3.806   3.499   8.990 -0.2529  0.0171 -0.0694
  169MPD1    C2 2628   3.899   3.412   9.051  0.3558  0.1576  0.6707
  169MPD1    C3 2629   4.012   3.454   9.110  0.2847  0.6448 -0.2142
  169MPD1    C4 2630   4.051   3.585   9.094  0.2081  0.5896 -1.4765
  169MPD1    C5 2631   3.963   3.663   9.026  0.3259  0.1881  0.2511
  169MPD1     H 2632   3.880   3.305   9.051 -1.2965  0.4547  1.1865
  169MPD1    H1 2633   4.139   3.630   9.138 -0.3076  1.1318 -0.9878
  169MPD1    H2 2634   3.788   3.691   8.915 -0.2937  1.2547  0.1369
  169MPD1    H3 2635   3.999   3.765   9.015 -0.8545  0.6396  0.5898
  169MPD1     N 2636   4.093   3.360   9.179 -0.1505  0.5683 -0.1999
  169MPD1    H5 2637   4.062   3.264   9.190 -0.3484  0.7881  1.2889
  169MPD1    N1 2638   3.692   3.449   8.929 -0.3580  0.6249 -0.8452
  169MPD1    H6 2639   3.666   3.354   8.954  0.0367  0.1671 -2.1238
  169MPD1    H7 2640   3.608   3.507   8.931 -1.0283 -0.4234  0.9480
  170MPD1     C 2641   2.057   0.021  12.826  0.2585 -0.7792  0.0203
  170MPD1    C1 2642   2.085   4.666  12.926 -0.5515 -0.4628  0.3006
  170MPD1    C2 2643   2.106   4.720  13.054 -0.4452  0.3433 -0.1835
  170MPD1    C3 2644   2.099   0.118  13.081 -0.3083 -0.7137 -0.0280
  170MPD1    C4 2645   2.061   0.206  12.979  0.2045  0.7213  0.2301
  170MPD1    C5 2646   2.038   0.154  12.856 -0.2263 -0.1641 -0.4185
  170MPD1     H 2647   2.147   4.658  13.133 -0.6938 -0.5984 -0.7869
  170MPD1    H1 2648   2.068   0.313  12.990 -1.0712  0.9367 -1.0583
  170MPD1    H2 2649   2.037   4.731  12.723  0.3474  1.3187 -0.5785
  170MPD1    H3 2650   2.033   0.218  12.768  1.2286 -1.5445 -1.4889
  170MPD1     N 2651   2.140   0.149  13.210  0.1614  0.0434 -0.0712
  170MPD1    H5 2652   2.187   0.078  13.265 -1.1353 -2.4853 -2.2627
  170MPD1    N1 2653   2.130   4.539  12.889 -0.3271  0.2043  0.4842
  170MPD1    H6 2654   2.083   4.507  12.805  0.2644 -0.4245  0.4000
  170MPD1    H7 2655   2.108   4.481  12.970  0.7869  0.2941  0.8442
  171MPD1     C 2656   0.352   1.499  15.508 -0.1891  0.3013 -0.3617
  171MPD1    C1 2657   0.475   1.459  15.453  0.1603 -0.7295 -0.0952
  171MPD1    C2 2658   0.596   1.500  15.510  0.4656 -0.7893  0.4427
  171MPD1    C3 2659   0.598   1.553  15.638 -0.4701  0.0040 -0.3773
  171MPD1    C4 2660   0.471   1.599  15.687 -0.1287 -0.0499 -0.3640
  171MPD1    C5 2661   0.354   1.579  15.614  0.1930 -0.3479 -0.0434
  171MPD1     H 2662   0.691   1.488  15.459  0.5912  0.7275  0.3177
  171MPD1    H1 2663   0.476   1.652  15.782  2.0098  1.6747 -1.4377
  171MPD1    H2 2664   0.253   1.486  15.467 -0.8478 -0.6303  1.4957
  171MPD1    H3 2665   0.259   1.618  15.649 -0.1331 -0.9228 -0.2905
  171MPD1     N 2666   0.711   1.573  15.720 -0.3133 -0.5172  0.3174
  171MPD1    H5 2667   0.708   1.617  15.812  1.1202  0.8463 -0.3002
  171MPD1    N1 2668   0.477   1.404  15.322  0.1774 -0.9132  0.2350
  171MPD1    H6 2669   0.568   1.363  15.298  0.9788  0.0565  1.6013
  171MPD1    H7 2670   0.395   1.345  15.305  0.0994 -1.2942  1.9476
  172MPD1     C 2671   3.862   0.465  17.557  0.2510  0.0096  0.4892
  172MPD1    C1 2672   3.886   0.483  17.690  0.4983 -0.0148  0.3694
  172MPD1    C2 2673   3.979   0.577  17.729 -0.5211 -0.2553 -0.6118
  172MPD1    C3 2674   4.052   0.641  17.633  0.0618  0.1350  0.2246
  172MPD1    C4 2675   4.031   0.615  17.501  0.2557  0.5965 -0.2597
  172MPD1    C5 2676   3.944   0.521  17.466 -0.4485  0.9661 -0.5053
  172MPD1     H 2677   4.000   0.593   0.083  0.8256 -0.8805 -0.7955
  172MPD1    H1 2678   4.100   0.657  17.430 -0.1190 -0.2561 -1.1240
  172MPD1    H2 2679   3.786   0.395  17.524 -0.0732  0.3683  0.4770
  172MPD1    H3 2680   3.916   0.510  17.361 -0.0337  1.3981 -0.6621
  172MPD1     N 2681   4.142   0.748  17.662 -0.0886 -0.1244  0.3402
  172MPD1    H5 2682   4.194   0.786  17.585  0.0511  0.3317  0.6597
  172MPD1    N1 2683   3.806   0.422   0.038  0.0248 -0.0646  0.4493
  172MPD1    H6 2684   3.855   0.415   0.127  0.4041 -2.0504  0.0839
  172MPD1    H7 2685   3.777   0.329   0.009  0.7765 -0.4517  0.9389
  173MPD1     C 2686   1.557   0.757  13.955 -0.0951  0.4259  0.3566
  173MPD1    C1 2687   1.602   0.863  14.028 -0.1644  0.1537  0.0451
  173MPD1    C2 2688   1.593   0.844  14.166 -0.2184 -0.1067  0.7775
  173MPD1    C3 2689   1.535   0.733  14.222 -0.4306  0.1325 -0.5773
  173MPD1    C4 2690   1.471   0.640  14.147  0.0978  0.2006  0.4300
  173MPD1    C5 2691   1.495   0.647  14.010  0.4537 -0.0274 -0.5095
  173MPD1     H 2692   1.626   0.923  14.232  2.1874 -0.9327  0.5727
  173MPD1    H1 2693   1.432   0.543  14.177 -0.5883  0.1522 -0.6259
  173MPD1    H2 2694   1.573   0.772  13.849  0.4877  0.2438  0.4157
  173MPD1    H3 2695   1.469   0.560  13.952  1.0541 -0.7053  0.2333
  173MPD1     N 2696   1.534   0.735  14.366  0.3036  0.2238 -0.4506
  173MPD1    H5 2697   1.587   0.811  14.406  2.4598 -0.7574 -1.4499
  173MPD1    N1 2698   1.677   0.962  13.973  0.1023 -0.4331  0.7074
  173MPD1    H6 2699   1.658   0.973  13.873 -0.9471 -0.0653  0.9461
  173MPD1    H7 2700   1.669   1.050  14.023  0.1523 -0.4989  0.8305
  174MPD1     C 2701   2.269   0.625  14.604  0.0170  0.9182  0.3528
  174MPD1    C1 2702   2.215   0.564  14.715 -0.6774  0.4375  0.0246
  174MPD1    C2 2703   2.085   0.602  14.736  0.9168 -0.6542  0.3153
  174MPD1    C3 2704   2.015   0.684  14.653  0.1283 -0.0323 -0.1508
  174MPD1    C4 2705   2.075   0.744  14.550 -0.4507 -0.2102  0.6980
  174MPD1    C5 2706   2.207   0.724  14.529 -0.5999 -0.2166 -0.0985
  174MPD1     H 2707   2.041   0.568  14.829 -2.4789 -0.7937 -1.3284
  174MPD1    H1 2708   2.026   0.814  14.484  0.4122 -0.4134 -0.1663
  174MPD1    H2 2709   2.367   0.601  14.567 -0.0145  0.4154  0.5912
  174MPD1    H3 2710   2.270   0.783  14.463  1.8528 -1.1757  1.4081
  174MPD1     N 2711   1.875   0.709  14.677 -0.1046 -0.5787  0.0141
  174MPD1    H5 2712   1.828   0.772  14.613  1.9002 -0.0914 -0.9604
  174MPD1    N1 2713   2.288   0.485  14.808  0.0126 -0.0960 -0.1822
  174MPD1    H6 2714   2.367   0.438  14.763  0.9784  1.4744 -0.1443
  174MPD1    H7 2715   2.231   0.422  14.864  0.7145 -0.6168 -0.0536
  175MPD1     C 2716   4.713   1.381  15.237  0.0496 -0.1027 -0.8795
  175MPD1    C1 2717   4.589   1.326  15.233 -0.6431 -1.0292  0.5191
  175MPD1    C2 2718   4.495   1.383  15.316 -0.6798  0.4379  0.5504
  175MPD1    C3 2719   4.520   1.481  15.401  0.3024 -0.4434  0.4107
  175MPD1    C4 2720   4.647   1.540  15.411  0.2373  0.4635 -0.1927
  175MPD1    C5 2721   0.001   1.484  15.320  0.5304  0.2401 -0.5910
  175MPD1     H 2722   4.396   1.338  15.319  0.7737 -2.7706  0.0888
  175MPD1    H1 2723   4.676   1.618  15.480  1.8012 -1.2421  1.0875
  175MPD1    H2 2724   0.057   1.336  15.182 -1.3163 -1.7245 -1.6031
  175MPD1    H3 2725   0.099   1.528  15.301  0.2473  1.1201 -0.0220
  175MPD1     N 2726   4.424   1.528  15.487 -0.1097  0.0041 -0.1211
  175MPD1    H5 2727   4.466   1.596  15.549  0.7685 -0.2550 -0.4329
  175MPD1    N1 2728   4.560   1.214  15.151 -0.3999 -0.0196  0.0038
  175MPD1    H6 2729   4.474   1.165  15.172 -0.1341  0.3133  1.8523
  175MPD1    H7 2730   4.635   1.145  15.153  1.1837  1.6510 -1.4930
  176MPD1     C 2731   0.815   4.150   0.032 -0.5274 -0.5178 -0.0472
  176MPD1    C1 2732   0.838   4.167  17.647  0.7247  0.5363  0.2523
  176MPD1    C2 2733   0.930   4.267  17.612  0.2353 -0.1307 -0.1117
  176MPD1    C3 2734   1.015   4.321  17.711  0.2801  0.2631  0.8070
  176MPD1    C4 2735   1.004   4.291   0.090 -0.5214  0.6919 -0.3320
  176MPD1    C5 2736   0.894   4.210   0.125 -0.3623 -0.7601  0.3237
  176MPD1     H 2737   0.948   4.314  17.516 -1.5288  0.3415 -0.1962
  176MPD1    H1 2738   1.056   4.340   0.172  0.1816 -1.3013  0.3916
  176MPD1    H2 2739   0.746   4.076   0.072 -1.2769  0.9473  1.4082
  176MPD1    H3 2740   0.875   4.211   0.232 -0.7845 -1.2518  0.2517
  176MPD1     N 2741   1.110   4.422  17.666 -0.1717  0.3611 -0.0272
  176MPD1    H5 2742   1.102   4.451  17.569  1.0387  0.1471 -0.1949
  176MPD1    N1 2743   0.747   4.124  17.549 -0.2558  0.4166 -0.1754
  176MPD1    H6 2744   0.714   4.033  17.580 -1.5011  0.8941 -0.1124
  176MPD1    H7 2745   0.788   4.123  17.455 -2.8187 -0.5625 -1.2960
  177MPD1     C 2746   0.896   4.432  10.045 -0.1071 -0.2840  0.5640
  177MPD1    C1 2747   0.905   4.543   9.972 -0.4651  0.5122 -0.4776
  177MPD1    C2 2748   0.836   4.539   9.856 -0.1227  0.0853  0.2101
  177MPD1    C3 2749   0.738   4.440   9.833  0.0914  0.1827  0.1976
  177MPD1    C4 2750   0.719   4.333   9.919 -0.4540  0.2563 -0.0534
  177MPD1    C5 2751   0.806   4.328  10.015 -0.2693  0.5303 -0.5714
  177MPD1     H 2752   0.847   4.609   9.773  0.6440  1.9100  1.8609
  177MPD1    H1 2753   0.643   4.259   9.900  1.1218 -1.2759 -0.3595
  177MPD1    H2 2754   0.958   4.414  10.132  0.0780  0.7160  0.6463
  177MPD1    H3 2755   0.810   4.240  10.079 -0.7201 -0.0197 -1.3039
  177MPD1     N 2756   0.660   4.460   9.718 -0.0327 -0.6738  0.1265
  177MPD1    H5 2757   0.674   4.542   9.660 -0.6479 -0.1809  0.6709
  177MPD1    N1 2758   1.005   4.633   9.986  0.1457  0.0375  0.3077
  177MPD1    H6 2759   1.016   4.658  10.084 -0.1735 -2.5694  1.0124
  177MPD1    H7 2760   0.990   4.718   9.932 -1.5297 -0.9810 -0.8250
  178MPD1     C 2761   1.669   4.241   0.140 -0.7943  0.4970  0.2620
  178MPD1    C1 2762   1.628   4.302   0.022  0.1572 -0.9342  0.3113
  178MPD1    C2 2763   1.724   4.335  17.682  0.2145  0.7618  0.5806
  178MPD1    C3 2764   1.850   4.276  17.675  0.0354  0.4477 -0.4502
  178MPD1    C4 2765   1.878   4.195   0.034 -0.1733 -0.3778 -0.4295
  178MPD1    C5 2766   1.790   4.179   0.140 -0.2112  0.5442 -0.1050
  178MPD1     H 2767   1.696   4.407  17.606  1.4778  1.4190  0.7381
  178MPD1    H1 2768   1.976   4.151   0.051  0.3550  1.4194  1.1671
  178MPD1    H2 2769   1.616   4.208   0.229  1.2442 -0.8882  0.9732
  178MPD1    H3 2770   1.815   4.119   0.227 -0.8990 -1.2141 -1.1225
  178MPD1     N 2771   1.943   4.287  17.567 -0.7616  0.0652  1.3001
  178MPD1    H5 2772   2.032   4.240  17.574 -1.2761 -1.2132 -1.0106
  178MPD1    N1 2773   1.500   4.355   0.018 -0.4367 -0.6775  0.2282
  178MPD1    H6 2774   1.462   4.347  17.676 -0.2903 -1.4337  0.2345
  178MPD1    H7 2775   1.436   4.299   0.074 -0.0247 -2.6625 -1.2623
  179MPD1     C 2776   1.529   3.477  15.677  0.2317 -0.8594  0.5964
  179MPD1    C1 2777   1.649   3.423  15.633  0.2966  0.1815 -0.4324
  179MPD1    C2 2778   1.694   3.299  15.669  0.3880 -0.4543 -0.1681
  179MPD1    C3 2779   1.610   3.220  15.746 -0.5976 -0.5065 -0.2368
  179MPD1    C4 2780   1.498   3.275  15.805 -0.3334 -0.1461  0.0217
  179MPD1    C5 2781   1.459   3.404  15.769  0.2646  0.0008 -0.2038
  179MPD1     H 2782   1.787   3.261  15.628 -0.4907 -1.6307 -1.0769
  179MPD1    H1 2783   1.430   3.226  15.873  0.9575 -3.5664 -1.1414
  179MPD1    H2 2784   1.491   3.577  15.657  0.3820 -0.5512  1.8267
  179MPD1    H3 2785   1.368   3.450  15.806 -0.0743 -0.8890  0.0617
  179MPD1     N 2786   1.637   3.087  15.785 -0.9789  0.4287  0.6473
  179MPD1    H5 2787   1.566   3.032  15.831 -1.7685 -0.2392 -1.3361
  179MPD1    N1 2788   1.729   3.512  15.556  0.3589  0.3807  0.5833
  179MPD1    H6 2789   1.805   3.474  15.500 -0.0660 -0.8511  0.8401
  179MPD1    H7 2790   1.665   3.569  15.501 -0.7570  0.3833  1.8818
  180MPD1     C 2791   2.835   4.560  14.501 -0.1349 -0.5339  0.4455
  180MPD1    C1 2792   2.755   4.537  14.611 -0.3513  1.2983  0.9230
  180MPD1    C2 2793   2.628   4.484  14.583 -0.0555  0.4951  0.1566
  180MPD1    C3 2794   2.585   4.464  14.453  0.4213 -0.0354 -0.4204
  180MPD1    C4 2795   2.668   4.496  14.345  0.5269 -0.2989 -0.0956
  180MPD1    C5 2796   2.796   4.533  14.370 -0.0435 -0.5481 -0.0497
  180MPD1     H 2797   2.563   4.456  14.665 -0.0405  0.2378  0.0787
  180MPD1    H1 2798   2.653   4.466  14.242  2.0594 -0.9231 -0.1358
  180MPD1    H2 2799   2.937   4.598  14.508  0.7462 -2.9530  0.4969
  180MPD1    H3 2800   2.867   4.536  14.289  1.3405 -0.1078  1.1831
  180MPD1     N 2801   2.452   4.419  14.433  0.3009 -0.4185 -0.6127
  180MPD1    H5 2802   2.393   4.406  14.515 -0.0337 -0.4190 -0.8532
  180MPD1    N1 2803   2.796   4.573  14.740  0.7919 -0.5532  0.6891
  180MPD1    H6 2804   2.890   4.612  14.740  1.1849 -1.4842 -0.4941
  180MPD1    H7 2805   2.798   4.501  14.811 -1.5281 -2.7327 -1.4691
  181MPD1     C 2806   3.734   1.695  10.124  0.2391  0.1979  0.4479
  181MPD1    C1 2807   3.720   1.756  10.248 -0.2120  1.3564 -0.1510
  181MPD1    C2 2808   3.819   1.738  10.334  0.2158 -0.3238  0.5131
  181MPD1    C3 2809   3.935   1.669  10.300  0.4028 -0.8480  0.8278
  181MPD1    C4 2810   3.956   1.626  10.173  0.7756 -0.3355 -0.2503
  181MPD1    C5 2811   3.849   1.624  10.093 -0.2942  0.0771  0.3321
  181MPD1     H 2812   3.804   1.782  10.431  0.2598 -0.5861  0.6402
  181MPD1    H1 2813   4.053   1.585  10.144  0.3469  0.0348 -2.2356
  181MPD1    H2 2814   3.654   1.697  10.051  0.5558 -0.5558  0.0734
  181MPD1    H3 2815   3.863   1.590   9.991  2.0390 -0.1322  0.7149
  181MPD1     N 2816   4.036   1.645  10.397 -0.1590 -1.4450  0.1102
  181MPD1    H5 2817   4.120   1.599  10.364  1.7617  1.5203  0.8316
  181MPD1    N1 2818   3.598   1.803  10.300  0.3031 -0.5190 -0.6560
  181MPD1    H6 2819   3.535   1.831  10.226  0.7354 -0.0127 -0.8319
  181MPD1    H7 2820   3.610   1.882  10.364  3.3921 -0.9700 -0.6700
  182MPD1     C 2821   3.902   1.527   1.040  0.3519  0.4544  0.3207
  182MPD1    C1 2822   3.929   1.495   1.170  1.1584  0.5745 -0.5863
  182MPD1    C2 2823   3.857   1.390   1.233 -0.1200 -0.5988  0.2500
  182MPD1    C3 2824   3.757   1.322   1.168  0.2436  0.9712 -0.5076
  182MPD1    C4 2825   3.744   1.347   1.041 -0.0520 -0.1532  0.6890
  182MPD1    C5 2826   3.809   1.451   0.979 -0.5404  0.7243 -0.4500
  182MPD1     H 2827   3.876   1.368   1.337 -0.4392  0.2097  0.4779
  182MPD1    H1 2828   3.688   1.279   0.978  0.3537 -0.3575  0.5442
  182MPD1    H2 2829   3.946   1.610   0.987  0.9591 -0.6162 -0.8716
  182MPD1    H3 2830   3.785   1.459   0.874 -0.6111  0.9433 -0.4192
  182MPD1     N 2831   3.691   1.208   1.230 -0.4455  0.1292 -0.2225
  182MPD1    H5 2832   3.652   1.136   1.169  0.5215 -2.2666  1.9623
  182MPD1    N1 2833   4.009   1.579   1.250  0.3487 -0.3031 -0.4611
  182MPD1    H6 2834   4.093   1.594   1.194  1.2191 -2.5120  0.2658
  182MPD1    H7 2835   4.027   1.537   1.341  1.1081  2.7271  0.7693
  183MPD1     C 2836   1.561   1.761   9.379 -0.1327 -0.4022 -0.1786
  183MPD1    C1 2837   1.476   1.863   9.332  0.1134 -0.2705 -0.3931
  183MPD1    C2 2838   1.346   1.849   9.375 -0.2490 -0.9882  0.0053
  183MPD1    C3 2839   1.307   1.763   9.480 -0.0463  0.0036 -0.7656
  183MPD1    C4 2840   1.405   1.687   9.539 -0.2864 -0.1999  0.4695
  183MPD1    C5 2841   1.535   1.688   9.491  0.4986 -0.4464 -0.7797
  183MPD1     H 2842   1.274   1.921   9.338 -1.3636 -1.6267  0.9270
  183MPD1    H1 2843   1.384   1.620   9.622  0.3741  2.5420  2.8391
  183MPD1    H2 2844   1.664   1.754   9.347 -0.0478 -2.2518  0.4543
  183MPD1    H3 2845   1.604   1.612   9.524  0.2073 -0.4251 -0.1152
  183MPD1     N 2846   1.171   1.770   9.520 -0.3472 -0.3804 -0.0819
  183MPD1    H5 2847   1.105   1.831   9.473  1.9261  1.0269 -1.4142
  183MPD1    N1 2848   1.522   1.944   9.224 -0.2711  0.2432  0.1526
  183MPD1    H6 2849   1.619   1.971   9.236  0.1765 -2.3116  2.3802
  183MPD1    H7 2850   1.470   2.028   9.201 -1.4070  0.0648  1.9780
  184MPD1     C 2851   4.396   3.833  10.097 -0.1568 -0.0709  0.4291
  184MPD1    C1 2852   4.334   3.785   9.985 -0.8293 -0.0381 -0.3801
  184MPD1    C2 2853   4.341   3.850   9.866  0.0627  0.8736  1.0773
  184MPD1    C3 2854   4.411   3.970   9.857  0.1269  0.4243 -0.2232
  184MPD1    C4 2855   4.475   4.023   9.965  0.1867  0.1153 -0.5446
  184MPD1    C5 2856   4.469   3.947  10.081  0.8326 -0.5730  0.5336
  184MPD1     H 2857   4.298   3.803   9.779 -0.4045  2.6231  0.3613
  184MPD1    H1 2858   4.532   4.115   9.969 -1.1877  0.9261  0.4748
  184MPD1    H2 2859   4.399   3.783  10.193  1.8402  0.2267  0.5320
  184MPD1    H3 2860   4.525   3.974  10.170  0.6717 -1.5222  0.9266
  184MPD1     N 2861   4.436   4.038   9.732 -0.3099  0.0344 -0.8463
  184MPD1    H5 2862   4.481   4.128   9.743 -1.0013  0.0534  1.7964
  184MPD1    N1 2863   4.284   3.655   9.994 -0.3232 -0.0340 -0.0824
  184MPD1    H6 2864   4.258   3.644  10.092 -1.8401  2.1617 -0.2462
  184MPD1    H7 2865   4.205   3.633   9.933 -0.1586 -1.9806  0.3797
  185MPD1     C 2866   4.257   3.833   8.797  1.0623  0.6183  0.2733
  185MPD1    C1 2867   4.275   3.969   8.792  0.4994  0.2499 -0.2249
  185MPD1    C2 2868   4.304   4.037   8.904 -0.0946 -0.6882 -0.1852
  185MPD1    C3 2869   4.321   3.968   9.026  0.5245 -0.2618 -0.2513
  185MPD1    C4 2870   4.321   3.829   9.031 -0.3111 -0.0840 -0.2496
  185MPD1    C5 2871   4.293   3.765   8.914  0.0379  0.2129  0.2259
  185MPD1     H 2872   4.322   4.144   8.896 -1.0548 -0.7422 -3.1649
  185MPD1    H1 2873   4.336   3.771   9.121 -3.2004  0.1043  0.3756
  185MPD1    H2 2874   4.203   3.784   8.717  0.7539 -0.8933  1.4184
  185MPD1    H3 2875   4.277   3.658   8.914  1.4246  0.0065 -0.2567
  185MPD1     N 2876   4.345   4.035   9.149  0.2304  0.2520  0.0053
  185MPD1    H5 2877   4.333   3.982   9.235  2.5401 -0.5575 -0.1488
  185MPD1    N1 2878   4.234   4.035   8.672 -0.1663 -0.0809 -0.6005
  185MPD1    H6 2879   4.230   3.971   8.593 -1.0205 -1.1149  0.2704
  185MPD1    H7 2880   4.279   4.125   8.659  0.9456 -0.8751 -2.2901
  186MPD1     C 2881   2.808   2.483  15.821 -0.0320  0.2535 -0.2739
  186MPD1    C1 2882   2.752   2.435  15.932 -0.2774  0.0125  0.1302
  186MPD1    C2 2883   2.646   2.506  15.982  0.1542 -0.2927  0.4747
  186MPD1    C3 2884   2.593   2.618  15.920  0.0548 -0.5627 -0.6355
  186MPD1    C4 2885   2.656   2.664  15.804 -0.4315 -0.7184 -0.1198
  186MPD1    C5 2886   2.762   2.591  15.753  0.4416  0.4018  0.1694
  186MPD1     H 2887   2.612   2.472  16.079 -0.1254  0.7270  0.7333
  186MPD1    H1 2888   2.623   2.758  15.761  2.2904  1.3373  2.3329
  186MPD1    H2 2889   2.899   2.431  15.796 -0.0260 -0.9606  2.2760
  186MPD1    H3 2890   2.822   2.624  15.669  1.4634 -1.1954  0.2670
  186MPD1     N 2891   2.489   2.702  15.980 -0.0903  0.3848 -0.5884
  186MPD1    H5 2892   2.459   2.789  15.937 -0.8173 -0.0509 -0.9693
  186MPD1    N1 2893   2.826   2.339  16.004  0.6548 -0.0634 -0.2844
  186MPD1    H6 2894   2.881   2.280  15.942 -0.4076 -0.7432 -0.5902
  186MPD1    H7 2895   2.761   2.281  16.057 -0.7427  1.5997 -0.1809
  187MPD1     C 2896   1.957   0.218  17.646  0.1274  0.5292 -0.0169
  187MPD1    C1 2897   1.831   0.267  17.659  0.5800 -0.7795  0.4946
  187MPD1    C2 2898   1.761   0.310  17.550 -0.3505 -0.5930  0.2293
  187MPD1    C3 2899   1.820   0.320  17.425  0.1855  0.4010 -0.3785
  187MPD1    C4 2900   1.948   0.269  17.408 -0.2885 -0.1289 -0.4987
  187MPD1    C5 2901   2.014   0.222  17.516  0.2443 -0.1436 -0.4507
  187MPD1     H 2902   1.660   0.344  17.571 -0.0238  0.5618 -0.0257
  187MPD1    H1 2903   1.999   0.272  17.312 -2.0757  0.0318 -1.4608
  187MPD1    H2 2904   2.021   0.175  17.723  1.1448  2.5573  0.2862
  187MPD1    H3 2905   2.112   0.180  17.497  0.0424 -0.2234 -1.2998
  187MPD1     N 2906   1.757   0.372  17.310 -0.1421  0.1835  0.1338
  187MPD1    H5 2907   1.813   0.391  17.227  1.1452  0.2199  1.0018
  187MPD1    N1 2908   1.767   0.278   0.036  0.3785  0.5105  0.2554
  187MPD1    H6 2909   1.666   0.268   0.024  0.4554 -1.5000  1.3574
  187MPD1    H7 2910   1.803   0.206   0.098  3.7817 -0.1087 -2.4798
  188MPD1     C 2911   2.071   0.264  10.333  0.0420 -0.0102  0.3086
  188MPD1    C1 2912   2.138   0.169  10.266  0.4760 -0.4334 -0.2309
  188MPD1    C2 2913   2.098   0.036  10.290 -0.5035 -0.6015  0.9521
  188MPD1    C3 2914   1.993   0.010  10.379  0.3617 -0.4003 -0.1416
  188MPD1    C4 2915   1.942   0.111  10.447  0.3118  1.1412  0.5750
  188MPD1    C5 2916   1.981   0.241  10.435 -0.0048  0.2346  0.4982
  188MPD1     H 2917   2.153   4.701  10.232 -0.4490 -0.0144  0.2631
  188MPD1    H1 2918   1.858   0.101  10.514  0.9662 -0.6061  1.1297
  188MPD1    H2 2919   2.101   0.366  10.312 -0.2723 -0.2356 -1.2212
  188MPD1    H3 2920   1.940   0.326  10.489 -2.0940  0.2089 -1.0510
  188MPD1     N 2921   1.947   4.617  10.407 -0.3127  0.1290  0.9211
  188MPD1    H5 2922   1.867   4.603  10.468 -2.1710  2.2855 -1.0537
  188MPD1    N1 2923   2.224   0.212  10.162 -0.0778  0.1843 -0.0658
  188MPD1    H6 2924   2.277   0.296  10.184 -1.2511  0.9709 -0.2692
  188MPD1    H7 2925   2.288   0.136  10.137  1.6212  1.3838  0.7250
  189MPD1     C 2926   3.445   1.269   0.499  0.2591  0.3776  0.5667
  189MPD1    C1 2927   3.347   1.178   0.514 -0.6290 -0.3607 -0.5996
  189MPD1    C2 2928   3.218   1.219   0.488  0.0847  0.0002  0.2305
  189MPD1    C3 2929   3.183   1.349   0.464  0.8915 -0.3199 -0.2141
  189MPD1    C4 2930   3.290   1.444   0.455  0.7219  0.3523 -0.5157
  189MPD1    C5 2931   3.415   1.399   0.466  0.7179  0.4645  0.6510
  189MPD1     H 2932   3.143   1.140   0.492  1.3231 -1.2423 -1.3067
  189MPD1    H1 2933   3.281   1.551   0.439  0.3865  0.7664  2.4823
  189MPD1    H2 2934   3.551   1.251   0.517  0.4264  0.6294 -0.1479
  189MPD1    H3 2935   3.488   1.479   0.455 -0.9077  1.9892  0.9021
  189MPD1     N 2936   3.050   1.390   0.466  0.0255 -0.2033  0.2364
  189MPD1    H5 2937   2.977   1.321   0.482 -1.9294  1.6309 -0.8643
  189MPD1    N1 2938   3.376   1.043   0.538  0.3382 -0.2026  0.0881
  189MPD1    H6 2939   3.464   1.029   0.587  0.7675 -2.6390 -1.4009
  189MPD1    H7 2940   3.298   0.984   0.565 -1.4915  1.3832 -1.6615
  190MPD1     C 2941   1.440   4.063  15.663  0.2282 -0.6694  0.7990
  190MPD1    C1 2942   1.489   4.085  15.792  0.1318  0.5548 -0.6458
  190MPD1    C2 2943   1.622   4.098  15.810 -0.1062  0.3789  0.1908
  190MPD1    C3 2944   1.712   4.110  15.704  0.8108 -0.4029 -0.3677
  190MPD1    C4 2945   1.657   4.109  15.577 -0.3329 -0.5087  0.2061
  190MPD1    C5 2946   1.524   4.085  15.560 -0.4298  0.2934 -0.2343
  190MPD1     H 2947   1.661   4.101  15.911 -3.1501  0.1121  1.3931
  190MPD1    H1 2948   1.712   4.124  15.485 -1.4418 -0.4857 -0.4615
  190MPD1    H2 2949   1.333   4.053  15.652  0.5077 -1.8023 -0.9054
  190MPD1    H3 2950   1.481   4.107  15.463 -1.5001  0.2864  0.2375
  190MPD1     N 2951   1.849   4.116  15.733  0.5639  0.0393  0.7311
  190MPD1    H5 2952   1.885   4.127  15.827 -0.4534  1.0705  0.9953
  190MPD1    N1 2953   1.406   4.086  15.906 -0.3902 -0.2071 -0.4549
  190MPD1    H6 2954   1.312   4.115  15.880 -0.1495 -0.8550 -2.0578
  190MPD1    H7 2955   1.433   4.155  15.975 -2.2646 -0.0626  0.1186
  191MPD1     C 2956   0.936   0.425  13.499  0.0508  0.1682 -0.0659
  191MPD1    C1 2957   1.057   0.484  13.465 -0.4757  0.0842 -0.5319
  191MPD1    C2 2958   1.058   0.615  13.428  0.1904 -0.2488  0.3126
  191MPD1    C3 2959   0.944   0.689  13.404  0.5711 -0.5007 -0.1786
  191MPD1    C4 2960   0.824   0.627  13.426 -0.0569  0.0765  0.4891
  191MPD1    C5 2961   0.826   0.502  13.481  0.2603  0.0716 -0.2968
  191MPD1     H 2962   1.154   0.665  13.421  0.0858  0.1998  2.1133
  191MPD1    H1 2963   0.729   0.680  13.424  0.8218  1.6027 -1.4237
  191MPD1    H2 2964   0.917   0.327  13.540 -0.2854  0.6423  0.9069
  191MPD1    H3 2965   0.735   0.455  13.518 -0.8802  2.5760  0.0841
  191MPD1     N 2966   0.954   0.822  13.354 -0.4316  0.3218 -0.3846
  191MPD1    H5 2967   1.045   0.864  13.371 -0.1830 -0.8342  1.1625
  191MPD1    N1 2968   1.177   0.429  13.500  0.3354  0.1943  1.1490
  191MPD1    H6 2969   1.245   0.457  13.430 -1.4822  0.0262 -0.6647
  191MPD1    H7 2970   1.167   0.328  13.487  0.0074  0.3396  0.3248
  192MPD1     C 2971   0.416   1.769  13.213  0.0620  0.3583 -0.7745
  192MPD1    C1 2972   0.386   1.659  13.278 -0.6070 -0.1867  0.1958
  192MPD1    C2 2973   0.485   1.565  13.303 -0.0294 -0.4600 -0.4714
  192MPD1    C3 2974   0.610   1.587  13.252  0.4887 -0.0917 -0.0089
  192MPD1    C4 2975   0.640   1.704  13.188 -0.0955  0.4154 -0.0914
  192MPD1    C5 2976   0.539   1.793  13.171 -0.4141  0.2871  0.2137
  192MPD1     H 2977   0.454   1.474  13.352  0.5785  0.6879  2.0226
  192MPD1    H1 2978   0.739   1.739  13.164 -0.1443  0.8065  0.2707
  192MPD1    H2 2979   0.340   1.846  13.199  0.9998  1.1763 -1.3978
  192MPD1    H3 2980   0.562   1.889  13.125  1.0636  0.8550  2.1002
  192MPD1     N 2981   0.707   1.483  13.263 -0.4132  0.7927  0.3086
  192MPD1    H5 2982   0.797   1.493  13.217  0.0647 -2.5264  0.5268
  192MPD1    N1 2983   0.258   1.657  13.331  0.9053  0.2888 -0.4890
  192MPD1    H6 2984   0.202   1.723  13.276  1.0656  0.3996 -0.5185
  192MPD1    H7 2985   0.217   1.564  13.329 -1.2200  1.1689  0.6051
  193MPD1     C 2986   0.762   1.040  15.762  0.5223 -1.2568  0.1242
  193MPD1    C1 2987   0.705   1.160  15.735 -0.4894  0.7116  0.0813
  193MPD1    C2 2988   0.704   1.250  15.837  0.0574  0.7642  0.2287
  193MPD1    C3 2989   0.796   1.244  15.943 -0.5411 -0.6054 -0.0571
  193MPD1    C4 2990   0.867   1.122  15.956 -0.2082 -0.3495  0.0347
  193MPD1    C5 2991   0.847   1.022  15.869 -0.4566  0.0546 -0.0067
  193MPD1     H 2992   0.643   1.338  15.817  1.4269  1.9060  1.0935
  193MPD1    H1 2993   0.924   1.103  16.047 -0.8832  1.2914  0.8108
  193MPD1    H2 2994   0.754   0.958  15.690  1.2605 -1.2821  0.0695
  193MPD1    H3 2995   0.900   0.928  15.878 -0.5906  0.0748  1.0479
  193MPD1     N 2996   0.790   1.333  16.056  0.0715 -0.0018 -0.1291
  193MPD1    H5 2997   0.855   1.314  16.131 -0.3548  2.0188  0.7696
  193MPD1    N1 2998   0.620   1.171  15.626  0.0286  0.7590 -0.1192
  193MPD1    H6 2999   0.595   1.266  15.598 -0.4999  0.7882  0.4644
  193MPD1    H7 3000   0.660   1.117  15.549  1.5353  0.2673  1.0171
  194MPD1     C 3001   3.019   3.762  17.017 -0.0799 -0.5431  0.2692
  194MPD1    C1 3002   3.059   3.723  16.891 -0.2691 -0.0012  0.3395
  194MPD1    C2 3003   3.080   3.592  16.862  0.8840 -0.1398 -0.5939
  194MPD1    C3 3004   3.044   3.492  16.958 -0.9005  1.2115 -0.0374
  194MPD1    C4 3005   2.986   3.544  17.073  0.3212 -0.7704 -0.8453
  194MPD1    C5 3006   2.974   3.675  17.104 -0.0525 -0.7489 -0.0397
  194MPD1     H 3007   3.121   3.573  16.764 -2.6521 -1.1346 -1.8473
  194MPD1    H1 3008   2.961   3.475  17.152 -2.0601  1.2526  0.1579
  194MPD1    H2 3009   3.012   3.869  17.032 -1.0369 -0.5198 -0.4087
  194MPD1    H3 3010   2.926   3.709  17.195  0.9836 -0.4609  0.4023
  194MPD1     N 3011   3.057   3.354  16.938 -0.1551 -0.7194  0.1888
  194MPD1    H5 3012   3.041   3.294  17.018 -0.2311 -1.2735 -0.2389
  194MPD1    N1 3013   3.099   3.827  16.811  0.5324  0.0567 -0.7882
  194MPD1    H6 3014   3.044   3.912  16.823  0.3105 -0.1544 -0.3035
  194MPD1    H7 3015   3.097   3.807  16.711  0.4384  1.5466 -1.0977
  195MPD1     C 3016   0.354   1.293  17.632 -0.6541  0.2038  0.1410
  195MPD1    C1 3017   0.266   1.202  17.689 -0.1372  0.5459 -0.4744
  195MPD1    C2 3018   0.316   1.090   0.004  0.5268 -0.1261 -0.4763
  195MPD1    C3 3019   0.450   1.067   0.004  0.1570 -1.0139  0.0187
  195MPD1    C4 3020   0.538   1.157  17.693 -0.3117 -0.1388  0.4845
  195MPD1    C5 3021   0.485   1.271  17.635  0.4136  0.0015  0.0320
  195MPD1     H 3022   0.246   1.021   0.050  1.8057 -0.7228  0.5586
  195MPD1    H1 3023   0.645   1.142  17.697 -0.0997  0.7947 -1.5148
  195MPD1    H2 3024   0.327   1.386  17.583  1.5588  0.9270  0.2900
  195MPD1    H3 3025   0.533   1.353  17.584 -3.1576  2.1338  0.1172
  195MPD1     N 3026   0.510   0.951   0.065  0.0034 -0.1989  0.0898
  195MPD1    H5 3027   0.609   0.932   0.054 -0.1430 -0.9638  0.0862
  195MPD1    N1 3028   0.129   1.242  17.699  0.2326  0.5167  0.4972
  195MPD1    H6 3029   0.103   1.284  17.610 -0.0550  0.2486  0.4533
  195MPD1    H7 3030   0.064   1.163  17.695 -1.0394  1.6267 -0.9643
  196MPD1     C 3031   0.179   4.512   0.728 -0.2265  0.5059 -0.5688
  196MPD1    C1 3032   0.224   4.606   0.643 -0.6550 -0.0038 -0.2750
  196MPD1    C2 3033   0.188   4.732   0.661  0.5807 -0.5009 -0.1729
  196MPD1    C3 3034   0.120   0.034   0.774  0.6875  0.3280 -0.3825
  196MPD1    C4 3035   0.078   4.677   0.869  0.1362  0.0358  0.1020
  196MPD1    C5 3036   0.112   4.542   0.842  0.4575  0.4179  0.1107
  196MPD1     H 3037   0.203   0.065   0.581 -1.4304 -0.4667 -0.5275
  196MPD1    H1 3038   0.015   4.695   0.955 -0.7204 -2.3940 -0.0149
  196MPD1    H2 3039   0.185   4.405   0.712 -0.7684  0.3156  0.4958
  196MPD1    H3 3040   0.070   4.461   0.901  0.8320 -0.4121 -0.7671
  196MPD1     N 3041   0.070   0.167   0.797  0.1605 -0.8324 -0.0265
  196MPD1    H5 3042   4.733   0.165   0.865  0.7572  1.2608  0.7232
  196MPD1    N1 3043   0.277   4.564   0.521  0.3960 -0.4442 -0.5340
  196MPD1    H6 3044   0.321   4.473   0.532  2.4561  0.4686 -1.1130
  196MPD1    H7 3045   0.343   4.630   0.480 -0.6979  0.0424 -1.5128
  197MPD1     C 3046   3.785   1.611  16.980  0.4470  0.4896  0.0291
  197MPD1    C1 3047   3.902   1.572  17.041 -0.1610 -0.1720 -0.2537
  197MPD1    C2 3048   4.020   1.613  16.989  0.1204  0.3315 -0.4980
  197MPD1    C3 3049   4.028   1.666  16.863 -0.9681 -0.1777  0.6109
  197MPD1    C4 3050   3.911   1.695  16.799  0.1003  0.1372  0.5308
  197MPD1    C5 3051   3.791   1.669  16.859 -0.6497  0.7005  0.4380
  197MPD1     H 3052   4.105   1.595  17.054  0.6664  0.9945 -1.0270
  197MPD1    H1 3053   3.900   1.748  16.705  0.0088  0.1981  0.5759
  197MPD1    H2 3054   3.689   1.595  17.027 -0.4161 -0.9865 -2.2107
  197MPD1    H3 3055   3.696   1.680  16.807 -0.8200  0.2586  0.6585
  197MPD1     N 3056   4.150   1.693  16.792 -0.1431  0.9669 -0.3751
  197MPD1    H5 3057   4.133   1.724  16.697 -0.3220 -0.5417 -0.8397
  197MPD1    N1 3058   3.895   1.506  17.164  0.2694 -0.0278  0.3050
  197MPD1    H6 3059   3.976   1.445  17.171 -1.3451 -2.3307 -1.2935
  197MPD1    H7 3060   3.814   1.446  17.182  0.5146  0.4598  3.0701
  198MPD1     C 3061   2.134   4.451  15.629  0.5302 -0.2527 -0.2796
  198MPD1    C1 3062   2.221   4.548  15.668 -0.8676 -0.3365  0.8696
  198MPD1    C2 3063   2.154   4.650  15.737 -0.2677 -0.5240  0.4456
  198MPD1    C3 3064   2.016   4.668  15.727  0.1412 -0.8111 -0.5117
  198MPD1    C4 3065   1.935   4.582  15.662 -0.5409  0.0350 -1.0232
  198MPD1    C5 3066   1.997   4.467  15.621 -0.3179  0.0186  1.0006
  198MPD1     H 3067   2.205   4.713  15.809  0.2672  0.0437 -0.4126
  198MPD1    H1 3068   1.829   4.593  15.647 -0.7181 -2.4931 -1.4969
  198MPD1    H2 3069   2.171   4.360  15.584  2.0675 -0.9707  2.4961
  198MPD1    H3 3070   1.943   4.388  15.570  0.4055 -0.9053  1.6500
  198MPD1     N 3071   1.968   0.045  15.786  0.1482  0.5609  0.7160
  198MPD1    H5 3072   2.030   0.101  15.844  2.5909 -2.3956  1.0327
  198MPD1    N1 3073   2.355   4.513  15.678  0.0836 -0.9140  0.2698
  198MPD1    H6 3074   2.383   4.450  15.604  1.1250  1.7412 -1.5790
  198MPD1    H7 3075   2.410   4.598  15.671 -0.1063 -0.5293  3.3657
  199MPD1     C 3076   0.095   2.184  10.410 -0.1709  0.3238 -0.1301
  199MPD1    C1 3077   0.064   2.184  10.279 -0.3510 -0.0435 -0.0308
  199MPD1    C2 3078   4.683   2.244  10.242  0.1473  0.0222 -0.2964
  199MPD1    C3 3079   4.588   2.279  10.336  0.3060  0.4412  0.2658
  199MPD1    C4 3080   4.622   2.281  10.468 -0.4247  0.2955  0.6677
  199MPD1    C5 3081   0.011   2.237  10.503  0.4529 -0.1469  0.2655
  199MPD1     H 3082   4.658   2.251  10.136 -1.2313 -0.5534 -0.0102
  199MPD1    H1 3083   4.567   2.319  10.553  0.5523 -0.7258  1.7609
  199MPD1    H2 3084   0.193   2.155  10.447 -1.2002 -1.5676  1.1304
  199MPD1    H3 3085   0.048   2.254  10.603  0.2269 -3.4081  0.9046
  199MPD1     N 3086   4.459   2.314  10.290  0.3150  0.0589  0.7305
  199MPD1    H5 3087   4.446   2.318  10.190 -1.4043 -0.5344  0.9262
  199MPD1    N1 3088   0.170   2.166  10.193  0.9480  0.3161 -0.1979
  199MPD1    H6 3089   0.133   2.144  10.101  1.4337  0.4216 -0.4203
  199MPD1    H7 3090   0.223   2.087  10.229 -0.0809 -0.6292 -0.7806
  200MPD1     C 3091   2.352   1.426  14.900  0.0948 -0.4357 -0.6561
  200MPD1    C1 3092   2.369   1.393  14.770 -0.3394  0.1394 -0.0922
  200MPD1    C2 3093   2.498   1.389  14.722  0.3057  1.0690 -0.8021
  200MPD1    C3 3094   2.605   1.428  14.799 -0.0017  0.1176  0.0801
  200MPD1    C4 3095   2.584   1.454  14.931 -0.4438 -0.4421 -0.6722
  200MPD1    C5 3096   2.457   1.453  14.982 -1.2302  0.2743  0.1994
  200MPD1     H 3097   2.525   1.373  14.618  0.3419 -0.4979 -0.5541
  200MPD1    H1 3098   2.661   1.471  15.005 -2.7022 -0.7929  1.7175
  200MPD1    H2 3099   2.252   1.439  14.940  0.4478 -0.3761  0.2048
  200MPD1    H3 3100   2.447   1.485  15.085 -1.8283  0.4863  0.0716
  200MPD1     N 3101   2.727   1.444  14.735  0.7010 -0.1151 -0.1776
  200MPD1    H5 3102   2.729   1.422  14.636  0.0848 -3.4417  0.5375
  200MPD1    N1 3103   2.258   1.385  14.681 -0.9601 -0.4181 -1.3374
  200MPD1    H6 3104   2.277   1.316  14.608 -0.5280  0.3066 -1.9124
  200MPD1    H7 3105   2.171   1.380  14.732 -0.5421 -3.3028 -0.9288
  201MPD1     C 3106   4.681   0.652  13.563 -0.9505 -0.7246 -0.1405
  201MPD1    C1 3107   0.072   0.702  13.579 -0.0661 -0.3023  0.2874
  201MPD1    C2 3108   0.169   0.604  13.568 -0.2149 -0.0947  0.0305
  201MPD1    C3 3109   0.146   0.467  13.543 -0.0748 -0.8375  0.1307
  201MPD1    C4 3110   0.021   0.424  13.545 -0.4553  0.0100 -0.0419
  201MPD1    C5 3111   4.663   0.518  13.549 -0.2671  0.8113  0.5558
  201MPD1     H 3112   0.275   0.625  13.562 -0.1750 -0.4609 -0.4773
  201MPD1    H1 3113   4.731   0.321  13.523  0.7623 -0.1537 -0.8070
  201MPD1    H2 3114   4.604   0.728  13.554 -2.3070 -1.8704  1.8335
  201MPD1    H3 3115   4.561   0.488  13.528 -0.0514 -0.5420  1.4209
  201MPD1     N 3116   0.250   0.370  13.529  0.4818 -0.3220  0.0934
  201MPD1    H5 3117   0.341   0.414  13.538  0.2716 -0.5226  3.1660
  201MPD1    N1 3118   0.090   0.838  13.573 -0.0187  0.5724  0.0018
  201MPD1    H6 3119   0.169   0.864  13.631  0.3223  1.1945 -0.7498
  201MPD1    H7 3120   0.001   0.881  13.601 -0.9780  0.3640 -2.7286
  202MPD1     C 3121   0.962   0.668   9.251 -0.5794 -0.4131  0.1526
  202MPD1    C1 3122   1.018   0.569   9.320  0.9742  0.6477  0.4195
  202MPD1    C2 3123   0.992   0.567   9.457 -0.4670  0.1091 -0.1854
  202MPD1    C3 3124   0.939   0.673   9.520 -0.4425  0.5203 -0.0482
  202MPD1    C4 3125   0.912   0.789   9.450 -0.2943  0.4912 -0.2719
  202MPD1    C5 3126   0.924   0.784   9.314 -0.4765  0.2782  0.0048
  202MPD1     H 3127   1.012   0.481   9.519  1.4039 -1.2071 -2.5983
  202MPD1    H1 3128   0.879   0.879   9.499 -1.7568  0.2778 -0.8539
  202MPD1    H2 3129   0.948   0.661   9.143  0.0166  0.5426  0.0179
  202MPD1    H3 3130   0.866   0.852   9.253  0.5928 -0.2278 -1.5847
  202MPD1     N 3131   0.910   0.678   9.659  0.1892  0.9267  0.8283
  202MPD1    H5 3132   0.870   0.766   9.690  0.1426  1.7166 -1.4436
  202MPD1    N1 3133   1.040   0.448   9.262  0.3613  0.4521 -0.7741
  202MPD1    H6 3134   1.096   0.454   9.177 -1.5989 -2.7596 -2.3297
  202MPD1    H7 3135   1.102   0.394   9.322 -2.6321  0.6619  2.5416
  203MPD1     C 3136   3.677   0.857  12.717  0.4818  0.3044  0.4415
  203MPD1    C1 3137   3.665   0.729  12.673  0.0305  0.5117 -1.0297
  203MPD1    C2 3138   3.775   0.647  12.656  0.7253  0.0586 -0.0254
  203MPD1    C3 3139   3.896   0.686  12.709 -0.5958  0.4181 -0.5903
  203MPD1    C4 3140   3.909   0.812  12.768 -0.5898 -0.3226  0.7218
  203MPD1    C5 3141   3.805   0.898  12.755  0.8381 -0.6996  0.2197
  203MPD1     H 3142   3.764   0.549  12.610 -0.9832  1.2449 -2.0912
  203MPD1    H1 3143   4.008   0.850  12.792 -0.1902 -0.7533 -0.2274
  203MPD1    H2 3144   3.603   0.936  12.714  0.7317  0.5077 -0.3233
  203MPD1    H3 3145   3.819   1.000  12.789  1.6714  0.0996 -2.5887
  203MPD1     N 3146   4.001   0.591  12.712  1.1356  0.0475 -0.0446
  203MPD1    H5 3147   3.983   0.500  12.669 -1.1658  0.5397 -0.1290
  203MPD1    N1 3148   3.536   0.689  12.609  0.5468 -0.7146 -0.2627
  203MPD1    H6 3149   3.517   0.590  12.600 -1.4441 -0.3354 -0.1638
  203MPD1    H7 3150   3.453   0.730  12.651  0.7331 -0.3423 -0.2573
  204MPD1     C 3151   2.807   2.789  17.167  0.2476  0.2257 -0.0573
  204MPD1    C1 3152   2.765   2.675  17.228 -0.0410  0.1323 -0.0372
  204MPD1    C2 3153   2.852   2.570  17.223  0.2542 -0.1956 -0.6171
  204MPD1    C3 3154   2.977   2.583  17.160  0.2357 -0.0683 -0.0799
  204MPD1    C4 3155   3.018   2.701  17.102 -0.2993  0.3038  0.0866
  204MPD1    C5 3156   2.929   2.803  17.114 -0.4833 -0.2683  0.5619
  204MPD1     H 3157   2.832   2.471  17.262 -2.4530  0.5234 -0.1624
  204MPD1    H1 3158   3.114   2.712  17.052  0.4299  0.0679  1.4426
  204MPD1    H2 3159   2.737   2.871  17.155  3.3321  3.0490  1.3035
  204MPD1    H3 3160   2.950   2.897  17.065  0.0638 -0.8466 -0.3263
  204MPD1     N 3161   3.054   2.461  17.141 -0.1468  0.0604 -0.4512
  204MPD1    H5 3162   3.036   2.383  17.203  0.3792 -0.8687 -1.4852
  204MPD1    N1 3163   2.637   2.654  17.280  0.7883  0.3973  0.1894
  204MPD1    H6 3164   2.584   2.739  17.296 -1.1563 -0.9209  0.6845
  204MPD1    H7 3165   2.640   2.579  17.349 -0.5633  1.7770  1.7423
  205MPD1     C 3166   3.650   1.297  17.184 -0.2366 -0.1077 -0.2259
  205MPD1    C1 3167   3.675   1.237  17.301 -0.1149  0.1097  0.3502
  205MPD1    C2 3168   3.591   1.257  17.408  0.4175  0.4245 -0.3523
  205MPD1    C3 3169   3.481   1.329  17.381  0.7957 -0.5135  0.0073
  205MPD1    C4 3170   3.458   1.384  17.260 -0.0038  0.7493 -0.0710
  205MPD1    C5 3171   3.538   1.366  17.159 -0.3254 -0.4942  0.6700
  205MPD1     H 3172   3.623   1.224  17.506 -0.7146  2.0753  0.5742
  205MPD1    H1 3173   3.374   1.451  17.246 -0.8939 -0.8040 -2.1933
  205MPD1    H2 3174   3.717   1.292  17.099  0.2842 -1.5273  0.2822
  205MPD1    H3 3175   3.526   1.408  17.060  0.4199 -0.1336  0.7335
  205MPD1     N 3176   3.381   1.357  17.479 -0.1498 -0.8605  0.1410
  205MPD1    H5 3177   3.310   1.428  17.461  2.0088  1.4136  0.6322
  205MPD1    N1 3178   3.806   1.194  17.319 -0.3277 -0.0034 -0.2546
  205MPD1    H6 3179   3.810   1.119  17.387 -2.0095 -0.2689 -0.4328
  205MPD1    H7 3180   3.847   1.155  17.234  2.2632 -0.8162  1.4084
  206MPD1     C 3181   3.409   3.343  17.286 -0.6379  0.1909  0.1220
  206MPD1    C1 3182   3.492   3.278  17.195 -0.0694  0.2500  0.3269
  206MPD1    C2 3183   3.525   3.341  17.073  1.1779 -0.0388  0.3047
  206MPD1    C3 3184   3.446   3.440  17.033 -0.0266  1.0603  0.3387
  206MPD1    C4 3185   3.358   3.495  17.120  0.1834 -0.0897  0.3675
  206MPD1    C5 3186   3.344   3.452  17.247  0.8580  0.1124 -0.2034
  206MPD1     H 3187   3.601   3.292  17.013  1.6151 -0.9662  1.6178
  206MPD1    H1 3188   3.307   3.583  17.082 -1.6821 -0.9849  0.8481
  206MPD1    H2 3189   3.414   3.320  17.392  0.8039  0.1745  0.0599
  206MPD1    H3 3190   3.266   3.493  17.308  1.6369 -0.7156  1.3530
  206MPD1     N 3191   3.452   3.508  16.911 -0.0372  0.7708  0.1226
  206MPD1    H5 3192   3.383   3.581  16.893 -0.1073  0.3948 -1.1630
  206MPD1    N1 3193   3.574   3.169  17.240  0.0314  0.1404  0.2127
  206MPD1    H6 3194   3.589   3.113  17.157  0.5947  3.2755 -1.7871
  206MPD1    H7 3195   3.530   3.112  17.312  0.8667 -1.4616 -0.5384
  207MPD1     C 3196   1.564   3.057   9.607  0.2395  0.1410 -0.5104
  207MPD1    C1 3197   1.526   2.929   9.639  0.2713  0.2079 -0.0954
  207MPD1    C2 3198   1.621   2.839   9.686  0.1361  0.7412  0.0263
  207MPD1    C3 3199   1.746   2.883   9.724 -0.1482  0.3379  0.0037
  207MPD1    C4 3200   1.787   3.010   9.687 -0.3394 -0.5906 -1.2225
  207MPD1    C5 3201   1.693   3.095   9.633  0.3346  0.2508  0.4633
  207MPD1     H 3202   1.580   2.740   9.703  3.0473 -0.5217 -0.3378
  207MPD1    H1 3203   1.885   3.050   9.710 -0.6712 -0.2395 -0.4195
  207MPD1    H2 3204   1.500   3.130   9.558  0.8841  0.5483 -0.7477
  207MPD1    H3 3205   1.735   3.192   9.608 -1.2740  0.3321 -1.8318
  207MPD1     N 3206   1.844   2.792   9.780  0.2117 -0.1263 -0.0983
  207MPD1    H5 3207   1.937   2.828   9.796 -0.0358  0.2026  0.6092
  207MPD1    N1 3208   1.397   2.883   9.596  0.3507 -0.2666 -0.0666
  207MPD1    H6 3209   1.352   2.820   9.662 -0.8163 -0.3538 -0.9440
  207MPD1    H7 3210   1.335   2.964   9.594 -0.4489 -0.8334  1.7691
  208MPD1     C 3211   3.262   4.345   0.279 -0.3305  0.1008  0.0329
  208MPD1    C1 3212   3.304   4.458   0.202 -0.1064 -0.7282 -0.0016
  208MPD1    C2 3213   3.319   4.585   0.255  0.2946 -0.0071 -0.2917
  208MPD1    C3 3214   3.271   4.611   0.380  0.1574  0.2275 -0.7449
  208MPD1    C4 3215   3.212   4.509   0.452  0.4296 -0.0478  0.2398
  208MPD1    C5 3216   3.221   4.377   0.410  0.3659  0.1655  0.0142
  208MPD1     H 3217   3.355   4.665   0.191  1.0792  0.6993  1.0382
  208MPD1    H1 3218   3.191   4.527   0.557  0.4602  2.5667 -0.1894
  208MPD1    H2 3219   3.259   4.241   0.248 -0.7827  0.3187 -0.6407
  208MPD1    H3 3220   3.188   4.303   0.483  2.2051 -1.7518 -1.1051
  208MPD1     N 3221   3.257   0.003   0.418  0.3250  0.4363  0.0435
  208MPD1    H5 3222   3.277   0.076   0.350 -0.8109  1.6342  0.9985
  208MPD1    N1 3223   3.347   4.421   0.070  0.8144  0.7925  0.3148
  208MPD1    H6 3224   3.296   4.342   0.030  2.7273 -1.3828  2.1961
  208MPD1    H7 3225   3.332   4.496   0.003  1.3056 -0.3756 -1.1069
  209MPD1     C 3226   1.769   1.002  10.746 -0.6365  0.1824  0.3166
  209MPD1    C1 3227   1.647   1.015  10.689 -0.3720  0.6119 -0.3843
  209MPD1    C2 3228   1.616   1.118  10.599 -0.1903 -0.4577  1.0456
  209MPD1    C3 3229   1.704   1.214  10.580  0.5969  0.7990 -0.5450
  209MPD1    C4 3230   1.828   1.204  10.644  0.0228  0.7255 -0.3350
  209MPD1    C5 3231   1.856   1.101  10.732 -0.3896 -0.4981 -0.6815
  209MPD1     H 3232   1.520   1.112  10.549  0.0865 -1.0692  0.5784
  209MPD1    H1 3233   1.904   1.279  10.627 -0.5957  1.8025  1.6496
  209MPD1    H2 3234   1.806   0.923  10.811  1.1284  0.0061 -0.9178
  209MPD1    H3 3235   1.953   1.106  10.781 -0.0559  0.7226 -1.4567
  209MPD1     N 3236   1.671   1.315  10.486  0.1593  0.2729  0.2689
  209MPD1    H5 3237   1.585   1.298  10.435  0.5764 -0.1390 -0.3006
  209MPD1    N1 3238   1.565   0.902  10.704  0.4407  0.0351  0.2264
  209MPD1    H6 3239   1.465   0.908  10.687  0.1871  0.7241  1.8644
  209MPD1    H7 3240   1.584   0.850  10.790  1.5678  1.6835  0.9821
  210MPD1     C 3241   1.118   1.219   9.915 -0.5840  0.5814  0.4025
  210MPD1    C1 3242   1.163   1.335   9.858  0.1521  0.0563  0.1721
  210MPD1    C2 3243   1.252   1.406   9.928  0.0310  0.2125 -0.4740
  210MPD1    C3 3244   1.293   1.371  10.053 -0.1062 -0.5430 -0.4395
  210MPD1    C4 3245   1.242   1.266  10.114  0.7229 -0.2401 -0.5332
  210MPD1    C5 3246   1.157   1.188  10.041  0.1891 -0.1321 -0.7237
  210MPD1     H 3247   1.287   1.496   9.880  0.4988  0.2014 -0.1535
  210MPD1    H1 3248   1.268   1.237  10.215  0.4047 -0.4739 -0.5184
  210MPD1    H2 3249   1.050   1.162   9.854  0.2175  0.6872 -0.5953
  210MPD1    H3 3250   1.122   1.093  10.081 -0.7909 -1.2051 -4.1886
  210MPD1     N 3251   1.391   1.433  10.126  0.0343  0.1864 -0.1689
  210MPD1    H5 3252   1.414   1.380  10.209  2.0706  0.5784 -0.4742
  210MPD1    N1 3253   1.149   1.354   9.718 -0.2173 -0.2706 -0.4688
  210MPD1    H6 3254   1.170   1.450   9.692 -1.8424  0.1937 -0.0344
  210MPD1    H7 3255   1.058   1.328   9.680 -1.3080  0.6444  1.5496
  211MPD1     C 3256   3.784   0.452  15.431 -0.0717 -0.0801  0.3830
  211MPD1    C1 3257   3.717   0.565  15.387  0.1051 -0.5968  0.4170
  211MPD1    C2 3258   3.674   0.656  15.485 -0.6660 -0.0649 -0.8674
  211MPD1    C3 3259   3.718   0.647  15.619  0.1941  0.3410 -0.1874
  211MPD1    C4 3260   3.814   0.554  15.646  0.2190 -0.3832 -0.1612
  211MPD1    C5 3261   3.829   0.448  15.563 -0.5661 -0.2614 -0.4953
  211MPD1     H 3262   3.603   0.737  15.473 -0.2275  0.4894  0.2600
  211MPD1    H1 3263   3.865   0.536  15.740  0.5198 -0.4735 -0.3410
  211MPD1    H2 3264   3.803   0.364  15.370  1.7221  0.7664 -0.2878
  211MPD1    H3 3265   3.897   0.367  15.588  1.2670  1.8116  1.1215
  211MPD1     N 3266   3.687   0.751  15.711  0.1634  0.9430  0.7897
  211MPD1    H5 3267   3.612   0.812  15.679  2.0813  3.5797  1.4123
  211MPD1    N1 3268   3.655   0.569  15.263 -0.2862  0.6433 -0.0444
  211MPD1    H6 3269   3.706   0.520  15.189  1.6677  1.6933  0.6222
  211MPD1    H7 3270   3.637   0.661  15.222  0.7475  1.3997  1.2089
  212MPD1     C 3271   3.045   3.777  16.300 -0.1597  0.4444  0.1756
  212MPD1    C1 3272   2.948   3.848  16.371  0.4061  0.5038  0.1062
  212MPD1    C2 3273   2.898   3.785  16.479  0.1079  0.0121 -0.5172
  212MPD1    C3 3274   2.942   3.661  16.524  0.4785  0.2866  0.8366
  212MPD1    C4 3275   3.039   3.598  16.451  0.1310 -0.1562 -0.0201
  212MPD1    C5 3276   3.100   3.664  16.346 -0.2487 -1.3067  0.6917
  212MPD1     H 3277   2.811   3.827  16.529 -0.0617 -0.0824 -0.7314
  212MPD1    H1 3278   3.069   3.498  16.480  0.8693 -0.1181 -0.6339
  212MPD1    H2 3279   3.071   3.810  16.200 -1.0930  0.3253 -0.1031
  212MPD1    H3 3280   3.175   3.613  16.287 -0.2654 -0.3313 -0.1593
  212MPD1     N 3281   2.872   3.589  16.620 -0.2650  0.7682 -0.7792
  212MPD1    H5 3282   2.873   3.488  16.619 -0.1317  0.7807 -2.1422
  212MPD1    N1 3283   2.884   3.962  16.325 -0.4519 -0.6685  0.0587
  212MPD1    H6 3284   2.947   4.021  16.270  1.6958  1.5548  4.8543
  212MPD1    H7 3285   2.852   4.008  16.410  1.7189  0.3946  0.3054
  213MPD1     C 3286   1.077   4.069  16.007  0.2311  0.3876  0.1823
  213MPD1    C1 3287   0.957   4.024  15.966  0.1718 -0.5965 -0.1360
  213MPD1    C2 3288   0.917   4.095  15.852 -0.8400  0.1670 -0.4664
  213MPD1    C3 3289   0.964   4.223  15.821 -0.3902  1.3491  0.2463
  213MPD1    C4 3290   1.067   4.273  15.888  0.1863 -0.0728  0.1605
  213MPD1    C5 3291   1.119   4.191  15.986  0.3374  0.4620  0.4363
  213MPD1     H 3292   0.836   4.057  15.791 -1.7942  0.6582  0.5101
  213MPD1    H1 3293   1.112   4.371  15.879  1.2330 -0.2716  3.0464
  213MPD1    H2 3294   1.126   4.017  16.089 -1.1916 -0.2949  0.5929
  213MPD1    H3 3295   1.193   4.236  16.050 -0.1702  2.2551 -0.2341
  213MPD1     N 3296   0.909   4.291  15.708 -0.3865  0.4851 -1.0085
  213MPD1    H5 3297   0.852   4.232  15.648  0.5511 -0.0103 -1.4078
  213MPD1    N1 3298   0.926   3.890  15.981  0.2715 -0.1416 -0.0594
  213MPD1    H6 3299   0.832   3.867  15.950  0.3474  0.0676 -0.4415
  213MPD1    H7 3300   0.947   3.851  16.073  0.8970  0.6804  0.1484
  214MPD1     C 3301   0.245   3.948  15.296  0.3049 -0.0506 -0.2083
  214MPD1    C1 3302   0.259   4.065  15.227 -0.2588  0.6574 -0.1981
  214MPD1    C2 3303   0.364   4.156  15.259  0.8391  0.5616 -0.2591
  214MPD1    C3 3304   0.451   4.125  15.365 -0.2677 -0.3478 -0.3837
  214MPD1    C4 3305   0.431   4.015  15.435  0.2853  0.0956  0.1107
  214MPD1    C5 3306   0.340   3.922  15.391  0.3948  0.4567 -0.4214
  214MPD1     H 3307   0.371   4.254  15.212  0.9641  0.5738 -0.2153
  214MPD1    H1 3308   0.502   3.998  15.516  0.7173  1.9455  0.1276
  214MPD1    H2 3309   0.172   3.874  15.264  1.1839 -0.1287 -2.0247
  214MPD1    H3 3310   0.335   3.829  15.447 -2.3062  0.4564 -0.6445
  214MPD1     N 3311   0.564   4.207  15.399 -0.2445  0.5801 -0.6352
  214MPD1    H5 3312   0.621   4.170  15.475 -0.4560 -1.1986 -1.3481
  214MPD1    N1 3313   0.184   4.066  15.106  0.2395  0.0008 -0.1028
  214MPD1    H6 3314   0.094   4.020  15.121  0.2747 -0.5534 -1.6019
  214MPD1    H7 3315   0.160   4.160  15.075 -0.7775 -0.8258 -1.8288
  215MPD1     C 3316   0.702   0.979  11.063 -0.3132  0.1813  0.3278
  215MPD1    C1 3317   0.743   0.989  11.192 -0.4783  0.3606 -0.9091
  215MPD1    C2 3318   0.883   0.968  11.216 -0.9731 -0.0738 -0.6555
  215MPD1    C3 3319   0.966   0.938  11.112 -0.2430 -0.1131  0.0278
  215MPD1    C4 3320   0.919   0.946  10.984  0.2476  0.1627  0.4612
  215MPD1    C5 3321   0.792   0.971  10.963 -0.0075 -0.4396 -0.2816
  215MPD1     H 3322   0.916   0.976  11.319 -1.6494 -0.1647 -0.4319
  215MPD1    H1 3323   0.980   0.934  10.895 -0.7081 -1.6922  0.0617
  215MPD1    H2 3324   0.600   1.006  11.035  0.0301  0.3594 -0.7289
  215MPD1    H3 3325   0.761   0.976  10.860  1.3992  0.0240 -0.6786
  215MPD1     N 3326   1.109   0.928  11.131  0.6936 -0.2585 -0.2987
  215MPD1    H5 3327   1.145   0.938  11.225  1.2900  0.1959 -0.5750
  215MPD1    N1 3328   0.653   0.994  11.304  0.3083  0.2119  0.6726
  215MPD1    H6 3329   0.681   1.049  11.385 -1.0452 -0.1108  1.3596
  215MPD1    H7 3330   0.560   1.027  11.278 -1.1212 -0.7880  4.5485
  216MPD1     C 3331   2.388   4.055   0.671  0.6996  0.3334 -0.1560
  216MPD1    C1 3332   2.512   4.054   0.616  0.1541  0.6275  0.3956
  216MPD1    C2 3333   2.547   3.938   0.549 -0.3745 -0.2899  0.1644
  216MPD1    C3 3334   2.468   3.827   0.540  0.5621 -0.3829 -0.6485
  216MPD1    C4 3335   2.345   3.838   0.593 -0.1900  0.2593 -0.1760
  216MPD1    C5 3336   2.309   3.949   0.661 -0.3184  0.0521 -0.0658
  216MPD1     H 3337   2.646   3.933   0.506  0.0686 -1.2572  1.3232
  216MPD1    H1 3338   2.274   3.758   0.571 -1.0216  1.2892 -1.2390
  216MPD1    H2 3339   2.358   4.146   0.723  0.8871  0.8482 -0.9473
  216MPD1    H3 3340   2.205   3.953   0.691 -0.0475  0.2662  0.8430
  216MPD1     N 3341   2.522   3.703   0.483 -0.5544  0.2443 -0.0432
  216MPD1    H5 3342   2.623   3.705   0.475 -0.6581 -0.4035 -1.5956
  216MPD1    N1 3343   2.604   4.162   0.645 -0.1337 -0.9124  0.0018
  216MPD1    H6 3344   2.550   4.245   0.673  0.2922 -0.1495 -1.4341
  216MPD1    H7 3345   2.662   4.184   0.564 -0.6850  1.0574  0.1382
  217MPD1     C 3346   4.611   1.946   9.058  0.2349  0.0393  0.1863
  217MPD1    C1 3347   4.656   1.870   8.953 -0.0977  0.0781 -0.4936
  217MPD1    C2 3348   4.661   1.727   8.966  0.6009 -0.6551  0.5172
  217MPD1    C3 3349   4.604   1.668   9.082  0.3360  0.7173  0.2105
  217MPD1    C4 3350   4.576   1.751   9.192  0.1518  0.1530  0.0710
  217MPD1    C5 3351   4.589   1.890   9.178  0.3174 -0.1810 -0.4776
  217MPD1     H 3352   4.701   1.676   8.879  1.3791 -0.4948  0.7795
  217MPD1    H1 3353   4.533   1.710   9.283 -1.9033  1.2589 -0.4186
  217MPD1    H2 3354   4.600   2.054   9.052  0.3327  0.0624  0.4197
  217MPD1    H3 3355   4.550   1.946   9.261  1.0522 -0.3762 -0.0001
  217MPD1     N 3356   4.604   1.525   9.103  0.2282 -0.0862 -0.2499
  217MPD1    H5 3357   4.570   1.494   9.194 -0.9124 -0.4110 -0.7817
  217MPD1    N1 3358   4.669   1.930   8.826  0.3796 -0.0005  0.7836
  217MPD1    H6 3359   4.690   2.029   8.820  1.4125 -0.4876 -3.9020
  217MPD1    H7 3360   4.737   1.884   8.766 -2.9749 -1.7673 -1.6952
  218MPD1     C 3361   0.416   1.096  13.082  0.1297  0.1588 -0.6352
  218MPD1    C1 3362   0.446   0.962  13.058  0.1928  0.2623 -0.0211
  218MPD1    C2 3363   0.571   0.938  13.009 -0.3153  0.4641 -0.0402
  218MPD1    C3 3364   0.664   1.035  12.990 -0.2558 -0.4813 -0.0650
  218MPD1    C4 3365   0.625   1.166  13.009  0.2592 -0.0338  0.4530
  218MPD1    C5 3366   0.503   1.194  13.050  0.0182 -0.2383 -0.2445
  218MPD1     H 3367   0.590   0.834  12.982 -1.8888  0.4014 -0.9206
  218MPD1    H1 3368   0.689   1.252  12.992  1.6856 -1.5335 -1.7644
  218MPD1    H2 3369   0.320   1.124  13.123  1.2567  2.1880  0.6412
  218MPD1    H3 3370   0.488   1.296  13.084 -1.3381 -0.7624  0.7212
  218MPD1     N 3371   0.794   0.992  12.952 -0.1220 -0.4026 -0.7057
  218MPD1    H5 3372   0.818   0.893  12.950 -0.8756 -0.6022  0.2778
  218MPD1    N1 3373   0.363   0.858  13.107 -0.3857 -0.5507  0.5792
  218MPD1    H6 3374   0.265   0.884  13.118  0.3212  2.4974 -0.5707
  218MPD1    H7 3375   0.373   0.771  13.053  0.6934 -0.6355  0.9122
  219MPD1     C 3376   1.556   1.511  12.577  0.0140  0.0100 -0.0725
  219MPD1    C1 3377   1.614   1.389  12.588  0.7229 -0.4281 -0.4226
  219MPD1    C2 3378   1.540   1.294  12.653 -0.6586 -0.3090  0.3186
  219MPD1    C3 3379   1.401   1.312  12.664  0.2423 -1.2491  0.7488
  219MPD1    C4 3380   1.342   1.428  12.626 -0.4402 -0.5418  0.8615
  219MPD1    C5 3381   1.422   1.531  12.588 -0.0819  0.1665 -0.1551
  219MPD1     H 3382   1.595   1.209  12.691  1.1171  0.7980  0.2532
  219MPD1    H1 3383   1.235   1.440  12.627 -0.3421  0.2286  2.0192
  219MPD1    H2 3384   1.618   1.594  12.545 -2.1923  1.5317 -0.4020
  219MPD1    H3 3385   1.377   1.623  12.553 -2.5412 -0.1850  2.0856
  219MPD1     N 3386   1.317   1.221  12.729  0.6320 -0.2660 -0.1858
  219MPD1    H5 3387   1.218   1.245  12.734  0.9330  0.7375  0.8061
  219MPD1    N1 3388   1.750   1.370  12.563  0.0664 -0.4178 -0.3828
  219MPD1    H6 3389   1.781   1.433  12.490  0.3442  1.4178  1.3232
  219MPD1    H7 3390   1.765   1.274  12.531 -3.0796 -0.7561 -0.8556
  220MPD1     C 3391   1.196   2.081   9.745  0.3780  0.6216 -0.4902
  220MPD1    C1 3392   1.302   1.994   9.766  0.2474 -0.2327 -0.1424
  220MPD1    C2 3393   1.285   1.912   9.876  0.0637  0.4277 -0.3449
  220MPD1    C3 3394   1.168   1.887   9.935 -0.0582 -0.2941  0.3766
  220MPD1    C4 3395   1.060   1.972   9.909  0.3680  0.7085  0.0825
  220MPD1    C5 3396   1.082   2.068   9.817  0.3392 -0.4146 -0.4716
  220MPD1     H 3397   1.368   1.846   9.898 -1.3658 -1.1880  0.1791
  220MPD1    H1 3398   0.958   1.966   9.945  0.0826  1.6129 -0.5594
  220MPD1    H2 3399   1.196   2.159   9.669 -2.9784  2.1496  1.0226
  220MPD1    H3 3400   0.999   2.137   9.802 -0.2482 -1.1927 -0.8170
  220MPD1     N 3401   1.160   1.783  10.032 -0.2224 -0.3262 -0.3883
  220MPD1    H5 3402   1.244   1.727  10.044 -0.3910 -0.1935  1.4874
  220MPD1    N1 3403   1.425   2.016   9.705  0.4854  0.4168  0.1669
  220MPD1    H6 3404   1.490   1.938   9.717 -2.5406 -2.0745  0.2806
  220MPD1    H7 3405   1.418   2.040   9.606 -0.8494 -0.0618  0.1492
  221MPD1     C 3406   4.510   4.271  16.195  0.1379  0.7610  0.1533
  221MPD1    C1 3407   4.434   4.169  16.263  0.6853  0.0228  0.4026
  221MPD1    C2 3408   4.331   4.216  16.343 -0.2978 -0.2202 -0.2489
  221MPD1    C3 3409   4.315   4.349  16.365 -0.4621  0.2749  0.1665
  221MPD1    C4 3410   4.414   4.442  16.328  0.9700  0.2808  0.3293
  221MPD1    C5 3411   4.495   4.406  16.228  0.0829  0.3040 -0.2814
  221MPD1     H 3412   4.251   4.150  16.374 -1.4224  1.1916 -0.1434
  221MPD1    H1 3413   4.404   4.547  16.353  3.1007  1.0571 -2.1483
  221MPD1    H2 3414   4.580   4.255  16.114 -2.5071 -3.7289 -1.2176
  221MPD1    H3 3415   4.555   4.482  16.179 -0.5877  0.7069 -0.4787
  221MPD1     N 3416   4.204   4.391  16.438 -0.3101  0.1441 -0.2260
  221MPD1    H5 3417   4.193   4.492  16.435 -0.1048  0.1584 -0.5977
  221MPD1    N1 3418   4.441   4.041  16.211  0.4594 -0.2021  0.0630
  221MPD1    H6 3419   4.538   4.014  16.196  0.0944 -1.1655 -0.5963
  221MPD1    H7 3420   4.413   3.968  16.276  2.0221 -0.7501  0.1314
  222MPD1     C 3421   1.970   3.194   0.667  0.0801 -0.3254 -0.3264
  222MPD1    C1 3422   1.891   3.305   0.700 -0.1716 -0.0850 -0.6048
  222MPD1    C2 3423   1.908   3.419   0.633 -0.0350 -0.7671  0.3986
  222MPD1    C3 3424   2.016   3.441   0.546 -0.1323  0.4382 -0.1201
  222MPD1    C4 3425   2.107   3.339   0.537 -0.6460 -0.7819 -0.1912
  222MPD1    C5 3426   2.078   3.214   0.588  0.1233 -0.2767 -0.1623
  222MPD1     H 3427   1.848   3.502   0.668 -1.9541 -1.2292 -1.8001
  222MPD1    H1 3428   2.183   3.341   0.460  0.0336  0.2152  0.5196
  222MPD1    H2 3429   1.951   3.096   0.709 -1.3715 -0.7243 -1.9539
  222MPD1    H3 3430   2.138   3.128   0.561  0.5114  0.4788 -1.7208
  222MPD1     N 3431   2.039   3.563   0.476 -0.0169 -0.8887  0.3978
  222MPD1    H5 3432   2.127   3.563   0.425  0.3625  0.7347  1.0489
  222MPD1    N1 3433   1.782   3.293   0.786  0.7574 -0.1188 -0.1938
  222MPD1    H6 3434   1.753   3.381   0.829 -1.3593 -1.0842  0.3602
  222MPD1    H7 3435   1.785   3.224   0.861  1.1781 -0.1435 -0.2387
  223MPD1     C 3436   2.444   3.567  17.467  0.4667 -0.1437  0.7305
  223MPD1    C1 3437   2.421   3.477  17.573 -0.7656 -0.1269 -0.1153
  223MPD1    C2 3438   2.351   3.528  17.677  0.4778 -0.4621 -0.0614
  223MPD1    C3 3439   2.323   3.662  17.690  0.9961 -0.2191 -0.0001
  223MPD1    C4 3440   2.358   3.751  17.591 -0.1057  0.6957  0.4602
  223MPD1    C5 3441   2.414   3.702  17.473 -0.0488 -0.3277  0.3366
  223MPD1     H 3442   2.312   3.456  17.748 -4.2330  0.5836 -1.5434
  223MPD1    H1 3443   2.356   3.860  17.592  0.4678  0.7138 -1.8158
  223MPD1    H2 3444   2.492   3.536  17.375  1.5243  2.9871  0.2339
  223MPD1    H3 3445   2.446   3.769  17.394 -2.5457 -0.8537 -1.1142
  223MPD1     N 3446   2.267   3.711   0.059  0.2376 -0.1679 -0.0691
  223MPD1    H5 3447   2.267   3.634   0.126 -1.7132 -0.1909 -0.1002
  223MPD1    N1 3448   2.435   3.339  17.554  0.1986 -0.0825  0.1074
  223MPD1    H6 3449   2.519   3.320  17.500  0.7715 -0.8703  1.2784
  223MPD1    H7 3450   2.422   3.286  17.640  1.4404 -0.5815 -0.0129
  224MPD1     C 3451   0.375   1.969   9.669 -0.1823 -0.0161  0.5798
  224MPD1    C1 3452   0.366   1.857   9.585  0.6624 -0.3120  1.1608
  224MPD1    C2 3453   0.365   1.741   9.650 -0.1647 -0.3445 -0.2346
  224MPD1    C3 3454   0.343   1.727   9.788  0.2958  0.7065 -0.5523
  224MPD1    C4 3455   0.343   1.846   9.867 -0.3283  0.0749 -0.6059
  224MPD1    C5 3456   0.365   1.965   9.806  0.0828 -0.0620  0.1381
  224MPD1     H 3457   0.383   1.648   9.598  0.8468 -1.4854  2.1545
  224MPD1    H1 3458   0.332   1.838   9.975  0.8402 -0.9104 -0.5566
  224MPD1    H2 3459   0.375   2.067   9.622  0.7344 -0.7126 -0.8570
  224MPD1    H3 3460   0.383   2.053   9.867 -1.0647  0.9519 -0.9891
  224MPD1     N 3461   0.318   1.597   9.848  0.7941  0.2398 -0.4780
  224MPD1    H5 3462   0.316   1.595   9.950 -2.1124 -1.7768 -0.5582
  224MPD1    N1 3463   0.408   1.862   9.450  0.1830  0.0517  0.2854
  224MPD1    H6 3464   0.388   1.950   9.403  1.3974 -0.1615 -0.6185
  224MPD1    H7 3465   0.369   1.791   9.388  0.9701 -2.4152  2.6410
  225MPD1     C 3466   1.108   1.647  12.878  0.0176  0.1428  0.5016
  225MPD1    C1 3467   1.045   1.525  12.898  0.2812 -0.3618 -0.2886
  225MPD1    C2 3468   0.905   1.519  12.883 -0.5373  0.3530  0.3520
  225MPD1    C3 3469   0.834   1.625  12.848 -0.0136  0.3633 -0.7749
  225MPD1    C4 3470   0.896   1.744  12.840 -0.0446  0.9439 -0.4443
  225MPD1    C5 3471   1.031   1.760  12.849 -0.0389 -0.2350 -0.3317
  225MPD1     H 3472   0.864   1.421  12.902 -0.3210  0.4396  1.2655
  225MPD1    H1 3473   0.849   1.838  12.814  0.9456  1.5690  0.0022
  225MPD1    H2 3474   1.216   1.655  12.889  0.1437 -0.7565 -0.0890
  225MPD1    H3 3475   1.078   1.856  12.834 -1.8936  0.4266 -1.9031
  225MPD1     N 3476   0.692   1.625  12.823  0.1047 -0.5892  0.2094
  225MPD1    H5 3477   0.641   1.709  12.798 -0.6885 -0.5474  1.9636
  225MPD1    N1 3478   1.112   1.408  12.921 -0.4114 -0.1139  0.3746
  225MPD1    H6 3479   1.049   1.333  12.952  0.3878 -1.7131 -1.8438
  225MPD1    H7 3480   1.194   1.431  12.976 -1.5191  2.3315  0.9860
  226MPD1     C 3481   4.399   2.874  10.623 -0.4588  1.0716  0.6161
  226MPD1    C1 3482   4.454   2.771  10.705 -0.0413 -0.0083 -0.2901
  226MPD1    C2 3483   4.561   2.696  10.659 -0.1128 -0.0551  0.1844
  226MPD1    C3 3484   4.614   2.715  10.529  0.1427  0.9937  1.0590
  226MPD1    C4 3485   4.546   2.802  10.448  0.1007  0.0715  0.8771
  226MPD1    C5 3486   4.443   2.882  10.502 -1.0360  0.6074  0.1776
  226MPD1     H 3487   4.618   2.633  10.727 -1.9579 -1.7949  0.1074
  226MPD1    H1 3488   4.563   2.814  10.341  0.8256  1.7522  1.1833
  226MPD1    H2 3489   4.317   2.939  10.653  1.4194  3.1741  1.2286
  226MPD1    H3 3490   4.400   2.964  10.444  1.0676  0.4446 -1.5974
  226MPD1     N 3491   4.729   2.640  10.491  0.1723 -0.0462 -0.0181
  226MPD1    H5 3492   0.043   2.597  10.566 -1.8582 -3.3701 -0.5359
  226MPD1    N1 3493   4.413   2.757  10.840  0.1883 -0.2535 -0.0276
  226MPD1    H6 3494   4.330   2.809  10.867 -0.0841  0.5053 -2.3585
  226MPD1    H7 3495   4.396   2.662  10.872 -1.3285  0.1015  0.2435
  227MPD1     C 3496   0.548   2.320  11.020 -0.6806  0.2046  0.1323
  227MPD1    C1 3497   0.415   2.324  11.002  0.3006  0.1164  0.4776
  227MPD1    C2 3498   0.371   2.329  10.877 -0.0473  0.3182  0.2114
  227MPD1    C3 3499   0.453   2.366  10.767  0.4785  0.4849  0.4439
  227MPD1    C4 3500   0.584   2.352  10.783 -0.6649 -0.1832  0.1784
  227MPD1    C5 3501   0.622   2.334  10.910 -0.0763 -1.0481 -0.0225
  227MPD1     H 3502   0.264   2.315  10.868 -0.2524  2.1540 -0.2774
  227MPD1    H1 3503   0.661   2.364  10.708 -1.5002 -2.2686 -1.0104
  227MPD1    H2 3504   0.590   2.310  11.120 -1.0027 -0.2119  0.2289
  227MPD1    H3 3505   0.728   2.311  10.921  0.2013 -0.3488 -1.2774
  227MPD1     N 3506   0.378   2.385  10.643 -0.2832  0.4846 -0.2695
  227MPD1    H5 3507   0.278   2.378  10.659 -0.0889 -0.0221  0.6639
  227MPD1    N1 3508   0.330   2.289  11.105 -0.3916  0.4995 -0.1029
  227MPD1    H6 3509   0.375   2.314  11.193  2.6602  0.5085 -1.6654
  227MPD1    H7 3510   0.240   2.337  11.102  0.0833  1.3624 -0.7221
  228MPD1     C 3511   2.473   4.316  13.181 -0.6549  0.4152 -0.0907
  228MPD1    C1 3512   2.368   4.359  13.109  0.3146  0.2172  0.3797
  228MPD1    C2 3513   2.243   4.313  13.146  0.0636 -0.0041  0.4891
  228MPD1    C3 3514   2.229   4.202  13.226  0.7761  0.2141  0.3833
  228MPD1    C4 3515   2.343   4.159  13.299  0.0097  0.1996  0.4544
  228MPD1    C5 3516   2.458   4.214  13.270  0.0085  0.2289  0.1005
  228MPD1     H 3517   2.157   4.345  13.089  0.1158  0.4859  0.6834
  228MPD1    H1 3518   2.340   4.072  13.363  0.1707  0.2809  0.5691
  228MPD1    H2 3519   2.573   4.353  13.159 -0.1308 -1.4912 -0.8848
  228MPD1    H3 3520   2.547   4.180  13.322  0.2102 -1.9884 -1.7003
  228MPD1     N 3521   2.103   4.146  13.239  0.0076 -0.0436 -0.4836
  228MPD1    H5 3522   2.036   4.205  13.190 -0.4789  0.0080  0.2404
  228MPD1    N1 3523   2.376   4.469  13.030  0.3492 -0.4325 -0.9694
  228MPD1    H6 3524   2.465   4.474  12.981  0.4817  1.9457 -0.4892
  228MPD1    H7 3525   2.301   4.478  12.962  1.9475 -0.6303 -2.7319
  229MPD1     C 3526   2.243   3.218  14.634  0.8096  0.0255 -0.4115
  229MPD1    C1 3527   2.369   3.173  14.642 -0.3474 -0.1028 -0.0166
  229MPD1    C2 3528   2.380   3.039  14.660 -0.4464 -0.1788 -0.4457
  229MPD1    C3 3529   2.271   2.955  14.683 -0.8879  0.2880 -0.3591
  229MPD1    C4 3530   2.145   3.008  14.681  0.4136 -0.3119  0.0077
  229MPD1    C5 3531   2.133   3.140  14.661  0.3554 -0.5112 -0.5564
  229MPD1     H 3532   2.477   2.992  14.665 -1.4572 -2.2011  0.2311
  229MPD1    H1 3533   2.065   2.937  14.704 -0.1173 -0.0549 -1.0865
  229MPD1    H2 3534   2.222   3.323  14.615 -0.1264 -0.2385 -0.8224
  229MPD1    H3 3535   2.034   3.183  14.666  1.0149  1.1975 -2.5805
  229MPD1     N 3536   2.285   2.816  14.703  0.1588  0.3979  0.0298
  229MPD1    H5 3537   2.203   2.763  14.731 -0.3115  1.2881  0.3371
  229MPD1    N1 3538   2.486   3.239  14.607 -0.0842 -0.2348 -0.4388
  229MPD1    H6 3539   2.563   3.204  14.663  1.7155  1.2200 -2.0248
  229MPD1    H7 3540   2.478   3.340  14.614  1.8978 -0.0106 -1.5458
  230MPD1     C 3541   2.205   2.091  15.392 -0.7408  0.4062  0.4679
  230MPD1    C1 3542   2.315   2.045  15.322 -0.4475 -0.2318 -0.1914
  230MPD1    C2 3543   2.342   2.113  15.204  0.2247  0.0464  0.1832
  230MPD1    C3 3544   2.277   2.229  15.161  0.0558  0.5517 -0.7034
  230MPD1    C4 3545   2.171   2.277  15.235  0.5355  0.3018  0.5543
  230MPD1    C5 3546   2.142   2.210  15.356 -0.9161  0.4561 -0.3326
  230MPD1     H 3547   2.408   2.064  15.133 -0.4771 -0.8625  0.1612
  230MPD1    H1 3548   2.121   2.369  15.208  5.1413  1.7467 -2.9968
  230MPD1    H2 3549   2.173   2.041  15.482 -0.0008 -0.7729  0.0691
  230MPD1    H3 3550   2.069   2.252  15.424  0.6770  1.1725  0.9363
  230MPD1     N 3551   2.317   2.286  15.035 -0.8479  0.1443 -0.3308
  230MPD1    H5 3552   2.403   2.246  14.998 -2.1614 -1.6283 -1.5100
  230MPD1    N1 3553   2.368   1.922  15.359 -0.2301 -0.3618  0.2209
  230MPD1    H6 3554   2.353   1.895  15.456  0.2838  1.8202  0.9274
  230MPD1    H7 3555   2.467   1.900  15.346 -0.2326 -0.4799  0.3992
  231MPD1     C 3556   0.058   4.604  15.615  0.0020 -0.5911  0.3958
  231MPD1    C1 3557   0.043   4.558  15.489  0.0619 -0.5789  0.2226
  231MPD1    C2 3558   0.144   4.567  15.397  0.1841 -0.1806  0.7044
  231MPD1    C3 3559   0.266   4.624  15.429 -0.2706 -0.6414 -0.1961
  231MPD1    C4 3560   0.283   4.677  15.553  0.1156  0.3088 -0.7307
  231MPD1    C5 3561   0.180   4.661  15.651  0.5380 -0.0371  0.0103
  231MPD1     H 3562   0.123   4.533  15.296  0.8381  0.3869  0.3740
  231MPD1    H1 3563   0.374   4.728  15.581 -1.6432  1.7960  2.3624
  231MPD1    H2 3564   4.728   4.588  15.697 -0.6917 -1.7266 -0.4049
  231MPD1    H3 3565   0.195   4.697  15.752 -2.0920  1.0687 -0.0114
  231MPD1     N 3566   0.363   4.645  15.327 -0.0558  0.2640 -0.4101
  231MPD1    H5 3567   0.335   4.631  15.230 -3.3562  0.3382  0.5376
  231MPD1    N1 3568   4.655   4.518  15.451  0.1154  0.6140 -0.4993
  231MPD1    H6 3569   4.675   4.443  15.385 -0.1669 -0.0503  0.1690
  231MPD1    H7 3570   4.602   4.471  15.524  0.7519 -1.6843 -1.5004
  232MPD1     C 3571   2.175   1.901   0.670  0.0100  0.0328  0.2235
  232MPD1    C1 3572   2.050   1.854   0.687  0.3644 -0.0671 -0.2950
  232MPD1    C2 3573   1.987   1.807   0.572 -0.1589  0.4674  0.4697
  232MPD1    C3 3574   2.023   1.843   0.446  0.2615  0.3511 -0.1756
  232MPD1    C4 3575   2.140   1.911   0.426 -0.5869  0.2148  0.0632
  232MPD1    C5 3576   2.213   1.937   0.541  0.2868 -0.0545 -0.6876
  232MPD1     H 3577   1.895   1.756   0.596  0.9469 -0.9024  1.7596
  232MPD1    H1 3578   2.187   1.943   0.334 -1.2707 -0.7727 -0.6273
  232MPD1    H2 3579   2.237   1.916   0.757 -0.8214 -1.8517  1.1245
  232MPD1    H3 3580   2.302   1.997   0.531  0.8062 -0.8327 -0.7573
  232MPD1     N 3581   1.935   1.802   0.341  0.3097 -0.5586  0.0559
  232MPD1    H5 3582   1.861   1.738   0.367  0.2689  0.0156  1.3436
  232MPD1    N1 3583   2.005   1.805   0.806  0.1178 -0.7690 -0.5170
  232MPD1    H6 3584   1.904   1.790   0.807  0.3058 -2.0134  0.8212
  232MPD1    H7 3585   2.041   1.854   0.888 -0.6464 -2.4992  0.8669
  233MPD1     C 3586   2.065   1.253   0.956  0.1214  0.1379  0.4154
  233MPD1    C1 3587   2.182   1.227   0.894  0.7968  0.5314  0.5087
  233MPD1    C2 3588   2.277   1.152   0.967 -0.5734 -0.3603  0.4302
  233MPD1    C3 3589   2.248   1.111   1.097 -0.1280 -0.2098 -0.7794
  233MPD1    C4 3590   2.135   1.155   1.159  0.1883  0.4900 -0.2448
  233MPD1    C5 3591   2.043   1.225   1.087  0.0938  0.2757  0.1949
  233MPD1     H 3592   2.364   1.114   0.915 -1.5642  1.0175 -2.2177
  233MPD1    H1 3593   2.106   1.125   1.259  1.3888  2.9861  0.8563
  233MPD1    H2 3594   1.987   1.311   0.908  3.6120  2.6700 -2.2785
  233MPD1    H3 3595   1.948   1.258   1.126  0.3360  1.6553 -0.3874
  233MPD1     N 3596   2.331   1.028   1.167  0.7076 -0.6557  0.1143
  233MPD1    H5 3597   2.314   1.016   1.266 -0.3589  0.7711  0.0986
  233MPD1    N1 3598   2.201   1.236   0.757  0.1131 -0.1797  0.1851
  233MPD1    H6 3599   2.179   1.329   0.719  0.7945 -0.5577 -1.1364
  233MPD1    H7 3600   2.299   1.230   0.731  0.0243  0.0059 -0.2067
  234MPD1     C 3601   0.656   4.426   9.259  0.4932  0.0487 -0.1464
  234MPD1    C1 3602   0.757   4.473   9.335  0.3472 -0.9251  0.0648
  234MPD1    C2 3603   0.775   4.611   9.339  0.0017  0.5210  0.8325
  234MPD1    C3 3604   0.683   4.692   9.277 -0.7196 -0.5105 -0.2365
  234MPD1    C4 3605   0.576   4.638   9.210  0.5132  0.1626  0.5052
  234MPD1    C5 3606   0.569   4.507   9.196 -0.0863  0.0818  0.5412
  234MPD1     H 3607   0.855   4.650   9.401  0.8699 -1.7154  1.1133
  234MPD1    H1 3608   0.494   4.695   9.168  0.2585  0.2627  1.1240
  234MPD1    H2 3609   0.648   4.320   9.236 -2.4257 -0.0153  1.1581
  234MPD1    H3 3610   0.483   4.461   9.149 -0.4802  1.9130 -0.5375
  234MPD1     N 3611   0.696   0.093   9.303  0.3699 -0.5065 -0.3046
  234MPD1    H5 3612   0.769   0.120   9.368 -0.6944  1.4858  0.0683
  234MPD1    N1 3613   0.855   4.391   9.394 -0.0260  0.5294  0.1958
  234MPD1    H6 3614   0.900   4.423   9.480  2.3460  1.8134 -1.5333
  234MPD1    H7 3615   0.807   4.307   9.424  0.5391 -0.9101 -2.9179
  235MPD1     C 3616   1.939   2.364  11.327 -0.2168  0.8420  0.0763
  235MPD1    C1 3617   2.072   2.348  11.356  1.0764 -0.3098 -0.5406
  235MPD1    C2 3618   2.172   2.389  11.265 -0.0700 -0.7262 -0.5795
  235MPD1    C3 3619   2.128   2.447  11.149 -0.3257  0.4545  0.4480
  235MPD1    C4 3620   1.995   2.462  11.121  0.1034  0.5084 -0.6438
  235MPD1    C5 3621   1.905   2.419  11.209 -0.3590  0.1711  0.7313
  235MPD1     H 3622   2.271   2.358  11.296 -0.7099 -1.2313  0.9638
  235MPD1    H1 3623   1.968   2.500  11.024 -1.2132 -0.2293 -0.5737
  235MPD1    H2 3624   1.863   2.322  11.391 -0.1568 -1.5801 -1.4447
  235MPD1    H3 3625   1.801   2.435  11.186 -0.5991 -1.0445  0.9472
  235MPD1     N 3626   2.224   2.487  11.054 -0.1556  0.6232 -0.3181
  235MPD1    H5 3627   2.320   2.494  11.085 -0.4527 -0.3709  0.8363
  235MPD1    N1 3628   2.107   2.267  11.464 -0.6030 -0.3450 -0.4996
  235MPD1    H6 3629   2.030   2.266  11.531 -0.7426 -0.8389 -0.6682
  235MPD1    H7 3630   2.201   2.283  11.499 -1.1485  0.1571  0.7648
  236MPD1     C 3631   0.686   3.010  10.069  0.0788 -0.1680 -0.0411
  236MPD1    C1 3632   0.698   2.911  10.163  0.0622 -0.6329 -0.4964
  236MPD1    C2 3633   0.828   2.865  10.190 -0.2580 -1.0135 -0.3046
  236MPD1    C3 3634   0.939   2.945  10.153 -0.3870  0.6535 -0.0393
  236MPD1    C4 3635   0.916   3.059  10.082 -0.5285  0.2898 -0.3149
  236MPD1    C5 3636   0.794   3.090  10.035 -0.2603 -0.9413 -0.6249
  236MPD1     H 3637   0.835   2.775  10.249 -0.2512 -0.4857  0.5042
  236MPD1    H1 3638   0.997   3.131  10.071  3.2972 -3.9507  0.0754
  236MPD1    H2 3639   0.587   3.038  10.036  0.9185  0.7580 -1.7699
  236MPD1    H3 3640   0.774   3.181   9.980 -2.5246  0.3147  2.2672
  236MPD1     N 3641   1.074   2.925  10.193  0.0786  0.0611  0.5604
  236MPD1    H5 3642   1.128   3.010  10.184 -0.4161  0.4179  0.9424
  236MPD1    N1 3643   0.585   2.828  10.189 -0.1897 -0.2756  0.0913
  236MPD1    H6 3644   0.592   2.767  10.270 -2.3167 -1.2617 -0.4712
  236MPD1    H7 3645   0.493   2.872  10.185  0.3688  0.8889 -0.0002
  237MPD1     C 3646   1.288   1.205  14.754  0.6257  0.5969  1.1630
  237MPD1    C1 3647   1.251   1.069  14.744 -0.5912  0.4392  0.1284
  237MPD1    C2 3648   1.113   1.038  14.750 -0.6602 -0.7017  0.0388
  237MPD1    C3 3649   1.024   1.147  14.757  0.0467  0.9563  0.8508
  237MPD1    C4 3650   1.059   1.275  14.759  0.5444  0.9855 -0.0744
  237MPD1    C5 3651   1.193   1.301  14.769 -0.0142 -0.0344 -0.1296
  237MPD1     H 3652   1.060   0.944  14.740  1.0039 -1.4941 -1.2950
  237MPD1    H1 3653   0.987   1.355  14.772 -1.0287 -0.2870 -0.9708
  237MPD1    H2 3654   1.393   1.235  14.757  1.4507 -2.2076  0.4753
  237MPD1    H3 3655   1.224   1.404  14.779  2.1250 -0.9197  2.4032
  237MPD1     N 3656   0.885   1.125  14.766 -0.1090  0.4687 -0.3284
  237MPD1    H5 3657   0.820   1.203  14.770 -1.7716 -0.9314  0.1319
  237MPD1    N1 3658   1.352   0.969  14.743  0.3779 -0.5528 -0.0010
  237MPD1    H6 3659   1.435   0.993  14.689  1.1621 -1.4124  0.8141
  237MPD1    H7 3660   1.312   0.881  14.711 -0.2107 -0.2149 -0.1907
  238MPD1     C 3661   2.784   4.538  15.426 -0.0558 -0.1156  0.5057
  238MPD1    C1 3662   2.722   4.424  15.384 -0.3684 -0.1274 -0.0593
  238MPD1    C2 3663   2.582   4.433  15.366 -0.0791 -0.5249 -0.2735
  238MPD1    C3 3664   2.512   4.558  15.374 -0.6101  0.0871 -0.1098
  238MPD1    C4 3665   2.588   4.672  15.411 -0.2025  0.2147 -0.4098
  238MPD1    C5 3666   2.722   4.662  15.437 -0.0721  0.4690  0.0251
  238MPD1     H 3667   2.530   4.352  15.316 -1.9758  1.7977 -2.1127
  238MPD1    H1 3668   2.541   0.031  15.419 -1.9717 -0.4559 -2.4590
  238MPD1    H2 3669   2.888   4.541  15.457  0.4929  1.5549 -1.5468
  238MPD1    H3 3670   2.776   0.004  15.485 -0.0081  0.9296 -0.8239
  238MPD1     N 3671   2.376   4.577  15.341  0.0184  0.5547  0.2501
  238MPD1    H5 3672   2.351   4.670  15.308  1.0510  0.0000 -2.1090
  238MPD1    N1 3673   2.796   4.303  15.386 -0.1593 -0.7056 -0.0475
  238MPD1    H6 3674   2.757   4.231  15.326 -1.0054 -0.6047  0.3743
  238MPD1    H7 3675   2.893   4.308  15.356 -0.2835  0.1405 -0.3106
  239MPD1     C 3676   2.576   0.905  15.566  0.4789 -0.1252 -0.1881
  239MPD1    C1 3677   2.661   0.990  15.498  0.3560  0.0007  0.3239
  239MPD1    C2 3678   2.629   1.019  15.362 -0.8942 -0.1207 -0.4105
  239MPD1    C3 3679   2.506   0.995  15.315  0.0744  0.1482 -0.4858
  239MPD1    C4 3680   2.424   0.914  15.388 -0.4938  0.9008 -0.2332
  239MPD1    C5 3681   2.458   0.871  15.511 -0.0399 -0.7668  0.1396
  239MPD1     H 3682   2.702   1.085  15.317 -0.0656  0.7913  2.2621
  239MPD1    H1 3683   2.321   0.893  15.362  0.4461 -2.1076 -1.5589
  239MPD1    H2 3684   2.599   0.870  15.666  0.2405 -0.9847 -0.4383
  239MPD1    H3 3685   2.387   0.807  15.564  1.4489 -2.0165  0.6164
  239MPD1     N 3686   2.467   1.037  15.184 -0.2329  0.5826  0.6510
  239MPD1    H5 3687   2.376   1.005  15.152 -0.4706  1.0368  0.8810
  239MPD1    N1 3688   2.777   1.034  15.563 -0.5936 -0.0373  0.1856
  239MPD1    H6 3689   2.774   1.022  15.664  0.8523  1.4294  0.4095
  239MPD1    H7 3690   2.789   1.134  15.547 -1.6204 -0.0450 -0.5909
  240MPD1     C 3691   2.305   0.404  14.073  0.3798 -0.3333  0.5048
  240MPD1    C1 3692   2.356   0.355  14.193  0.0717  0.3545 -0.1324
  240MPD1    C2 3693   2.273   0.343  14.307 -0.4873 -0.0395 -0.1200
  240MPD1    C3 3694   2.144   0.392  14.308  0.0556  0.5003  0.5185
  240MPD1    C4 3695   2.097   0.453  14.191  0.2485  0.1354 -0.0869
  240MPD1    C5 3696   2.185   0.470  14.089  0.7830 -0.0253  0.5019
  240MPD1     H 3697   2.314   0.296  14.395 -3.2891 -1.7651  0.2899
  240MPD1    H1 3698   1.996   0.488  14.174  0.1169  0.6459  1.7810
  240MPD1    H2 3699   2.357   0.396  13.979 -1.5559 -1.0666 -0.5118
  240MPD1    H3 3700   2.140   0.511  13.999  1.7554 -3.3997 -1.5214
  240MPD1     N 3701   2.071   0.383  14.426 -0.0810  0.3503 -0.5049
  240MPD1    H5 3702   2.120   0.351  14.509 -1.1441  1.7067  0.6591
  240MPD1    N1 3703   2.481   0.292  14.194  0.2360  0.4220 -0.2698
  240MPD1    H6 3704   2.532   0.286  14.282  1.1210  0.5673 -0.7705
  240MPD1    H7 3705   2.551   0.351  14.150  0.9180 -1.4440 -1.6961
  241MPD1     C 3706   2.051   0.089  15.386  0.0029 -0.4938  0.2040
  241MPD1    C1 3707   2.146   0.129  15.293  0.9379  0.3168  0.7885
  241MPD1    C2 3708   2.108   0.162  15.166  0.5884 -0.1105  0.0734
  241MPD1    C3 3709   1.966   0.161  15.139  0.0884 -0.9110 -0.0174
  241MPD1    C4 3710   1.872   0.141  15.240  0.1167  0.6399  0.8813
  241MPD1    C5 3711   1.918   0.104  15.363 -0.1212  0.2966  0.0642
  241MPD1     H 3712   2.183   0.180  15.090  0.3198 -1.8270 -0.6010
  241MPD1    H1 3713   1.767   0.154  15.217  0.7531  0.5061 -2.0192
  241MPD1    H2 3714   2.096   0.060  15.481  1.3598  0.5083 -0.1279
  241MPD1    H3 3715   1.854   0.089  15.450  0.8837 -1.1743  0.5528
  241MPD1     N 3716   1.914   0.205  15.011  0.2233 -0.8493  0.2325
  241MPD1    H5 3717   1.812   0.208  15.012  0.1827 -2.3698  0.2953
  241MPD1    N1 3718   2.277   0.099  15.319  0.4785  0.2808 -0.2210
  241MPD1    H6 3719   2.293   0.114  15.418  1.6952  1.4496 -0.5832
  241MPD1    H7 3720   2.342   0.160  15.268  0.7149 -0.4898 -0.8330
  242MPD1     C 3721   1.145   3.854  15.657  0.0785  0.5997 -0.0067
  242MPD1    C1 3722   1.116   3.727  15.706 -0.5022 -0.2477 -0.0844
  242MPD1    C2 3723   1.142   3.617  15.625  0.2159 -0.1238 -0.4983
  242MPD1    C3 3724   1.172   3.632  15.488 -0.1670  0.0958  0.5769
  242MPD1    C4 3725   1.183   3.762  15.451 -0.8209 -0.2085 -0.3834
  242MPD1    C5 3726   1.164   3.870  15.526 -0.3764  0.2632 -0.2263
  242MPD1     H 3727   1.134   3.514  15.659 -1.3690 -0.2427 -1.2486
  242MPD1    H1 3728   1.204   3.782  15.346  0.8422  2.2071  0.4135
  242MPD1    H2 3729   1.136   3.942  15.720  1.6283  0.1950  0.7696
  242MPD1    H3 3730   1.181   3.970  15.486  1.5722  0.3125  0.7307
  242MPD1     N 3731   1.216   3.530  15.401 -0.6999 -0.3930 -0.0673
  242MPD1    H5 3732   1.240   3.562  15.308 -0.6839  0.6224  0.2863
  242MPD1    N1 3733   1.089   3.714  15.839 -0.0068  0.1076 -0.1352
  242MPD1    H6 3734   1.033   3.636  15.872  1.4931 -1.2902 -0.8850
  242MPD1    H7 3735   1.042   3.796  15.878  0.9935  1.5437 -1.9452
  243MPD1     C 3736   2.963   1.056  17.575 -0.1676 -0.0662  0.0757
  243MPD1    C1 3737   3.052   0.954  17.557  0.7807 -0.2678  0.2568
  243MPD1    C2 3738   3.139   0.952  17.451 -0.4207 -0.6402  0.1080
  243MPD1    C3 3739   3.142   1.057  17.366 -0.0091 -0.6808  0.6383
  243MPD1    C4 3740   3.073   1.171  17.402  0.7922 -0.0309 -0.0693
  243MPD1    C5 3741   2.973   1.171  17.498  0.0400 -0.2737  0.2736
  243MPD1     H 3742   3.211   0.871  17.443 -1.1834 -1.1551 -1.5986
  243MPD1    H1 3743   3.077   1.257  17.337  1.2243  0.1803  0.2384
  243MPD1    H2 3744   2.880   1.053  17.645 -0.6297  0.3737 -0.4458
  243MPD1    H3 3745   2.921   1.266  17.510  1.8311  0.5336  1.6972
  243MPD1     N 3746   3.229   1.050  17.253 -0.4622 -0.6427 -0.0378
  243MPD1    H5 3747   3.294   0.973  17.242  0.9781  0.4579  0.7668
  243MPD1    N1 3748   3.017   0.843  17.629 -0.8013 -0.2184  0.7199
  243MPD1    H6 3749   2.976   0.864  17.720  1.0031 -2.0888  1.9346
  243MPD1    H7 3750   3.092   0.775  17.642 -0.2882  0.2853  0.3725
  244MPD1     C 3751   3.651   0.397  17.171  0.4107  0.1779 -0.4914
  244MPD1    C1 3752   3.586   0.479  17.266  0.2927  0.1219 -0.5756
  244MPD1    C2 3753   3.557   0.611  17.239 -0.1548 -0.7547 -0.6832
  244MPD1    C3 3754   3.599   0.666  17.117 -0.6417 -0.1021  0.5312
  244MPD1    C4 3755   3.661   0.585  17.028  0.2315 -0.0460 -0.0325
  244MPD1    C5 3756   3.698   0.456  17.057  0.2832 -0.4000  0.1117
  244MPD1     H 3757   3.498   0.670  17.308  3.1858  1.9286 -0.0943
  244MPD1    H1 3758   3.692   0.630  16.934 -0.0935  2.9290  1.2866
  244MPD1    H2 3759   3.672   0.292  17.187 -2.9198 -0.0737  2.3734
  244MPD1    H3 3760   3.754   0.394  16.988 -2.4685 -2.4567 -0.2723
  244MPD1     N 3761   3.571   0.801  17.100  0.1662  0.5692  0.6321
  244MPD1    H5 3762   3.508   0.849  17.164  0.2465  0.6689  0.6360
  244MPD1    N1 3763   3.522   0.421  17.378  0.0118 -0.7808 -0.4088
  244MPD1    H6 3764   3.423   0.414  17.357 -0.1798 -2.7393  1.1033
  244MPD1    H7 3765   3.566   0.330  17.389  0.2330 -0.6387 -0.1241
  245MPD1     C 3766   0.890   2.398  12.955  0.1324 -0.0631 -0.3431
  245MPD1    C1 3767   0.912   2.515  12.885  0.9449 -0.0070  0.4769
  245MPD1    C2 3768   0.929   2.636  12.958  0.7983 -0.1468 -0.3466
  245MPD1    C3 3769   0.893   2.653  13.090  1.2194  0.3722 -0.0342
  245MPD1    C4 3770   0.852   2.540  13.161  0.1091  0.4301  0.4090
  245MPD1    C5 3771   0.858   2.417  13.093 -0.7505  0.8276  0.3002
  245MPD1     H 3772   0.986   2.714  12.910 -1.3809  2.1395  0.7721
  245MPD1    H1 3773   0.821   2.540  13.265 -1.1203  2.4139  0.0518
  245MPD1    H2 3774   0.885   2.302  12.905 -0.5110 -1.1177  1.7589
  245MPD1    H3 3775   0.826   2.336  13.158  0.0387 -0.1405 -0.5272
  245MPD1     N 3776   0.889   2.780  13.149  0.4673 -0.2109  0.7505
  245MPD1    H5 3777   0.912   2.865  13.098 -0.3282 -1.3671 -1.4906
  245MPD1    N1 3778   0.945   2.507  12.753 -0.2456  0.2033  0.4718
  245MPD1    H6 3779   0.899   2.431  12.703 -1.2077  1.9005 -1.2285
  245MPD1    H7 3780   0.943   2.593  12.699  2.5911 -1.1614 -1.8582
  246MPD1     C 3781   2.564   3.713   9.658  0.2830 -0.3360 -0.8792
  246MPD1    C1 3782   2.427   3.727   9.654 -0.6679  0.4209 -0.0390
  246MPD1    C2 3783   2.368   3.848   9.682  0.4296  0.0516  0.8611
  246MPD1    C3 3784   2.451   3.949   9.729 -0.7784  0.1043 -0.0253
  246MPD1    C4 3785   2.587   3.931   9.733 -0.7057 -0.1713 -0.4881
  246MPD1    C5 3786   2.644   3.818   9.678  0.2427  0.2458 -0.2645
  246MPD1     H 3787   2.262   3.870   9.676  0.3586 -0.5023  0.0354
  246MPD1    H1 3788   2.659   4.006   9.763 -1.4328  0.0397  0.7804
  246MPD1    H2 3789   2.611   3.620   9.631  2.2018  0.7840 -1.4043
  246MPD1    H3 3790   2.749   3.793   9.685 -0.4914 -2.6294  0.4961
  246MPD1     N 3791   2.387   4.067   9.765  0.0425 -0.1784 -0.0999
  246MPD1    H5 3792   2.285   4.067   9.760 -0.0828 -0.3272  2.6945
  246MPD1    N1 3793   2.353   3.613   9.625 -0.0519 -0.2667  0.7147
  246MPD1    H6 3794   2.265   3.622   9.574  0.9534 -0.0541 -0.9973
  246MPD1    H7 3795   2.397   3.523   9.604 -0.2810 -0.2836  0.3090
  247MPD1     C 3796   4.155   2.707  16.907  0.0323  0.5573  0.9538
  247MPD1    C1 3797   4.256   2.648  16.829 -0.3503 -0.0261  0.6785
  247MPD1    C2 3798   4.318   2.717  16.724  0.1848  0.0537 -0.3021
  247MPD1    C3 3799   4.278   2.842  16.695 -0.2289  0.0672 -0.4878
  247MPD1    C4 3800   4.183   2.903  16.776 -0.8286  0.5220  0.6013
  247MPD1    C5 3801   4.129   2.835  16.886 -0.6176  0.4895 -0.3021
  247MPD1     H 3802   4.381   2.651  16.665  1.0553 -1.8979  2.7809
  247MPD1    H1 3803   4.151   3.005  16.760 -2.2215  0.4576  2.9860
  247MPD1    H2 3804   4.089   2.659  16.979  0.6083  1.0256  1.7981
  247MPD1    H3 3805   4.058   2.884  16.952  0.9983 -0.4108  2.0904
  247MPD1     N 3806   4.337   2.907  16.590 -0.4877 -0.1390 -0.0290
  247MPD1    H5 3807   4.294   2.989  16.548 -1.2952 -0.0354  1.0068
  247MPD1    N1 3808   4.264   2.510  16.845  0.5521  0.3023 -0.3036
  247MPD1    H6 3809   4.360   2.484  16.820  0.5004 -0.2985  0.1158
  247MPD1    H7 3810   4.249   2.488  16.944  0.3738  2.3632  0.1165
  248MPD1     C 3811   0.366   1.750   0.196  0.4855  0.4895 -0.1055
  248MPD1    C1 3812   0.312   1.859   0.129  0.6118  0.1651  0.1653
  248MPD1    C2 3813   0.316   1.978   0.197 -1.1891  0.1955 -0.3053
  248MPD1    C3 3814   0.370   1.990   0.323 -0.3935 -0.0075 -0.5304
  248MPD1    C4 3815   0.430   1.884   0.383 -0.4989  0.1107  0.2128
  248MPD1    C5 3816   0.428   1.762   0.317 -0.1071 -0.0054  0.9991
  248MPD1     H 3817   0.261   2.062   0.156 -1.3414  0.0592 -0.3851
  248MPD1    H1 3818   0.472   1.887   0.482 -0.2542 -0.2712  0.1194
  248MPD1    H2 3819   0.362   1.651   0.152 -0.0831  0.0652  0.8917
  248MPD1    H3 3820   0.471   1.675   0.365 -1.7727 -1.4509 -0.1499
  248MPD1     N 3821   0.371   2.125   0.375 -0.1831 -0.9218  0.2650
  248MPD1    H5 3822   0.329   2.199   0.319  0.6925 -0.6966 -0.1058
  248MPD1    N1 3823   0.225   1.842   0.022 -0.0772  0.1700  0.3125
  248MPD1    H6 3824   0.251   1.763  17.715  0.5880  0.2938  0.4457
  248MPD1    H7 3825   0.213   1.933  17.730  1.9429  0.8037  1.0920
  249MPD1     C 3826   1.730   1.370   9.944 -0.4351 -0.3276 -0.5672
  249MPD1    C1 3827   1.715   1.495   9.903  0.1740  0.9200  0.2783
  249MPD1    C2 3828   1.800   1.590   9.953 -0.3253 -0.4043 -0.1062
  249MPD1    C3 3829   1.891   1.557  10.050  0.2864 -0.4680 -0.2689
  249MPD1    C4 3830   1.896   1.429  10.103  0.3799  0.1503  0.6170
  249MPD1    C5 3831   1.816   1.336  10.046 -0.0725  0.5719 -0.2318
  249MPD1     H 3832   1.790   1.695   9.929  2.2957  0.0599  0.8283
  249MPD1    H1 3833   1.966   1.402  10.181  1.6934  3.2258  0.5152
  249MPD1    H2 3834   1.665   1.291   9.908 -0.4293 -1.3717  1.7096
  249MPD1    H3 3835   1.819   1.234  10.084 -0.6925  0.8487  0.5499
  249MPD1     N 3836   1.961   1.664  10.097 -0.2984  0.2510 -0.0120
  249MPD1    H5 3837   1.943   1.750  10.047  3.6774  0.4961 -1.0919
  249MPD1    N1 3838   1.622   1.520   9.799 -0.0470  0.3767  0.0844
  249MPD1    H6 3839   1.587   1.616   9.802 -1.8569 -0.2840  0.2515
  249MPD1    H7 3840   1.547   1.453   9.782  0.1914  0.1094  0.0870
  250MPD2     C 3841   3.771   1.124  13.605  0.4146 -0.1830  0.5734
  250MPD2    C1 3842   3.685   1.194  13.517 -0.1941  0.5141 -0.3941
  250MPD2    C2 3843   3.625   1.126  13.416  0.0179 -0.7446 -0.5836
  250MPD2    C3 3844   3.649   0.993  13.392  0.4431 -0.0715  0.0387
  250MPD2    C4 3845   3.727   0.920  13.489 -0.3314  0.0571 -0.3720
  250MPD2    C5 3846   3.787   0.989  13.589  0.3070 -0.2153  0.9907
  250MPD2     H 3847   3.554   1.172  13.348 -0.1511  1.3588  1.0259
  250MPD2    H1 3848   3.752   0.815  13.474 -2.2884 -0.5308  0.5247
  250MPD2    H2 3849   3.813   1.175  13.691  1.2839  0.6643 -0.3598
  250MPD2    H3 3850   3.852   0.941  13.662 -0.2136 -3.7561 -0.8471
  250MPD2     N 3851   3.606   0.914  13.279  0.4454 -0.3531  1.0253
  250MPD2    H5 3852   3.638   0.818  13.285  1.2648 -0.1252  0.4279
  250MPD2    N1 3853   3.682   1.332  13.528  0.0873  0.3399  0.2194
  250MPD2    H7 3854   3.762   1.370  13.578  0.8289  0.0262 -0.7241
  251TMC3    C1 3855   3.679   1.530  13.414 -0.1558  0.3455  0.3905
  251TMC3    C2 3856   3.610   1.645  13.385 -0.3401 -1.1427 -0.0790
  251TMC3    C3 3857   3.676   1.740  13.308  0.1719 -0.2983 -0.4752
  251TMC3    C4 3858   3.803   1.512  13.364 -0.0439 -0.4240  0.1388
  251TMC3    C5 3859   3.858   1.612  13.286  0.1647  0.1909  0.3025
  251TMC3    C6 3860   3.802   1.730  13.256 -0.2133 -0.8035  0.2936
  251TMC3     C 3861   3.612   1.411  13.445  0.1760 -0.0194 -0.4291
  251TMC3     O 3862   3.501   1.385  13.394 -0.0247  0.0767  0.2590
  251TMC3     H 3863   3.511   1.668  13.421  0.2137 -3.3346  2.8357
  251TMC3    H1 3864   3.856   1.422  13.392 -1.2883 -0.8059  1.2766
  251TMC3    H2 3865   3.844   1.803  13.187 -0.5767 -1.6813 -0.8531
  251TMC3    C7 3866   3.990   1.580  13.239 -1.2207  0.2502  0.6708
  251TMC3    C8 3867   3.603   1.861  13.262 -0.7228 -0.1743  0.4931
  251TMC3    O1 3868   4.025   1.462  13.252  0.1662 -0.3031 -0.5322
  251TMC3    O2 3869   3.665   1.965  13.242  0.0424 -0.5673 -0.5567
  252TMC3    C1 3870   4.223   3.290   9.370  0.2155 -0.1950 -0.0727
  252TMC3    C2 3871   4.343   3.289   9.434  0.0289  0.5162  0.3822
  252TMC3    C3 3872   4.369   3.209   9.544  0.2627  0.6041 -0.7591
  252TMC3    C4 3873   4.123   3.198   9.400  0.4193  0.0031 -0.0034
  252TMC3    C5 3874   4.159   3.120   9.504 -0.4941  0.2932 -0.4138
  252TMC3    C6 3875   4.277   3.114   9.580  1.1710 -0.4475 -0.1254
  252TMC3     C 3876   4.187   3.391   9.270 -0.1151  0.2120 -0.0396
  252TMC3     O 3877   4.246   3.496   9.277  0.1194  0.3617 -0.7044
  252TMC3     H 3878   4.421   3.354   9.395  1.1676 -1.8761 -1.3435
  252TMC3    H1 3879   4.024   3.184   9.359 -0.1507  2.0862  0.6467
  252TMC3    H2 3880   4.286   3.058   9.673 -1.9175 -2.5763 -1.1130
  252TMC3    C7 3881   4.046   3.039   9.553  0.0510  0.1338 -0.1498
  252TMC3    C8 3882   4.499   3.212   9.607 -1.2332  0.3280 -0.0055
  252TMC3    O1 3883   3.938   3.048   9.495  0.8613  0.4136  0.1394
  252TMC3    O2 3884   4.582   3.260   9.533 -0.3225 -0.0454 -0.2429
  253MPD2     C 3885   4.007   1.154  14.781 -0.3666  0.0454  0.2326
  253MPD2    C1 3886   4.137   1.143  14.819 -0.1287  0.2245  0.0599
  253MPD2    C2 3887   4.169   1.121  14.948  0.1249 -0.1244 -0.1636
  253MPD2    C3 3888   4.065   1.102  15.039 -0.8155  0.2311 -0.1803
  253MPD2    C4 3889   3.933   1.102  14.993 -0.4569 -0.0033 -0.4914
  253MPD2    C5 3890   3.904   1.117  14.865 -0.7000  0.3853 -0.5366
  253MPD2     H 3891   4.275   1.110  14.967 -0.0444 -1.3375  0.0929
  253MPD2    H1 3892   3.848   1.072  15.053 -0.3836  2.0916  0.6938
  253MPD2    H2 3893   3.987   1.185  14.679 -1.7547  1.7817  1.0192
  253MPD2    H3 3894   3.804   1.116  14.822 -0.5930  1.9847 -0.8073
  253MPD2     N 3895   4.082   1.105  15.184  0.2225  0.5129  0.2838
  253MPD2    H5 3896   4.003   1.110  15.248 -1.6023 -0.5025 -1.9259
  253MPD2    N1 3897   4.243   1.159  14.726 -0.1830 -0.3448 -0.1930
  253MPD2    H7 3898   4.336   1.165  14.767 -0.0110 -1.5358 -0.4145
  254TMC3    C1 3899   4.184   1.111  15.388  0.2217  0.8060 -0.7999
  254TMC3    C2 3900   4.056   1.100  15.443 -0.2935  0.4487 -0.1787
  254TMC3    C3 3901   4.034   1.073  15.577  1.0212  0.2096 -0.2281
  254TMC3    C4 3902   4.294   1.118  15.468 -0.1602 -0.1454 -0.2749
  254TMC3    C5 3903   4.275   1.090  15.600 -0.1170 -0.0326 -0.6281
  254TMC3    C6 3904   4.149   1.068  15.655  0.2835  0.2063  0.1728
  254TMC3     C 3905   4.202   1.110  15.248 -0.5240 -0.6146 -0.4642
  254TMC3     O 3906   4.320   1.115  15.210  0.6363 -0.5379 -0.1220
  254TMC3     H 3907   3.970   1.130  15.384 -2.7506 -0.9025  2.7061
  254TMC3    H1 3908   4.389   1.140  15.422  1.3025 -3.9730  0.8651
  254TMC3    H2 3909   4.130   1.054  15.761 -2.3070 -2.5910 -0.6352
  254TMC3    C7 3910   4.373   1.115  15.702  0.8025  0.1690  0.4865
  254TMC3    C8 3911   3.919   1.130  15.642  0.1433  0.3028  0.2084
  254TMC3    O1 3912   4.339   1.079  15.816  0.0711 -0.8149 -0.1322
  254TMC3    O2 3913   3.895   1.074  15.744  0.1443  0.4974 -0.5039
  255MPD2     C 3914   3.644   3.891  10.240  0.6855  0.4997 -0.5549
  255MPD2    C1 3915   3.651   3.938  10.115  0.3287 -0.3239 -0.7231
  255MPD2    C2 3916   3.644   3.845  10.008  0.1309 -0.3701 -0.4751
  255MPD2    C3 3917   3.638   3.710  10.041 -0.6907 -0.4124  1.1781
  255MPD2    C4 3918   3.631   3.667  10.174  0.4468 -0.4555 -0.1852
  255MPD2    C5 3919   3.626   3.762  10.279 -0.1064  0.5393  0.2763
  255MPD2     H 3920   3.648   3.880   9.906 -1.3404 -0.2913 -0.5081
  255MPD2    H1 3921   3.622   3.562  10.197 -3.2227  0.4027  2.4169
  255MPD2    H2 3922   3.640   3.970  10.315  1.4635 -2.7048  2.8405
  255MPD2    H3 3923   3.623   3.735  10.384 -0.3637  0.6377  0.2933
  255MPD2     N 3924   3.648   3.610   9.941 -0.2954 -0.3837 -0.2783
  255MPD2    H5 3925   3.591   3.529   9.962 -2.7964  0.9046 -2.1829
  255MPD2    N1 3926   3.645   4.080  10.097  0.4867 -0.0027  0.2061
  255MPD2    H7 3927   3.629   4.140  10.177  0.8529 -0.1071  0.3552
  256TMC3    C1 3928   3.697   4.287   9.994  0.2263  0.7835  0.3884
  256TMC3    C2 3929   3.796   4.345   9.921 -0.3966  0.0268 -0.3957
  256TMC3    C3 3930   3.817   4.474   9.955  0.0681 -0.3521  0.2269
  256TMC3    C4 3931   3.603   4.348  10.076 -0.3654 -0.6642  0.5185
  256TMC3    C5 3932   3.618   4.481  10.093 -0.3550  0.1760 -0.0479
  256TMC3    C6 3933   3.728   4.544  10.037  0.5459  0.1217  0.1176
  256TMC3     C 3934   3.686   4.141   9.983  0.8294  0.1709  0.1035
  256TMC3     O 3935   3.738   4.091   9.882 -0.9480 -0.3444  0.8588
  256TMC3     H 3936   3.859   4.280   9.862 -1.3666 -0.5540 -0.7918
  256TMC3    H1 3937   3.523   4.295  10.125 -0.6231 -0.0546  0.7610
  256TMC3    H2 3938   3.748   4.650  10.050  2.4972 -0.1793 -0.4441
  256TMC3    C7 3939   3.512   4.555  10.164 -0.7441  0.4343  0.1689
  256TMC3    C8 3940   3.921   4.538   9.884  0.1978  0.0600 -0.1631
  256TMC3    O1 3941   3.401   4.502  10.182 -0.0412 -0.0177 -0.8191
  256TMC3    O2 3942   3.978   4.460   9.809  0.0460 -0.1057 -0.2852
  257MPD2     C 3943   2.063   1.018  13.661 -0.5543  0.2461  0.0384
  257MPD2    C1 3944   2.068   0.968  13.536 -0.1478 -0.2930  0.0509
  257MPD2    C2 3945   2.089   0.837  13.511 -0.8434  0.0573 -0.5257
  257MPD2    C3 3946   2.115   0.750  13.615  0.1532  0.4398 -0.2565
  257MPD2    C4 3947   2.108   0.799  13.744 -0.2215  0.2606 -0.1170
  257MPD2    C5 3948   2.083   0.930  13.763  0.5618 -0.8180 -0.2578
  257MPD2     H 3949   2.086   0.798  13.410 -0.3282 -0.0584 -0.4974
  257MPD2    H1 3950   2.116   0.733  13.830 -2.0989 -0.3450 -0.4170
  257MPD2    H2 3951   2.033   1.119  13.685 -1.0133 -0.2530  1.5822
  257MPD2    H3 3952   2.072   0.964  13.865  1.2547  1.1751 -0.8308
  257MPD2     N 3953   2.140   0.616  13.584 -0.4365 -0.5373  0.6167
  257MPD2    H5 3954   2.132   0.596  13.485  1.1422 -0.0959  0.4087
  257MPD2    N1 3955   2.041   1.059  13.436 -0.5735 -0.5832 -0.3617
  257MPD2    H7 3956   2.008   1.147  13.474  1.7911 -0.5390  1.5619
  258TMC3    C1 3957   2.205   0.401  13.584  0.3948  0.7734 -0.1195
  258TMC3    C2 3958   2.156   0.394  13.463  0.5251  0.7062  0.5521
  258TMC3    C3 3959   2.169   0.274  13.396 -0.4947 -0.2093  0.2626
  258TMC3    C4 3960   2.261   0.295  13.651 -0.1814  0.5589 -0.9741
  258TMC3    C5 3961   2.267   0.178  13.587 -0.3379  0.2052  0.4006
  258TMC3    C6 3962   2.215   0.158  13.458 -0.0358 -0.3120  0.0885
  258TMC3     C 3963   2.199   0.524  13.661 -0.1603 -0.2018  0.4810
  258TMC3     O 3964   2.262   0.537  13.767 -0.5633  0.4604  0.2678
  258TMC3     H 3965   2.133   0.477  13.397  0.4725 -0.0541 -0.4015
  258TMC3    H1 3966   2.302   0.314  13.750 -3.9937  1.6930  0.3845
  258TMC3    H2 3967   2.235   0.068  13.402  0.6771 -0.6182  0.8401
  258TMC3    C7 3968   2.336   0.068  13.647  0.4105 -0.2116  0.2705
  258TMC3    C8 3969   2.127   0.270  13.265  0.4554  1.2085  0.6396
  258TMC3    O1 3970   2.284   4.699  13.638 -0.7404 -0.4406 -0.2623
  258TMC3    O2 3971   2.074   0.372  13.219  0.1707  0.4411  0.0046
  259MPD2     C 3972   1.026   2.526   0.348 -0.0451 -0.3638 -0.3662
  259MPD2    C1 3973   1.108   2.433   0.406  0.5688  0.3842 -0.3424
  259MPD2    C2 3974   1.219   2.377   0.338 -0.2820  0.0417  0.0114
  259MPD2    C3 3975   1.254   2.425   0.211  0.3885  0.0340  1.0047
  259MPD2    C4 3976   1.161   2.511   0.151 -0.6388 -0.5708  0.4909
  259MPD2    C5 3977   1.047   2.563   0.215  0.3910  0.4821 -0.1330
  259MPD2     H 3978   1.285   2.308   0.390 -0.8144 -1.3669 -1.2032
  259MPD2    H1 3979   1.177   2.546   0.050 -1.3582 -2.1288 -0.1625
  259MPD2    H2 3980   0.943   2.580   0.392 -1.1478 -1.4204 -1.1542
  259MPD2    H3 3981   0.990   2.641   0.166  1.0923  0.8605 -0.3538
  259MPD2     N 3982   1.375   2.383   0.144 -0.5737 -0.4397 -0.6418
  259MPD2    H5 3983   1.428   2.308   0.187  2.1330  0.8165 -1.8008
  259MPD2    N1 3984   1.081   2.402   0.543 -0.0403  0.1114  0.0666
  259MPD2    H7 3985   1.010   2.448   0.599  1.3563 -1.1354  2.9007
  260TMC3    C1 3986   1.572   2.402   0.024  1.2094 -0.1746 -0.5186
  260TMC3    C2 3987   1.629   2.371  17.650  0.0584  0.3316 -0.1382
  260TMC3    C3 3988   1.724   2.272  17.642  0.0272 -1.0149  0.2277
  260TMC3    C4 3989   1.617   2.340   0.135  0.0923 -0.2028  0.5951
  260TMC3    C5 3990   1.722   2.247   0.121 -0.0307 -0.1985 -0.5648
  260TMC3    C6 3991   1.776   2.211  17.749 -0.1523 -0.6209 -0.0384
  260TMC3     C 3992   1.430   2.446   0.028 -0.4897 -0.0878  0.6723
  260TMC3     O 3993   1.397   2.544  17.716 -0.5875 -0.6039  0.3051
  260TMC3     H 3994   1.587   2.415  17.561  0.7644 -1.9703 -1.6035
  260TMC3    H1 3995   1.598   2.377   0.235 -0.3809 -1.2412  0.8950
  260TMC3    H2 3996   1.846   2.128  17.742 -0.1522 -0.4857 -1.6271
  260TMC3    C7 3997   1.787   2.204   0.242 -0.4637  0.4302  0.5344
  260TMC3    C8 3998   1.740   2.206  17.516 -0.0680 -0.4837  0.5958
  260TMC3    O1 3999   1.905   2.240   0.250  0.4814  0.0882 -0.2276
  260TMC3    O2 4000   1.735   2.269  17.410 -0.1366  0.4575  0.4295
  261MPD2     C 4001   2.986   1.078  12.788 -0.0970 -0.2059 -0.7659
  261MPD2    C1 4002   3.107   1.030  12.744 -0.1455 -0.4672  0.5778
  261MPD2    C2 4003   3.132   1.040  12.607 -0.1195  0.4617  0.3786
  261MPD2    C3 4004   3.045   1.106  12.525 -0.5489  0.3630 -0.5730
  261MPD2    C4 4005   2.932   1.152  12.582 -0.0421  0.6037  0.5187
  261MPD2    C5 4006   2.900   1.143  12.709 -0.4224 -0.4114 -0.3508
  261MPD2     H 4007   3.227   1.005  12.568  0.3466  4.3690 -2.0395
  261MPD2    H1 4008   2.854   1.195  12.519 -0.1729 -2.3048 -1.2687
  261MPD2    H2 4009   2.952   1.052  12.887  0.3536  0.4088 -0.4486
  261MPD2    H3 4010   2.811   1.188  12.751  0.4705  1.4666 -0.4593
  261MPD2     N 4011   3.077   1.116  12.385 -0.4712  0.1045 -0.6162
  261MPD2    H5 4012   3.169   1.077  12.365 -0.8805 -1.3584  0.3109
  261MPD2    N1 4013   3.182   0.954  12.839  0.2124  0.4007 -0.4417
  261MPD2    H7 4014   3.146   0.964  12.934  1.4524 -0.7183  0.1394
  262TMC3    C1 4015   3.053   1.167  12.156  0.5056 -0.4020  0.8846
  262TMC3    C2 4016   3.005   1.263  12.075 -0.0701 -0.5371  0.5348
  262TMC3    C3 4017   2.944   1.225  11.966  0.6722  0.5716  0.6291
  262TMC3    C4 4018   3.047   1.033  12.127  0.6500  0.2434 -0.0841
  262TMC3    C5 4019   2.990   1.005  12.006  0.4126 -0.1902  0.6827
  262TMC3    C6 4020   2.940   1.100  11.925  0.6143  0.3355 -0.3338
  262TMC3     C 4021   3.012   1.189  12.291 -0.1949 -0.1687 -0.8649
  262TMC3     O 4022   2.916   1.259  12.305 -0.0958 -0.2610  0.1417
  262TMC3     H 4023   2.988   1.363  12.111 -1.2013 -0.4177 -0.3430
  262TMC3    H1 4024   3.070   0.954  12.198 -0.7000  1.5271  1.7776
  262TMC3    H2 4025   2.902   1.072  11.828 -2.0712 -1.5388  1.2397
  262TMC3    C7 4026   3.022   0.879  11.946 -0.0802  0.6524  0.1751
  262TMC3    C8 4027   2.867   1.329  11.893 -0.4510  0.2962  0.1352
  262TMC3    O1 4028   3.122   0.831  11.997  0.2820  0.2394 -0.4532
  262TMC3    O2 4029   2.902   1.441  11.921  0.0931  0.4695  0.0305
  263MPD2     C 4030   4.071   0.777  11.806  0.2920 -0.2142 -0.2352
  263MPD2    C1 4031   4.180   0.753  11.718 -0.3573 -0.3606 -0.2213
  263MPD2    C2 4032   4.208   0.844  11.615  0.5925 -0.0171  0.0281
  263MPD2    C3 4033   4.124   0.957  11.605 -0.3420 -0.0027  0.0876
  263MPD2    C4 4034   4.031   0.986  11.701 -0.3975 -0.2514  0.0869
  263MPD2    C5 4035   4.003   0.894  11.797  0.0962  0.1017 -0.7260
  263MPD2     H 4036   4.284   0.831  11.539  0.4653 -1.4625  0.1600
  263MPD2    H1 4037   3.972   1.077  11.708 -1.5079 -1.0573  1.2710
  263MPD2    H2 4038   4.040   0.693  11.868 -0.4898 -1.1868 -1.9385
  263MPD2    H3 4039   3.921   0.906  11.866 -0.5958  1.2869 -1.7558
  263MPD2     N 4040   4.156   1.050  11.503  0.0567  0.1302  0.1700
  263MPD2    H5 4041   4.230   1.023  11.439  0.4271  0.4565  0.4579
  263MPD2    N1 4042   4.260   0.638  11.739 -0.1202  0.3379  0.6513
  263MPD2    H7 4043   4.219   0.567  11.798 -0.4839 -1.0923 -1.3555
  264TMC3    C1 4044   4.198   1.256  11.402  0.3028 -0.2183  0.9457
  264TMC3    C2 4045   4.242   1.379  11.445  0.0695  0.3508  0.1621
  264TMC3    C3 4046   4.332   1.443  11.361  0.0925 -0.2805  0.3958
  264TMC3    C4 4047   4.237   1.193  11.291  0.2252 -0.8174  0.2991
  264TMC3    C5 4048   4.317   1.264  11.205 -0.0071  0.2391  0.5845
  264TMC3    C6 4049   4.369   1.387  11.240 -0.1838  0.0979 -0.0430
  264TMC3     C 4050   4.122   1.182  11.499 -0.3064 -0.2275 -0.6540
  264TMC3     O 4051   4.050   1.250  11.568  0.0047 -0.4237  0.1386
  264TMC3     H 4052   4.212   1.414  11.543 -1.0061  0.6013 -0.2480
  264TMC3    H1 4053   4.180   1.104  11.266 -0.9225  0.3164 -1.1678
  264TMC3    H2 4054   4.449   1.432  11.181  0.4430 -3.0642 -1.5843
  264TMC3    C7 4055   4.385   1.201  11.093 -0.0486 -0.2875 -0.2652
  264TMC3    C8 4056   4.448   1.502  11.438  1.3570  0.6403  0.1807
  264TMC3    O1 4057   4.484   1.263  11.052  0.2530  0.2545  0.8664
  264TMC3    O2 4058   4.563   1.483  11.405  0.0818 -0.3044 -0.4917
  265MPD2     C 4059   1.226   0.949  15.907 -0.3618 -0.3633  0.7564
  265MPD2    C1 4060   1.227   1.025  15.793  1.0047 -0.8895 -0.2416
  265MPD2    C2 4061   1.254   0.969  15.667 -0.2959 -0.2406  0.4832
  265MPD2    C3 4062   1.278   0.836  15.666 -0.0655  0.8049  0.2225
  265MPD2    C4 4063   1.274   0.756  15.780 -0.2971 -0.4314 -0.4278
  265MPD2    C5 4064   1.239   0.813  15.902  0.2532  0.0448  0.7855
  265MPD2     H 4065   1.237   1.034  15.583 -2.2659  0.1135  1.1481
  265MPD2    H1 4066   1.293   0.649  15.783  1.5622 -0.1272 -1.0239
  265MPD2    H2 4067   1.196   0.994  16.001 -1.3013 -1.5615  1.0385
  265MPD2    H3 4068   1.244   0.749  15.989  0.9277 -0.3972  0.4258
  265MPD2     N 4069   1.316   0.782  15.546  0.3808 -0.0355 -0.5857
  265MPD2    H5 4070   1.307   0.846  15.467  1.0822  2.0263  0.9865
  265MPD2    N1 4071   1.180   1.161  15.797 -0.6385  0.1917  0.0275
  265MPD2    H7 4072   1.169   1.204  15.705 -1.2507  1.1513  0.5504
  266TMC3    C1 4073   1.096   1.375  15.888 -0.0218 -0.2391  0.8647
  266TMC3    C2 4074   1.122   1.474  15.977  0.0719 -0.7048 -0.3025
  266TMC3    C3 4075   1.063   1.596  15.961  0.9917 -0.2163  0.1286
  266TMC3    C4 4076   1.002   1.393  15.793 -1.1060  0.4018  0.0901
  266TMC3    C5 4077   0.933   1.510  15.785 -0.2305 -0.1574  0.5518
  266TMC3    C6 4078   0.969   1.619  15.863 -0.2773 -0.2261  0.0164
  266TMC3     C 4079   1.149   1.239  15.912 -0.0814  0.0082  0.0012
  266TMC3     O 4080   1.162   1.210  16.027 -0.1801 -0.2560  0.4956
  266TMC3     H 4081   1.195   1.460  16.056  0.5417  0.1473 -0.5800
  266TMC3    H1 4082   0.972   1.317  15.722  0.5102  0.4695 -0.6648
  266TMC3    H2 4083   0.918   1.713  15.846 -2.0359 -1.5478 -2.0333
  266TMC3    C7 4084   0.837   1.527  15.680  0.3447  0.1085  0.4408
  266TMC3    C8 4085   1.103   1.707  16.053  0.4180 -0.0991  0.0932
  266TMC3    O1 4086   0.869   1.474  15.576  0.0879 -0.3064 -0.0814
  266TMC3    O2 4087   1.213   1.684  16.107  0.7062  0.0222  0.5396
  267MPD2     C 4088   3.326   3.159   0.515 -0.5648 -0.4370 -0.5681
  267MPD2    C1 4089   3.289   3.124   0.390  0.5012 -0.2936  0.3469
  267MPD2    C2 4090   3.163   3.167   0.342 -0.8038  0.0656 -0.0050
  267MPD2    C3 4091   3.075   3.247   0.415  0.1046  0.5607 -0.0627
  267MPD2    C4 4092   3.127   3.293   0.536 -0.3450 -0.1066 -0.1502
  267MPD2    C5 4093   3.248   3.251   0.582 -0.2128  1.3536 -0.3822
  267MPD2     H 4094   3.132   3.132   0.244  1.1579  0.4066 -0.7441
  267MPD2    H1 4095   3.072   3.351   0.609 -1.2177  1.4740 -2.0780
  267MPD2    H2 4096   3.419   3.126   0.560 -0.2374 -0.9166 -1.6076
  267MPD2    H3 4097   3.283   3.298   0.673 -0.2725  1.5751 -0.4745
  267MPD2     N 4098   2.947   3.281   0.371  0.1773  0.0703 -0.1325
  267MPD2    H5 4099   2.902   3.226   0.299  1.0272 -1.5358  0.5632
  267MPD2    N1 4100   3.374   3.040   0.317 -0.0700  0.2610  0.0787
  267MPD2    H7 4101   3.468   3.022   0.351  0.4185  3.5772  0.5047
  268TMC3    C1 4102   3.434   2.877   0.164  0.1553 -0.8078  0.1178
  268TMC3    C2 4103   3.444   2.828   0.039  0.1144 -0.4400  0.4014
  268TMC3    C3 4104   3.523   2.715   0.021  0.4079 -0.4579 -0.3876
  268TMC3    C4 4105   3.482   2.810   0.279  0.4321 -0.3659  0.0834
  268TMC3    C5 4106   3.550   2.692   0.254 -0.0023 -0.8292 -0.3878
  268TMC3    C6 4107   3.580   2.649   0.128  0.0776  0.2826  0.1240
  268TMC3     C 4108   3.344   2.985   0.194 -0.4535 -0.1393  0.1284
  268TMC3     O 4109   3.251   3.001   0.111  0.4168  0.1884  0.2571
  268TMC3     H 4110   3.382   2.883  17.720 -0.0415 -0.1885  0.7332
  268TMC3    H1 4111   3.471   2.838   0.384 -0.8000 -0.9088  0.0913
  268TMC3    H2 4112   3.644   2.564   0.109  1.9814  1.5843  0.6743
  268TMC3    C7 4113   3.627   2.638   0.365 -0.1276  0.0856 -0.1271
  268TMC3    C8 4114   3.552   2.664  17.635  0.0501 -0.7543 -0.4951
  268TMC3    O1 4115   3.580   2.652   0.481 -0.5495 -0.0367 -0.1961
  268TMC3    O2 4116   3.627   2.568  17.630 -0.6987  0.1240  0.3911
  269MPD2     C 4117   3.741   1.590  15.126 -0.5875  0.3102  0.4326
  269MPD2    C1 4118   3.657   1.597  15.232 -0.3140  0.1152  1.3505
  269MPD2    C2 4119   3.629   1.717  15.299  0.0367 -0.2577 -0.9565
  269MPD2    C3 4120   3.702   1.826  15.259  0.3510 -0.5189 -0.1846
  269MPD2    C4 4121   3.793   1.821  15.160 -0.3901 -0.5992 -0.0568
  269MPD2    C5 4122   3.805   1.705  15.089  0.3017 -0.3208  0.1145
  269MPD2     H 4123   3.566   1.722  15.388  0.7937 -1.8596 -0.3337
  269MPD2    H1 4124   3.845   1.907  15.119  1.4683 -2.8594 -2.4213
  269MPD2    H2 4125   3.761   1.491  15.085 -2.6101 -0.5101  1.4296
  269MPD2    H3 4126   3.875   1.705  15.006 -1.0552  0.2510 -1.0187
  269MPD2     N 4127   3.669   1.940  15.340 -0.3717 -0.6673  0.2022
  269MPD2    H5 4128   3.597   1.931  15.410  0.4798 -0.3416  1.1121
  269MPD2    N1 4129   3.603   1.468  15.281  0.5811  0.1187  0.1220
  269MPD2    H7 4130   3.651   1.393  15.233  0.2902 -1.0538  1.6866
  270TMC3    C1 4131   3.455   1.317  15.364  0.0844  0.2575 -0.4050
  270TMC3    C2 4132   3.345   1.277  15.302  0.1635 -0.0149 -0.1360
  270TMC3    C3 4133   3.318   1.140  15.297 -0.0027  0.0815 -0.4102
  270TMC3    C4 4134   3.546   1.226  15.412  0.3104 -0.1991 -0.0896
  270TMC3    C5 4135   3.527   1.092  15.399  0.1981  0.1782 -0.1271
  270TMC3    C6 4136   3.407   1.050  15.353 -0.1951 -0.5139 -0.3526
  270TMC3     C 4137   3.490   1.455  15.351  0.0193  0.0671 -0.4124
  270TMC3     O 4138   3.410   1.541  15.397  0.0991 -0.4604 -0.2938
  270TMC3     H 4139   3.293   1.347  15.237 -0.1665  0.4068  0.5784
  270TMC3    H1 4140   3.640   1.264  15.451 -0.1442 -0.3941  1.1988
  270TMC3    H2 4141   3.391   0.945  15.335 -1.5668 -0.2064 -0.8953
  270TMC3    C7 4142   3.643   1.016  15.369  0.0893 -0.2480  0.4730
  270TMC3    C8 4143   3.299   1.108  15.159  0.1700  0.3457  0.3052
  270TMC3    O1 4144   3.750   1.045  15.413 -0.3373  0.2852  0.5990
  270TMC3    O2 4145   3.341   1.183  15.075 -0.3129 -0.3338  0.2697
  271MPD2     C 4146   2.957   1.500  13.806  0.0524  0.1566 -0.0107
  271MPD2    C1 4147   2.859   1.399  13.831 -0.2959 -0.0845  0.1941
  271MPD2    C2 4148   2.724   1.415  13.794  0.8368  0.7343  0.3742
  271MPD2    C3 4149   2.688   1.531  13.730  0.1553 -0.1018 -0.7949
  271MPD2    C4 4150   2.783   1.628  13.700 -0.0337  0.2187 -0.6070
  271MPD2    C5 4151   2.915   1.611  13.742 -0.3864 -0.9058 -0.3778
  271MPD2     H 4152   2.650   1.339  13.820  2.1325 -0.0563  1.8039
  271MPD2    H1 4153   2.761   1.729  13.667 -0.9255 -0.4105 -1.9302
  271MPD2    H2 4154   3.057   1.502  13.848 -0.6582  0.2929  1.6884
  271MPD2    H3 4155   2.977   1.698  13.723 -0.0356 -0.3835  3.2328
  271MPD2     N 4156   2.556   1.555  13.692  0.5195 -0.3821  0.0296
  271MPD2    H5 4157   2.540   1.649  13.657  0.0954 -0.2447  0.5863
  271MPD2    N1 4158   2.894   1.285  13.903 -0.8221  0.3440  0.0476
  271MPD2    H7 4159   2.821   1.218  13.926 -0.6770  0.8238  1.8731
  272TMC3    C1 4160   3.033   1.116  14.004 -0.4258 -0.3081 -0.1233
  272TMC3    C2 4161   3.141   1.030  13.976 -0.4300 -0.1470  0.6249
  272TMC3    C3 4162   3.175   0.940  14.078  0.2907 -0.1114  0.3640
  272TMC3    C4 4163   2.958   1.106  14.122  0.3083 -0.2645  0.3525
  272TMC3    C5 4164   3.001   1.017  14.210  0.0460  0.4582  0.0115
  272TMC3    C6 4165   3.105   0.933  14.197  0.6815  0.0126  0.4473
  272TMC3     C 4166   3.022   1.233  13.920  0.2683  0.7823  0.1102
  272TMC3     O 4167   3.124   1.250  13.848  0.4660  0.4992 -0.0773
  272TMC3     H 4168   3.192   1.030  13.880 -1.5588 -2.4637  0.0443
  272TMC3    H1 4169   2.882   1.174  14.160  0.4264 -1.0351  1.9807
  272TMC3    H2 4170   3.117   0.857  14.274  0.8947 -1.1631 -0.7470
  272TMC3    C7 4171   2.954   1.045  14.345 -0.1271  0.3652 -0.1312
  272TMC3    C8 4172   3.303   0.879  14.060  0.4388  0.2772 -0.2159
  272TMC3    O1 4173   2.834   1.051  14.370  0.0270  0.1653 -0.0991
  272TMC3    O2 4174   3.343   0.867  13.945 -0.0867  0.3963  0.2396
  273MPD2     C 4175   4.724   4.054  11.798  0.3024  0.0233  0.5719
  273MPD2    C1 4176   0.062   4.172  11.785 -0.2322 -0.1119  0.3307
  273MPD2    C2 4177   0.049   4.249  11.667 -0.1987  0.4003  0.0238
  273MPD2    C3 4178   4.707   4.199  11.562  1.0638  0.2977 -0.7236
  273MPD2    C4 4179   4.630   4.079  11.584 -0.2351  0.5151  0.1357
  273MPD2    C5 4180   4.640   4.010  11.698  0.2721  0.1840 -0.4142
  273MPD2     H 4181   0.103   4.342  11.656  1.1330 -0.5079 -1.2088
  273MPD2    H1 4182   4.564   4.041  11.507  0.4150 -0.4368  0.0476
  273MPD2    H2 4183   4.736   4.002  11.892 -2.6105  0.1053  0.9915
  273MPD2    H3 4184   4.587   3.917  11.709 -0.1797  0.7127  1.7827
  273MPD2     N 4185   4.720   4.260  11.440  0.6748 -0.0331  0.5471
  273MPD2    H5 4186   0.057   4.327  11.439  1.3716 -0.8176 -0.5577
  273MPD2    N1 4187   0.148   4.197  11.892  0.5522  0.1476  0.5813
  273MPD2    H7 4188   0.136   4.155  11.984  0.8208 -0.5162  0.3172
  274TMC3    C1 4189   0.007   4.274  11.206  0.1108  0.4089 -0.8857
  274TMC3    C2 4190   4.670   4.315  11.101  0.3720 -0.1638 -0.2264
  274TMC3    C3 4191   4.722   4.421  11.021 -0.4026 -0.8953  0.7489
  274TMC3    C4 4192   0.119   4.355  11.244  0.4883  0.4261  0.3513
  274TMC3    C5 4193   0.158   4.467  11.181 -0.0116  0.1306  0.6497
  274TMC3    C6 4194   0.092   4.500  11.064 -0.1946  0.1001 -0.1928
  274TMC3     C 4195   4.675   4.215  11.319 -0.4107 -0.5660 -0.2100
  274TMC3     O 4196   4.592   4.128  11.295  0.5409 -0.3231  0.0941
  274TMC3     H 4197   4.588   4.250  11.073 -0.2951  0.3312  0.5702
  274TMC3    H1 4198   0.181   4.326  11.328 -0.2991 -0.1031  0.7497
  274TMC3    H2 4199   0.092   4.602  11.026 -3.6625  0.2157  0.1415
  274TMC3    C7 4200   0.161   4.574  11.281  0.2059 -0.1354 -0.2288
  274TMC3    C8 4201   4.655   4.445  10.890  0.3922  0.1949 -0.0782
  274TMC3    O1 4202   0.126   4.553  11.398 -0.5154  0.2273  0.8558
  274TMC3    O2 4203   4.578   4.364  10.837  0.0935  0.2620 -0.5488
  275MPD2     C 4204   4.107   2.523  14.443 -0.8765  0.7738  0.6089
  275MPD2    C1 4205   4.123   2.387  14.447  0.7835 -0.4009 -0.4140
  275MPD2    C2 4206   4.017   2.301  14.414 -0.7373  0.0665 -0.3711
  275MPD2    C3 4207   3.896   2.362  14.377 -0.8374  0.5057 -0.5570
  275MPD2    C4 4208   3.880   2.498  14.362 -0.8650  0.0960 -0.1770
  275MPD2    C5 4209   3.984   2.576  14.403  0.8347 -0.5308  0.2715
  275MPD2     H 4210   4.027   2.193  14.422 -0.4743  0.2853  2.4011
  275MPD2    H1 4211   3.787   2.539  14.324 -1.0004  0.0897  0.1462
  275MPD2    H2 4212   4.170   2.595  14.494 -1.0363  0.6198  1.0277
  275MPD2    H3 4213   3.964   2.682  14.391 -1.2942 -1.0421 -0.6518
  275MPD2     N 4214   3.784   2.292  14.331 -0.0490  0.0192 -0.2762
  275MPD2    H5 4215   3.706   2.350  14.301 -1.2892 -0.1959  2.5283
  275MPD2    N1 4216   4.227   2.324  14.516  0.1957  0.4356  0.6757
  275MPD2    H7 4217   4.202   2.241  14.570  1.1975  0.4722  1.2037
  276TMC3    C1 4218   4.456   2.303  14.597  0.0697 -0.5600 -0.0454
  276TMC3    C2 4219   4.412   2.192  14.667 -0.1613  0.3060 -0.3482
  276TMC3    C3 4220   4.436   2.186  14.804 -0.2829  0.3589  0.7715
  276TMC3    C4 4221   4.539   2.392  14.658  0.4720 -0.2601 -0.5522
  276TMC3    C5 4222   4.571   2.380  14.793  0.4011 -0.5664 -0.1236
  276TMC3    C6 4223   4.506   2.283  14.869  0.0638  0.3843 -0.2717
  276TMC3     C 4224   4.355   2.378  14.513 -0.6791 -0.0953  0.1252
  276TMC3     O 4225   4.398   2.467  14.441  0.3465  0.3176  0.3264
  276TMC3     H 4226   4.342   2.121  14.624  1.9395 -2.6505  1.1102
  276TMC3    H1 4227   4.575   2.475  14.598 -2.0242 -0.4512 -2.3300
  276TMC3    H2 4228   4.525   2.293  14.975  2.4181 -1.7174 -0.4958
  276TMC3    C7 4229   4.675   2.459  14.851 -0.1926 -0.1508  0.0255
  276TMC3    C8 4230   4.435   2.062  14.879 -0.0680 -0.0020 -0.3839
  276TMC3    O1 4231   4.719   2.415  14.960  0.0570 -0.8509  0.1398
  276TMC3    O2 4232   4.443   2.073  14.998  0.1900 -0.0519  0.1968
  277MPD2     C 4233   0.666   1.317  13.699 -0.6506  0.2626  0.5457
  277MPD2    C1 4234   0.789   1.361  13.653  1.1037  0.1461 -0.1183
  277MPD2    C2 4235   0.891   1.270  13.646  0.4609 -0.3531 -0.1139
  277MPD2    C3 4236   0.869   1.132  13.676  0.0454  0.3894  0.5391
  277MPD2    C4 4237   0.745   1.091  13.720 -0.0960 -0.0708  0.1737
  277MPD2    C5 4238   0.646   1.186  13.742  0.0069 -0.3056 -0.0072
  277MPD2     H 4239   0.990   1.304  13.617 -0.1265  0.4225 -1.1862
  277MPD2    H1 4240   0.718   0.989  13.747 -1.1313  0.2372  0.2933
  277MPD2    H2 4241   0.587   1.390  13.708 -1.1262 -0.2581  0.5228
  277MPD2    H3 4242   0.553   1.154  13.787  0.4484  0.5288  1.5088
  277MPD2     N 4243   0.978   1.051  13.669 -0.0672 -0.0247  0.0356
  277MPD2    H5 4244   1.067   1.089  13.639  0.0235  0.2583  0.6775
  277MPD2    N1 4245   0.796   1.499  13.622 -0.3814 -0.1881 -0.1709
  277MPD2    H7 4246   0.712   1.553  13.640 -0.6727 -0.6079 -0.2571
  278TMC3    C1 4247   1.109   0.868  13.734 -0.7705  0.3016 -0.0847
  278TMC3    C2 4248   1.098   0.737  13.773 -0.5207  0.3460  0.1012
  278TMC3    C3 4249   1.145   0.702  13.896 -0.4496 -0.6968  0.3825
  278TMC3    C4 4250   1.177   0.958  13.806  0.3171  0.1557  0.7923
  278TMC3    C5 4251   1.219   0.920  13.933  0.1589  0.0781  0.7757
  278TMC3    C6 4252   1.199   0.789  13.981  0.3077  0.6155 -0.3800
  278TMC3     C 4253   0.978   0.916  13.697  0.5558 -0.4986  0.5527
  278TMC3     O 4254   0.886   0.844  13.732 -0.1922 -0.6215  0.3079
  278TMC3     H 4255   1.055   0.664  13.705  1.1693 -1.5897  1.1073
  278TMC3    H1 4256   1.164   1.064  13.792 -0.8741 -0.3432 -1.8590
  278TMC3    H2 4257   1.227   0.761  14.081 -0.6631 -0.6072 -0.4553
  278TMC3    C7 4258   1.179   1.022  14.020  0.6313  0.6000  0.3133
  278TMC3    C8 4259   1.092   0.581  13.955 -0.0856 -0.5621  0.3247
  278TMC3    O1 4260   1.230   1.134  14.014 -0.3855  0.1010  0.5005
  278TMC3    O2 4261   1.141   0.553  14.064 -0.0983  0.8316 -0.0079
  279MPD2     C 4262   4.589   0.866  17.246  0.2701  0.6360  0.2488
  279MPD2    C1 4263   4.621   0.939  17.361 -0.7581  0.0728 -0.2788
  279MPD2    C2 4264   4.686   1.063  17.348 -0.0119 -0.5809  1.5265
  279MPD2    C3 4265   4.732   1.109  17.223  0.3358  0.5124 -0.9076
  279MPD2    C4 4266   4.705   1.024  17.116 -0.1305 -0.4957 -0.0604
  279MPD2    C5 4267   4.643   0.905  17.132  0.1145 -0.0078  0.5274
  279MPD2     H 4268   4.704   1.133  17.428 -1.2286  0.1475  1.1711
  279MPD2    H1 4269   0.007   1.059  17.022 -1.0990 -1.1919 -0.7245
  279MPD2    H2 4270   4.538   0.772  17.262 -2.1778  2.3792  2.7078
  279MPD2    H3 4271   4.630   0.834  17.051 -0.5418 -1.2564  1.7248
  279MPD2     N 4272   0.059   1.237  17.201  0.3621 -0.0208  0.5171
  279MPD2    H5 4273   0.082   1.250  17.103  1.8798  1.4553  1.0775
  279MPD2    N1 4274   4.560   0.898  17.482 -0.6358  0.7855 -0.2324
  279MPD2    H7 4275   4.475   0.843  17.471  0.8139 -1.5303  0.2033
  280TMC3    C1 4276   4.466   0.978  17.681 -0.3568 -0.7244 -0.1170
  280TMC3    C2 4277   4.377   0.879  17.703 -0.5122 -0.4370 -0.1787
  280TMC3    C3 4278   4.276   0.899   0.042 -0.1406 -0.6682 -0.2647
  280TMC3    C4 4279   4.466   1.101   0.001 -0.3953  0.6772  0.0558
  280TMC3    C5 4280   4.360   1.114   0.090  0.5758 -0.2306 -0.5573
  280TMC3    C6 4281   4.269   1.015   0.118  0.1159  0.2441  0.0558
  280TMC3     C 4282   4.585   0.962  17.598  0.0858 -0.1522 -0.0678
  280TMC3     O 4283   4.681   1.025  17.640 -0.2008  0.1716 -0.3184
  280TMC3     H 4284   4.390   0.780  17.662 -0.8700 -0.4066 -0.3710
  280TMC3    H1 4285   4.545   1.175  17.741  0.4488 -0.4513 -1.5101
  280TMC3    H2 4286   4.179   1.040   0.173  0.3494  1.9121 -0.3311
  280TMC3    C7 4287   4.327   1.251   0.099  0.1918  0.3219 -0.4315
  280TMC3    C8 4288   4.158   0.815   0.028 -0.5329  0.4577  0.2794
  280TMC3    O1 4289   4.324   1.299   0.213  0.1474  0.2379 -0.1173
  280TMC3    O2 4290   4.090   0.812   0.128  0.1645  0.5710  0.2216
  281TMC3    C1 4291   4.185   1.300  13.478  0.1971  0.3315 -0.4529
  281TMC3    C2 4292   4.283   1.354  13.404 -0.4694  0.1563 -0.7162
  281TMC3    C3 4293   4.334   1.280  13.301 -0.0815 -0.0339  0.3681
  281TMC3    C4 4294   4.127   1.179  13.453 -0.2791  0.3627  0.7078
  281TMC3    C5 4295   4.187   1.105  13.355 -0.4645 -0.4342 -0.2842
  281TMC3    C6 4296   4.287   1.158  13.275 -0.3897 -0.1085  0.2789
  281TMC3     C 4297   4.108   1.376  13.568  0.0086  0.3140 -0.0366
  281TMC3     O 4298   4.010   1.327  13.620 -0.0820 -0.1376  0.3489
  281TMC3     H 4299   4.323   1.454  13.420  1.2101 -0.3517 -1.7922
  281TMC3    H1 4300   4.049   1.132  13.512 -0.2603 -1.0800 -0.3929
  281TMC3    H2 4301   4.325   1.104  13.189  0.3712 -2.2863  1.9694
  281TMC3    C7 4302   4.136   0.969  13.332 -0.1522 -0.6433  0.6406
  281TMC3    C8 4303   4.453   1.318  13.230 -0.3936 -0.2336  0.0532
  281TMC3    O1 4304   4.159   0.919  13.224  0.3418  0.3400 -0.3013
  281TMC3    O2 4305   4.528   1.220  13.213 -0.2209  0.7877 -0.0711
  282MPD2     C 4306   1.217   3.076  15.123 -0.0364  0.1305  0.0033
  282MPD2    C1 4307   1.081   3.114  15.139 -0.0082  0.4174  0.8955
  282MPD2    C2 4308   1.010   3.139  15.023 -0.1049 -0.3756  0.3752
  282MPD2    C3 4309   1.065   3.113  14.896  1.7654 -0.2999 -0.0705
  282MPD2    C4 4310   1.204   3.097  14.892  0.2964  0.2935  0.4620
  282MPD2    C5 4311   1.275   3.074  15.004 -0.6681 -0.5504 -0.2746
  282MPD2     H 4312   0.906   3.170  15.023 -0.6574 -2.2167  0.7555
  282MPD2    H1 4313   1.264   3.082  14.803 -0.3016  0.1633  0.0759
  282MPD2    H2 4314   1.283   3.046  15.203  1.2792  2.2128 -0.2836
  282MPD2    H3 4315   1.382   3.067  14.988 -0.4154 -0.7123  1.4697
  282MPD2     N 4316   0.992   3.119  14.780  0.5689  0.0921 -0.1540
  282MPD2    H5 4317   0.895   3.149  14.784  0.9585  1.4505 -0.9851
  282MPD2    N1 4318   1.010   3.107  15.257  0.2591  0.5208  0.2096
  282MPD2    H7 4319   0.913   3.137  15.260  0.2182  0.4815 -0.6694
  283TMC3    C1 4320   0.963   3.052  15.483 -0.4663  0.3688  0.3074
  283TMC3    C2 4321   0.911   3.170  15.522 -0.6719  0.0580  0.3491
  283TMC3    C3 4322   0.849   3.184  15.650 -0.9274  0.2991 -0.1976
  283TMC3    C4 4323   0.972   2.946  15.574  0.4118  0.1873  0.4022
  283TMC3    C5 4324   0.905   2.963  15.695  0.2415 -0.4593  0.6596
  283TMC3    C6 4325   0.846   3.084  15.734 -0.2836  0.1446  0.6839
  283TMC3     C 4326   1.059   3.054  15.372  0.1276  1.2770 -0.0063
  283TMC3     O 4327   1.158   2.986  15.391 -0.2103 -0.0345  0.2744
  283TMC3     H 4328   0.907   3.260  15.461 -0.4605 -0.1486  0.0326
  283TMC3    H1 4329   1.016   2.852  15.544  1.2907  0.6522  0.2380
  283TMC3    H2 4330   0.804   3.103  15.832 -1.9175  3.4959 -0.6602
  283TMC3    C7 4331   0.838   2.850  15.762 -0.2440 -0.4934 -0.4489
  283TMC3    C8 4332   0.822   3.321  15.699 -0.4744  0.4278 -0.5835
  283TMC3    O1 4333   0.771   2.878  15.861 -0.0931 -0.2136  0.5820
  283TMC3    O2 4334   0.822   3.345  15.820 -0.7191 -0.1393 -0.3494
  284MPD2     C 4335   4.534   2.536  12.360  0.6628  0.5479  0.3684
  284MPD2    C1 4336   4.635   2.505  12.273  0.3196  0.1605 -0.1199
  284MPD2    C2 4337   4.706   2.384  12.292 -0.3371 -0.7130  0.2893
  284MPD2    C3 4338   4.670   2.295  12.392 -0.4263 -0.5228 -0.5935
  284MPD2    C4 4339   4.582   2.340  12.485  0.0009 -0.4758 -0.3218
  284MPD2    C5 4340   4.510   2.459  12.471 -0.5590 -0.2886  0.2747
  284MPD2     H 4341   0.046   2.353  12.224 -0.5815 -0.7160  0.0074
  284MPD2    H1 4342   4.559   2.275  12.569  1.9464  0.3789  0.8683
  284MPD2    H2 4343   4.476   2.627  12.348 -2.5206 -1.7868 -1.9545
  284MPD2    H3 4344   4.443   2.495  12.548 -2.0515 -1.1776 -0.6092
  284MPD2     N 4345   4.738   2.173  12.404 -0.6540  0.2038 -0.4933
  284MPD2    H5 4346   0.075   2.162  12.337 -1.8762 -0.3681 -1.7743
  284MPD2    N1 4347   4.672   2.586  12.162  0.2770  1.0710 -0.1001
  284MPD2    H7 4348   0.009   2.552  12.103  2.1946  1.2105  2.2430
  285TMC3    C1 4349   4.673   2.735  11.987  0.3962 -0.1065 -0.5013
  285TMC3    C2 4350   4.731   2.640  11.916 -0.9106 -0.1663  0.7087
  285TMC3    C3 4351   0.049   2.675  11.797 -0.1172 -0.6590 -0.3566
  285TMC3    C4 4352   4.668   2.866  11.955 -0.0761 -0.1459 -0.3048
  285TMC3    C5 4353   4.738   2.895  11.841 -0.5180 -0.1447  0.2086
  285TMC3    C6 4354   0.062   2.807  11.758  0.5723 -0.1830 -0.0723
  285TMC3     C 4355   4.612   2.705  12.116 -0.1453  1.2298  0.4603
  285TMC3     O 4356   4.523   2.773  12.171  0.4628  0.2148 -1.1377
  285TMC3     H 4357   0.000   2.536  11.947  3.5162 -0.5079 -1.5338
  285TMC3    H1 4358   4.667   2.937  12.037  0.6006 -0.9968  0.4468
  285TMC3    H2 4359   0.107   2.841  11.666  4.0105 -1.1419  1.2882
  285TMC3    C7 4360   0.026   3.030  11.808 -0.5502 -0.4194  0.1272
  285TMC3    C8 4361   0.128   2.570  11.740 -0.8427  0.3341 -0.1833
  285TMC3    O1 4362   0.116   3.054  11.730 -0.0515  0.4319 -0.0645
  285TMC3    O2 4363   0.159   2.484  11.821  0.4093  0.0352  0.3692
  286MPD2     C 4364   4.304   1.824   1.540 -0.2841 -0.1298 -0.5800
  286MPD2    C1 4365   4.277   1.813   1.403 -0.2774  0.0860 -0.2592
  286MPD2    C2 4366   4.377   1.757   1.319  0.4317 -0.0730  0.7013
  286MPD2    C3 4367   4.492   1.699   1.376 -0.1934 -0.5984 -0.0491
  286MPD2    C4 4368   4.509   1.701   1.510 -0.1939  0.2056 -0.1657
  286MPD2    C5 4369   4.421   1.765   1.588  0.0155  0.3016  0.6303
  286MPD2     H 4370   4.368   1.756   1.211 -1.4126 -1.8676  0.8579
  286MPD2    H1 4371   4.599   1.670   1.561 -0.7140 -0.2234  0.4825
  286MPD2    H2 4372   4.231   1.861   1.612 -0.2505  0.0277 -0.6268
  286MPD2    H3 4373   4.443   1.784   1.693  0.4882  1.1669  0.3750
  286MPD2     N 4374   4.589   1.619   1.307 -0.1482  0.6234  0.5985
  286MPD2    H5 4375   4.656   1.573   1.368  1.7245  3.0799  0.4262
  286MPD2    N1 4376   4.155   1.859   1.345  0.1064  0.2047  0.3252
  286MPD2    H7 4377   4.148   1.855   1.244 -0.5193 -1.2031  0.4266
  287TMC3    C1 4378   4.699   1.497   1.146 -0.6139 -0.3302 -0.2334
  287TMC3    C2 4379   4.687   1.434   1.021  0.6596  0.4134  0.1001
  287TMC3    C3 4380   0.040   1.334   0.997 -0.5146 -0.4788 -0.2373
  287TMC3    C4 4381   0.061   1.464   1.237 -0.1794 -0.3503 -0.1313
  287TMC3    C5 4382   0.135   1.348   1.208  0.0533  0.0350  0.2446
  287TMC3    C6 4383   0.126   1.286   1.089 -0.3022  0.1556  0.3560
  287TMC3     C 4384   4.589   1.588   1.173  0.1797 -0.4973 -0.2701
  287TMC3     O 4385   4.514   1.622   1.081 -0.1003 -0.0757  0.1390
  287TMC3     H 4386   4.615   1.457   0.943  2.9291  0.4040 -2.0053
  287TMC3    H1 4387   0.084   1.529   1.321  0.7118 -0.4728 -0.2790
  287TMC3    H2 4388   0.181   1.193   1.074  0.9526  0.9599  0.0130
  287TMC3    C7 4389   0.250   1.303   1.286 -0.2118  0.1126 -0.3853
  287TMC3    C8 4390   0.012   1.240   0.891  0.3780  0.6337 -0.2252
  287TMC3    O1 4391   0.298   1.193   1.259 -0.4566 -0.1599 -0.5114
  287TMC3    O2 4392   4.654   1.250   0.824  0.6049  0.0517 -0.0008
  288TMC3    C1 4393   1.664   0.655  14.740  0.7659  0.6732  0.9215
  288TMC3    C2 4394   1.581   0.633  14.842 -0.7228 -0.5043 -0.8662
  288TMC3    C3 4395   1.449   0.614  14.814 -0.2968  0.4031  0.0982
  288TMC3    C4 4396   1.622   0.659  14.618  0.1660 -0.3507 -0.0627
  288TMC3    C5 4397   1.490   0.644  14.584 -0.0165  0.3900 -0.7739
  288TMC3    C6 4398   1.404   0.608  14.684  0.3074  0.2699 -0.1656
  288TMC3     C 4399   1.800   0.646  14.776 -0.5055  0.4256  0.3169
  288TMC3     O 4400   1.825   0.590  14.883 -0.3150 -0.0781 -0.2004
  288TMC3     H 4401   1.620   0.647  14.943 -2.4800 -1.8704 -0.0111
  288TMC3    H1 4402   1.699   0.667  14.542  0.3477  1.2207  0.2862
  288TMC3    H2 4403   1.298   0.615  14.663 -0.2481 -0.6647  2.3130
  288TMC3    C7 4404   1.444   0.669  14.445 -0.2612  0.3675 -0.0428
  288TMC3    C8 4405   1.355   0.637  14.925 -0.8567 -0.5680 -0.5452
  288TMC3    O1 4406   1.354   0.594  14.410  0.2962 -0.1594 -0.1732
  288TMC3    O2 4407   1.389   0.721  15.001  0.5915 -0.1208 -0.2832
  289MPD2     C 4408   1.488   4.634  14.724 -0.4380  0.8178 -0.2804
  289MPD2    C1 4409   1.462   0.020  14.680 -0.0657  0.4569  1.1380
  289MPD2    C2 4410   1.347   0.057  14.620 -0.0667 -0.7123 -0.2568
  289MPD2    C3 4411   1.262   4.690  14.582 -0.1332  0.3507 -0.1876
  289MPD2    C4 4412   1.284   4.557  14.621 -0.2291 -0.0492 -0.3925
  289MPD2    C5 4413   1.402   4.531  14.693  0.2028 -0.0895 -0.1861
  289MPD2     H 4414   1.328   0.157  14.583 -2.1838 -1.3638 -0.9334
  289MPD2    H1 4415   1.218   4.474  14.598  0.8369 -0.9215 -0.2582
  289MPD2    H2 4416   1.572   4.598  14.783  0.0797 -1.7000 -2.5618
  289MPD2    H3 4417   1.415   4.428  14.724  0.2361 -0.7336 -2.3922
  289MPD2     N 4418   1.139   4.709  14.510  0.5374  0.7304 -0.1436
  289MPD2    H5 4419   1.080   4.627  14.492 -0.3545  1.3194  0.0888
  289MPD2    N1 4420   1.563   0.121  14.710  0.2145  0.0429 -0.1794
  289MPD2    H7 4421   1.631   0.087  14.778 -0.9600 -2.8063 -0.4031
  290TMC3    C1 4422   0.957   0.091  14.412 -0.7982  0.6687  0.2931
  290TMC3    C2 4423   0.917   0.215  14.364  0.4894  0.1712  0.6469
  290TMC3    C3 4424   0.781   0.230  14.334 -0.2265 -0.0969  0.5708
  290TMC3    C4 4425   0.876   4.725  14.432  0.5723 -0.0234  0.5947
  290TMC3    C5 4426   0.747   0.013  14.394 -0.4664  0.4430 -0.8336
  290TMC3    C6 4427   0.699   0.124  14.332  0.1651 -0.9185  0.6016
  290TMC3     C 4428   1.084   0.094  14.481  0.5497  0.0743 -0.4776
  290TMC3     O 4429   1.129   0.209  14.497  0.3173 -0.2732 -0.2607
  290TMC3     H 4430   0.992   0.291  14.347  0.7328  0.3281  2.3639
  290TMC3    H1 4431   0.905   4.655  14.509  2.4126 -0.1072 -0.1788
  290TMC3    H2 4432   0.594   0.126  14.302  0.1539  1.3858  0.8351
  290TMC3    C7 4433   0.660   4.632  14.390  0.3531  0.4914  0.1362
  290TMC3    C8 4434   0.719   0.360  14.319  0.1707 -0.3035  0.2757
  290TMC3    O1 4435   0.540   4.663  14.379 -0.2558 -0.6419  0.2175
  290TMC3    O2 4436   0.603   0.352  14.288  0.5031 -0.3028  0.3476
  291MPD2     C 4437   0.119   0.086  17.710 -1.0345  0.6546  0.4957
  291MPD2    C1 4438   0.247   0.053   0.015 -0.7014 -0.4011  0.6198
  291MPD2    C2 4439   0.329   0.153   0.058  0.0803 -0.2989 -0.3115
  291MPD2    C3 4440   0.288   0.286   0.056 -0.6592  0.1202  0.5821
  291MPD2    C4 4441   0.158   0.309   0.010  0.0154  0.1571  0.6401
  291MPD2    C5 4442   0.077   0.213  17.699  0.0055  0.1667  0.1492
  291MPD2     H 4443   0.427   0.133   0.099  0.1471  1.0723  0.2095
  291MPD2    H1 4444   0.117   0.410   0.010  3.0211  1.3733 -1.0922
  291MPD2    H2 4445   0.054   0.015  17.660  2.1653 -0.5607 -1.9648
  291MPD2    H3 4446   4.729   0.246  17.642 -0.2778 -0.0446  0.4566
  291MPD2     N 4447   0.359   0.398   0.110 -0.5894 -0.1185 -0.0318
  291MPD2    H5 4448   0.316   0.489   0.096  0.5357  0.4943  0.4730
  291MPD2    N1 4449   0.293   4.656   0.043  0.4903 -0.1003  0.2523
  291MPD2    H7 4450   0.389   4.645   0.075  0.8847 -0.0067 -0.9111
  292TMC3    C1 4451   0.304   4.420   0.046  0.4769 -0.2133  0.6118
  292TMC3    C2 4452   0.353   4.414   0.172 -0.0153  0.1172  0.3590
  292TMC3    C3 4453   0.377   4.287   0.211 -0.9738 -0.3784  0.5216
  292TMC3    C4 4454   0.282   4.309  17.712  0.2933 -0.2391  0.0819
  292TMC3    C5 4455   0.302   4.184   0.011  0.1858  0.6244 -0.8712
  292TMC3    C6 4456   0.347   4.174   0.141  0.2682  0.1271  0.2710
  292TMC3     C 4457   0.226   4.540   0.011 -0.2269  0.2965  0.0862
  292TMC3     O 4458   0.132   4.528  17.689 -0.1628 -0.0651  0.0367
  292TMC3     H 4459   0.357   4.502   0.234 -0.7965  1.5906 -1.6746
  292TMC3    H1 4460   0.242   4.327  17.613 -1.1405 -1.9591  0.3614
  292TMC3    H2 4461   0.370   4.076   0.182 -0.5840 -0.6848 -1.1661
  292TMC3    C7 4462   0.277   4.062  17.685  0.2594  0.1101  0.4594
  292TMC3    C8 4463   0.396   4.289   0.359  0.1117  1.3875 -0.9976
  292TMC3    O1 4464   0.332   3.959  17.722  0.3069 -0.2107  0.7966
  292TMC3    O2 4465   0.476   4.371   0.402  0.5957 -0.2283  0.0489
  293MPD2     C 4466   2.452   0.291  13.146 -0.5961  0.3064 -0.5431
  293MPD2    C1 4467   2.425   0.427  13.161 -0.1206  0.2984 -0.4827
  293MPD2    C2 4468   2.458   0.494  13.278  0.5379  0.9762  0.6787
  293MPD2    C3 4469   2.501   0.426  13.381 -0.0927 -0.1337  0.7030
  293MPD2    C4 4470   2.520   0.290  13.377 -0.4929  0.7979 -0.4179
  293MPD2    C5 4471   2.484   0.220  13.261  0.2347 -0.0383  0.8274
  293MPD2     H 4472   2.434   0.598  13.300 -2.0254  0.1118  1.9037
  293MPD2    H1 4473   2.546   0.229  13.462 -1.2306 -0.6313 -1.2030
  293MPD2    H2 4474   2.416   0.233  13.062  1.8614 -0.6702 -0.9301
  293MPD2    H3 4475   2.490   0.112  13.260  1.4402  0.0240  1.5576
  293MPD2     N 4476   2.529   0.503  13.497  0.3596 -0.2048 -0.3137
  293MPD2    H5 4477   2.524   0.604  13.490  0.3112 -0.2560 -0.9573
  293MPD2    N1 4478   2.355   0.497  13.056  0.2122  0.1082  0.2303
  293MPD2    H7 4479   2.316   0.436  12.985  1.8702 -0.3075 -0.3196
  294TMC3    C1 4480   2.254   0.691  12.961 -0.7867 -0.4190  0.1322
  294TMC3    C2 4481   2.146   0.612  12.928 -0.1940 -0.2059 -0.3409
  294TMC3    C3 4482   2.034   0.679  12.890  0.8127  0.4481  0.7577
  294TMC3    C4 4483   2.255   0.831  12.945 -0.4090  0.3566 -0.1682
  294TMC3    C5 4484   2.140   0.891  12.902  0.2752 -0.4638 -0.2156
  294TMC3    C6 4485   2.027   0.819  12.872 -0.4916 -0.2392  1.1530
  294TMC3     C 4486   2.346   0.637  13.063 -0.1343 -1.2053 -0.3858
  294TMC3     O 4487   2.423   0.716  13.117 -0.4589  0.0120  0.0832
  294TMC3     H 4488   2.145   0.504  12.932 -0.1822 -0.2196 -0.7142
  294TMC3    H1 4489   2.336   0.885  12.992 -0.5164  0.4235 -0.0582
  294TMC3    H2 4490   1.944   0.876  12.832 -0.5385  0.3415  2.0841
  294TMC3    C7 4491   2.169   0.988  12.794 -0.6343  0.4726 -0.4231
  294TMC3    C8 4492   1.931   0.592  12.834 -0.4608 -0.0533  0.1325
  294TMC3    O1 4493   2.078   1.028  12.723  0.2466  0.4256 -0.7064
  294TMC3    O2 4494   1.976   0.494  12.767  0.4747 -0.2674  0.0189
  295MPD2     C 4495   2.409   0.375   1.077 -0.2758  0.4427 -0.6636
  295MPD2    C1 4496   2.362   0.243   1.079  0.4883 -0.0355 -1.1394
  295MPD2    C2 4497   2.250   0.217   1.150  0.0273 -0.0667 -0.4438
  295MPD2    C3 4498   2.179   0.325   1.208  0.5211  0.2682  0.4484
  295MPD2    C4 4499   2.226   0.459   1.206  0.6558  0.1679  0.5451
  295MPD2    C5 4500   2.340   0.482   1.135  0.2653  0.7334  0.1072
  295MPD2     H 4501   2.221   0.113   1.161 -1.2481  0.4632  1.1495
  295MPD2    H1 4502   2.169   0.541   1.248 -1.2837 -1.6615  1.5381
  295MPD2    H2 4503   2.501   0.405   1.029 -0.4077  1.8682 -0.0337
  295MPD2    H3 4504   2.375   0.580   1.102  0.9088  1.0997  1.9045
  295MPD2     N 4505   2.063   0.304   1.287  0.2068 -0.0853  0.4605
  295MPD2    H5 4506   2.018   0.389   1.317  1.7907  1.4428 -1.5170
  295MPD2    N1 4507   2.423   0.144   1.005  1.0391 -0.0948  0.1595
  295MPD2    H7 4508   2.386   0.050   1.009 -0.0908  0.3858  1.0863
  296TMC3    C1 4509   1.869   0.215   1.374  0.6018  0.4267  0.2827
  296TMC3    C2 4510   1.789   0.315   1.322  0.3353  0.5034 -0.1203
  296TMC3    C3 4511   1.658   0.297   1.331  0.3238 -0.5544  0.4142
  296TMC3    C4 4512   1.820   0.108   1.441 -0.7767  0.0307  0.9182
  296TMC3    C5 4513   1.685   0.097   1.459  0.2852 -0.4144  0.0106
  296TMC3    C6 4514   1.603   0.187   1.390  0.3304  0.4481  0.3678
  296TMC3     C 4515   2.003   0.186   1.318  0.0397  1.0157 -0.0644
  296TMC3     O 4516   2.029   0.072   1.289  0.0519 -0.7399 -0.3262
  296TMC3     H 4517   1.831   0.397   1.266 -0.4929  1.3838  0.5612
  296TMC3    H1 4518   1.893   0.040   1.482  0.0065  0.6312  0.5141
  296TMC3    H2 4519   1.495   0.176   1.386  0.3743  0.2454 -0.2595
  296TMC3    C7 4520   1.628   4.704   1.477  0.0524  0.4157 -0.1623
  296TMC3    C8 4521   1.568   0.403   1.284 -0.4057 -0.1600  0.6896
  296TMC3    O1 4522   1.506   4.694   1.464  0.8224 -0.5407 -0.3906
  296TMC3    O2 4523   1.450   0.376   1.259 -0.2175 -0.2684 -0.0462
  297MPD2     C 4524   4.559   1.616  16.130  0.2626  0.1397 -0.5427
  297MPD2    C1 4525   4.559   1.659  16.000 -1.0942 -0.0812  0.1765
  297MPD2    C2 4526   4.667   1.722  15.952  0.8366 -0.3543  0.1577
  297MPD2    C3 4527   0.026   1.762  16.038 -0.5928  0.0813 -0.3757
  297MPD2    C4 4528   0.029   1.726  16.166 -0.4892 -0.1287 -0.2331
  297MPD2    C5 4529   4.668   1.644  16.212 -0.4192 -0.2921 -0.9850
  297MPD2     H 4530   4.668   1.751  15.847  0.0590  0.1615  0.2964
  297MPD2    H1 4531   0.116   1.754  16.223 -1.4266 -0.9778  1.6129
  297MPD2    H2 4532   4.477   1.556  16.168  0.4196  0.0996 -0.2680
  297MPD2    H3 4533   4.672   1.608  16.314 -1.2187 -1.6032 -1.4150
  297MPD2     N 4534   0.131   1.844  15.994 -0.2764 -0.8279 -0.1447
  297MPD2    H5 4535   0.204   1.855  16.064 -1.1681  0.4493  0.5767
  297MPD2    N1 4536   4.448   1.643  15.913  0.2787  0.0862 -0.0972
  297MPD2    H7 4537   4.455   1.680  15.819 -0.4722  0.2014 -0.1103
  298TMC3    C1 4538   4.254   1.565  15.829 -0.8788 -0.0812 -0.2907
  298TMC3    C2 4539   4.314   1.536  15.710 -0.1621 -0.6943  0.4759
  298TMC3    C3 4540   4.229   1.540  15.610 -0.3333  0.2199 -0.3610
  298TMC3    C4 4541   4.124   1.589  15.851  0.2579 -0.4773 -0.3248
  298TMC3    C5 4542   4.050   1.617  15.737  0.0236 -0.0573 -0.2242
  298TMC3    C6 4543   4.105   1.591  15.614  0.0898  0.7892  0.7097
  298TMC3     C 4544   4.333   1.586  15.945 -0.5293  0.8623  0.5479
  298TMC3     O 4545   4.296   1.553  16.057 -0.3261  0.0473 -0.0569
  298TMC3     H 4546   4.411   1.488  15.706  0.5798  0.6281  2.4987
  298TMC3    H1 4547   4.087   1.610  15.951 -1.9728  0.0168 -1.2772
  298TMC3    H2 4548   4.045   1.615  15.527  0.8074 -1.7974 -0.4900
  298TMC3    C7 4549   3.968   1.739  15.757  0.1667  1.1070 -0.5719
  298TMC3    C8 4550   4.289   1.494  15.487  0.9020 -0.3090  0.0942
  298TMC3    O1 4551   3.921   1.736  15.866 -0.4258  0.3047  0.3123
  298TMC3    O2 4552   4.217   1.441  15.401 -0.4782 -0.2174  0.1382
  299MPD2     C 4553   1.102   1.916  10.518 -0.2688  0.5572  0.3833
  299MPD2    C1 4554   1.051   1.843  10.626  0.1530  0.5255 -0.7269
  299MPD2    C2 4555   0.929   1.781  10.613 -0.2405  0.3867  0.3747
  299MPD2    C3 4556   0.857   1.806  10.494  0.2909  0.2079  0.0062
  299MPD2    C4 4557   0.910   1.886  10.394  0.2905 -0.2343  0.0179
  299MPD2    C5 4558   1.030   1.936  10.409 -0.6193  0.0685 -0.8257
  299MPD2     H 4559   0.883   1.738  10.701 -3.1495 -0.9388 -1.7977
  299MPD2    H1 4560   0.852   1.900  10.303 -0.5521  0.8997  0.7246
  299MPD2    H2 4561   1.207   1.942  10.516  0.6515 -2.9453  3.2713
  299MPD2    H3 4562   1.065   1.989  10.321 -0.8212  0.7449 -0.5041
  299MPD2     N 4563   0.731   1.749  10.480  0.5331  0.3727 -0.3990
  299MPD2    H5 4564   0.707   1.735  10.383  1.5560 -0.1650 -0.5739
  299MPD2    N1 4565   1.139   1.820  10.733 -0.8930 -0.4839  0.0380
  299MPD2    H7 4566   1.231   1.862  10.727 -1.8819  1.2152 -2.9395
  300TMC3    C1 4567   0.531   1.629  10.520  0.8312  0.0787  0.2854
  300TMC3    C2 4568   0.489   1.641  10.391  0.2466  0.8970 -0.3085
  300TMC3    C3 4569   0.364   1.601  10.351 -0.4307 -0.3415 -0.6651
  300TMC3    C4 4570   0.444   1.570  10.611  0.5830  0.2101 -0.5198
  300TMC3    C5 4571   0.326   1.517  10.562  0.8371 -0.3513 -0.1203
  300TMC3    C6 4572   0.282   1.530  10.432  0.2800  0.7806 -0.6709
  300TMC3     C 4573   0.658   1.682  10.573 -0.3210  0.4097 -0.4000
  300TMC3     O 4574   0.661   1.679  10.696  0.4390 -0.4246  0.3868
  300TMC3     H 4575   0.556   1.681  10.315 -1.2865  0.5699 -1.8148
  300TMC3    H1 4576   0.472   1.547  10.713  1.8409  0.4472 -0.8195
  300TMC3    H2 4577   0.178   1.502  10.416 -0.1077  1.8618 -0.0907
  300TMC3    C7 4578   0.230   1.470  10.662  0.4326 -0.2938  0.3697
  300TMC3    C8 4579   0.316   1.676  10.239 -0.7654 -1.0166  0.5647
  300TMC3    O1 4580   0.155   1.379  10.630  0.2178  0.0064  0.1978
  300TMC3    O2 4581   0.338   1.630  10.128  0.0773  0.8380  0.0091
  301MPD2     C 4582   2.755   3.574   0.883 -0.4577 -0.2156  0.1305
  301MPD2    C1 4583   2.681   3.482   0.823  0.0640  0.0295 -0.7350
  301MPD2    C2 4584   2.738   3.362   0.782 -0.5111 -0.3771  0.7275
  301MPD2    C3 4585   2.875   3.343   0.800  0.2381 -0.6577 -0.4913
  301MPD2    C4 4586   2.956   3.437   0.856  0.7387  0.6928 -0.1875
  301MPD2    C5 4587   2.889   3.554   0.891  0.0793 -0.1249  0.1966
  301MPD2     H 4588   2.677   3.287   0.735 -0.4629 -0.1231  0.2605
  301MPD2    H1 4589   3.063   3.435   0.877  0.6459 -0.9403  0.1193
  301MPD2    H2 4590   2.732   3.679   0.902 -1.6566  0.2536 -3.9897
  301MPD2    H3 4591   2.951   3.633   0.930 -0.5510  0.2703  0.3857
  301MPD2     N 4592   2.931   3.217   0.787 -0.0187  0.4707  0.1315
  301MPD2    H5 4593   3.029   3.202   0.808  0.3584  1.7944 -0.6857
  301MPD2    N1 4594   2.543   3.502   0.802  0.4906 -0.3171 -0.0419
  301MPD2    H7 4595   2.497   3.425   0.755  1.9165 -0.9783 -0.3373
  302TMC3    C1 4596   2.943   2.981   0.736  0.4762 -0.6654 -0.3446
  302TMC3    C2 4597   3.048   2.970   0.820 -0.0434 -0.1820  0.1343
  302TMC3    C3 4598   3.087   2.856   0.876  0.4465 -0.4955 -0.1914
  302TMC3    C4 4599   2.869   2.874   0.710  0.5712  0.0921 -0.8635
  302TMC3    C5 4600   2.899   2.756   0.780 -0.0545 -0.0272 -0.1327
  302TMC3    C6 4601   3.012   2.743   0.852  0.0211  0.2217  0.6467
  302TMC3     C 4602   2.858   3.102   0.745  0.0549  0.2019  0.0219
  302TMC3     O 4603   2.740   3.084   0.748  0.1250  0.2849  0.3207
  302TMC3     H 4604   3.110   3.058   0.835 -1.0903  0.7515 -1.0872
  302TMC3    H1 4605   2.788   2.873   0.639 -0.4955  1.2595  0.3422
  302TMC3    H2 4606   3.036   2.650   0.902  0.1965  0.4585  1.0080
  302TMC3    C7 4607   2.831   2.636   0.740  0.1680  0.0931  0.1066
  302TMC3    C8 4608   3.108   2.864   1.020 -0.3435  0.0418  0.5118
  302TMC3    O1 4609   2.904   2.534   0.730 -0.5334  0.3092  0.2498
  302TMC3    O2 4610   3.070   2.764   1.081  0.0761 -0.0116 -0.4410
  303MPD2     C 4611   3.401   1.686  11.542  0.2042 -0.3707  0.0038
  303MPD2    C1 4612   3.386   1.556  11.496 -0.8233 -0.4882  0.8456
  303MPD2    C2 4613   3.465   1.511  11.391  0.0014 -0.5028  0.5784
  303MPD2    C3 4614   3.560   1.587  11.333 -0.5178 -0.0564  0.0977
  303MPD2    C4 4615   3.580   1.714  11.387  0.6124  0.0963  0.0380
  303MPD2    C5 4616   3.503   1.756  11.489  0.3353 -0.5695 -0.6023
  303MPD2     H 4617   3.450   1.413  11.346 -0.0419  0.5215 -1.6349
  303MPD2    H1 4618   3.657   1.783  11.352 -0.0323  0.5400 -0.4927
  303MPD2    H2 4619   3.339   1.733  11.618 -0.2390  1.9684 -1.7911
  303MPD2    H3 4620   3.519   1.853  11.535 -2.2170 -0.1159 -0.6970
  303MPD2     N 4621   3.636   1.551  11.215  0.2123  0.0204 -0.2764
  303MPD2    H5 4622   3.708   1.612  11.178  1.7261 -0.8806  1.1999
  303MPD2    N1 4623   3.287   1.475  11.548 -0.5102 -0.5712 -0.2212
  303MPD2    H7 4624   3.223   1.518  11.614 -2.4451 -1.1368 -1.7242
  304TMC3    C1 4625   3.166   1.275  11.565 -0.2724  0.3949  0.7705
  304TMC3    C2 4626   3.054   1.324  11.501 -0.2154  0.3413 -0.7640
  304TMC3    C3 4627   2.954   1.233  11.474  0.2827 -0.0495 -0.1655
  304TMC3    C4 4628   3.185   1.139  11.578  0.1716 -0.8039  0.1971
  304TMC3    C5 4629   3.084   1.049  11.555  0.4088 -0.1440 -0.0216
  304TMC3    C6 4630   2.972   1.103  11.499 -0.2509  0.8375  0.5235
  304TMC3     C 4631   3.288   1.337  11.524  0.0572  0.0473  0.7833
  304TMC3     O 4632   3.373   1.260  11.485  0.1483  0.2105 -0.5411
  304TMC3     H 4633   3.042   1.430  11.485  0.5083  0.4431 -0.6623
  304TMC3    H1 4634   3.277   1.105  11.624  0.7458  2.0293  1.1157
  304TMC3    H2 4635   2.893   1.031  11.486  0.4572  0.0918  0.3829
  304TMC3    C7 4636   3.124   0.942  11.465 -0.2683 -0.6522 -0.2057
  304TMC3    C8 4637   2.892   1.256  11.343  0.8910  0.5992 -0.6383
  304TMC3    O1 4638   3.065   0.941  11.358  0.6965 -0.0423  0.2518
  304TMC3    O2 4639   2.858   1.367  11.312  0.2627  0.1385  0.2959
  305MPD2     C 4640   1.137   3.002  13.737  0.3556 -0.2330  0.7149
  305MPD2    C1 4641   1.247   2.947  13.804 -0.1184 -0.2946 -0.5170
  305MPD2    C2 4642   1.335   2.871  13.732 -0.2030 -0.4270  0.2762
  305MPD2    C3 4643   1.316   2.840  13.596  0.8590  0.0290  0.0036
  305MPD2    C4 4644   1.204   2.888  13.541  0.2472  0.4598  0.0641
  305MPD2    C5 4645   1.114   2.966  13.607 -0.1987 -0.1132 -0.2665
  305MPD2     H 4646   1.429   2.840  13.776  0.5860  0.8448 -0.4999
  305MPD2    H1 4647   1.169   2.881  13.438  0.9175 -0.3947 -0.1066
  305MPD2    H2 4648   1.064   3.065  13.786  2.1008  1.9054  0.5485
  305MPD2    H3 4649   1.028   3.004  13.552 -0.9038  1.0313  1.6187
  305MPD2     N 4650   1.414   2.766  13.524  0.3433  0.3082 -0.6929
  305MPD2    H5 4651   1.501   2.746  13.573  1.0105  1.6682 -1.3329
  305MPD2    N1 4652   1.270   2.987  13.940  0.0746 -0.2037  0.3745
  305MPD2    H7 4653   1.200   3.051  13.977 -0.2601 -0.0275 -0.5522
  306TMC3    C1 4654   1.343   2.973  14.165  0.0448 -0.4698 -0.1603
  306TMC3    C2 4655   1.406   2.896  14.257 -0.0530  0.8650 -0.2848
  306TMC3    C3 4656   1.402   2.936  14.388 -0.2062  0.0194  0.1516
  306TMC3    C4 4657   1.297   3.096  14.195  0.6869 -0.3619  0.1206
  306TMC3    C5 4658   1.294   3.131  14.330 -0.9275  0.5178  0.6948
  306TMC3    C6 4659   1.338   3.049  14.425  0.7470 -0.3787 -0.2936
  306TMC3     C 4660   1.354   2.935  14.028  0.0705  0.0980  0.0808
  306TMC3     O 4661   1.433   2.843  14.005  0.2248  0.3818  0.5680
  306TMC3     H 4662   1.428   2.791  14.238  1.1911  1.1401 -0.3343
  306TMC3    H1 4663   1.257   3.158  14.116  1.1460 -1.0077 -0.6206
  306TMC3    H2 4664   1.333   3.069  14.532 -0.3931 -2.2212 -0.0156
  306TMC3    C7 4665   1.229   3.247  14.368 -0.5926  0.4800 -0.5605
  306TMC3    C8 4666   1.454   2.842  14.488  0.0131  0.0538  0.0274
  306TMC3    O1 4667   1.128   3.282  14.307  0.0912 -0.4518  0.0837
  306TMC3    O2 4668   1.548   2.770  14.463 -0.6842 -0.5525  0.0299
  307MPD2     C 4669   3.999   1.667   0.150 -0.8364  0.7596 -0.9030
  307MPD2    C1 4670   3.885   1.739   0.152  0.0521 -0.7833 -0.0884
  307MPD2    C2 4671   3.803   1.731   0.256  0.2082  0.1460  0.1052
  307MPD2    C3 4672   3.846   1.664   0.369  0.0704  0.0070 -0.4908
  307MPD2    C4 4673   3.963   1.587   0.372  0.5306  0.4199  0.6209
  307MPD2    C5 4674   4.038   1.587   0.260 -0.4502  0.0691  0.6466
  307MPD2     H 4675   3.710   1.786   0.254 -1.2265 -2.3817 -2.1658
  307MPD2    H1 4676   4.008   1.536   0.456  2.3027  0.8627 -0.0556
  307MPD2    H2 4677   4.065   1.671   0.064  0.2555 -0.0870 -0.1160
  307MPD2    H3 4678   4.130   1.531   0.255 -0.3396  0.2869  0.2372
  307MPD2     N 4679   3.765   1.656   0.489 -0.3104  0.8971  0.5535
  307MPD2    H5 4680   3.806   1.606   0.567  1.0536  1.6907  0.3651
  307MPD2    N1 4681   3.850   1.824   0.047 -0.2243 -0.2775 -0.2670
  307MPD2    H7 4682   3.755   1.857   0.063 -0.2585 -0.8134  0.6900
  308TMC3    C1 4683   3.515   1.577   0.811  0.1939  0.2942 -0.4003
  308TMC3    C2 4684   3.444   1.678   0.867 -0.1967 -0.5236 -0.0014
  308TMC3    C3 4685   3.460   1.799   0.806  0.5053  0.0756  0.3756
  308TMC3    C4 4686   3.604   1.588   0.709 -0.5208  0.4118 -0.2971
  308TMC3    C5 4687   3.601   1.710   0.646  0.1905  0.3185  0.2451
  308TMC3    C6 4688   3.533   1.820   0.689  0.0419 -0.3112 -0.4272
  308TMC3     C 4689   3.447   1.449   0.820  0.1144 -1.1065  0.2752
  308TMC3     O 4690   3.505   1.341   0.811  0.4325 -0.0352  0.4239
  308TMC3     H 4691   3.377   1.673   0.952  0.0064  0.9894  0.2375
  308TMC3    H1 4692   3.665   1.509   0.666  0.8343 -0.2755  2.9070
  308TMC3    H2 4693   3.546   1.915   0.639  1.4054  0.7249  1.9041
  308TMC3    C7 4694   3.647   1.725   0.511 -0.1217 -0.2539  0.2803
  308TMC3    C8 4695   3.392   1.902   0.865  0.1032  0.3488  0.5890
  308TMC3    O1 4696   3.586   1.801   0.437 -0.6804  0.3785  0.5755
  308TMC3    O2 4697   3.387   1.897   0.988  0.1116 -0.4234 -0.0979
  309MPD2     C 4698   2.897   1.440  17.024 -0.7759  0.1075  0.2131
  309MPD2    C1 4699   2.771   1.463  16.966 -0.1637  0.1068  0.3456
  309MPD2    C2 4700   2.662   1.480  17.049 -0.1238  0.5927  0.0378
  309MPD2    C3 4701   2.688   1.479  17.187  0.0278 -0.1059  0.0148
  309MPD2    C4 4702   2.804   1.444  17.244  0.3855 -0.2240  0.0636
  309MPD2    C5 4703   2.911   1.421  17.161  1.2327  0.5408  0.2086
  309MPD2     H 4704   2.562   1.493  17.008 -0.4548  1.7905  1.2273
  309MPD2    H1 4705   2.818   1.442  17.352  2.5949 -1.3894 -0.2361
  309MPD2    H2 4706   2.986   1.408  16.971 -1.9720  0.5740 -2.0862
  309MPD2    H3 4707   3.005   1.394  17.208  0.0396 -2.1343  1.0560
  309MPD2     N 4708   2.595   1.521  17.285 -0.7201 -0.4091 -0.2980
  309MPD2    H5 4709   2.627   1.527  17.381  2.4338  1.4101 -1.4648
  309MPD2    N1 4710   2.750   1.452  16.827  0.5714  0.0342 -0.1500
  309MPD2    H7 4711   2.658   1.480  16.792 -0.7937 -3.3117  0.7608
  310TMC3    C1 4712   2.822   1.467  16.592  0.3006  0.5000  0.3028
  310TMC3    C2 4713   2.734   1.568  16.561  0.1489  0.2341  0.1433
  310TMC3    C3 4714   2.727   1.604  16.426 -0.2034  0.7542 -0.1911
  310TMC3    C4 4715   2.912   1.427  16.499  0.3018  0.2713  0.6842
  310TMC3    C5 4716   2.913   1.469  16.372  0.4776  0.5975 -0.2241
  310TMC3    C6 4717   2.814   1.554  16.333 -0.1887  0.1715 -0.9408
  310TMC3     C 4718   2.851   1.428  16.735  0.1189  0.9956 -0.5212
  310TMC3     O 4719   2.957   1.377  16.755 -0.2209  0.1793 -0.1087
  310TMC3     H 4720   2.660   1.606  16.630  0.8807  0.0210  1.0381
  310TMC3    H1 4721   2.991   1.364  16.537  1.2960  1.4516  0.5764
  310TMC3    H2 4722   2.815   1.578  16.228 -1.5102  0.8077 -0.8077
  310TMC3    C7 4723   3.015   1.422  16.280 -0.0137  0.6130 -0.3020
  310TMC3    C8 4724   2.605   1.668  16.364  0.0850 -0.0485  0.1423
  310TMC3    O1 4725   3.040   1.301  16.308 -0.2714 -0.2790  0.4935
  310TMC3    O2 4726   2.594   1.641  16.247  0.1443  0.1350 -0.5353
  311MPD2     C 4727   0.509   3.266  11.908 -0.0749  0.4063  0.2108
  311MPD2    C1 4728   0.580   3.258  12.021 -0.3389 -0.0555 -0.2680
  311MPD2    C2 4729   0.531   3.187  12.128 -0.0238 -0.4747 -0.1988
  311MPD2    C3 4730   0.408   3.116  12.126 -1.0772 -1.3280  0.6637
  311MPD2    C4 4731   0.346   3.126  12.003 -0.0785 -0.0686 -0.2853
  311MPD2    C5 4732   0.392   3.202  11.897  0.0282  0.5661 -0.0132
  311MPD2     H 4733   0.581   3.183  12.224 -0.0021  0.2279 -0.1790
  311MPD2    H1 4734   0.260   3.067  11.972 -0.3703 -0.4352  1.2070
  311MPD2    H2 4735   0.542   3.321  11.821  0.8762 -1.1098 -0.3696
  311MPD2    H3 4736   0.334   3.203  11.806 -0.3961 -1.4768  0.2528
  311MPD2     N 4737   0.358   3.047  12.235  0.3457  0.2549 -0.1640
  311MPD2    H5 4738   0.420   3.050  12.315 -1.3895  1.0228  1.1610
  311MPD2    N1 4739   0.694   3.340  12.050 -0.0738 -0.0233  0.3573
  311MPD2    H7 4740   0.738   3.325  12.141  0.7044 -2.4899 -0.4223
  312TMC3    C1 4741   0.183   2.959  12.375  0.5406 -0.0623  0.1642
  312TMC3    C2 4742   0.051   2.925  12.379  0.2090  0.2553 -0.0038
  312TMC3    C3 4743   0.013   2.871  12.497  0.5232  0.1882  0.6100
  312TMC3    C4 4744   0.275   2.920  12.470 -0.1292 -0.7029 -0.2119
  312TMC3    C5 4745   0.224   2.864  12.587  0.2916 -0.2233  0.2696
  312TMC3    C6 4746   0.094   2.841  12.599  0.0342  0.5762 -0.0005
  312TMC3     C 4747   0.226   3.008  12.246  0.0869  0.2842  0.9940
  312TMC3     O 4748   0.130   3.034  12.171  0.3697 -0.1786 -0.4372
  312TMC3     H 4749   4.716   2.965  12.310  1.3100 -1.1484 -1.9925
  312TMC3    H1 4750   0.378   2.954  12.470  1.1960 -4.7101  1.2327
  312TMC3    H2 4751   0.059   2.787  12.686  0.4483  2.6146  1.4160
  312TMC3    C7 4752   0.319   2.815  12.682  0.0136 -0.1754 -0.2920
  312TMC3    C8 4753   4.614   2.840  12.529 -0.2228 -0.4029 -0.1453
  312TMC3    O1 4754   0.427   2.779  12.632 -1.0196  0.3280  1.1514
  312TMC3    O2 4755   4.589   2.754  12.616 -0.1883  0.4189  0.1252
  313MPD2     C 4756   4.368   2.769  11.721  0.1336  1.1785  0.1147
  313MPD2    C1 4757   4.466   2.780  11.621  0.2605 -0.5454 -0.3164
  313MPD2    C2 4758   4.521   2.666  11.566 -0.0162  0.3170 -0.8050
  313MPD2    C3 4759   4.492   2.544  11.622 -0.1045 -0.4837  0.0758
  313MPD2    C4 4760   4.413   2.531  11.735  0.8405  0.1283  0.2981
  313MPD2    C5 4761   4.343   2.646  11.778 -0.4758 -0.1530 -0.4738
  313MPD2     H 4762   4.575   2.660  11.473  2.1395  1.2914  0.3697
  313MPD2    H1 4763   4.399   2.436  11.785 -0.0883 -0.3975 -0.9330
  313MPD2    H2 4764   4.305   2.850  11.756  0.3459  1.2098  0.4197
  313MPD2    H3 4765   4.271   2.639  11.859 -3.4523 -1.6621 -3.2359
  313MPD2     N 4766   4.546   2.430  11.555 -0.8294 -0.3778  0.2677
  313MPD2    H5 4767   4.599   2.450  11.471  0.7670 -0.9963  1.1299
  313MPD2    N1 4768   4.493   2.908  11.569  0.5904  0.0902  0.4448
  313MPD2    H7 4769   4.575   2.914  11.510  0.4701 -0.7645  0.1839
  314TMC3    C1 4770   4.490   3.139  11.510  0.3993  0.7532 -0.4202
  314TMC3    C2 4771   4.628   3.138  11.500  1.3500 -0.7201 -0.0628
  314TMC3    C3 4772   4.691   3.244  11.443 -0.3092 -0.2500 -0.3025
  314TMC3    C4 4773   4.419   3.243  11.466 -0.6188  0.0945 -0.3958
  314TMC3    C5 4774   4.481   3.333  11.387 -0.3748 -0.1766 -0.3533
  314TMC3    C6 4775   4.619   3.342  11.378 -0.3344  0.1136 -0.6258
  314TMC3     C 4776   4.432   3.030  11.589 -0.4680 -0.0121 -0.3641
  314TMC3     O 4777   4.321   3.050  11.634 -0.1445 -0.4519  0.3774
  314TMC3     H 4778   4.692   3.064  11.546 -0.9072 -2.6622 -0.0173
  314TMC3    H1 4779   4.313   3.222  11.461 -0.3414 -1.9319  2.1249
  314TMC3    H2 4780   4.671   3.425  11.333  0.7973 -0.5686 -0.5776
  314TMC3    C7 4781   4.408   3.342  11.260  0.5378  0.4331  0.7225
  314TMC3    C8 4782   0.076   3.207  11.375  0.1291 -0.1388  0.0632
  314TMC3    O1 4783   4.290   3.369  11.262 -0.2586 -0.0827 -0.0151
  314TMC3    O2 4784   0.068   3.203  11.251  0.2644 -0.4296 -0.3574
  315MPD2     C 4785   3.507   1.677  17.660 -0.8332  0.3427 -0.3060
  315MPD2    C1 4786   3.602   1.581  17.627  0.1932 -0.2540 -0.4773
  315MPD2    C2 4787   3.687   1.601  17.518  0.1418 -1.2156  0.0983
  315MPD2    C3 4788   3.672   1.710  17.438  0.4655 -0.2833  0.2403
  315MPD2    C4 4789   3.578   1.802  17.462 -0.1300 -0.4905 -0.3738
  315MPD2    C5 4790   3.491   1.781  17.570 -0.1780 -0.0764 -0.0883
  315MPD2     H 4791   3.777   1.541  17.509  1.8783  1.2992  0.5574
  315MPD2    H1 4792   3.561   1.882  17.391 -0.5705 -0.6719 -0.4734
  315MPD2    H2 4793   3.454   1.679   0.003  1.2260  2.6507  0.8073
  315MPD2    H3 4794   3.409   1.852  17.576 -0.4576 -0.4729  0.8599
  315MPD2     N 4795   3.764   1.728  17.338  0.2794  0.3535 -0.0307
  315MPD2    H5 4796   3.826   1.652  17.312  0.7593  1.2910 -1.5947
  315MPD2    N1 4797   3.635   1.479  17.713  1.0046 -0.0204 -0.2890
  315MPD2    H7 4798   3.711   1.416  17.689 -0.6557 -0.9319 -3.2376
  316TMC3    C1 4799   3.920   1.839  17.216 -0.0426  0.6114 -0.0920
  316TMC3    C2 4800   4.016   1.781  17.294 -0.7960 -0.0679 -0.3229
  316TMC3    C3 4801   4.146   1.827  17.279 -0.0042  0.2040 -0.8723
  316TMC3    C4 4802   3.955   1.927  17.118 -0.1853 -0.2113 -0.1003
  316TMC3    C5 4803   4.083   1.961  17.096 -0.5304 -0.0365  0.1652
  316TMC3    C6 4804   4.179   1.912  17.178 -0.2540  0.6185 -0.0634
  316TMC3     C 4805   3.785   1.843  17.263 -0.4592  0.0189 -0.6781
  316TMC3     O 4806   3.726   1.949  17.257 -0.3201 -0.2400  0.6730
  316TMC3     H 4807   3.994   1.724  17.384  0.7168  1.6315  1.1295
  316TMC3    H1 4808   3.874   1.984  17.074  0.9865  0.2653 -1.6182
  316TMC3    H2 4809   4.281   1.949  17.168 -0.0704  0.0209 -0.3650
  316TMC3    C7 4810   4.136   2.020  16.973 -0.2481 -0.2456  0.1570
  316TMC3    C8 4811   4.246   1.805  17.378  0.1285  0.1318  0.3872
  316TMC3    O1 4812   4.255   2.046  16.965 -0.4163 -0.1378  0.4430
  316TMC3    O2 4813   4.335   1.885  17.390  0.0677 -0.0882 -0.3694
  317MPD2     C 4814   1.313   0.010  12.771  0.1154 -0.4058  0.0283
  317MPD2    C1 4815   1.311   4.610  12.773 -0.4707  0.0955 -1.3087
  317MPD2    C2 4816   1.331   4.549  12.895 -0.0216 -0.2891  0.8158
  317MPD2    C3 4817   1.341   4.627  13.005  0.4661  0.0936  0.1914
  317MPD2    C4 4818   1.325   0.024  13.002 -0.5439  0.3072 -0.2458
  317MPD2    C5 4819   1.308   0.086  12.885  0.0664 -0.3494  0.5643
  317MPD2     H 4820   1.334   4.441  12.904  0.9541 -0.2882  0.5137
  317MPD2    H1 4821   1.333   0.083  13.093 -0.2368 -0.5406  0.2809
  317MPD2    H2 4822   1.288   0.070  12.684 -0.6485  3.2067  2.7500
  317MPD2    H3 4823   1.301   0.194  12.889 -0.7033 -0.4653  2.6090
  317MPD2     N 4824   1.351   4.560  13.126  0.1633  0.3293 -0.4004
  317MPD2    H5 4825   1.371   4.461  13.116 -2.9408 -0.4368  0.9141
  317MPD2    N1 4826   1.289   4.527  12.654 -0.4862 -0.7551 -0.0938
  317MPD2    H7 4827   1.280   4.426  12.661  1.2948 -1.0073 -1.4374
  318TMC3    C1 4828   1.422   4.508  13.337  0.2993  0.1281 -0.1271
  318TMC3    C2 4829   1.366   4.392  13.350  0.5259 -0.3174 -0.1624
  318TMC3    C3 4830   1.421   4.293  13.428  0.0002  0.2281 -0.2959
  318TMC3    C4 4831   1.531   4.542  13.419 -0.5832  0.8449  0.1685
  318TMC3    C5 4832   1.589   4.437  13.483 -0.0594  0.4035  0.5783
  318TMC3    C6 4833   1.542   4.312  13.490 -0.7870  0.5841  0.1614
  318TMC3     C 4834   1.374   4.614  13.251 -0.2547  0.1425 -0.0172
  318TMC3     O 4835   1.377   4.731  13.279 -0.0861 -0.0292  0.6665
  318TMC3     H 4836   1.273   4.384  13.294 -0.1600  2.2012  0.6135
  318TMC3    H1 4837   1.586   4.636  13.413  0.6102  0.0783 -1.1824
  318TMC3    H2 4838   1.591   4.228  13.538 -2.3575 -1.4960 -1.8153
  318TMC3    C7 4839   1.703   4.479  13.562 -0.1866  0.1236  0.3113
  318TMC3    C8 4840   1.331   4.201  13.488  0.4277 -0.1123 -0.3341
  318TMC3    O1 4841   1.717   4.599  13.586  0.8246  0.1662 -0.2337
  318TMC3    O2 4842   1.375   4.127  13.574  0.3932 -0.0246 -0.1273
  319MPD2     C 4843   2.417   1.314  16.533  0.3360 -0.5455  0.5352
  319MPD2    C1 4844   2.364   1.209  16.608  0.4949  0.4834  0.7680
  319MPD2    C2 4845   2.249   1.145  16.566 -0.4979 -0.1766  0.5299
  319MPD2    C3 4846   2.182   1.192  16.449 -0.4870  0.0917  0.1842
  319MPD2    C4 4847   2.233   1.302  16.382 -0.3902 -0.1890  0.5787
  319MPD2    C5 4848   2.350   1.357  16.424  0.5435 -0.2221  0.5753
  319MPD2     H 4849   2.216   1.054  16.615 -1.6863  0.1727  0.3792
  319MPD2    H1 4850   2.185   1.342  16.294 -0.2689 -0.0491  0.5766
  319MPD2    H2 4851   2.496   1.377  16.572  0.2079  0.4814 -0.8821
  319MPD2    H3 4852   2.379   1.448  16.374 -1.5984  0.4885  0.6318
  319MPD2     N 4853   2.059   1.146  16.400  0.7872 -0.0359 -0.2877
  319MPD2    H5 4854   2.022   1.192  16.317 -1.7026  0.6643  1.2042
  319MPD2    N1 4855   2.431   1.154  16.716 -0.4122 -0.3290 -0.1717
  319MPD2    H7 4856   2.381   1.088  16.774 -1.7828  1.2121  0.3776
  320TMC3    C1 4857   1.876   0.991  16.357 -0.0855 -0.6281  0.6702
  320TMC3    C2 4858   1.822   1.059  16.257  0.8552  0.4439  0.1887
  320TMC3    C3 4859   1.728   0.996  16.181  0.0245 -0.0972  0.0361
  320TMC3    C4 4860   1.831   0.858  16.378 -0.3675  0.9156  0.4457
  320TMC3    C5 4861   1.732   0.799  16.307 -0.1468  0.2824 -0.0730
  320TMC3    C6 4862   1.684   0.871  16.203 -0.0670  0.1147 -0.3222
  320TMC3     C 4863   1.998   1.024  16.437  0.6186 -0.5776 -0.8045
  320TMC3     O 4864   2.027   0.951  16.529 -0.1665 -0.0385  0.4117
  320TMC3     H 4865   1.849   1.162  16.241  1.3288  0.1142 -1.1598
  320TMC3    H1 4866   1.861   0.813  16.471 -3.1532  0.4918  1.1270
  320TMC3    H2 4867   1.604   0.830  16.142 -0.1997  0.6134 -0.4806
  320TMC3    C7 4868   1.726   0.658  16.320 -0.1744  0.4292 -1.1475
  320TMC3    C8 4869   1.660   1.086  16.093  0.1869 -0.4523 -0.0179
  320TMC3    O1 4870   1.829   0.604  16.354 -0.5435  0.1544  0.0381
  320TMC3    O2 4871   1.646   1.202  16.132  0.6208 -0.0644  0.1158
  321TMC3    C1 4872   2.603   1.112  16.864  0.4829  0.2263 -0.4451
  321TMC3    C2 4873   2.740   1.092  16.888 -0.0295 -0.2193 -0.6418
  321TMC3    C3 4874   2.781   1.112  17.019  0.3217  0.6952  0.2495
  321TMC3    C4 4875   2.515   1.130  16.968 -0.0824  0.7320 -0.2146
  321TMC3    C5 4876   2.561   1.142  17.093  0.1115 -0.7526  0.4878
  321TMC3    C6 4877   2.696   1.153  17.117 -0.9129 -0.7554  0.1371
  321TMC3     C 4878   2.567   1.166  16.737 -0.2413  0.6697 -0.3725
  321TMC3     O 4879   2.662   1.189  16.660 -0.6104  0.0036  0.6868
  321TMC3     H 4880   2.806   1.053  16.811 -1.3257  0.0455 -1.8850
  321TMC3    H1 4881   2.407   1.130  16.958 -0.0777 -0.4743 -0.3198
  321TMC3    H2 4882   2.725   1.174  17.220  0.9368 -0.2991 -0.4741
  321TMC3    C7 4883   2.488   1.059  17.186 -0.8839  0.0392  0.1848
  321TMC3    C8 4884   2.875   1.016  17.077 -0.0502  0.5135  0.3715
  321TMC3    O1 4885   2.365   1.051  17.180 -0.2223  0.4712  0.0450
  321TMC3    O2 4886   2.833   0.969  17.184  0.3009 -0.4384 -0.8333
  322MPD2     C 4887   0.697   2.144  13.913 -0.0799 -0.4446 -0.2055
  322MPD2    C1 4888   0.819   2.138  13.850  0.9078 -0.5537 -0.5419
  322MPD2    C2 4889   0.872   2.015  13.825 -0.4722 -0.2984  0.1741
  322MPD2    C3 4890   0.812   1.902  13.881 -1.2390 -1.0434 -0.0831
  322MPD2    C4 4891   0.695   1.914  13.950  0.7768 -0.2889 -1.0092
  322MPD2    C5 4892   0.639   2.034  13.965 -0.7754 -0.0687  0.0575
  322MPD2     H 4893   0.970   2.016  13.778 -0.6653 -0.6347 -0.2321
  322MPD2    H1 4894   0.651   1.830  14.003 -0.5006  1.4964  0.7717
  322MPD2    H2 4895   0.649   2.239  13.933 -0.3057 -0.4000 -0.9747
  322MPD2    H3 4896   0.550   2.046  14.026  0.2469  0.6720  1.4293
  322MPD2     N 4897   0.899   1.787  13.888  0.7100  0.7747  0.2025
  322MPD2    H5 4898   0.993   1.811  13.858  0.3399  0.0844 -1.4680
  322MPD2    N1 4899   0.881   2.267  13.824  0.6254  0.3265  0.3027
  322MPD2    H7 4900   0.831   2.344  13.868 -0.8510 -0.9922  0.9200
  323TMC3    C1 4901   1.066   2.401  13.810 -0.6541  0.1332  0.3391
  323TMC3    C2 4902   1.193   2.428  13.755  0.6113 -0.2706  0.2876
  323TMC3    C3 4903   1.284   2.508  13.826 -0.1993 -0.0281  0.1014
  323TMC3    C4 4904   1.025   2.444  13.933 -0.0669 -0.4364  0.7341
  323TMC3    C5 4905   1.125   2.507  14.005  0.2164 -0.0876 -0.7848
  323TMC3    C6 4906   1.250   2.546  13.952  1.1741  0.0962  0.3689
  323TMC3     C 4907   1.005   2.283  13.761  0.4429 -0.0628 -0.5363
  323TMC3     O 4908   1.057   2.209  13.681 -0.0707  0.5776 -0.3726
  323TMC3     H 4909   1.220   2.404  13.653  0.1571 -2.8794  0.7724
  323TMC3    H1 4910   0.935   2.415  13.985 -1.3434 -0.3307 -1.4198
  323TMC3    H2 4911   1.310   2.608  14.018  0.1304  1.4399  0.0428
  323TMC3    C7 4912   1.083   2.550  14.133 -1.0743  0.5799  0.4083
  323TMC3    C8 4913   1.423   2.538  13.777  0.8900 -0.7000 -0.0202
  323TMC3    O1 4914   0.965   2.575  14.146 -0.1678  0.1894  0.2489
  323TMC3    O2 4915   1.449   2.475  13.674 -0.4058  0.3827 -0.2919
  324MPD2     C 4916   2.152   3.567  15.016 -0.6204 -0.1349  0.7146
  324MPD2    C1 4917   2.235   3.575  14.909  0.2766 -0.0492  0.1739
  324MPD2    C2 4918   2.183   3.542  14.786 -0.2735 -0.2830  0.4089
  324MPD2    C3 4919   2.038   3.511  14.766 -0.6383 -0.2307 -0.4843
  324MPD2    C4 4920   1.961   3.522  14.883  0.3442 -0.2950  0.3540
  324MPD2    C5 4921   2.014   3.556  15.001  0.1378  0.2636 -0.0824
  324MPD2     H 4922   2.256   3.533  14.707  0.0475  0.6741  0.5948
  324MPD2    H1 4923   1.855   3.500  14.878 -0.1606  2.2372 -0.0185
  324MPD2    H2 4924   2.185   3.602  15.113 -0.4125 -1.6802  1.1996
  324MPD2    H3 4925   1.944   3.562  15.083  1.4629  2.8356  0.8636
  324MPD2     N 4926   1.972   3.491  14.639 -0.3267 -0.0790  0.5232
  324MPD2    H5 4927   1.871   3.490  14.636 -0.2736 -2.7706 -0.4417
  324MPD2    N1 4928   2.368   3.622  14.919  0.3910  0.8630  0.3678
  324MPD2    H7 4929   2.420   3.618  14.832  1.2012 -0.5362  0.9100
  325TMC3    C1 4930   1.942   3.534  14.412 -0.3568  0.1874 -0.1019
  325TMC3    C2 4931   1.837   3.454  14.394  0.8109 -0.2168  0.4976
  325TMC3    C3 4932   1.749   3.492  14.296  0.0850  0.3611 -0.2840
  325TMC3    C4 4933   1.971   3.646  14.340 -0.5557 -0.2771 -0.7013
  325TMC3    C5 4934   1.888   3.683  14.241 -0.3263 -0.5121 -0.2038
  325TMC3    C6 4935   1.770   3.609  14.220 -0.2583 -0.2185 -0.1689
  325TMC3     C 4936   2.033   3.513  14.520  0.2353 -0.5581 -0.5028
  325TMC3     O 4937   2.153   3.528  14.499  0.6627  0.3177  0.1500
  325TMC3     H 4938   1.819   3.369  14.459 -2.9135  1.5125  1.7705
  325TMC3    H1 4939   2.069   3.692  14.347 -1.5282  1.9731 -2.1342
  325TMC3    H2 4940   1.697   3.634  14.144 -1.9883 -0.9111  1.2715
  325TMC3    C7 4941   1.920   3.793  14.156 -0.4219 -0.8221 -0.2106
  325TMC3    C8 4942   1.687   3.385  14.220  0.0824 -0.3798  0.1194
  325TMC3    O1 4943   2.041   3.823  14.163  0.5009  0.1110 -0.0708
  325TMC3    O2 4944   1.759   3.285  14.202 -0.3984 -0.2678 -0.0282
  326MPD2     C 4945   4.135   4.412  10.928 -0.1267 -0.2393 -0.6312
  326MPD2    C1 4946   4.140   4.551  10.900  0.3093  0.1178 -0.0001
  326MPD2    C2 4947   4.227   4.629  10.967  0.1383 -0.2902 -0.4652
  326MPD2    C3 4948   4.305   4.585  11.070 -0.3676  0.0557 -0.2655
  326MPD2    C4 4949   4.301   4.451  11.105 -0.3149 -0.0372  0.2718
  326MPD2    C5 4950   4.212   4.371  11.035  0.3605  0.1611  0.1144
  326MPD2     H 4951   4.215   4.735  10.948 -1.2831 -0.4015 -0.2371
  326MPD2    H1 4952   4.367   4.400  11.175 -3.0856 -1.8094  1.6309
  326MPD2    H2 4953   4.068   4.343  10.879 -1.4549  1.5007 -1.2359
  326MPD2    H3 4954   4.213   4.267  11.064  0.3099  0.7641  2.2299
  326MPD2     N 4955   4.402   4.668  11.129 -0.3958 -0.1541 -0.4013
  326MPD2    H5 4956   4.466   4.632  11.199 -0.1324  2.9629  0.9582
  326MPD2    N1 4957   4.057   4.620  10.806  0.2628 -0.3063  0.2109
  326MPD2    H7 4958   4.070   4.719  10.790  0.8120 -0.3135  0.5894
  327TMC3    C1 4959   3.941   4.643  10.616 -0.3709  0.0610  0.4115
  327TMC3    C2 4960   3.877   0.021  10.622  0.4541 -0.1473 -0.2073
  327TMC3    C3 4961   3.913   0.130  10.556 -0.0035 -0.6963  0.3231
  327TMC3    C4 4962   4.065   4.634  10.557  0.5785  0.5685 -0.1226
  327TMC3    C5 4963   4.109   0.010  10.491  0.0861 -0.0611  0.0913
  327TMC3    C6 4964   4.032   0.127  10.497 -1.0505 -0.6794 -1.1207
  327TMC3     C 4965   3.950   4.561  10.737  0.0383  0.9988  0.4417
  327TMC3     O 4966   3.914   4.444  10.734 -0.1785  0.0419 -0.2784
  327TMC3     H 4967   3.783   0.022  10.676  0.4396  1.2161 -0.2404
  327TMC3    H1 4968   4.121   4.542  10.567 -1.0657 -0.3753  0.4441
  327TMC3    H2 4969   4.068   0.208  10.435  2.3108 -1.6396 -0.4197
  327TMC3    C7 4970   4.253   0.038  10.493 -0.2218 -0.3157  0.1250
  327TMC3    C8 4971   3.840   0.249  10.549  0.0340  0.3121 -0.4563
  327TMC3    O1 4972   4.297   0.149  10.458  0.0402  0.4823 -0.9353
  327TMC3    O2 4973   3.869   0.317  10.452 -0.5570 -0.0414  0.0968
  328MPD2     C 4974   1.643   0.121  17.138  0.1889  0.5519 -0.2140
  328MPD2    C1 4975   1.519   0.081  17.173 -0.5779 -0.2383 -0.2514
  328MPD2    C2 4976   1.421   0.070  17.071 -0.4377 -0.4600  0.4198
  328MPD2    C3 4977   1.454   0.105  16.941  0.9444 -0.0492  0.0915
  328MPD2    C4 4978   1.570   0.167  16.911 -0.0117  0.2117 -0.6416
  328MPD2    C5 4979   1.668   0.164  17.009  0.2567 -0.0424 -0.0673
  328MPD2     H 4980   1.325   0.030  17.100 -1.0361  2.0686  1.8999
  328MPD2    H1 4981   1.604   0.196  16.812  0.7131 -1.0063 -0.7592
  328MPD2    H2 4982   1.714   0.133  17.219  0.0568 -1.6115  0.2150
  328MPD2    H3 4983   1.770   0.198  16.995  0.4584 -1.9948 -3.1951
  328MPD2     N 4984   1.362   0.095  16.836  0.4346 -0.5195 -0.3123
  328MPD2    H5 4985   1.387   0.144  16.751  1.7746  0.1181  0.4512
  328MPD2    N1 4986   1.495   0.046  17.304  0.3677  0.3243  0.3807
  328MPD2    H7 4987   1.569   0.057  17.372  3.1196  1.3192 -2.7875
  329TMC3    C1 4988   1.373   4.704  17.497  0.5945 -1.3734 -0.2158
  329TMC3    C2 4989   1.426   0.064  17.576  0.4743 -0.3595  0.7318
  329TMC3    C3 4990   1.403   0.061  17.713  0.6086 -0.8884 -0.1799
  329TMC3    C4 4991   1.283   4.609  17.555  0.6588 -0.5221 -0.3322
  329TMC3    C5 4992   1.268   4.608  17.688  0.4226  0.2610  0.4583
  329TMC3    C6 4993   1.327   4.695   0.023  0.6881 -0.7579  0.4721
  329TMC3     C 4994   1.375   4.725  17.353 -1.0555  0.1207  0.4106
  329TMC3     O 4995   1.268   4.711  17.299  0.2947 -0.2513  0.0630
  329TMC3     H 4996   1.477   0.145  17.526 -0.9538  0.8161  1.1939
  329TMC3    H1 4997   1.214   4.559  17.489  0.8232  0.5790 -1.3366
  329TMC3    H2 4998   1.315   4.695   0.131  0.0485 -0.8175  0.4029
  329TMC3    C7 4999   1.202   4.495  17.748 -0.1675  0.2356 -0.1966
  329TMC3    C8 5000   1.400   0.195   0.015 -0.5997  0.4403  0.6728
  329TMC3    O1 5001   1.217   4.475   0.117  0.0579 -0.2958 -0.3472
  329TMC3    O2 5002   1.480   0.278  17.724 -0.0838  0.4777 -0.6368
  330TMC3    C1 5003   0.377   4.633   9.506  0.0023  0.4351  0.2979
  330TMC3    C2 5004   0.275   4.563   9.455  0.4079 -0.2241 -0.0896
  330TMC3    C3 5005   0.285   4.428   9.456  0.0305 -0.0195  0.3815
  330TMC3    C4 5006   0.485   4.576   9.569 -0.1302 -0.9843  0.0425
  330TMC3    C5 5007   0.497   4.440   9.567  0.1965 -0.1900  0.3792
  330TMC3    C6 5008   0.399   4.363   9.504  0.7489  0.0030 -0.0179
  330TMC3     C 5009   0.374   0.040   9.513 -0.1191  0.1555  0.0016
  330TMC3     O 5010   0.416   0.079   9.622 -0.2588  0.4365 -0.0545
  330TMC3     H 5011   0.190   4.610   9.408 -0.7588 -0.0226  2.2276
  330TMC3    H1 5012   0.558   4.641   9.616  0.1420 -0.6756 -0.8050
  330TMC3    H2 5013   0.427   4.261   9.483  0.0438 -0.2488  0.2800
  330TMC3    C7 5014   0.570   4.372   9.668 -0.6127  0.3225 -0.2623
  330TMC3    C8 5015   0.179   4.357   9.407 -0.1055 -0.3111  0.3670
  330TMC3    O1 5016   0.522   4.268   9.702 -0.0148 -0.2570  0.2170
  330TMC3    O2 5017   0.115   4.411   9.323 -0.0089  0.3345  0.1647
  331MPD2     C 5018   2.850   3.082  12.832 -0.8265  0.0057  0.3768
  331MPD2    C1 5019   2.939   3.079  12.728 -0.2430  0.0219 -0.2369
  331MPD2    C2 5020   2.917   3.003  12.616  0.1444 -0.4226  0.6023
  331MPD2    C3 5021   2.803   2.924  12.607 -0.1612  0.1156 -0.0890
  331MPD2    C4 5022   2.715   2.924  12.715  0.0967 -0.2148  0.0423
  331MPD2    C5 5023   2.741   3.001  12.823 -0.1613  0.1809  0.2321
  331MPD2     H 5024   2.978   3.019  12.528  1.1633 -0.8385  1.2356
  331MPD2    H1 5025   2.635   2.852  12.725  0.8663 -0.7481  2.3114
  331MPD2    H2 5026   2.872   3.139  12.921 -1.8627 -0.1538  0.7363
  331MPD2    H3 5027   2.672   3.003  12.906  0.2848 -0.2721  0.6106
  331MPD2     N 5028   2.798   2.834  12.504 -0.3748  0.3707  0.4941
  331MPD2    H5 5029   2.869   2.849  12.433 -1.2942 -1.5889 -0.8605
  331MPD2    N1 5030   3.040   3.172  12.734  0.6737 -0.5223 -0.2509
  331MPD2    H7 5031   3.039   3.249  12.801  0.1161  0.9734 -1.9693
  332TMC3    C1 5032   2.779   2.640  12.391 -0.1641  0.1258  0.3325
  332TMC3    C2 5033   2.850   2.693  12.284  0.0014  0.6647  0.0187
  332TMC3    C3 5034   2.927   2.605  12.214 -0.0368 -0.2847 -0.8358
  332TMC3    C4 5035   2.778   2.508  12.425  0.0973  0.6520  0.0787
  332TMC3    C5 5036   2.856   2.423  12.360  0.2351  0.3366 -0.5596
  332TMC3    C6 5037   2.930   2.475  12.255 -0.2702  0.0218  0.8388
  332TMC3     C 5038   2.719   2.723  12.487  0.2885  0.1563 -0.0091
  332TMC3     O 5039   2.626   2.677  12.555 -0.2766  0.1413  0.3256
  332TMC3     H 5040   2.862   2.799  12.268 -1.5279  0.5002 -2.2201
  332TMC3    H1 5041   2.703   2.475  12.496  0.1716  1.8126  0.7039
  332TMC3    H2 5042   3.010   2.412  12.217 -0.9707 -0.8442  0.7879
  332TMC3    C7 5043   2.930   2.329  12.447  0.2243 -0.6574  0.2761
  332TMC3    C8 5044   3.021   2.655  12.116  0.1919 -0.4631  0.5917
  332TMC3    O1 5045   2.876   2.227  12.486 -0.4301  0.0155  0.3733
  332TMC3    O2 5046   3.041   2.772  12.104 -0.3111 -0.1884  0.1722
  333MPD2     C 5047   3.351   3.314  11.472 -0.4782 -0.0476 -0.1216
  333MPD2    C1 5048   3.311   3.261  11.348  0.2154 -0.4388 -0.4120
  333MPD2    C2 5049   3.224   3.153  11.346  0.0623  0.0697  0.0721
  333MPD2    C3 5050   3.161   3.105  11.459  0.0268  0.4549 -0.4128
  333MPD2    C4 5051   3.186   3.166  11.575 -0.0163 -0.5226 -0.9893
  333MPD2    C5 5052   3.282   3.265  11.583 -0.1189  0.2799 -0.0694
  333MPD2     H 5053   3.194   3.110  11.251 -1.6695  0.2511  0.5360
  333MPD2    H1 5054   3.130   3.144  11.666  2.6012 -1.5801  0.3572
  333MPD2    H2 5055   3.417   3.399  11.479 -0.9812  0.4270 -1.1326
  333MPD2    H3 5056   3.298   3.311  11.679 -2.9193  0.1501  0.4811
  333MPD2     N 5057   3.083   2.985  11.450 -0.1535  0.6299 -0.2043
  333MPD2    H5 5058   3.094   2.940  11.360 -0.8296  1.0614 -0.4958
  333MPD2    N1 5059   3.385   3.307  11.238  0.4715  0.1004 -0.3042
  333MPD2    H7 5060   3.460   3.375  11.248  0.8999 -0.9293  3.3747
  334TMC3    C1 5061   3.478   3.317  11.027 -0.1469  0.0326 -0.5955
  334TMC3    C2 5062   3.536   3.242  10.928 -0.2306 -0.2548  0.6343
  334TMC3    C3 5063   3.607   3.313  10.830  0.0862 -0.7555 -0.9014
  334TMC3    C4 5064   3.492   3.457  11.028 -0.3823 -0.0227  0.5399
  334TMC3    C5 5065   3.560   3.521  10.928  0.1878  0.1380 -0.2732
  334TMC3    C6 5066   3.616   3.450  10.820  0.7551 -0.3448 -0.3020
  334TMC3     C 5067   3.383   3.252  11.117  0.0697  0.6560 -0.5427
  334TMC3     O 5068   3.327   3.154  11.069  0.0989  0.1732  0.4930
  334TMC3     H 5069   3.532   3.133  10.933  2.2421 -0.2652  2.3857
  334TMC3    H1 5070   3.436   3.509  11.105  0.7703  0.7667  0.8395
  334TMC3    H2 5071   3.663   3.503  10.738  2.6979  1.4892  2.0069
  334TMC3    C7 5072   3.521   3.658  10.911 -0.4704 -0.2172 -0.0580
  334TMC3    C8 5073   3.702   3.234  10.749  0.5513  0.7512  0.5510
  334TMC3    O1 5074   3.463   3.718  11.003  0.5064  0.3427  0.3076
  334TMC3    O2 5075   3.671   3.121  10.741  0.4543  0.0708 -0.7383
  335TMC3    C1 5076   2.008   4.342  17.341  0.5007  0.1073 -0.2804
  335TMC3    C2 5077   1.966   4.342  17.210 -0.0317 -0.0832  0.4892
  335TMC3    C3 5078   2.053   4.332  17.107  0.3796  0.3781 -0.2772
  335TMC3    C4 5079   2.142   4.342  17.369  0.0874 -0.6722  0.0584
  335TMC3    C5 5080   2.232   4.331  17.266  0.1743  0.4217 -0.3355
  335TMC3    C6 5081   2.185   4.309  17.137 -0.3634 -0.1515 -0.5068
  335TMC3     C 5082   1.905   4.345  17.447  0.7002  0.1168 -0.3371
  335TMC3     O 5083   1.807   4.416  17.411 -0.0559  0.4666  0.2406
  335TMC3     H 5084   1.858   4.342  17.199  0.2030  1.8601 -1.6539
  335TMC3    H1 5085   2.183   4.355  17.468  0.6183  1.1066 -0.3925
  335TMC3    H2 5086   2.243   4.266  17.056  0.4672 -1.2563  0.6659
  335TMC3    C7 5087   2.362   4.262  17.283 -0.5526 -0.2918  0.3108
  335TMC3    C8 5088   2.006   4.294  16.975  0.4869 -0.3224 -0.7334
  335TMC3    O1 5089   2.435   4.258  17.185 -0.0208  0.6207  0.2381
  335TMC3    O2 5090   2.073   4.333  16.883  0.6699  0.4833  0.3340
  336MPD2     C 5091   1.984   2.495  16.259  0.3951 -1.0224 -0.2600
  336MPD2    C1 5092   1.929   2.432  16.151  0.2092  0.0402  0.1980
  336MPD2    C2 5093   1.894   2.294  16.153 -0.0921 -0.1917 -0.1676
  336MPD2    C3 5094   1.914   2.223  16.275  0.0134  0.8610  0.3417
  336MPD2    C4 5095   1.973   2.293  16.382 -0.3215 -0.1599 -0.8203
  336MPD2    C5 5096   2.001   2.423  16.375 -0.1636  0.4771 -0.0465
  336MPD2     H 5097   1.843   2.251  16.067 -2.5176  1.8930  0.2272
  336MPD2    H1 5098   1.985   2.240  16.476 -0.6526 -0.8491 -1.1705
  336MPD2    H2 5099   2.013   2.599  16.254 -0.6378 -0.6739  1.0550
  336MPD2    H3 5100   2.054   2.475  16.454 -0.6686 -0.4867  0.9211
  336MPD2     N 5101   1.893   2.080  16.287  0.9927 -0.3227  0.3858
  336MPD2    H5 5102   1.892   2.041  16.380 -0.8755 -0.5563  0.2626
  336MPD2    N1 5103   1.886   2.513  16.045 -0.4242 -0.2131  0.4785
  336MPD2    H7 5104   1.851   2.466  15.961  1.6301  0.7947 -0.9560
  337TMC3    C1 5105   1.820   2.698  15.908  0.0963 -0.7780  0.4113
  337TMC3    C2 5106   1.707   2.624  15.869  0.1033  0.4866  0.1701
  337TMC3    C3 5107   1.615   2.691  15.796  0.0589 -0.3584 -0.4683
  337TMC3    C4 5108   1.834   2.831  15.875 -0.1199 -0.1035 -0.3229
  337TMC3    C5 5109   1.742   2.890  15.795 -0.7406  0.1942 -0.5907
  337TMC3    C6 5110   1.632   2.820  15.755  0.0311 -0.5296 -0.5713
  337TMC3     C 5111   1.890   2.654  16.028 -0.1608 -0.7136 -0.0816
  337TMC3     O 5112   1.949   2.735  16.098 -0.1779 -0.5936  0.4589
  337TMC3     H 5113   1.681   2.531  15.917 -0.7047  1.0784  0.8746
  337TMC3    H1 5114   1.920   2.883  15.916 -1.4711  1.4501  0.5757
  337TMC3    H2 5115   1.570   2.867  15.679  2.2613 -0.0699 -2.0804
  337TMC3    C7 5116   1.757   3.029  15.767  0.9637 -0.2459  0.3131
  337TMC3    C8 5117   1.522   2.601  15.724 -0.1264 -0.4418 -0.0910
  337TMC3    O1 5118   1.872   3.068  15.763  0.6732  0.1919  0.4406
  337TMC3    O2 5119   1.533   2.482  15.748 -0.1323  0.2810  0.1612
  338MPD2     C 5120   2.125   1.664   1.255 -0.2438 -0.3617  0.5563
  338MPD2    C1 5121   2.101   1.621   1.132  0.7400  0.9945  0.3756
  338MPD2    C2 5122   1.967   1.612   1.086 -0.0820 -0.3670  0.4681
  338MPD2    C3 5123   1.865   1.654   1.167  0.0276 -0.4051 -0.7171
  338MPD2    C4 5124   1.894   1.709   1.291 -0.5077 -0.1070 -0.4892
  338MPD2    C5 5125   2.024   1.715   1.329  0.0692 -0.0035 -0.3406
  338MPD2     H 5126   1.955   1.581   0.983  1.7427 -0.4836  0.2931
  338MPD2    H1 5127   1.819   1.747   1.359 -0.5272 -0.6160 -0.2248
  338MPD2    H2 5128   2.223   1.677   1.299  0.0882 -0.4546 -0.1614
  338MPD2    H3 5129   2.045   1.759   1.426  0.1236 -0.5677 -0.0962
  338MPD2     N 5130   1.739   1.655   1.104  0.1010  0.8685  0.1205
  338MPD2    H5 5131   1.733   1.623   1.008  0.0798  1.2156  0.0073
  338MPD2    N1 5132   2.199   1.575   1.037 -0.0856 -0.4107  0.0220
  338MPD2    H7 5133   2.159   1.525   0.959  0.3880  1.2274 -1.2703
  339TMC3    C1 5134   1.511   1.660   1.086 -0.2352  0.3131 -0.0139
  339TMC3    C2 5135   1.395   1.734   1.108 -0.3069  0.9200  0.1195
  339TMC3    C3 5136   1.279   1.704   1.042 -0.1839  0.4678  0.1408
  339TMC3    C4 5137   1.515   1.562   0.989  0.3463  0.3297 -0.3258
  339TMC3    C5 5138   1.394   1.534   0.917  0.0042  0.0690  0.0389
  339TMC3    C6 5139   1.282   1.603   0.947 -0.2528 -0.0928  0.1601
  339TMC3     C 5140   1.625   1.694   1.166  1.0031  0.3013 -0.3327
  339TMC3     O 5141   1.596   1.719   1.285 -0.2290 -0.0892  0.0183
  339TMC3     H 5142   1.397   1.814   1.180 -0.5946 -0.0046  1.1562
  339TMC3    H1 5143   1.599   1.494   0.987  0.0826 -0.0072  0.2733
  339TMC3    H2 5144   1.190   1.594   0.891 -0.1023 -0.0358 -0.1005
  339TMC3    C7 5145   1.415   1.499   0.776 -0.0511  0.0105 -0.7662
  339TMC3    C8 5146   1.159   1.751   1.102  0.4152 -0.4411  0.2206
  339TMC3    O1 5147   1.536   1.509   0.750  0.3603 -0.4888 -0.3790
  339TMC3    O2 5148   1.064   1.753   1.026  0.1270  0.3104 -0.2122
  340MPD2     C 5149   3.346   0.247  10.388  0.5681 -0.2286 -0.5128
  340MPD2    C1 5150   3.280   0.136  10.339  0.8232 -0.2602 -0.2706
  340MPD2    C2 5151   3.355   0.026  10.302  0.1998  0.2840 -0.3019
  340MPD2    C3 5152   3.488   0.033  10.291  0.0736 -0.1129 -0.1701
  340MPD2    C4 5153   3.555   0.148  10.343 -0.6114  0.1118  0.1448
  340MPD2    C5 5154   3.481   0.251  10.386  0.0921  1.4336 -0.1619
  340MPD2     H 5155   3.305   4.672  10.273 -1.7929  1.6804 -1.3779
  340MPD2    H1 5156   3.663   0.143  10.351 -0.5332  1.6644  0.1625
  340MPD2    H2 5157   3.293   0.328  10.438  0.6134 -0.1971 -0.5159
  340MPD2    H3 5158   3.531   0.342  10.417  3.3334 -0.8838  1.4422
  340MPD2     N 5159   3.563   4.673  10.227 -0.0832  0.4907  0.0034
  340MPD2    H5 5160   3.664   4.677  10.227 -0.1067  0.9916 -1.5419
  340MPD2    N1 5161   3.139   0.141  10.342  0.3389 -0.5513 -0.4552
  340MPD2    H7 5162   3.108   0.217  10.401  0.6949  1.0190 -2.2786
  341TMC3    C1 5163   3.073   4.683  10.197 -0.4714 -0.7140  0.2614
  341TMC3    C2 5164   3.043   4.550  10.224 -0.4846  0.0196  0.5141
  341TMC3    C3 5165   3.093   4.462  10.131  0.6735 -0.9164  0.1047
  341TMC3    C4 5166   3.129   4.729  10.080 -0.2155 -0.8072  0.3286
  341TMC3    C5 5167   3.179   4.635   9.999  0.1949 -0.4824 -0.2642
  341TMC3    C6 5168   3.152   4.500  10.013  0.1796 -0.4873 -0.1755
  341TMC3     C 5169   3.052   0.033  10.311  0.3790  1.1143 -0.0777
  341TMC3     O 5170   2.942   0.018  10.361 -0.3018 -0.4689 -0.4679
  341TMC3     H 5171   3.007   4.516  10.320  0.2198 -0.0915  0.7369
  341TMC3    H1 5172   3.138   0.097  10.062  1.0797 -1.0329 -0.3030
  341TMC3    H2 5173   3.183   4.425   9.941  1.6138  2.0424 -2.1911
  341TMC3    C7 5174   3.290   4.665   9.915 -0.0697  0.5331  0.5189
  341TMC3    C8 5175   3.046   4.329  10.145  0.3450 -0.4590 -0.5892
  341TMC3    O1 5176   3.306   4.589   9.819 -0.0253  0.4428 -0.7238
  341TMC3    O2 5177   3.027   4.299  10.259 -0.1974  0.2438 -0.2866
  342MPD2     C 5178   4.680   2.647  17.334  0.0491  0.5473  0.5645
  342MPD2    C1 5179   0.070   2.652  17.288  0.2937  0.7071 -0.0531
  342MPD2    C2 5180   0.147   2.768  17.284  0.2599  0.0105 -0.2101
  342MPD2    C3 5181   0.083   2.883  17.336 -0.0579 -0.4908 -0.7408
  342MPD2    C4 5182   4.698   2.877  17.391  0.8008 -0.4718 -0.1208
  342MPD2    C5 5183   4.627   2.764  17.389  0.7248 -0.1207  0.4226
  342MPD2     H 5184   0.237   2.765  17.224  0.7576  3.0012  0.4177
  342MPD2    H1 5185   4.649   2.967  17.425  0.5910 -0.4639 -0.4534
  342MPD2    H2 5186   4.618   2.559  17.319  2.5745 -1.3206  1.2443
  342MPD2    H3 5187   4.527   2.764  17.430  0.3631 -1.2743 -0.4640
  342MPD2     N 5188   0.140   3.014  17.343  0.1585  0.1054 -0.6729
  342MPD2    H5 5189   0.072   3.081  17.380 -1.4541 -0.8070 -2.0038
  342MPD2    N1 5190   0.119   2.537  17.216 -0.0449  0.0575 -0.3723
  342MPD2    H7 5191   0.200   2.544  17.155 -0.9623  0.4241 -1.5495
  343TMC3    C1 5192   0.157   2.305  17.162 -0.4843  0.0400 -0.3528
  343TMC3    C2 5193   0.224   2.324  17.044 -1.2235 -0.0189  0.7586
  343TMC3    C3 5194   0.256   2.220  16.966  0.2635  0.4632  0.4221
  343TMC3    C4 5195   0.126   2.179  17.204  0.1547 -0.3334 -0.7444
  343TMC3    C5 5196   0.152   2.075  17.114  0.9296  0.1227  0.0384
  343TMC3    C6 5197   0.220   2.098  17.000  0.7449  0.4789  0.2294
  343TMC3     C 5198   0.098   2.406  17.247 -0.2821 -0.6397  0.2236
  343TMC3     O 5199   0.035   2.363  17.344 -0.0413  0.3403  0.7089
  343TMC3     H 5200   0.241   2.428  17.017  0.0914 -0.3079  0.4967
  343TMC3    H1 5201   0.070   2.160  17.295  0.0359 -0.0668 -0.7596
  343TMC3    H2 5202   0.245   2.024  16.924  0.1792 -0.0262  0.5394
  343TMC3    C7 5203   0.109   1.943  17.142  0.1741 -0.2283 -0.1404
  343TMC3    C8 5204   0.324   2.246  16.833  0.0510  0.8250  0.3602
  343TMC3    O1 5205   0.102   1.858  17.055  0.4288 -0.6700  0.0191
  343TMC3    O2 5206   0.311   2.355  16.781 -0.7036 -0.0195  0.0189
  344MPD2     C 5207   1.815   2.042  10.982 -0.2049 -0.3523 -0.0849
  344MPD2    C1 5208   1.697   2.057  10.903 -0.3590  0.2786 -0.5838
  344MPD2    C2 5209   1.706   2.152  10.799  0.2419 -0.1282 -0.1168
  344MPD2    C3 5210   1.813   2.233  10.799  0.3982 -0.0385 -0.8246
  344MPD2    C4 5211   1.912   2.233  10.887 -0.4138  0.7149  0.0893
  344MPD2    C5 5212   1.922   2.124  10.964  0.8933  0.1198 -0.4399
  344MPD2     H 5213   1.622   2.164  10.731  0.1413 -2.6150 -0.4035
  344MPD2    H1 5214   1.985   2.310  10.868  1.1339  0.1847  3.9343
  344MPD2    H2 5215   1.833   1.968  11.059 -3.1865 -1.5442 -0.5258
  344MPD2    H3 5216   2.011   2.109  11.025  0.6099  1.2541  0.2444
  344MPD2     N 5217   1.831   2.346  10.710  0.6038 -0.5316  0.8879
  344MPD2    H5 5218   1.908   2.407  10.737 -0.8885  1.2924  1.0657
  344MPD2    N1 5219   1.580   1.973  10.923 -0.1704 -0.0483  0.9686
  344MPD2    H7 5220   1.511   1.980  10.849 -0.4630  1.5594  1.3901
  345TMC3    C1 5221   1.810   2.493  10.536 -0.5791  0.0329  1.0167
  345TMC3    C2 5222   1.882   2.586  10.609 -0.5863 -0.0201  0.0107
  345TMC3    C3 5223   1.957   2.683  10.551 -0.7207 -0.3042 -0.2929
  345TMC3    C4 5224   1.819   2.493  10.401  0.0825 -0.0449  0.3489
  345TMC3    C5 5225   1.905   2.585  10.346 -0.4320 -0.6326  0.3947
  345TMC3    C6 5226   1.976   2.676  10.413  0.1425 -0.8651  0.1153
  345TMC3     C 5227   1.760   2.367  10.594 -0.4583  0.6355  0.6590
  345TMC3     O 5228   1.679   2.293  10.534 -0.2937  0.0728  0.3602
  345TMC3     H 5229   1.874   2.587  10.717 -3.1636 -0.5117 -0.1685
  345TMC3    H1 5230   1.763   2.422  10.342 -2.4945  2.1438  0.1753
  345TMC3    H2 5231   2.052   2.738  10.366 -1.5589  1.0981 -0.0725
  345TMC3    C7 5232   1.844   2.658  10.231 -0.0265  0.0627  0.0747
  345TMC3    C8 5233   1.993   2.800  10.630  0.2274  0.0762  0.3665
  345TMC3    O1 5234   1.914   2.750  10.190 -0.3106  0.0555 -0.0343
  345TMC3    O2 5235   2.014   2.895  10.561  0.1502  0.1629  0.0448
  346MPD2     C 5236   1.676   3.859  14.430  0.0152  0.1919 -0.2930
  346MPD2    C1 5237   1.635   3.963  14.346 -0.2668 -0.2174  0.1515
  346MPD2    C2 5238   1.702   4.085  14.367  0.5487  0.4169 -0.0509
  346MPD2    C3 5239   1.802   4.103  14.454  0.0530 -0.1196 -0.2517
  346MPD2    C4 5240   1.831   4.005  14.542 -0.7145  0.5464  0.8378
  346MPD2    C5 5241   1.764   3.887  14.526  0.5577  0.5614  0.0528
  346MPD2     H 5242   1.671   4.171  14.309 -3.1007 -2.0098 -1.6744
  346MPD2    H1 5243   1.907   4.020  14.617 -0.1176  2.5621 -0.1738
  346MPD2    H2 5244   1.627   3.763  14.426  1.1133 -0.3120 -1.6256
  346MPD2    H3 5245   1.806   3.812  14.591  1.1654 -0.5579 -1.6186
  346MPD2     N 5246   1.866   4.227  14.450 -0.3991  0.2943  0.0553
  346MPD2    H5 5247   1.824   4.292  14.383  0.8551  0.5101 -0.5141
  346MPD2    N1 5248   1.533   3.956  14.250  0.2610  0.3875 -0.5370
  346MPD2    H7 5249   1.509   4.048  14.213 -0.5008  0.7372  0.8043
  347TMC3    C1 5250   2.046   4.384  14.466 -0.2509  0.2072  0.0499
  347TMC3    C2 5251   1.973   4.454  14.366  0.2286  0.4440  0.3739
  347TMC3    C3 5252   2.036   4.470  14.245 -0.1322 -0.3819  0.6775
  347TMC3    C4 5253   2.179   4.365  14.453 -0.3241 -0.4966 -0.1981
  347TMC3    C5 5254   2.239   4.387  14.329 -0.0485  0.0797  0.1038
  347TMC3    C6 5255   2.165   4.440  14.229 -0.0889  0.6498 -0.5175
  347TMC3     C 5256   1.983   4.263  14.517 -0.3541  0.2879 -0.2558
  347TMC3     O 5257   2.040   4.200  14.606  0.2424 -0.2868  0.7620
  347TMC3     H 5258   1.870   4.481  14.386  0.1808  0.2599  0.3766
  347TMC3    H1 5259   2.239   4.332  14.537  0.6890  0.3831 -0.5677
  347TMC3    H2 5260   2.216   4.474  14.140 -3.4773 -0.4874 -2.9368
  347TMC3    C7 5261   2.389   4.388  14.311  0.1429  0.3742  0.0577
  347TMC3    C8 5262   1.954   4.429  14.136  0.2696  0.1056 -0.3807
  347TMC3    O1 5263   2.434   4.412  14.194  1.0359  0.5587  0.0644
  347TMC3    O2 5264   1.849   4.488  14.124 -0.3390 -0.4461 -0.1430
  348MPD2     C 5265   0.987   3.685  11.709 -0.0928  0.0595  0.6557
  348MPD2    C1 5266   0.943   3.634  11.585  0.8060 -0.1733 -0.3025
  348MPD2    C2 5267   0.844   3.701  11.518 -0.9800  0.0423  0.9580
  348MPD2    C3 5268   0.791   3.823  11.563  0.0543 -0.4904  0.9637
  348MPD2    C4 5269   0.836   3.875  11.683 -0.1946  0.0019  0.3202
  348MPD2    C5 5270   0.924   3.798  11.765  0.3111 -0.2658 -0.2006
  348MPD2     H 5271   0.799   3.651  11.432 -0.9352  1.3879  0.1466
  348MPD2    H1 5272   0.801   3.971  11.719 -2.6589  0.0214 -2.1157
  348MPD2    H2 5273   1.063   3.640  11.772 -1.3261 -0.9568  1.4259
  348MPD2    H3 5274   0.953   3.827  11.866  1.0492  2.5184 -1.2239
  348MPD2     N 5275   0.716   3.908  11.478 -0.2697  0.5675 -0.3561
  348MPD2    H5 5276   0.695   3.999  11.516 -0.9382 -0.1154  0.9105
  348MPD2    N1 5277   0.984   3.501  11.537  0.2210 -0.3012  0.8031
  348MPD2    H7 5278   0.934   3.462  11.458 -0.5880  2.6113 -0.1487
  349TMC3    C1 5279   1.117   3.310  11.519  0.0523 -0.6821 -0.6826
  349TMC3    C2 5280   1.128   3.200  11.592  0.4873 -0.0609 -0.1869
  349TMC3    C3 5281   1.081   3.077  11.541 -0.1697 -0.8762 -0.3123
  349TMC3    C4 5282   1.075   3.302  11.387 -0.8446 -0.4555 -0.7413
  349TMC3    C5 5283   1.012   3.192  11.347 -0.4943  0.7038  0.4335
  349TMC3    C6 5284   1.010   3.081  11.426  0.2531  0.3002 -0.6517
  349TMC3     C 5285   1.089   3.435  11.589  0.4306 -0.4059  0.4044
  349TMC3     O 5286   1.152   3.450  11.691 -0.5215  0.1937 -0.0277
  349TMC3     H 5287   1.160   3.209  11.695 -0.9557 -0.2497  0.2790
  349TMC3    H1 5288   1.067   3.394  11.330  2.2667  1.1784  1.4228
  349TMC3    H2 5289   0.963   2.990  11.391  0.4199 -0.1940  0.4170
  349TMC3    C7 5290   0.899   3.218  11.269  0.0375  0.5930  0.3545
  349TMC3    C8 5291   1.109   2.957  11.626 -0.4187  0.0044 -0.4336
  349TMC3    O1 5292   0.800   3.164  11.309 -0.6929 -0.3777 -0.1034
  349TMC3    O2 5293   1.148   2.980  11.739  0.0214 -0.3434  0.1747
  350MPD2     C 5294   4.570   2.142  10.757  0.1701 -0.5515 -0.1212
  350MPD2    C1 5295   4.567   2.028  10.831  0.4818 -0.6144 -0.9422
  350MPD2    C2 5296   4.622   2.024  10.957  0.4074 -0.1371  0.3282
  350MPD2    C3 5297   4.685   2.136  11.011 -0.1512  0.1045 -0.2821
  350MPD2    C4 5298   4.700   2.248  10.929 -0.5898  0.6640  0.3353
  350MPD2    C5 5299   4.635   2.253  10.813  0.0796  1.2928  0.0700
  350MPD2     H 5300   4.604   1.926  10.999  0.5558  0.2434  1.2865
  350MPD2    H1 5301   0.012   2.339  10.961  0.1962 -0.8400  3.3308
  350MPD2    H2 5302   4.517   2.152  10.663 -0.7462  1.1781  0.5763
  350MPD2    H3 5303   4.643   2.346  10.757  1.3614  1.4664  0.5456
  350MPD2     N 5304   0.009   2.113  11.131 -0.1501 -0.5809  0.2604
  350MPD2    H5 5305   4.738   2.024  11.178 -1.7325  0.3964  1.8120
  350MPD2    N1 5306   4.500   1.911  10.789 -0.7844  0.3923 -0.2241
  350MPD2    H7 5307   4.512   1.818  10.827  2.3110  0.4313 -1.0969
  351TMC3    C1 5308   4.343   1.782  10.675 -0.3266  0.0213  0.4674
  351TMC3    C2 5309   4.430   1.700  10.612 -0.4368  0.2260  0.1297
  351TMC3    C3 5310   4.380   1.581  10.565  0.4408  0.1227 -0.6117
  351TMC3    C4 5311   4.207   1.761  10.665 -0.0326 -0.3441  0.2344
  351TMC3    C5 5312   4.162   1.653  10.590 -0.2320 -0.0808  0.8496
  351TMC3    C6 5313   4.245   1.557  10.546  0.4730  0.3824 -0.3856
  351TMC3     C 5314   4.391   1.913  10.705 -0.1039  0.3597 -0.3338
  351TMC3     O 5315   4.310   2.002  10.690  0.1995  0.3202  0.1029
  351TMC3     H 5316   4.538   1.713  10.614 -0.0105 -2.8520 -3.5702
  351TMC3    H1 5317   4.140   1.840  10.698 -1.8846 -1.5070 -0.7644
  351TMC3    H2 5318   4.204   1.476  10.487  2.0630 -0.6463 -0.0654
  351TMC3    C7 5319   4.030   1.671  10.530  0.1467  0.0294 -0.9246
  351TMC3    C8 5320   4.476   1.491  10.497 -0.2700  0.4294 -1.0278
  351TMC3    O1 5321   3.947   1.729  10.593  0.2575  0.4419 -0.0870
  351TMC3    O2 5322   4.577   1.542  10.450 -0.0368  0.0928  0.2090
  352MPD2     C 5323   1.798   4.188   1.055  0.4472 -0.5612  0.2330
  352MPD2    C1 5324   1.753   4.094   0.969  0.1720 -0.3484 -0.5301
  352MPD2    C2 5325   1.840   4.003   0.927 -0.5622 -0.2123 -0.0512
  352MPD2    C3 5326   1.968   3.991   0.979  0.4560  0.6157 -0.0534
  352MPD2    C4 5327   2.015   4.091   1.053  0.0054  0.2137 -0.2806
  352MPD2    C5 5328   1.932   4.183   1.099 -0.4306 -0.4530 -0.5197
  352MPD2     H 5329   1.819   3.919   0.861  2.7739  0.6064 -2.1899
  352MPD2    H1 5330   2.118   4.089   1.087  0.3153 -2.9811 -1.3838
  352MPD2    H2 5331   1.747   4.278   1.088 -0.8486 -1.0812 -0.3586
  352MPD2    H3 5332   1.964   4.244   1.183  1.4226 -0.4645 -1.2178
  352MPD2     N 5333   2.059   3.875   0.963 -0.5739 -0.7389 -0.0091
  352MPD2    H5 5334   2.153   3.876   1.000 -0.3734 -0.6828 -0.5191
  352MPD2    N1 5335   1.617   4.089   0.928 -0.1962  0.2591  0.1222
  352MPD2    H7 5336   1.554   4.160   0.965 -0.0684  0.6613 -0.4228
  353TMC3    C1 5337   2.122   3.642   0.934 -0.8298  0.7219 -0.6169
  353TMC3    C2 5338   2.243   3.674   0.886  0.0167  0.1672 -0.0375
  353TMC3    C3 5339   2.330   3.577   0.863 -0.2717  0.3064 -0.3964
  353TMC3    C4 5340   2.081   3.512   0.937 -0.6111 -0.6652  0.2027
  353TMC3    C5 5341   2.169   3.416   0.909  0.2767  0.0149 -0.2751
  353TMC3    C6 5342   2.294   3.444   0.867 -0.2609  0.2632  0.2281
  353TMC3     C 5343   2.015   3.745   0.924  0.0864 -1.0160  0.0707
  353TMC3     O 5344   1.905   3.700   0.904 -0.1115  0.5925 -0.0774
  353TMC3     H 5345   2.272   3.776   0.869  0.7180 -0.1803 -0.8934
  353TMC3    H1 5346   1.981   3.485   0.970 -0.6118 -0.5603  0.2872
  353TMC3    H2 5347   2.371   3.369   0.879 -0.5482 -0.1360 -0.4195
  353TMC3    C7 5348   2.150   3.277   0.945 -0.1424 -0.9726  0.2663
  353TMC3    C8 5349   2.474   3.606   0.856 -0.2501 -0.5424  0.3555
  353TMC3    O1 5350   2.234   3.198   0.905 -0.1403  0.3609  0.2239
  353TMC3    O2 5351   2.510   3.718   0.904  0.1635 -0.5784 -0.1463
  354TMC3    C1 5352   3.886   4.354  13.599  0.5012  0.8248 -0.1409
  354TMC3    C2 5353   3.967   4.453  13.646  0.0108 -0.5170 -0.4983
  354TMC3    C3 5354   4.063   4.509  13.560  0.0724  0.1591  0.2483
  354TMC3    C4 5355   3.887   4.313  13.465  0.2099  0.6610  0.4068
  354TMC3    C5 5356   3.991   4.362  13.393 -0.4063 -0.1016 -0.3338
  354TMC3    C6 5357   4.081   4.460  13.435  0.2107  0.2565 -0.1321
  354TMC3     C 5358   3.824   4.254  13.684 -0.3116 -0.6932  0.3132
  354TMC3     O 5359   3.751   4.177  13.629 -0.3573  0.0664  0.2138
  354TMC3     H 5360   3.951   4.492  13.746  0.7016 -0.0771 -0.5601
  354TMC3    H1 5361   3.841   4.222  13.428  0.6433  1.4098 -1.9818
  354TMC3    H2 5362   4.156   4.499  13.367  1.2432 -1.5802 -0.0400
  354TMC3    C7 5363   3.994   4.314  13.254  0.0893 -0.0026  1.0166
  354TMC3    C8 5364   4.112   4.645  13.578  0.1583 -0.4530 -0.0942
  354TMC3    O1 5365   3.897   4.270  13.201 -0.6635  0.2788  0.3253
  354TMC3    O2 5366   4.087   4.700  13.681  0.2352 -0.5046 -0.0226
  355MPD2     C 5367   4.269   0.818  12.342  0.3747  0.2363  0.4464
  355MPD2    C1 5368   4.368   0.800  12.244  0.2932 -0.3386  0.0122
  355MPD2    C2 5369   4.450   0.687  12.258  0.5415  0.0968 -0.2482
  355MPD2    C3 5370   4.439   0.606  12.371 -0.1721 -0.3143 -0.2959
  355MPD2    C4 5371   4.346   0.634  12.468 -0.3337 -0.8931  0.2074
  355MPD2    C5 5372   4.255   0.738  12.455 -0.1171 -0.1012  0.4472
  355MPD2     H 5373   4.530   0.670  12.187  0.6900 -1.6245  0.3291
  355MPD2    H1 5374   4.354   0.570  12.555 -0.9583  0.0729  0.9800
  355MPD2    H2 5375   4.209   0.908  12.344  3.1685  2.0555  2.4888
  355MPD2    H3 5376   4.180   0.759  12.530 -1.1473 -1.6797 -0.1398
  355MPD2     N 5377   4.550   0.522  12.396 -0.4119 -0.3280 -0.4420
  355MPD2    H5 5378   4.593   0.482  12.313  0.9197 -0.7262  0.4421
  355MPD2    N1 5379   4.383   0.893  12.136  0.5253 -0.5266  0.4005
  355MPD2    H7 5380   4.314   0.965  12.118 -0.7272 -2.1427 -1.2711
  356TMC3    C1 5381   4.717   0.393  12.496  0.6778 -0.5565  0.7607
  356TMC3    C2 5382   0.031   0.417  12.373 -0.2430 -0.5787 -0.1537
  356TMC3    C3 5383   0.148   0.487  12.363 -0.5728 -0.1540  0.8626
  356TMC3    C4 5384   0.053   0.422  12.606 -0.1229 -0.3799  0.3648
  356TMC3    C5 5385   0.168   0.493  12.592 -0.2457 -0.1928  0.0976
  356TMC3    C6 5386   0.218   0.533  12.471 -0.4595 -0.0165  0.0664
  356TMC3     C 5387   4.590   0.462  12.515  0.0749  0.0923  0.1470
  356TMC3     O 5388   4.548   0.477  12.627 -0.0622 -0.4922 -0.0446
  356TMC3     H 5389   4.726   0.384  12.279 -0.3961 -0.4136 -0.1414
  356TMC3    H1 5390   0.008   0.414  12.704 -3.8796  2.1483 -1.1532
  356TMC3    H2 5391   0.315   0.581  12.465 -0.0137 -0.9107  0.2519
  356TMC3    C7 5392   0.198   0.573  12.707 -0.1049  0.1270 -0.1802
  356TMC3    C8 5393   0.206   0.500  12.229 -0.1435  1.3441  0.0486
  356TMC3    O1 5394   0.193   0.511  12.812  0.0113  0.1537 -0.3665
  356TMC3    O2 5395   0.230   0.401  12.162 -0.5304 -0.1000 -0.3081
  357MPD2     C 5396   3.137   1.096   1.766  0.0231  0.3795 -0.6067
  357MPD2    C1 5397   3.175   1.037   1.649  0.0708  0.0067  0.0937
  357MPD2    C2 5398   3.077   0.998   1.560 -0.5777  0.2853  0.2053
  357MPD2    C3 5399   2.947   1.039   1.586 -0.0109  0.1278 -0.2430
  357MPD2    C4 5400   2.909   1.108   1.694 -0.3404 -0.0409  0.3216
  357MPD2    C5 5401   3.002   1.124   1.796  0.3188  0.0988  0.2322
  357MPD2     H 5402   3.100   0.946   1.468 -2.2222  0.3903 -0.2776
  357MPD2    H1 5403   2.806   1.143   1.695 -0.0781  0.7784 -1.1239
  357MPD2    H2 5404   3.212   1.121   1.840 -1.6101  0.4194  1.0472
  357MPD2    H3 5405   2.981   1.178   1.887 -0.8930  2.9864 -1.7630
  357MPD2     N 5406   2.851   0.993   1.488 -0.2340  0.6218  0.0605
  357MPD2    H5 5407   2.896   0.955   1.405 -2.0300 -3.5103  0.9984
  357MPD2    N1 5408   3.311   0.997   1.635  0.2284 -0.0760  0.0777
  357MPD2    H7 5409   3.389   1.046   1.677 -1.6818  1.6188  1.6378
  358TMC3    C1 5410   3.498   0.909   1.508 -0.9375 -0.2087 -0.3250
  358TMC3    C2 5411   3.518   0.803   1.420 -0.8714  0.2830 -0.0018
  358TMC3    C3 5412   3.592   0.820   1.313  0.0292  0.1425 -0.2383
  358TMC3    C4 5413   3.567   1.027   1.494 -0.0476  0.8192  0.0870
  358TMC3    C5 5414   3.644   1.041   1.382  0.1838 -0.2670 -0.4699
  358TMC3    C6 5415   3.668   0.930   1.302 -0.3562  0.0393 -0.3595
  358TMC3     C 5416   3.355   0.915   1.534 -0.4915 -0.4966  0.0290
  358TMC3     O 5417   3.285   0.843   1.462 -0.1495  0.0476  0.2152
  358TMC3     H 5418   3.452   0.717   1.423 -1.1132  0.4534 -0.4765
  358TMC3    H1 5419   3.522   1.112   1.544 -0.1528  0.1011  1.2218
  358TMC3    H2 5420   3.721   0.939   1.208 -0.5660 -0.7171 -0.5519
  358TMC3    C7 5421   3.698   1.174   1.365  0.0727 -0.9964 -0.5586
  358TMC3    C8 5422   3.535   0.766   1.189 -0.0826  0.3567  0.3020
  358TMC3    O1 5423   3.720   1.250   1.464 -0.4151  0.2771 -0.1786
  358TMC3    O2 5424   3.610   0.756   1.091 -0.7604 -0.7733  0.2994
  359MPD2     C 5425   0.521   3.751  12.321  0.1114  0.3392 -0.0393
  359MPD2    C1 5426   0.410   3.839  12.315  0.3876  0.1283 -0.4468
  359MPD2    C2 5427   0.296   3.787  12.372 -0.5065  0.5758  0.4861
  359MPD2    C3 5428   0.281   3.668  12.441  0.4285 -0.4870 -0.0139
  359MPD2    C4 5429   0.396   3.592  12.450  0.0655 -0.3201 -0.0556
  359MPD2    C5 5430   0.509   3.638  12.400  0.0356 -0.1147 -0.1739
  359MPD2     H 5431   0.207   3.848  12.366 -1.3924 -0.8462 -0.8867
  359MPD2    H1 5432   0.398   3.496  12.501 -3.0774 -0.3690 -0.0150
  359MPD2    H2 5433   0.615   3.775  12.272 -0.0226 -0.2869 -0.6177
  359MPD2    H3 5434   0.598   3.575  12.409  0.4219  0.7153  1.8828
  359MPD2     N 5435   0.163   3.618  12.497 -0.3813 -0.2134 -0.0092
  359MPD2    H5 5436   0.174   3.531  12.547  1.7464  1.0049  1.6253
  359MPD2    N1 5437   0.400   3.960  12.236  0.2307  0.3464  0.1605
  359MPD2    H7 5438   0.310   4.006  12.233 -0.1056 -0.1964  2.1763
  360TMC3    C1 5439   0.470   4.145  12.129  0.1269  0.1636  0.6268
  360TMC3    C2 5440   0.546   4.257  12.154 -0.2170  0.1820 -0.6275
  360TMC3    C3 5441   0.523   4.380  12.088  0.2267 -0.0654  0.1074
  360TMC3    C4 5442   0.357   4.156  12.052  0.0341 -0.4180 -0.2101
  360TMC3    C5 5443   0.335   4.282  12.002 -0.0515  0.1124  0.1991
  360TMC3    C6 5444   0.404   4.397  12.022  0.5504 -0.5672  0.3104
  360TMC3     C 5445   0.509   4.024  12.185 -0.1385  0.2044 -0.3602
  360TMC3     O 5446   0.627   4.014  12.217 -0.4629 -0.5043  0.6425
  360TMC3     H 5447   0.622   4.255  12.231  0.0790 -0.1369 -0.9276
  360TMC3    H1 5448   0.305   4.069  12.013 -1.4320  0.5876 -0.5110
  360TMC3    H2 5449   0.367   4.487  11.975  1.1041 -0.6750 -0.3308
  360TMC3    C7 5450   0.249   4.294  11.888 -0.6829  0.2885 -0.8861
  360TMC3    C8 5451   0.634   4.396  11.997  0.0334 -0.2513 -0.3844
  360TMC3    O1 5452   0.282   4.375  11.801 -0.1260 -0.1921 -0.2046
  360TMC3    O2 5453   0.692   4.292  11.981 -0.1678 -0.1319 -0.7597
  361MPD2     C 5454   1.525   3.035  16.765 -0.7947  0.6774 -0.6749
  361MPD2    C1 5455   1.467   3.070  16.891 -0.2765  0.8331  0.2010
  361MPD2    C2 5456   1.500   2.992  16.994  0.1921 -0.0670 -0.1726
  361MPD2    C3 5457   1.576   2.879  16.985 -0.2921  0.4384 -0.1975
  361MPD2    C4 5458   1.627   2.846  16.864 -0.0266  0.2872  0.1131
  361MPD2    C5 5459   1.619   2.931  16.762 -0.0520 -0.0130  0.1701
  361MPD2     H 5460   1.448   3.007  17.088  0.2187 -0.7980 -0.0429
  361MPD2    H1 5461   1.689   2.758  16.851 -1.5669 -0.5852 -1.3681
  361MPD2    H2 5462   1.489   3.084  16.675 -2.0002 -1.1481 -1.1924
  361MPD2    H3 5463   1.665   2.907  16.667 -0.5460 -3.0665  0.6970
  361MPD2     N 5464   1.612   2.796  17.090  0.5141  0.9344  0.2641
  361MPD2    H5 5465   1.683   2.732  17.055 -1.0728 -1.0567  0.7330
  361MPD2    N1 5466   1.354   3.154  16.912 -0.4983  0.2170  0.2948
  361MPD2    H7 5467   1.326   3.176  17.007 -0.6983  2.2749 -0.2389
  362TMC3    C1 5468   1.172   3.277  16.852  0.1173 -0.1500 -0.0488
  362TMC3    C2 5469   1.151   3.322  16.980  0.0535 -0.1595  0.5827
  362TMC3    C3 5470   1.027   3.359  17.018  0.0693 -0.3412 -0.4017
  362TMC3    C4 5471   1.075   3.265  16.755  0.4604 -0.5432  0.2819
  362TMC3    C5 5472   0.945   3.292  16.800 -0.4237 -0.1038 -0.1846
  362TMC3    C6 5473   0.924   3.334  16.933  0.4032 -0.6274  0.1869
  362TMC3     C 5474   1.298   3.226  16.811 -0.6178  0.7343  0.5686
  362TMC3     O 5475   1.328   3.221  16.692  0.4469 -0.1661  0.4233
  362TMC3     H 5476   1.233   3.336  17.051 -0.6390  0.5609  1.2469
  362TMC3    H1 5477   1.098   3.231  16.655  1.6910 -1.3489  0.8369
  362TMC3    H2 5478   0.819   3.349  16.954  0.0755 -2.4720 -0.1442
  362TMC3    C7 5479   0.838   3.309  16.700  0.3133 -0.9503 -0.2073
  362TMC3    C8 5480   1.008   3.403  17.159  0.3957  0.0117  0.3937
  362TMC3    O1 5481   0.739   3.363  16.741 -0.2975  0.5798 -0.6096
  362TMC3    O2 5482   1.100   3.381  17.239 -0.1343  0.5835  1.0817
  363TMC3    C1 5483   0.971   1.729   9.653 -0.2770  0.0914 -0.3336
  363TMC3    C2 5484   0.897   1.642   9.729 -0.0445 -0.9070 -0.7811
  363TMC3    C3 5485   0.773   1.693   9.773  0.2198 -0.2442 -0.6881
  363TMC3    C4 5486   0.917   1.843   9.602  0.3957  0.5520  0.5432
  363TMC3    C5 5487   0.792   1.880   9.641 -0.2554  0.2614 -0.5864
  363TMC3    C6 5488   0.717   1.805   9.729 -0.1531 -0.1801  0.1510
  363TMC3     C 5489   1.115   1.708   9.625 -1.2795  0.4101 -0.3344
  363TMC3     O 5490   1.163   1.629   9.702  0.4874  0.0456 -0.1576
  363TMC3     H 5491   0.958   1.567   9.779 -1.9875 -1.4914  0.6979
  363TMC3    H1 5492   0.974   1.926   9.561 -0.0840 -0.3254 -1.8681
  363TMC3    H2 5493   0.617   1.839   9.754  0.9009  1.6669  1.8513
  363TMC3    C7 5494   0.757   2.026   9.627 -0.4466 -0.0809  0.3366
  363TMC3    C8 5495   0.701   1.624   9.883  1.0982 -0.1848  0.3603
  363TMC3    O1 5496   0.806   2.081   9.529 -0.2261 -0.2200 -0.4062
  363TMC3    O2 5497   0.618   1.691   9.945  0.2026 -0.3712  0.3554
  364MPD2     C 5498   3.633   0.645  10.789  0.5392  0.6003  0.2914
  364MPD2    C1 5499   3.699   0.645  10.662 -0.0122  0.2446 -0.6699
  364MPD2    C2 5500   3.735   0.516  10.615  0.0407 -0.2624  0.1393
  364MPD2    C3 5501   3.707   0.402  10.691 -0.3900  0.0027  0.5013
  364MPD2    C4 5502   3.646   0.413  10.812  0.9820  0.3067 -0.5005
  364MPD2    C5 5503   3.610   0.533  10.859 -0.2411  0.5105  0.8981
  364MPD2     H 5504   3.791   0.514  10.522 -2.1156  0.8930 -1.1571
  364MPD2    H1 5505   3.619   0.330  10.875  1.0896 -0.0484 -0.9260
  364MPD2    H2 5506   3.604   0.739  10.834 -1.3588 -0.1720  0.6614
  364MPD2    H3 5507   3.566   0.539  10.958 -0.6342  0.8872  0.7007
  364MPD2     N 5508   3.756   0.272  10.656 -0.5513 -0.2067  0.4669
  364MPD2    H5 5509   3.767   0.209  10.735  0.9937  1.2451  1.4056
  364MPD2    N1 5510   3.741   0.765  10.601  0.6453 -0.1239 -0.2242
  364MPD2    H7 5511   3.736   0.845  10.664  0.0211  0.9385 -1.6171
  365TMC3    C1 5512   3.874   0.896  10.448 -0.6159 -0.8644  0.1832
  365TMC3    C2 5513   3.947   0.886  10.334 -0.2183 -0.0745 -0.4566
  365TMC3    C3 5514   4.043   0.976  10.311 -0.2737  0.0506  0.5055
  365TMC3    C4 5515   3.904   0.993  10.542  0.0228 -0.1318 -0.4413
  365TMC3    C5 5516   4.014   1.070  10.517  0.0774 -0.3001 -0.5939
  365TMC3    C6 5517   4.080   1.070  10.397  1.2293  0.0754  0.1280
  365TMC3     C 5518   3.784   0.775  10.471 -0.1487 -0.0290  0.7671
  365TMC3     O 5519   3.757   0.702  10.377  0.2608 -0.4135  0.2720
  365TMC3     H 5520   3.927   0.819  10.251 -0.7752 -1.1951  0.5827
  365TMC3    H1 5521   3.842   1.011  10.629 -0.2549 -1.0283 -0.4509
  365TMC3    H2 5522   4.169   1.128  10.376  1.0536  0.4427  0.4007
  365TMC3    C7 5523   4.061   1.169  10.618  0.0099 -0.4310  0.7535
  365TMC3    C8 5524   4.133   0.946  10.201 -0.1629  0.2025  0.2266
  365TMC3    O1 5525   4.143   1.251  10.587  0.2213 -0.1116  0.4181
  365TMC3    O2 5526   4.207   1.035  10.162  0.2706 -0.2690  0.0849
  366MPD2     C 5527   1.150   1.441  15.095 -0.1942  0.2295 -0.6264
  366MPD2    C1 5528   1.252   1.523  15.061 -0.2355  1.4084  0.4237
  366MPD2    C2 5529   1.380   1.469  15.074  0.0018 -0.2257 -0.0018
  366MPD2    C3 5530   1.407   1.345  15.126  0.3601 -0.1600 -0.1651
  366MPD2    C4 5531   1.298   1.260  15.160  0.2939  0.0063  0.9086
  366MPD2    C5 5532   1.174   1.312  15.138  0.1527 -0.3695  0.0425
  366MPD2     H 5533   1.465   1.536  15.063  1.8696 -2.4926  0.8695
  366MPD2    H1 5534   1.302   1.154  15.184 -1.9594  0.0737  1.6288
  366MPD2    H2 5535   1.045   1.468  15.089 -0.5140 -1.3056 -2.2640
  366MPD2    H3 5536   1.091   1.243  15.150 -0.6938  0.5845 -0.4543
  366MPD2     N 5537   1.539   1.301  15.151 -0.1944  0.4553  0.2602
  366MPD2    H5 5538   1.612   1.357  15.110 -0.2173  0.7946  0.6800
  366MPD2    N1 5539   1.237   1.666  15.057 -0.2234 -0.7526 -0.0413
  366MPD2    H7 5540   1.320   1.724  15.059 -0.2814 -0.6631 -0.3283
  367TMC3    C1 5541   1.142   1.874  15.118  0.3368  0.4238  0.5474
  367TMC3    C2 5542   1.245   1.890  15.213 -0.5508  0.1075 -0.0262
  367TMC3    C3 5543   1.252   2.011  15.271  0.3874 -0.0992 -0.1088
  367TMC3    C4 5544   1.041   1.964  15.101  0.4905  0.3669 -0.6678
  367TMC3    C5 5545   1.064   2.085  15.157  0.7082  0.2456  0.2205
  367TMC3    C6 5546   1.160   2.112  15.245 -1.1462  0.5979 -0.0669
  367TMC3     C 5547   1.122   1.738  15.067  0.5699  0.7883  0.0578
  367TMC3     O 5548   1.007   1.698  15.064  0.8629  0.4214 -0.7638
  367TMC3     H 5549   1.324   1.820  15.236  0.1179  0.3863 -1.4335
  367TMC3    H1 5550   0.953   1.946  15.040 -1.6202  1.7843  1.9534
  367TMC3    H2 5551   1.174   2.211  15.288  3.2866  0.3675 -0.9897
  367TMC3    C7 5552   0.989   2.204  15.109  0.8865 -0.1309 -0.5061
  367TMC3    C8 5553   1.365   2.019  15.360  0.1001 -0.1356 -0.3127
  367TMC3    O1 5554   1.019   2.309  15.160 -0.1683 -0.4013  0.1554
  367TMC3    O2 5555   1.396   1.909  15.398  0.0472 -0.4138 -0.0826
  368MPD2     C 5556   3.024   2.990  13.134 -0.3015  0.3294 -0.1858
  368MPD2    C1 5557   3.066   3.120  13.144 -0.3904  0.1996  0.1236
  368MPD2    C2 5558   3.193   3.157  13.108  0.3707  0.1513  0.4325
  368MPD2    C3 5559   3.290   3.057  13.078  0.0139 -0.3950 -0.4388
  368MPD2    C4 5560   3.246   2.927  13.077 -0.4369 -0.6611  0.6396
  368MPD2    C5 5561   3.112   2.896  13.089 -0.0194  0.3804 -0.4293
  368MPD2     H 5562   3.221   3.261  13.112  4.4351 -0.8882 -1.4445
  368MPD2    H1 5563   3.316   2.846  13.059  1.0661  0.9730 -0.8834
  368MPD2    H2 5564   2.919   2.965  13.148 -0.2408 -1.4845 -2.9840
  368MPD2    H3 5565   3.084   2.793  13.075  1.4469  0.3202 -2.8284
  368MPD2     N 5566   3.423   3.081  13.064 -0.5247  0.2252 -0.6992
  368MPD2    H5 5567   3.492   3.006  13.069  0.1138  0.9167  0.7625
  368MPD2    N1 5568   2.976   3.212  13.206 -0.2558  0.7599  0.1536
  368MPD2    H7 5569   2.892   3.176  13.250 -0.1154 -0.6346 -0.7046
  369TMC3    C1 5570   2.882   3.426  13.259 -0.4149  0.7464 -0.3085
  369TMC3    C2 5571   2.912   3.559  13.259  0.2129 -0.0103 -0.1564
  369TMC3    C3 5572   2.821   3.663  13.236 -0.2722 -0.1786  0.1748
  369TMC3    C4 5573   2.752   3.389  13.243 -0.4164  0.8480  0.4621
  369TMC3    C5 5574   2.662   3.490  13.215 -0.4722 -0.2776 -0.2571
  369TMC3    C6 5575   2.695   3.621  13.212 -0.4018 -0.0122 -0.6496
  369TMC3     C 5576   2.996   3.347  13.216  0.2678 -0.0893  0.7655
  369TMC3     O 5577   3.085   3.419  13.175 -0.4293  0.5480 -0.8338
  369TMC3     H 5578   3.012   3.587  13.291 -0.4111  2.0711  0.0051
  369TMC3    H1 5579   2.728   3.285  13.259  0.1548  1.0462  2.6650
  369TMC3    H2 5580   2.628   3.689  13.161 -1.4267  0.4039  1.2466
  369TMC3    C7 5581   2.523   3.452  13.242 -0.6831  0.1744 -0.8981
  369TMC3    C8 5582   2.858   3.776  13.158 -0.2819 -0.2673 -1.5011
  369TMC3    O1 5583   2.498   3.328  13.253 -0.5159 -0.0208  0.5856
  369TMC3    O2 5584   2.776   3.869  13.164 -0.1210 -0.1916 -0.3380
  370TMC3    C1 5585   2.362   3.868  16.259  0.1261 -0.7133 -0.7439
  370TMC3    C2 5586   2.270   3.798  16.324  0.5095  0.0105 -0.6463
  370TMC3    C3 5587   2.228   3.673  16.278 -0.2544  0.8653  0.3855
  370TMC3    C4 5588   2.405   3.832  16.136 -0.9847 -0.3365 -0.6622
  370TMC3    C5 5589   2.366   3.710  16.085 -0.1622  0.2130  0.0114
  370TMC3    C6 5590   2.273   3.629  16.149 -0.2699  0.4094  0.5270
  370TMC3     C 5591   2.448   3.956  16.341  1.2848 -0.9908  0.1902
  370TMC3     O 5592   2.432   3.954  16.463  0.3842 -0.6825  0.9311
  370TMC3     H 5593   2.245   3.820  16.428  1.5078 -0.0605 -0.3927
  370TMC3    H1 5594   2.475   3.891  16.079  2.2219 -2.1275  1.4478
  370TMC3    H2 5595   2.237   3.532  16.117 -0.5077  0.1493  1.5768
  370TMC3    C7 5596   2.431   3.670  15.964  0.2000  0.2361  0.0748
  370TMC3    C8 5597   2.176   3.577  16.378 -0.4370  0.3596  0.1555
  370TMC3    O1 5598   2.483   3.757  15.893 -0.4183  0.0761  0.4537
  370TMC3    O2 5599   2.182   3.455  16.352  0.0185 -0.4184  0.7543
  371TMC3    C1 5600   3.665   2.157  15.417  0.4306 -0.0191 -0.3682
  371TMC3    C2 5601   3.598   2.124  15.538 -0.5799 -0.0105 -0.6014
  371TMC3    C3 5602   3.569   2.224  15.630  0.1993 -0.0245 -0.2138
  371TMC3    C4 5603   3.709   2.288  15.403  0.6016  0.5049 -0.1718
  371TMC3    C5 5604   3.690   2.373  15.508 -0.0288  0.1508  0.6830
  371TMC3    C6 5605   3.618   2.346  15.615 -0.5723  0.3773  0.1622
  371TMC3     C 5606   3.718   2.064  15.319 -0.2508 -0.2875 -0.0034
  371TMC3     O 5607   3.807   2.101  15.245  0.0761 -0.2789 -0.0497
  371TMC3     H 5608   3.564   2.022  15.555 -0.1569  0.2594  1.8323
  371TMC3    H1 5609   3.789   2.311  15.333 -0.6239  0.4941 -1.5812
  371TMC3    H2 5610   3.617   2.414  15.699  0.7539  1.5260 -0.7684
  371TMC3    C7 5611   3.729   2.510  15.483  0.1584 -0.4984  0.1669
  371TMC3    C8 5612   3.499   2.195  15.755 -0.6736 -0.3284 -0.5022
  371TMC3    O1 5613   3.759   2.543  15.368 -0.3323 -0.0045  0.4609
  371TMC3    O2 5614   3.509   2.081  15.802  0.2099 -0.2412  0.1496
  372MPD2     C 5615   3.638   3.537  13.235 -0.2717 -0.6005  0.3949
  372MPD2    C1 5616   3.707   3.435  13.298 -0.0769  0.3222  0.4264
  372MPD2    C2 5617   3.630   3.334  13.362  0.4348  0.3716  0.0633
  372MPD2    C3 5618   3.494   3.332  13.359 -0.5333 -0.2874 -0.1115
  372MPD2    C4 5619   3.426   3.439  13.305 -0.6298  0.9375  0.8085
  372MPD2    C5 5620   3.498   3.541  13.251 -0.1281  0.4563  0.3097
  372MPD2     H 5621   3.677   3.253  13.416  3.3118  1.7289 -0.4198
  372MPD2    H1 5622   3.318   3.446  13.298 -0.6477  0.7336  0.8842
  372MPD2    H2 5623   3.680   3.621  13.181 -1.5702 -0.0912  0.1770
  372MPD2    H3 5624   3.439   3.611  13.193 -1.1430  0.0548  0.8559
  372MPD2     N 5625   3.431   3.224  13.423  0.1581  0.1910 -0.3631
  372MPD2    H5 5626   3.488   3.145  13.450  1.9960  1.7731  0.3300
  372MPD2    N1 5627   3.845   3.426  13.304  0.0455  0.0842  0.0584
  372MPD2    H7 5628   3.883   3.350  13.359 -1.1143 -0.9587 -0.5759
  373TMC3    C1 5629   3.266   3.070  13.457  0.5686 -0.6107  0.0332
  373TMC3    C2 5630   3.156   3.045  13.530 -0.0040 -0.3904  0.1024
  373TMC3    C3 5631   3.122   2.918  13.555 -0.5698  0.4008 -0.8483
  373TMC3    C4 5632   3.337   2.960  13.404 -0.6090 -0.0029 -0.3735
  373TMC3    C5 5633   3.278   2.833  13.413  0.3354  0.2194 -0.1517
  373TMC3    C6 5634   3.173   2.811  13.490 -0.2529 -0.2785 -0.1538
  373TMC3     C 5635   3.299   3.208  13.441 -0.3319 -0.4450  0.8632
  373TMC3     O 5636   3.223   3.297  13.451  0.4189  0.2525 -0.1119
  373TMC3     H 5637   3.104   3.125  13.581  1.3869  0.5914 -0.0242
  373TMC3    H1 5638   3.424   2.968  13.339  0.0636  0.6293  0.6076
  373TMC3    H2 5639   3.140   2.711  13.514 -1.5536  0.1697 -0.0815
  373TMC3    C7 5640   3.354   2.720  13.362 -0.2871  0.2918  0.1333
  373TMC3    C8 5641   2.983   2.902  13.600  0.0024 -0.0059 -0.6533
  373TMC3    O1 5642   3.473   2.738  13.327  0.0006  0.3928 -0.2111
  373TMC3    O2 5643   2.914   2.826  13.537 -0.2851 -0.0321  0.5610
  374TMC3    C1 5644   4.398   4.120   9.520  0.3327  0.3331 -0.2120
  374TMC3    C2 5645   4.479   4.226   9.553  0.6828  0.6868 -0.5758
  374TMC3    C3 5646   4.512   4.316   9.458  0.2250  0.5831 -0.7563
  374TMC3    C4 5647   4.354   4.097   9.397  0.1032 -0.8119 -0.6317
  374TMC3    C5 5648   4.379   4.195   9.308 -0.3594  0.0514  0.7106
  374TMC3    C6 5649   4.461   4.306   9.331  0.7561  0.1913  0.5634
  374TMC3     C 5650   4.385   4.011   9.610  0.9105  0.3690  0.3416
  374TMC3     O 5651   4.336   3.908   9.570  0.2859  0.3790  0.0583
  374TMC3     H 5652   4.514   4.239   9.654  0.2415  0.8398 -0.4403
  374TMC3    H1 5653   4.283   4.016   9.387 -0.7231 -0.3351  1.3774
  374TMC3    H2 5654   4.506   4.367   9.253 -0.5107 -0.0234 -0.3220
  374TMC3    C7 5655   4.367   4.167   9.172 -0.0329 -0.0695  0.4504
  374TMC3    C8 5656   4.577   4.434   9.514  0.2201 -0.3334  0.3444
  374TMC3    O1 5657   4.390   4.259   9.093  0.2416  0.0396  0.7202
  374TMC3    O2 5658   4.569   4.538   9.455  0.0249  0.6503  0.5345
  375MPD2     C 5659   3.633   3.711  17.184 -0.0916 -0.8402 -0.4866
  375MPD2    C1 5660   3.581   3.811  17.102  0.4888  0.4759 -0.4604
  375MPD2    C2 5661   3.653   3.845  16.983  0.3010 -0.5610  0.9308
  375MPD2    C3 5662   3.777   3.794  16.952 -0.2053  1.0446 -0.3662
  375MPD2    C4 5663   3.832   3.711  17.049  0.1624 -0.7854  0.5258
  375MPD2    C5 5664   3.767   3.680  17.166  0.3069 -0.5062 -0.2454
  375MPD2     H 5665   3.595   3.901  16.910  0.7332 -1.4066 -0.0560
  375MPD2    H1 5666   3.925   3.658  17.032 -0.9198 -2.5710  0.2043
  375MPD2    H2 5667   3.591   3.689  17.281 -0.0937  0.1661 -0.2600
  375MPD2    H3 5668   3.810   3.612  17.239  0.0172 -1.1216 -0.6489
  375MPD2     N 5669   3.845   3.815  16.830  0.4208 -0.3296 -0.0259
  375MPD2    H5 5670   3.935   3.771  16.819  0.3827 -0.8006  1.4779
  375MPD2    N1 5671   3.465   3.888  17.127 -0.2401  0.5046 -0.3349
  375MPD2    H7 5672   3.440   3.954  17.054 -2.6616 -0.6246 -0.5551
  376TMC3    C1 5673   3.889   3.876  16.596 -0.3899 -0.5466 -0.1370
  376TMC3    C2 5674   4.026   3.865  16.617 -0.1002  0.5277 -0.2454
  376TMC3    C3 5675   4.110   3.881  16.509  0.0156 -0.0799  0.1325
  376TMC3    C4 5676   3.833   3.936  16.487 -0.4216 -0.0870 -0.2745
  376TMC3    C5 5677   3.923   3.951  16.386  0.0760  0.6957  0.0108
  376TMC3    C6 5678   4.058   3.920  16.388 -0.5647  0.3439 -0.3436
  376TMC3     C 5679   3.799   3.888  16.721 -0.7411 -0.2810  0.2028
  376TMC3     O 5680   3.689   3.932  16.691  0.2940  0.2370 -0.2954
  376TMC3     H 5681   4.070   3.860  16.716  1.7411 -0.1799 -1.0923
  376TMC3    H1 5682   3.726   3.955  16.476  0.1879  2.6540 -1.4288
  376TMC3    H2 5683   4.121   3.960  16.309  0.1542  1.2918  0.7280
  376TMC3    C7 5684   3.877   4.021  16.266  0.6629  0.1987  0.3196
  376TMC3    C8 5685   4.250   3.912  16.522 -0.1897 -0.8357  0.1012
  376TMC3    O1 5686   3.956   4.070  16.189 -0.1763 -0.1943 -0.0726
  376TMC3    O2 5687   4.317   3.913  16.420  0.2114  0.2782  0.1038
  377MPD2     C 5688   2.498   4.021  12.930  0.1079  0.3418  0.4277
  377MPD2    C1 5689   2.552   3.898  12.917  0.0010 -0.7606 -0.2430
  377MPD2    C2 5690   2.480   3.784  12.950 -0.2755  0.4851 -0.5950
  377MPD2    C3 5691   2.346   3.798  12.994 -0.4932 -0.0441  0.9749
  377MPD2    C4 5692   2.292   3.926  13.007  0.2462  0.4348  0.0653
  377MPD2    C5 5693   2.368   4.036  12.966  0.5191 -0.3155  0.0539
  377MPD2     H 5694   2.512   3.680  12.945  1.6281  1.0619 -0.5120
  377MPD2    H1 5695   2.186   3.946  13.025  0.0809 -1.7505  1.4754
  377MPD2    H2 5696   2.555   4.112  12.911 -0.1797  0.4048 -0.1483
  377MPD2    H3 5697   2.316   4.131  12.957 -1.6023 -1.4815 -0.0316
  377MPD2     N 5698   2.264   3.687  13.033 -0.0968  0.2059  0.1036
  377MPD2    H5 5699   2.170   3.706  13.068  0.2297  2.1349 -0.0205
  377MPD2    N1 5700   2.678   3.889  12.857  0.7179 -0.1172  0.0068
  377MPD2    H7 5701   2.721   3.977  12.829 -0.1351  0.3745  0.2319
  378TMC3    C1 5702   2.921   3.834  12.536  0.2055 -0.4756 -0.1005
  378TMC3    C2 5703   2.825   3.839  12.632  1.1030 -0.1939 -1.2527
  378TMC3    C3 5704   2.854   3.774  12.747  0.2703 -0.7291  0.1248
  378TMC3    C4 5705   3.051   3.788  12.549  0.8030 -0.6580  0.4785
  378TMC3    C5 5706   3.067   3.721  12.675 -0.0304 -0.1848 -0.0350
  378TMC3    C6 5707   2.966   3.709  12.771  0.3343  0.0107 -0.4358
  378TMC3     C 5708   2.887   3.896  12.406 -0.3981  0.0696  0.0028
  378TMC3     O 5709   2.968   3.947  12.334  1.0676  0.0999 -0.6787
  378TMC3     H 5710   2.737   3.901  12.623  1.0417 -0.1855 -0.5518
  378TMC3    H1 5711   3.126   3.813  12.474 -2.0671 -1.7309 -2.7404
  378TMC3    H2 5712   2.974   3.649  12.861 -0.8994  1.1567  0.4162
  378TMC3    C7 5713   3.197   3.668  12.718 -0.2731  0.2235  0.7205
  378TMC3    C8 5714   2.751   3.769  12.847 -0.3192 -0.3289 -0.2755
  378TMC3    O1 5715   3.188   3.586  12.811  0.0587  0.4161 -0.2547
  378TMC3    O2 5716   2.741   3.667  12.914 -0.4957  0.3787  0.1880
  379MPD2     C 5717   2.221   2.004  16.295 -0.3516 -0.4801 -0.5484
  379MPD2    C1 5718   2.254   1.891  16.222  0.1158 -0.5134 -0.0444
  379MPD2    C2 5719   2.359   1.804  16.277  0.2324 -0.2393  0.3980
  379MPD2    C3 5720   2.429   1.842  16.390 -0.0879  0.3529  0.6292
  379MPD2    C4 5721   2.393   1.955  16.458  0.3609 -0.2441  0.8112
  379MPD2    C5 5722   2.286   2.029  16.413  0.3052  0.5669 -0.5225
  379MPD2     H 5723   2.382   1.718  16.215 -0.1998 -0.8735  1.1144
  379MPD2    H1 5724   2.453   1.998  16.537  0.1833 -0.6936  1.1880
  379MPD2    H2 5725   2.156   2.083  16.260 -1.3270 -0.8098  0.5312
  379MPD2    H3 5726   2.264   2.124  16.460  2.8929  0.5517  0.6999
  379MPD2     N 5727   2.537   1.762  16.438  0.1074 -0.0478  0.5072
  379MPD2    H5 5728   2.576   1.791  16.527  1.4048 -1.5287  0.4194
  379MPD2    N1 5729   2.189   1.876  16.096  0.0005 -0.0637  0.3314
  379MPD2    H7 5730   2.106   1.930  16.076 -0.0486 -0.7553 -1.3539
  380TMC3    C1 5731   2.155   1.789  15.881  0.6798 -0.1432 -0.2283
  380TMC3    C2 5732   2.131   1.664  15.826  0.4281  0.3629  0.1775
  380TMC3    C3 5733   2.065   1.676  15.703 -0.0658 -0.0027 -0.2614
  380TMC3    C4 5734   2.088   1.901  15.848  0.7936  0.2353  0.5601
  380TMC3    C5 5735   2.006   1.900  15.744  0.0721 -0.4657  0.0769
  380TMC3    C6 5736   1.993   1.788  15.672 -0.3777 -0.2077 -0.1207
  380TMC3     C 5737   2.229   1.781  15.999  0.2418  0.3894 -0.2607
  380TMC3     O 5738   2.316   1.692  16.008  0.5948 -0.5392  0.6014
  380TMC3     H 5739   2.182   1.575  15.861 -0.0520 -0.1231 -0.3676
  380TMC3    H1 5740   2.101   1.995  15.901  0.0736  2.6994 -3.5874
  380TMC3    H2 5741   1.954   1.794  15.571  1.6932 -2.8754 -1.0991
  380TMC3    C7 5742   1.934   2.027  15.708 -0.3053 -0.9754 -0.3964
  380TMC3    C8 5743   2.136   1.615  15.600  0.2377  1.2851  0.5484
  380TMC3    O1 5744   1.983   2.134  15.741 -0.1228  0.1844  0.0655
  380TMC3    O2 5745   2.167   1.693  15.511  1.1116 -0.0849 -0.1478
  381TMC3    C1 5746   2.377   2.791  16.168  0.2072  0.0126  0.1134
  381TMC3    C2 5747   2.447   2.908  16.155 -0.9045 -0.4828 -0.2289
  381TMC3    C3 5748   2.421   3.002  16.245  0.2785 -0.1871 -0.5222
  381TMC3    C4 5749   2.292   2.770  16.268 -0.1198  0.0023  0.6300
  381TMC3    C5 5750   2.264   2.874  16.356 -0.6693 -0.3744 -0.5763
  381TMC3    C6 5751   2.326   2.994  16.343  0.4883  0.0433  0.7585
  381TMC3     C 5752   2.423   2.673  16.099  0.5248  0.4730  0.6569
  381TMC3     O 5753   2.398   2.566  16.153 -0.6653  0.2994 -0.0908
  381TMC3     H 5754   2.513   2.922  16.070 -2.5767  1.0969 -1.2574
  381TMC3    H1 5755   2.241   2.674  16.271 -0.7703  0.3650  1.0803
  381TMC3    H2 5756   2.320   3.068  16.422 -1.8775 -0.2745  0.8457
  381TMC3    C7 5757   2.191   2.847  16.473 -0.1361 -0.4470  0.3317
  381TMC3    C8 5758   2.517   3.115  16.251  1.0115  0.0111 -0.0464
  381TMC3    O1 5759   2.190   2.734  16.520 -0.2726 -0.0335 -0.4636
  381TMC3    O2 5760   2.620   3.099  16.177  0.3024  0.2970 -0.3357
  382MPD2     C 5761   1.561   1.016  16.566 -0.1754 -0.0719 -0.2095
  382MPD2    C1 5762   1.660   1.004  16.660  0.1916  0.0688  0.3247
  382MPD2    C2 5763   1.688   0.881  16.717  0.0401  0.4099 -0.1978
  382MPD2    C3 5764   1.598   0.778  16.693 -0.4882 -0.6195 -0.3456
  382MPD2    C4 5765   1.503   0.788  16.592 -0.6444 -0.1257  0.6049
  382MPD2    C5 5766   1.482   0.909  16.529  0.9059 -0.1464 -0.0659
  382MPD2     H 5767   1.774   0.871  16.781 -1.0329  2.0440  1.4912
  382MPD2    H1 5768   1.436   0.706  16.568 -0.0494 -0.2435 -0.6843
  382MPD2    H2 5769   1.520   1.113  16.538 -1.5474 -0.1587  1.5719
  382MPD2    H3 5770   1.397   0.930  16.464  1.5281 -1.4525 -1.2877
  382MPD2     N 5771   1.600   0.657  16.763  0.3219  0.0261  0.4007
  382MPD2    H5 5772   1.524   0.591  16.749 -0.8000  1.6198 -1.0600
  382MPD2    N1 5773   1.751   1.107  16.694  0.4041  0.7563  0.0110
  382MPD2    H7 5774   1.821   1.092  16.766  0.4334  0.5830 -0.0544
  383TMC3    C1 5775   1.600   0.538  16.958 -0.2816  0.0089 -0.1047
  383TMC3    C2 5776   1.470   0.505  16.929 -0.1584  0.3919  0.2195
  383TMC3    C3 5777   1.391   0.448  17.023 -0.3153  0.0249 -0.0012
  383TMC3    C4 5778   1.659   0.519  17.081  0.1260  0.3425 -0.3457
  383TMC3    C5 5779   1.578   0.457  17.174  0.0315 -0.6871 -0.2648
  383TMC3    C6 5780   1.447   0.410  17.142  0.5483 -0.5149 -1.1395
  383TMC3     C 5781   1.656   0.643  16.885 -0.5384  0.0858  0.5033
  383TMC3     O 5782   1.730   0.721  16.944  0.4486  0.2422  0.1456
  383TMC3     H 5783   1.423   0.526  16.833 -0.3536 -0.5896  0.0931
  383TMC3    H1 5784   1.763   0.543  17.102 -0.1782  2.1602 -1.0055
  383TMC3    H2 5785   1.403   0.339  17.211  2.5887 -2.5032 -1.8604
  383TMC3    C7 5786   1.627   0.412  17.310 -0.1653  0.5463 -0.5958
  383TMC3    C8 5787   1.242   0.412  16.988  0.1038  0.5344 -0.2246
  383TMC3    O1 5788   1.541   0.379  17.392  0.1994  0.5394 -0.8201
  383TMC3    O2 5789   1.200   0.426  16.875 -0.2257 -0.1341  0.2186
  384MPD2     C 5790   2.956   1.731  12.000 -0.2133 -0.0194  0.0847
  384MPD2    C1 5791   3.019   1.708  12.122 -0.1796  0.6308  0.3149
  384MPD2    C2 5792   3.144   1.766  12.140 -0.3278  0.1924  0.3184
  384MPD2    C3 5793   3.208   1.838  12.043  0.1837 -0.4168 -0.4677
  384MPD2    C4 5794   3.151   1.855  11.922 -0.0780  0.2699  0.3606
  384MPD2    C5 5795   3.019   1.804  11.901  0.2602 -0.0292 -0.4412
  384MPD2     H 5796   3.200   1.755  12.232  1.2585  1.5034 -0.4737
  384MPD2    H1 5797   3.202   1.909  11.843 -1.9589 -0.7304 -1.5561
  384MPD2    H2 5798   2.858   1.687  11.984  0.3138 -0.6068 -1.5219
  384MPD2    H3 5799   2.966   1.828  11.809  1.8000 -1.3096 -1.6478
  384MPD2     N 5800   3.330   1.902  12.082  0.4648  0.1274  0.5600
  384MPD2    H5 5801   3.341   1.896  12.182  1.5786  2.5869  0.5916
  384MPD2    N1 5802   2.972   1.643  12.236 -0.3385 -0.2390  0.3959
  384MPD2    H7 5803   3.031   1.647  12.318 -2.5188 -0.4005  1.9651
  385TMC3    C1 5804   3.536   2.029  12.082  0.2275  0.1949 -0.2142
  385TMC3    C2 5805   3.655   1.959  12.053 -0.3084 -0.6156  0.9870
  385TMC3    C3 5806   3.724   1.917  12.156  0.2642  0.2272  0.6914
  385TMC3    C4 5807   3.502   2.049  12.213  0.4650 -0.3697  0.1714
  385TMC3    C5 5808   3.569   1.985  12.316 -0.1346 -0.2716  0.5221
  385TMC3    C6 5809   3.689   1.931  12.290  0.5260  0.0787  0.4585
  385TMC3     C 5810   3.418   1.978  12.006 -0.5641 -0.3207 -0.7091
  385TMC3     O 5811   3.435   1.970  11.888 -0.1949  0.8298  0.6684
  385TMC3     H 5812   3.687   1.935  11.952  0.6369 -2.5691  1.7533
  385TMC3    H1 5813   3.407   2.094  12.239  0.6028  0.7201 -1.2365
  385TMC3    H2 5814   3.756   1.887  12.363 -1.2245  0.0989  2.0727
  385TMC3    C7 5815   3.470   1.922  12.409 -0.6636  0.3287 -0.5606
  385TMC3    C8 5816   3.832   1.823  12.135 -0.3143 -0.2220  1.2072
  385TMC3    O1 5817   3.361   1.904  12.359 -0.6018 -0.3395  0.0510
  385TMC3    O2 5818   3.927   1.832  12.214 -0.6840 -0.1589 -0.0254
  386TMC3    C1 5819   4.019   4.332  12.150 -0.5146 -0.3099  0.5755
  386TMC3    C2 5820   4.050   4.368  12.021 -0.1824  0.5309 -0.4062
  386TMC3    C3 5821   3.945   4.388  11.936  0.9743  0.0632 -0.1182
  386TMC3    C4 5822   3.893   4.298  12.178 -0.6655  0.3402 -0.0534
  386TMC3    C5 5823   3.790   4.321  12.094 -0.3209 -0.2685 -0.8110
  386TMC3    C6 5824   3.812   4.375  11.971  0.4204  0.1132  0.4341
  386TMC3     C 5825   4.123   4.292  12.239  0.4954 -0.0686 -0.2268
  386TMC3     O 5826   4.080   4.269  12.354 -0.0461  0.0029  0.2689
  386TMC3     H 5827   4.152   4.391  11.990  0.5323 -0.3888  1.2115
  386TMC3    H1 5828   3.862   4.265  12.276  1.2815 -1.4700 -0.0383
  386TMC3    H2 5829   3.728   4.396  11.906 -0.8693  1.2284  2.4529
  386TMC3    C7 5830   3.673   4.236  12.114 -0.7140  0.2981  0.3143
  386TMC3    C8 5831   3.979   4.438  11.811 -0.0613  0.1373 -0.8040
  386TMC3    O1 5832   3.642   4.183  12.218  0.5446  0.2074 -0.6834
  386TMC3    O2 5833   3.900   4.516  11.756  0.6116 -0.3809 -0.1301
  387MPD2     C 5834   1.449   4.014  10.293  0.2207  0.3029 -0.1406
  387MPD2    C1 5835   1.577   4.022  10.245 -0.0077 -0.2525 -0.0361
  387MPD2    C2 5836   1.619   3.929  10.145  0.5675 -0.2009  0.4827
  387MPD2    C3 5837   1.524   3.836  10.092  0.7717  0.1252 -0.2376
  387MPD2    C4 5838   1.398   3.834  10.149 -0.6285 -0.2342 -0.8350
  387MPD2    C5 5839   1.359   3.919  10.250 -0.3594 -0.3166  0.0557
  387MPD2     H 5840   1.721   3.921  10.110  0.2594 -1.2336 -0.1855
  387MPD2    H1 5841   1.321   3.767  10.112 -2.8833  1.5073  0.6819
  387MPD2    H2 5842   1.423   4.082  10.373  0.2329  1.2610 -0.9580
  387MPD2    H3 5843   1.261   3.914  10.296  0.2638 -1.0534  1.3002
  387MPD2     N 5844   1.580   3.736  10.007 -0.3470 -0.2046 -0.4304
  387MPD2    H5 5845   1.678   3.751   9.983 -0.6304  0.6408 -1.0546
  387MPD2    N1 5846   1.670   4.112  10.297 -0.2250 -0.3793  0.2101
  387MPD2    H7 5847   1.763   4.108  10.257  0.0662  1.3734  0.7221
  388TMC3    C1 5848   1.760   4.245  10.467 -0.3921  0.3430  0.0919
  388TMC3    C2 5849   1.810   4.367  10.417  0.8870  0.0405 -1.2509
  388TMC3    C3 5850   1.946   4.382  10.406 -0.2476  0.2194  0.1681
  388TMC3    C4 5851   1.841   4.140  10.486  0.1505  0.0185 -0.5743
  388TMC3    C5 5852   1.977   4.153  10.478 -0.2382  0.1880 -0.2063
  388TMC3    C6 5853   2.025   4.281  10.439  0.0235  0.0397 -0.3113
  388TMC3     C 5854   1.641   4.204  10.399 -0.3521  0.2806  0.2669
  388TMC3     O 5855   1.540   4.265  10.425 -0.0384  0.7234 -0.5509
  388TMC3     H 5856   1.744   4.444  10.378 -0.1166  0.5872  1.5364
  388TMC3    H1 5857   1.804   4.042  10.515 -0.7337  0.6162  0.3548
  388TMC3    H2 5858   2.131   4.282  10.416 -0.2769 -0.0773 -1.7020
  388TMC3    C7 5859   2.055   4.032  10.468 -0.2880  0.2908 -0.1891
  388TMC3    C8 5860   2.010   4.503  10.362  0.0670 -0.7761 -0.0421
  388TMC3    O1 5861   2.173   4.040  10.504 -0.4556  0.0400 -0.0862
  388TMC3    O2 5862   2.112   4.493  10.299  0.0792 -0.1338  0.3889
  389MPD2     C 5863   0.603   1.553  11.046  0.3185  0.1173  0.3655
  389MPD2    C1 5864   0.677   1.658  11.094 -0.6191 -0.2220 -1.1029
  389MPD2    C2 5865   0.698   1.674  11.230 -0.1512  0.5852  0.0411
  389MPD2    C3 5866   0.648   1.576  11.319  0.6328  0.2960  0.2013
  389MPD2    C4 5867   0.585   1.466  11.266 -0.0609  0.4579 -0.3878
  389MPD2    C5 5868   0.562   1.454  11.137  0.6849  1.0116 -0.5934
  389MPD2     H 5869   0.756   1.758  11.265 -1.4796  1.7137 -0.5106
  389MPD2    H1 5870   0.541   1.390  11.329  0.4000  1.0213  0.6194
  389MPD2    H2 5871   0.582   1.542  10.941  0.1854 -0.5281  0.4614
  389MPD2    H3 5872   0.516   1.362  11.103 -0.6743  0.9072  1.5392
  389MPD2     N 5873   0.655   1.574  11.461  0.2508 -0.2327 -0.8886
  389MPD2    H5 5874   0.616   1.495  11.511 -1.3876  0.8653 -0.4297
  389MPD2    N1 5875   0.710   1.764  11.001  0.0034 -0.4056  0.3032
  389MPD2    H7 5876   0.673   1.739  10.910  1.1262 -0.7154 -0.0756
  390TMC3    C1 5877   0.679   1.672  11.684  0.2634  0.2195 -0.8845
  390TMC3    C2 5878   0.578   1.587  11.729  0.9440  0.3088 -0.5535
  390TMC3    C3 5879   0.532   1.600  11.862  0.2580  0.4720  0.4720
  390TMC3    C4 5880   0.747   1.751  11.769  0.3149  0.2656  0.0958
  390TMC3    C5 5881   0.710   1.744  11.902 -0.1532 -0.1686 -0.1056
  390TMC3    C6 5882   0.596   1.680  11.950  0.1463  0.5359 -0.7371
  390TMC3     C 5883   0.709   1.681  11.533 -0.2321 -0.5946 -0.1575
  390TMC3     O 5884   0.772   1.782  11.500  0.6643 -0.4173 -1.0387
  390TMC3     H 5885   0.513   1.557  11.648  0.3564  0.6682 -0.2127
  390TMC3    H1 5886   0.839   1.800  11.737 -0.7478 -0.6221 -4.3118
  390TMC3    H2 5887   0.561   1.696  12.051 -0.2544  2.8429 -1.2319
  390TMC3    C7 5888   0.792   1.806  12.007  0.4267  0.7314  0.2996
  390TMC3    C8 5889   0.408   1.535  11.894  0.8449  0.0854  0.1751
  390TMC3    O1 5890   0.817   1.742  12.109  0.4911 -0.0393 -0.6675
  390TMC3    O2 5891   0.378   1.439  11.822 -0.8292  0.1915 -0.1242
  391MPD2     C 5892   0.374   3.825  10.717 -0.0799 -0.0905 -0.9277
  391MPD2    C1 5893   0.453   3.931  10.746 -0.9084 -0.1803  0.5189
  391MPD2    C2 5894   0.504   4.010  10.643 -0.2930 -0.2647  0.4301
  391MPD2    C3 5895   0.483   3.978  10.514  0.1711 -0.7441 -0.4551
  391MPD2    C4 5896   0.421   3.860  10.485  0.2749  0.4945  0.3884
  391MPD2    C5 5897   0.375   3.782  10.593 -0.0741  0.3970  0.0865
  391MPD2     H 5898   0.563   4.096  10.672  0.4524 -1.1395  1.4992
  391MPD2    H1 5899   0.389   3.824  10.388 -0.1060 -1.3040  1.1637
  391MPD2    H2 5900   0.319   3.760  10.784  1.7051 -1.5264 -0.8605
  391MPD2    H3 5901   0.317   3.695  10.563 -1.5059  0.2074  3.4293
  391MPD2     N 5902   0.529   4.070  10.416  0.1877  0.2021 -0.1531
  391MPD2    H5 5903   0.583   4.149  10.448 -0.8022  0.9985 -0.4673
  391MPD2    N1 5904   0.474   3.960  10.883  0.2395  0.1583  0.1297
  391MPD2    H7 5905   0.446   3.889  10.950 -2.1650  1.5749  0.6575
  392TMC3    C1 5906   0.523   4.210  10.217 -0.0727  0.6665 -0.6130
  392TMC3    C2 5907   0.439   4.233  10.110 -0.0912 -0.4337  0.8606
  392TMC3    C3 5908   0.426   4.361  10.061  0.0798  0.4356 -0.2471
  392TMC3    C4 5909   0.596   4.309  10.275  0.4397 -0.2402 -0.3258
  392TMC3    C5 5910   0.586   4.426  10.214 -0.1206 -0.9070 -0.4892
  392TMC3    C6 5911   0.488   4.465  10.123  0.3369 -0.1868 -0.3085
  392TMC3     C 5912   0.505   4.075  10.282  0.2528 -0.1445 -0.2702
  392TMC3     O 5913   0.431   3.998  10.227 -0.0521 -0.1950 -0.4462
  392TMC3     H 5914   0.383   4.160  10.053  0.5242 -2.2008  2.5538
  392TMC3    H1 5915   0.662   4.304  10.361 -0.9186 -3.1046  0.5510
  392TMC3    H2 5916   0.465   4.570  10.110 -0.9263 -0.3902  0.2322
  392TMC3    C7 5917   0.651   4.535  10.287  0.3992  0.4870  0.5510
  392TMC3    C8 5918   0.316   4.378   9.967 -0.5990  0.0896 -0.2839
  392TMC3    O1 5919   0.677   4.526  10.405 -0.2458  0.5743  0.2885
  392TMC3    O2 5920   0.270   4.276   9.914 -0.3712  0.5376 -0.4524
  393TMC3    C1 5921   3.797   2.315  10.862  0.1861  0.0675 -0.6733
  393TMC3    C2 5922   3.664   2.290  10.885 -0.5219 -0.5840  0.4498
  393TMC3    C3 5923   3.624   2.183  10.950  0.2473  0.0376 -0.5330
  393TMC3    C4 5924   3.891   2.223  10.903 -0.2395  0.2689  0.9292
  393TMC3    C5 5925   3.850   2.119  10.975 -0.5491  0.6722  1.0011
  393TMC3    C6 5926   3.721   2.094  11.000 -0.6072 -0.2055 -0.3419
  393TMC3     C 5927   3.822   2.424  10.769 -0.4400  0.3020  0.1705
  393TMC3     O 5928   3.739   2.506  10.736  0.4730 -0.1618 -0.3565
  393TMC3     H 5929   3.600   2.369  10.846 -0.5918 -1.4519 -1.2195
  393TMC3    H1 5930   3.996   2.237  10.883  0.6029 -2.6593  3.3002
  393TMC3    H2 5931   3.693   2.011  11.064 -1.3128  0.3301  0.0368
  393TMC3    C7 5932   3.937   2.008  10.996 -0.1142 -0.1458 -0.1762
  393TMC3    C8 5933   3.493   2.167  10.999 -0.1539 -0.6901 -0.3594
  393TMC3    O1 5934   3.888   1.899  10.968 -0.1004 -0.3142  0.7490
  393TMC3    O2 5935   3.469   2.076  11.079 -0.7282  0.3036 -0.4383
  394TMC3    C1 5936   0.743   1.965  10.912 -0.1616 -1.0313 -1.1276
  394TMC3    C2 5937   0.627   1.973  10.841  0.7021  0.2623 -0.2208
  394TMC3    C3 5938   0.634   2.034  10.716 -0.5165  1.0191 -0.5531
  394TMC3    C4 5939   0.860   2.026  10.874  0.1250  0.7164  0.2041
  394TMC3    C5 5940   0.869   2.092  10.752  0.2263 -0.5563  0.0436
  394TMC3    C6 5941   0.751   2.098  10.670  0.6229  0.0695  0.4822
  394TMC3     C 5942   0.764   1.885  11.029  0.1766 -0.1430  0.4387
  394TMC3     O 5943   0.839   1.918  11.123  0.0561  0.4822  0.2075
  394TMC3     H 5944   0.544   1.910  10.870 -0.5094  1.7621 -0.4452
  394TMC3    H1 5945   0.950   2.011  10.932 -0.3851 -2.7508  0.0623
  394TMC3    H2 5946   0.762   2.131  10.568  1.4515  0.8884  0.8411
  394TMC3    C7 5947   0.967   2.192  10.724 -0.4759  0.7495 -0.6487
  394TMC3    C8 5948   0.530   2.016  10.608  0.0982 -0.8943 -0.4833
  394TMC3    O1 5949   0.950   2.264  10.625  0.3278 -0.5647  0.1745
  394TMC3    O2 5950   0.574   2.036  10.496 -0.0147 -0.1130  0.1348
  395TMC3    C1 5951   4.456   4.195  14.724 -0.0652  0.2767 -0.2488
  395TMC3    C2 5952   4.336   4.250  14.681  0.3746  0.6018  0.0971
  395TMC3    C3 5953   4.324   4.388  14.679 -0.0405 -0.2150 -0.0872
  395TMC3    C4 5954   4.566   4.275  14.745 -0.7730  0.4851 -0.1583
  395TMC3    C5 5955   4.551   4.408  14.735  0.0313  0.1305  0.5150
  395TMC3    C6 5956   4.429   4.464  14.710  0.5883 -0.2219 -0.6766
  395TMC3     C 5957   4.432   4.102  14.828 -0.5462  0.3312 -0.4670
  395TMC3     O 5958   4.313   4.090  14.863 -0.2118 -0.3079  0.1823
  395TMC3     H 5959   4.252   4.181  14.675  0.0177  1.0293  0.1417
  395TMC3    H1 5960   4.664   4.233  14.768  0.1825  1.1932 -2.8751
  395TMC3    H2 5961   4.403   4.568  14.730  1.6555 -0.0412 -0.2136
  395TMC3    C7 5962   4.668   4.487  14.762 -0.2283  0.6883  0.2984
  395TMC3    C8 5963   4.190   4.451  14.670  0.3712 -0.2838  0.5853
  395TMC3    O1 5964   0.020   4.443  14.826 -0.5279  0.4019 -0.3953
  395TMC3    O2 5965   4.170   4.552  14.736 -0.2746 -0.2687 -0.1860
  396MPD2     C 5966   4.727   0.632  16.910 -0.0712  0.8570  1.3711
  396MPD2    C1 5967   0.091   0.721  16.914 -0.4294  0.2689  0.8715
  396MPD2    C2 5968   0.121   0.807  16.810 -0.2937  0.1739  0.0699
  396MPD2    C3 5969   0.028   0.818  16.706  0.6511 -0.3681  0.7056
  396MPD2    C4 5970   4.654   0.737  16.705  0.4459  0.3723  0.3166
  396MPD2    C5 5971   4.632   0.649  16.810 -0.0666  0.2049  0.0327
  396MPD2     H 5972   0.199   0.882  16.815 -0.3239  0.2363 -0.4038
  396MPD2    H1 5973   4.574   0.740  16.632  0.8322 -0.5422 -0.1441
  396MPD2    H2 5974   4.717   0.556  16.987 -0.0443 -1.1414 -0.6066
  396MPD2    H3 5975   4.539   0.598  16.829  0.7841 -1.2391  0.3448
  396MPD2     N 5976   0.052   0.923  16.612  0.2952  0.9329  1.2137
  396MPD2    H5 5977   0.145   0.963  16.611  0.9952 -0.8729 -2.5073
  396MPD2    N1 5978   0.182   0.712  17.027  0.1457  0.7050  0.3033
  396MPD2    H7 5979   0.139   0.657  17.101 -1.2832  0.3536 -0.7896
  397TMC3    C1 5980   0.345   0.759  17.183 -0.2179 -0.4591  1.0870
  397TMC3    C2 5981   0.437   0.658  17.194 -0.5677  0.6133  0.1949
  397TMC3    C3 5982   0.428   0.556  17.286 -0.4360  0.3900 -0.0704
  397TMC3    C4 5983   0.230   0.744  17.253 -0.3789  0.3981  0.6303
  397TMC3    C5 5984   0.214   0.641  17.342 -0.9556  0.7372 -0.4328
  397TMC3    C6 5985   0.314   0.551  17.361 -0.1715  0.1644 -0.2843
  397TMC3     C 5986   0.299   0.779  17.050 -0.9740  0.7698 -0.5382
  397TMC3     O 5987   0.369   0.845  16.980 -0.2084 -0.1042 -0.2114
  397TMC3     H 5988   0.536   0.673  17.152  1.3756 -2.3356  3.7813
  397TMC3    H1 5989   0.159   0.826  17.251  0.4895  1.1667  1.2880
  397TMC3    H2 5990   0.306   0.466  17.428  1.0665  0.9674  0.8747
  397TMC3    C7 5991   0.077   0.589  17.346 -0.3671 -0.4319  0.0085
  397TMC3    C8 5992   0.462   0.423  17.242  0.1732 -0.1645 -0.3404
  397TMC3    O1 5993   0.043   0.536  17.241 -0.2808  0.4135 -0.5402
  397TMC3    O2 5994   0.431   0.324  17.311 -0.1668  0.5736  0.1313
  398MPD2     C 5995   2.548   2.002   0.162 -0.1174 -0.4825 -0.3139
  398MPD2    C1 5996   2.660   1.978   0.237  0.3162  0.6055  0.1465
  398MPD2    C2 5997   2.722   2.087   0.297 -0.1779 -1.2145 -0.1788
  398MPD2    C3 5998   2.685   2.216   0.265 -0.1804 -0.1581 -0.0928
  398MPD2    C4 5999   2.573   2.240   0.190 -0.8744 -0.0283 -0.4143
  398MPD2    C5 6000   2.510   2.129   0.135 -0.2823 -0.0386 -0.1789
  398MPD2     H 6001   2.812   2.062   0.352 -0.3367 -0.7145  0.3016
  398MPD2    H1 6002   2.538   2.340   0.169  3.8069  1.6856 -0.0844
  398MPD2    H2 6003   2.488   1.924   0.116  2.4706 -1.3005 -2.3208
  398MPD2    H3 6004   2.425   2.152   0.071 -0.6341  1.5251  0.8614
  398MPD2     N 6005   2.764   2.317   0.315 -1.3048 -0.6872  0.1227
  398MPD2    H5 6006   2.840   2.285   0.376  0.2327  2.2429 -0.2621
  398MPD2    N1 6007   2.714   1.849   0.251  0.2438  0.1601  0.3192
  398MPD2    H7 6008   2.785   1.831   0.320 -2.0750  0.4591  2.7842
  399TMC3    C1 6009   2.732   1.615   0.249 -0.6392 -0.5400 -0.0651
  399TMC3    C2 6010   2.842   1.625   0.324  0.4994 -0.0996  0.2366
  399TMC3    C3 6011   2.872   1.528   0.419 -0.2190  0.2587  0.2960
  399TMC3    C4 6012   2.649   1.505   0.261 -0.0417 -0.1481 -0.9265
  399TMC3    C5 6013   2.677   1.421   0.357  0.3167  0.1295 -0.4388
  399TMC3    C6 6014   2.787   1.431   0.445 -0.5810 -0.0201 -0.2924
  399TMC3     C 6015   2.663   1.733   0.197 -0.2861  0.2396  0.7106
  399TMC3     O 6016   2.579   1.726   0.107 -0.3679  0.2163 -0.4679
  399TMC3     H 6017   2.913   1.702   0.296 -1.8173  2.3280  0.9948
  399TMC3    H1 6018   2.573   1.494   0.185  1.1864  0.3555 -2.2304
  399TMC3    H2 6019   2.797   1.357   0.524  1.3044 -0.9348 -1.3987
  399TMC3    C7 6020   2.611   1.294   0.368 -0.7293 -0.4543 -0.1232
  399TMC3    C8 6021   3.010   1.520   0.458  0.1637 -0.2542  0.3053
  399TMC3    O1 6022   2.621   1.235   0.473 -0.7644 -0.3982 -0.0963
  399TMC3    O2 6023   3.062   1.627   0.473  0.2363  0.9342  0.4049
  400TMC3    C1 6024   1.170   0.062  16.721  0.7070  0.2813  0.9139
  400TMC3    C2 6025   1.087   4.698  16.687 -0.4827  0.1686 -0.1580
  400TMC3    C3 6026   1.010   4.721  16.576 -0.3420 -1.3263 -0.1386
  400TMC3    C4 6027   1.167   0.186  16.666 -0.1461  0.7969  0.0923
  400TMC3    C5 6028   1.080   0.199  16.563 -0.0884  0.0016  0.4421
  400TMC3    C6 6029   0.992   0.105  16.515 -0.2310  1.0445  0.3114
  400TMC3     C 6030   1.242   0.034  16.841 -0.9026  0.0876  0.4380
  400TMC3     O 6031   1.193   4.697  16.924  0.1639  0.8775  0.3597
  400TMC3     H 6032   1.110   4.604  16.737 -0.1899 -0.2419 -1.0736
  400TMC3    H1 6033   1.231   0.265  16.706 -1.1446  1.8674 -0.4278
  400TMC3    H2 6034   0.926   0.128  16.431 -0.1424  3.0711  0.7876
  400TMC3    C7 6035   1.062   0.334  16.491 -0.0624 -0.6192  0.3920
  400TMC3    C8 6036   0.897   4.632  16.553 -0.1764 -0.0053 -0.4211
  400TMC3    O1 6037   1.005   0.337  16.378  0.5084 -0.4245  0.0904
  400TMC3    O2 6038   0.839   4.630  16.443 -0.0691  0.1686  0.2391
  401MPD2     C 6039   4.018   3.571   0.624  0.4254  1.1477  0.5691
  401MPD2    C1 6040   4.130   3.522   0.688  0.1716 -0.0717 -0.5439
  401MPD2    C2 6041   4.134   3.381   0.696 -0.5880  0.1903 -0.4878
  401MPD2    C3 6042   4.051   3.297   0.634 -0.0696  0.1416  0.2566
  401MPD2    C4 6043   3.942   3.355   0.572  0.7445  0.4594  0.1848
  401MPD2    C5 6044   3.927   3.485   0.577  0.1263  0.2676 -0.5158
  401MPD2     H 6045   4.220   3.332   0.741 -0.0866  0.8060 -0.7624
  401MPD2    H1 6046   3.863   3.309   0.513  0.4858 -0.8733  1.5683
  401MPD2    H2 6047   3.990   3.676   0.620  0.5429  1.1992  1.1708
  401MPD2    H3 6048   3.846   3.526   0.518 -0.4926 -0.3297 -0.0806
  401MPD2     N 6049   4.074   3.159   0.638  0.2789 -0.1818 -0.6147
  401MPD2    H5 6050   4.143   3.117   0.700  0.5240 -1.8839 -2.0509
  401MPD2    N1 6051   4.225   3.604   0.754  0.5448  0.2822 -0.4509
  401MPD2    H7 6052   4.298   3.555   0.806 -0.5496 -2.6357 -1.6493
  402TMC3    C1 6053   4.046   2.941   0.575  0.3133 -0.1481  0.1705
  402TMC3    C2 6054   4.046   2.877   0.697  0.3268  0.2155 -0.4866
  402TMC3    C3 6055   4.062   2.738   0.703  0.1559 -0.4154 -0.2507
  402TMC3    C4 6056   4.057   2.869   0.459  0.6301  0.3532 -0.0550
  402TMC3    C5 6057   4.076   2.734   0.470 -0.4068 -0.2609 -0.0036
  402TMC3    C6 6058   4.077   2.673   0.590  0.6245  0.2766 -0.5662
  402TMC3     C 6059   4.012   3.074   0.549 -0.8102  0.1218  0.1024
  402TMC3     O 6060   3.962   3.106   0.442 -0.6141  0.1707  0.4423
  402TMC3     H 6061   4.036   2.932   0.790  0.5913  1.4387 -1.1872
  402TMC3    H1 6062   4.069   2.916   0.362 -1.6540  0.4233 -0.3071
  402TMC3    H2 6063   4.106   2.569   0.597 -1.3293 -0.2445 -0.5260
  402TMC3    C7 6064   4.161   2.682   0.368 -0.1283  0.0446  0.3597
  402TMC3    C8 6065   4.139   2.678   0.805 -0.3656 -1.0468 -0.4192
  402TMC3    O1 6066   4.165   2.735   0.255 -0.8370  0.6581 -0.4061
  402TMC3    O2 6067   4.251   2.633   0.778  0.1866  0.2298  0.0946
  403MPD2     C 6068   2.768   1.016  13.374 -0.7070  0.5797  0.0196
  403MPD2    C1 6069   2.805   1.020  13.511 -0.3057  0.3034  0.0255
  403MPD2    C2 6070   2.882   1.119  13.560 -0.4634 -0.1224  0.0391
  403MPD2    C3 6071   2.932   1.215  13.472  0.7917 -0.1733  0.2325
  403MPD2    C4 6072   2.899   1.218  13.337  0.7128 -0.0529  0.4220
  403MPD2    C5 6073   2.819   1.115  13.294  0.3744  0.1358 -0.3263
  403MPD2     H 6074   2.896   1.123  13.667  1.3590 -0.8480 -0.1822
  403MPD2    H1 6075   2.932   1.292  13.265  0.9566  0.2230  0.8172
  403MPD2    H2 6076   2.717   0.929  13.333 -0.9764  1.6424 -1.8826
  403MPD2    H3 6077   2.809   1.112  13.186 -1.6862 -0.9203 -0.0947
  403MPD2     N 6078   3.018   1.316  13.520  0.2163  0.2570  0.5332
  403MPD2    H5 6079   3.063   1.305  13.610 -2.2978  0.6662  1.8343
  403MPD2    N1 6080   2.753   0.914  13.586  0.0001 -0.3007 -0.3479
  403MPD2    H7 6081   2.683   0.859  13.536 -0.0234 -1.6722  1.2258
  404TMC3    C1 6082   2.711   0.760  13.761  0.2380  0.1431  0.4021
  404TMC3    C2 6083   2.695   0.734  13.894 -0.6062 -0.5051  0.1980
  404TMC3    C3 6084   2.641   0.608  13.929  0.2343 -0.3660  0.1755
  404TMC3    C4 6085   2.677   0.665  13.668 -0.1102  0.4025  0.3586
  404TMC3    C5 6086   2.624   0.545  13.711  0.1273 -0.6520  0.3390
  404TMC3    C6 6087   2.617   0.515  13.842 -0.3447  0.7544 -0.2539
  404TMC3     C 6088   2.790   0.879  13.714 -0.0030  1.0018 -0.4930
  404TMC3     O 6089   2.841   0.949  13.805 -0.0196 -0.1435 -0.2047
  404TMC3     H 6090   2.745   0.795  13.968  0.7417 -0.8223 -0.4504
  404TMC3    H1 6091   2.700   0.676  13.563 -0.7493 -1.3159  0.0489
  404TMC3    H2 6092   2.575   0.417  13.862  0.2002  0.3584 -1.0181
  404TMC3    C7 6093   2.580   0.443  13.615 -0.2163 -0.0723 -0.4560
  404TMC3    C8 6094   2.659   0.555  14.062  0.6898 -0.2570  0.3140
  404TMC3    O1 6095   2.572   0.327  13.657  0.1726  0.3608  0.1763
  404TMC3    O2 6096   2.676   0.433  14.072 -0.7715  0.3882  0.3074
  405MPD2     C 6097   3.102   2.098  14.766 -0.1476  0.2935  0.1290
  405MPD2    C1 6098   3.075   2.017  14.658  0.2700 -0.0467 -0.2766
  405MPD2    C2 6099   3.025   2.068  14.542  0.6339  0.2354  0.4492
  405MPD2    C3 6100   2.988   2.202  14.537  0.5794 -1.0594 -0.4963
  405MPD2    C4 6101   2.996   2.280  14.647  0.0295 -0.0259  0.3591
  405MPD2    C5 6102   3.059   2.228  14.760  0.2215 -0.1173 -0.0013
  405MPD2     H 6103   2.998   2.009  14.455  0.1066 -1.4906  1.7699
  405MPD2    H1 6104   2.968   2.385  14.654  1.0705  0.2503  0.2896
  405MPD2    H2 6105   3.141   2.066  14.862  2.0295 -0.6276 -1.0706
  405MPD2    H3 6106   3.074   2.292  14.847  0.2403 -0.5405  0.3078
  405MPD2     N 6107   2.926   2.237  14.415 -0.2813  0.0347  0.2631
  405MPD2    H5 6108   2.931   2.168  14.340  1.2422  0.4826 -0.0412
  405MPD2    N1 6109   3.097   1.875  14.676 -0.0799  0.1553  0.1750
  405MPD2    H7 6110   3.137   1.849  14.766 -2.2298 -0.7672  0.8680
  406TMC3    C1 6111   2.591   2.372  14.160  0.7233 -0.5671  0.1023
  406TMC3    C2 6112   2.636   2.308  14.048 -0.1806  0.2807  0.0281
  406TMC3    C3 6113   2.753   2.245  14.064  0.2059  0.0165  0.7809
  406TMC3    C4 6114   2.666   2.400  14.268  0.4719 -0.7740 -0.7934
  406TMC3    C5 6115   2.792   2.358  14.264 -0.1693 -0.6464 -1.0755
  406TMC3    C6 6116   2.839   2.269  14.166  1.4803  0.6402 -0.4030
  406TMC3     C 6117   2.454   2.416  14.149 -0.3638  0.1981 -0.3214
  406TMC3     O 6118   2.418   2.469  14.044  0.3554 -0.3887  0.1754
  406TMC3     H 6119   2.573   2.295  13.961 -1.4182  0.3008  0.9252
  406TMC3    H1 6120   2.622   2.457  14.349 -0.0810  0.1292 -1.7262
  406TMC3    H2 6121   2.947   2.260  14.156  1.2297 -3.9211  1.1008
  406TMC3    C7 6122   2.858   2.354  14.395  0.6664  0.4256  0.0876
  406TMC3    C8 6123   2.711   2.106  14.046 -0.1577  0.1409  0.5722
  406TMC3    O1 6124   2.829   2.441  14.476  0.1114  0.5490  0.3053
  406TMC3    O2 6125   2.608   2.071  13.980  0.1429 -0.6639  0.1387
  407MPD2     C 6126   0.927   3.995  10.313  0.1592  0.1668  0.0741
  407MPD2    C1 6127   1.004   4.108  10.276 -0.6077 -0.0190  0.6755
  407MPD2    C2 6128   1.014   4.218  10.356  0.6657  0.3707  0.0401
  407MPD2    C3 6129   0.943   4.217  10.473 -0.0214  0.2037 -1.2003
  407MPD2    C4 6130   0.871   4.108  10.515  0.1457 -0.4588  0.7687
  407MPD2    C5 6131   0.868   3.997  10.439  0.1787  0.1595  0.2827
  407MPD2     H 6132   1.074   4.303  10.327  0.1388  1.1984  1.3517
  407MPD2    H1 6133   0.828   4.108  10.614 -0.5741 -2.2084  0.4567
  407MPD2    H2 6134   0.918   3.908  10.249 -0.5935  0.9029 -0.7959
  407MPD2    H3 6135   0.816   3.906  10.467  0.4993  0.1729  0.9115
  407MPD2     N 6136   0.945   4.330  10.557 -0.2548 -0.1218  0.5416
  407MPD2    H5 6137   0.932   4.308  10.656 -1.7739 -0.0047  0.3666
  407MPD2    N1 6138   1.067   4.108  10.149 -0.4443 -0.0163 -0.0530
  407MPD2    H7 6139   1.124   4.186  10.119 -2.1868  0.8239 -1.2309
  408TMC3    C1 6140   1.182   4.026   9.959 -0.3223  0.1032 -0.2391
  408TMC3    C2 6141   1.186   3.946   9.844 -0.3218 -0.1600 -0.2749
  408TMC3    C3 6142   1.292   3.967   9.755 -0.9193 -0.3706  0.3116
  408TMC3    C4 6143   1.283   4.114   9.982  0.3524 -0.6904  0.2621
  408TMC3    C5 6144   1.379   4.132   9.893  0.3276  0.5864  0.4367
  408TMC3    C6 6145   1.378   4.072   9.769 -0.3098 -0.0759 -0.0660
  408TMC3     C 6146   1.075   4.001  10.058  0.3180 -0.2984  0.2723
  408TMC3     O 6147   1.016   3.892  10.051  0.6444 -0.0428 -0.0939
  408TMC3     H 6148   1.118   3.862   9.830 -1.0865  0.2204  1.1835
  408TMC3    H1 6149   1.297   4.160  10.079  1.0457 -0.5520  0.0960
  408TMC3    H2 6150   1.441   4.117   9.693  0.5577  3.8834  2.9951
  408TMC3    C7 6151   1.501   4.194   9.913  0.3539  0.0585 -0.1117
  408TMC3    C8 6152   1.361   3.850   9.696  0.2985  0.4169 -0.0877
  408TMC3    O1 6153   1.602   4.169   9.843 -0.3032  0.4501 -0.1359
  408TMC3    O2 6154   1.288   3.751   9.679 -0.6392 -0.5815 -0.5878
  409MPD2     C 6155   0.294   4.124  16.639  0.2582 -0.1907 -0.0059
  409MPD2    C1 6156   0.325   4.202  16.751  0.3518  0.6904  0.1193
  409MPD2    C2 6157   0.368   4.330  16.738 -0.3098 -0.2740 -0.2210
  409MPD2    C3 6158   0.388   4.385  16.609 -0.3002  0.1005  0.2899
  409MPD2    C4 6159   0.370   4.304  16.501  0.1135 -0.8081 -0.6057
  409MPD2    C5 6160   0.315   4.179  16.515 -0.0864  0.2220  0.1788
  409MPD2     H 6161   0.381   4.391  16.827 -1.4959  0.9718 -0.9012
  409MPD2    H1 6162   0.402   4.331  16.401 -0.2789 -0.4735 -0.6378
  409MPD2    H2 6163   0.252   4.025  16.656  3.2819 -1.1937  1.5741
  409MPD2    H3 6164   0.292   4.117  16.429 -0.6237  0.5594  0.0820
  409MPD2     N 6165   0.433   4.514  16.583  0.0446  0.1182  0.1788
  409MPD2    H5 6166   0.450   4.538  16.486  3.1231  0.1469  0.7401
  409MPD2    N1 6167   0.309   4.157  16.888 -0.2815  0.1923 -0.3967
  409MPD2    H7 6168   0.328   4.225  16.961 -0.0916  0.4281 -0.6659
  410TMC3    C1 6169   0.537   4.730  16.644 -0.4654 -0.3418 -0.0438
  410TMC3    C2 6170   0.614   0.055  16.739 -0.4600  0.4323 -1.1870
  410TMC3    C3 6171   0.690   0.161  16.694  0.0710  0.0638 -0.6125
  410TMC3    C4 6172   0.515   0.034  16.516  0.4830 -0.9089 -0.8571
  410TMC3    C5 6173   0.596   0.135  16.479 -0.4915  0.3360  0.0466
  410TMC3    C6 6174   0.676   0.210  16.565  0.3557  0.5026 -0.2544
  410TMC3     C 6175   0.468   4.602  16.686 -0.1690 -0.1971 -0.0757
  410TMC3     O 6176   0.456   4.593  16.806  0.4035 -0.6022 -0.0508
  410TMC3     H 6177   0.633   0.013  16.837  1.7741 -0.2842 -1.9422
  410TMC3    H1 6178   0.436   4.730  16.455 -0.1689 -2.2551  0.9031
  410TMC3    H2 6179   0.750   0.282  16.533  3.1021 -2.2161 -0.0621
  410TMC3    C7 6180   0.607   0.159  16.335  0.0504  0.6928 -0.3887
  410TMC3    C8 6181   0.779   0.232  16.785 -0.1870  0.1155 -0.5664
  410TMC3    O1 6182   0.560   0.067  16.274  0.0511  0.2627 -0.0339
  410TMC3    O2 6183   0.836   0.335  16.746  0.8257 -0.1504 -0.2422
  411MPD2     C 6184   0.888   0.145  14.796 -0.8110  0.6121  0.3361
  411MPD2    C1 6185   0.759   0.148  14.743  0.1228  0.2687  0.2955
  411MPD2    C2 6186   0.695   0.026  14.728  0.8246 -0.0068  0.1905
  411MPD2    C3 6187   0.752   4.642  14.765  0.4269 -0.4499  0.7032
  411MPD2    C4 6188   0.880   4.640  14.812  0.5285 -0.8250  0.0104
  411MPD2    C5 6189   0.947   0.020  14.822  0.5012 -0.3678 -0.4954
  411MPD2     H 6190   0.597   0.026  14.683  0.6986  1.3611  0.4490
  411MPD2    H1 6191   0.915   4.548  14.858  1.2040 -0.3745  0.3963
  411MPD2    H2 6192   0.951   0.233  14.800 -1.6177  1.2816 -1.4340
  411MPD2    H3 6193   1.052   0.017  14.849 -0.2533  0.9329  2.6488
  411MPD2     N 6194   0.679   4.520  14.764 -0.2449 -1.1417  0.4817
  411MPD2    H5 6195   0.724   4.434  14.793  1.4509 -0.3629  0.1519
  411MPD2    N1 6196   0.680   0.258  14.701  0.2400  0.4076 -0.3123
  411MPD2    H7 6197   0.586   0.234  14.674  1.4388 -0.4519 -3.7084
  412TMC3    C1 6198   0.497   4.376  14.750  0.8487  0.3841  0.6307
  412TMC3    C2 6199   0.563   4.260  14.765 -0.0433 -0.6878 -1.0231
  412TMC3    C3 6200   0.490   4.142  14.745  0.4727  0.2282 -0.5359
  412TMC3    C4 6201   0.361   4.383  14.737  0.0888  0.5363  0.7114
  412TMC3    C5 6202   0.293   4.268  14.729  0.3121 -0.2428 -0.8762
  412TMC3    C6 6203   0.351   4.148  14.735 -0.4986 -0.0294 -0.1586
  412TMC3     C 6204   0.553   4.506  14.728 -0.2090  0.2755 -0.1126
  412TMC3     O 6205   0.474   4.588  14.680  0.2020  0.1993  0.1473
  412TMC3     H 6206   0.671   4.255  14.756  0.1634  0.6895  0.7323
  412TMC3    H1 6207   0.316   4.480  14.751  0.9079  0.9204  0.6598
  412TMC3    H2 6208   0.290   4.061  14.757 -0.8342 -0.0982 -1.4008
  412TMC3    C7 6209   0.202   4.260  14.613  0.3286  0.1047 -0.9208
  412TMC3    C8 6210   0.536   4.031  14.669  1.0724  0.6755  0.1348
  412TMC3    O1 6211   0.195   4.145  14.564  0.0008 -0.1066  0.0856
  412TMC3    O2 6212   0.658   4.015  14.668  0.3168 -0.2309  1.0898
  413MPD2     C 6213   1.558   2.836  15.374  0.6925 -0.0220  0.4886
  413MPD2    C1 6214   1.642   2.942  15.380 -0.1670  0.3612 -0.9041
  413MPD2    C2 6215   1.777   2.923  15.350 -0.2210  0.3621 -0.3335
  413MPD2    C3 6216   1.836   2.796  15.345  0.5726  0.2094 -0.7648
  413MPD2    C4 6217   1.747   2.686  15.363  0.6073  0.9396  0.2926
  413MPD2    C5 6218   1.604   2.709  15.365 -0.2755  0.5116 -0.2459
  413MPD2     H 6219   1.843   3.009  15.343 -0.1037  0.2021 -1.3057
  413MPD2    H1 6220   1.778   2.582  15.363 -2.1405  0.1379  1.6612
  413MPD2    H2 6221   1.450   2.840  15.381  0.4744  1.2725 -3.3126
  413MPD2    H3 6222   1.541   2.621  15.358  0.2754  0.1814 -1.1399
  413MPD2     N 6223   1.974   2.775  15.328 -0.0272  0.6671  0.1521
  413MPD2    H5 6224   2.023   2.856  15.294 -1.0177  1.4339  0.5404
  413MPD2    N1 6225   1.581   3.073  15.375 -0.2013 -0.1197 -0.5993
  413MPD2    H7 6226   1.487   3.072  15.412 -0.8475  2.3597 -2.1489
  414TMC3    C1 6227   2.176   2.661  15.318  0.3813  0.5429 -0.4253
  414TMC3    C2 6228   2.262   2.559  15.357  0.3733 -0.1683 -0.4663
  414TMC3    C3 6229   2.381   2.547  15.293  0.2644 -0.6821 -0.3811
  414TMC3    C4 6230   2.213   2.741  15.213  0.0008 -0.9139  0.1279
  414TMC3    C5 6231   2.337   2.720  15.157 -0.7004 -0.3602 -0.5394
  414TMC3    C6 6232   2.420   2.627  15.200  0.1826 -0.3525  0.3376
  414TMC3     C 6233   2.038   2.660  15.366 -0.1073  1.0769  0.5423
  414TMC3     O 6234   1.999   2.568  15.432 -0.1212  0.1366 -0.3294
  414TMC3     H 6235   2.234   2.484  15.430 -0.7574  0.4493 -0.2476
  414TMC3    H1 6236   2.149   2.820  15.175  0.0692 -1.5055 -1.2218
  414TMC3    H2 6237   2.509   2.603  15.143 -1.5053  0.2876 -2.5728
  414TMC3    C7 6238   2.409   2.825  15.077  0.2768 -0.0285 -0.0454
  414TMC3    C8 6239   2.469   2.435  15.320  0.2175 -0.2256 -0.7480
  414TMC3    O1 6240   2.523   2.800  15.039  0.1975  0.2977 -0.1407
  414TMC3    O2 6241   2.551   2.404  15.238 -0.2236  0.4293  0.3630
  415TMC3    C1 6242   3.634   1.473  10.991  0.2986 -0.4171 -0.1309
  415TMC3    C2 6243   3.636   1.609  10.955  0.0895  0.1948  0.4092
  415TMC3    C3 6244   3.679   1.634  10.826  0.0356  0.3631  0.1813
  415TMC3    C4 6245   3.663   1.373  10.899  0.2300  0.0564 -0.1937
  415TMC3    C5 6246   3.703   1.401  10.775 -0.4221  0.2321  0.0495
  415TMC3    C6 6247   3.714   1.535  10.736  0.2849 -1.3601 -0.4879
  415TMC3     C 6248   3.610   1.440  11.130 -0.4523  0.0175  0.2400
  415TMC3     O 6249   3.556   1.334  11.154 -0.6543 -0.2195  0.3359
  415TMC3     H 6250   3.614   1.689  11.024  0.1330  1.1257 -0.6557
  415TMC3    H1 6251   3.670   1.273  10.940 -1.2627  1.1545  2.7622
  415TMC3    H2 6252   3.748   1.564  10.637 -0.9486  1.6056 -0.0377
  415TMC3    C7 6253   3.656   1.318  10.673 -0.1154 -0.1316  0.0284
  415TMC3    C8 6254   3.633   1.765  10.777 -0.4562 -0.1418  0.2214
  415TMC3    O1 6255   3.662   1.370  10.563  0.0579 -0.3327 -0.0759
  415TMC3    O2 6256   3.519   1.796  10.812  0.3560  0.2029 -0.0904
  416MPD2     C 6257   0.161   0.343  11.377  0.2688 -0.3589  0.1431
  416MPD2    C1 6258   0.086   0.242  11.435 -0.0183  0.3236  0.1744
  416MPD2    C2 6259   0.096   0.114  11.391 -0.1587  0.0605  0.3475
  416MPD2    C3 6260   0.180   0.083  11.282 -0.4709 -0.2093  0.4049
  416MPD2    C4 6261   0.245   0.183  11.220 -0.1325 -0.0387 -0.0104
  416MPD2    C5 6262   0.247   0.310  11.277  0.6060  0.2406 -0.1785
  416MPD2     H 6263   0.027   0.037  11.423  0.1299  1.0485  3.3256
  416MPD2    H1 6264   0.310   0.170  11.134 -0.2910 -1.6437  0.1175
  416MPD2    H2 6265   0.158   0.447  11.407  0.4082 -0.8556  1.8596
  416MPD2    H3 6266   0.301   0.394  11.235  1.0557 -0.4819 -1.0480
  416MPD2     N 6267   0.191   4.694  11.218  0.5612 -0.2164 -0.5300
  416MPD2    H5 6268   0.242   4.690  11.130 -1.0693 -0.5520 -1.4624
  416MPD2    N1 6269   0.000   0.283  11.539  0.8934 -0.9053 -0.4058
  416MPD2    H7 6270   4.726   0.382  11.558  0.4906 -0.6902 -1.8347
  417TMC3    C1 6271   4.571   0.281  11.700 -0.2011  0.0959  0.4860
  417TMC3    C2 6272   4.540   0.238  11.830  0.1315  0.2768  0.0195
  417TMC3    C3 6273   4.464   0.317  11.913  0.0998  0.6954 -0.1057
  417TMC3    C4 6274   4.512   0.399  11.649 -0.3113 -0.4145 -0.0123
  417TMC3    C5 6275   4.434   0.475  11.736  0.5492 -0.0920 -0.9921
  417TMC3    C6 6276   4.412   0.439  11.870 -0.4785  0.3376 -0.2008
  417TMC3     C 6277   4.658   0.200  11.616 -0.0340 -0.2298 -0.4001
  417TMC3     O 6278   4.675   0.082  11.631 -0.5741  0.6641 -0.7558
  417TMC3     H 6279   4.576   0.138  11.854  2.2468  1.1818  0.6539
  417TMC3    H1 6280   4.524   0.433  11.546 -0.5049 -2.1468 -0.6036
  417TMC3    H2 6281   4.342   0.500  11.926 -0.8994  0.8361 -1.2684
  417TMC3    C7 6282   4.385   0.606  11.688  0.0117 -0.7563 -0.9010
  417TMC3    C8 6283   4.446   0.276  12.050 -0.6703 -1.0935  0.2561
  417TMC3    O1 6284   4.447   0.658  11.598 -0.1219  0.0637 -0.0917
  417TMC3    O2 6285   4.368   0.338  12.120  0.0327 -0.0469 -0.1890
  418TMC3    C1 6286   3.057   2.575   0.204 -0.8590  0.1867  0.4636
  418TMC3    C2 6287   2.928   2.587   0.226  0.0574 -0.3059 -0.7174
  418TMC3    C3 6288   2.869   2.522   0.334  0.1177 -0.6195 -0.1321
  418TMC3    C4 6289   3.142   2.530   0.294  0.4714  0.0085 -0.5878
  418TMC3    C5 6290   3.083   2.476   0.412  0.0393  0.4637 -0.0669
  418TMC3    C6 6291   2.946   2.463   0.431 -0.0429 -0.1227  0.2731
  418TMC3     C 6292   3.098   2.592   0.068  0.2087  0.2709  0.9204
  418TMC3     O 6293   3.064   2.693   0.005  0.2764  0.0332 -0.2676
  418TMC3     H 6294   2.864   2.619   0.144  0.3156  1.5949 -0.1839
  418TMC3    H1 6295   3.250   2.530   0.294  0.4664  1.8950 -0.3367
  418TMC3    H2 6296   2.895   2.407   0.509  1.6651  1.3206  2.4139
  418TMC3    C7 6297   3.178   2.407   0.501  0.4172 -0.1822  0.0232
  418TMC3    C8 6298   2.754   2.449   0.282 -0.1573 -0.4035 -0.2083
  418TMC3    O1 6299   3.295   2.394   0.462  0.2480 -0.3698  0.0866
  418TMC3    O2 6300   2.669   2.510   0.221  0.4052  0.3455 -0.3409
  419MPD2     C 6301   1.713   4.454  12.787 -0.4398  0.0093 -0.6212
  419MPD2    C1 6302   1.708   4.589  12.747 -0.9627  0.2606  0.0736
  419MPD2    C2 6303   1.719   4.682  12.851 -0.2316 -0.5442 -0.2853
  419MPD2    C3 6304   1.724   4.635  12.982 -0.5441  0.1025 -0.0393
  419MPD2    C4 6305   1.732   4.501  13.016 -0.4288  0.1693  0.4183
  419MPD2    C5 6306   1.722   4.414  12.915  0.6710 -0.0725 -0.4077
  419MPD2     H 6307   1.711   0.048  12.822  1.4111  0.1228  1.6879
  419MPD2    H1 6308   1.738   4.457  13.115  0.5174  0.2536  0.3972
  419MPD2    H2 6309   1.698   4.369  12.722 -0.0536 -0.7181  0.2533
  419MPD2    H3 6310   1.739   4.308  12.933 -2.3230 -0.8121 -1.9792
  419MPD2     N 6311   1.742   4.738  13.079  0.7213 -0.6078 -0.0338
  419MPD2    H5 6312   1.735   0.096  13.047  0.2249 -0.6079  0.0718
  419MPD2    N1 6313   1.690   4.637  12.615  0.0419  0.4866  0.2973
  419MPD2    H7 6314   1.695   4.738  12.607 -1.8758  0.6813  1.6371
  420TMC3    C1 6315   1.720   0.087  13.294 -0.2993 -0.5923  0.0811
  420TMC3    C2 6316   1.612   0.166  13.265  0.2667  0.2578  0.1598
  420TMC3    C3 6317   1.590   0.267  13.348  0.6131 -0.5377  0.2663
  420TMC3    C4 6318   1.807   0.119  13.393  0.3436  0.1649  0.8606
  420TMC3    C5 6319   1.777   0.225  13.473  0.3669  0.1071 -0.7475
  420TMC3    C6 6320   1.676   0.313  13.443  0.0800  0.3987  0.8574
  420TMC3     C 6321   1.756   4.711  13.208 -0.8108  0.2620 -0.0962
  420TMC3     O 6322   1.803   4.614  13.265  0.2134  0.5548  0.3534
  420TMC3     H 6323   1.547   0.143  13.181  0.9978 -1.2505  0.0250
  420TMC3    H1 6324   1.882   0.048  13.425  0.2596  0.4328  1.6454
  420TMC3    H2 6325   1.641   0.396  13.504  0.8496  2.5722 -1.6570
  420TMC3    C7 6326   1.847   0.246  13.593  0.3398 -0.8924 -0.1630
  420TMC3    C8 6327   1.478   0.351  13.326 -0.3160  0.2493 -0.1291
  420TMC3    O1 6328   1.909   0.153  13.640 -0.2998  0.0018  0.3339
  420TMC3    O2 6329   1.489   0.473  13.340 -0.2293  0.1153  0.3103
  421TMC3    C1 6330   3.147   1.508  13.516 -0.2342  0.1591  0.2690
  421TMC3    C2 6331   3.136   1.648  13.495  0.4964 -1.2060 -0.4041
  421TMC3    C3 6332   3.207   1.736  13.575  0.5032 -1.2452 -0.1484
  421TMC3    C4 6333   3.231   1.452  13.606 -0.1912  0.3408  0.1443
  421TMC3    C5 6334   3.298   1.542  13.684  0.4166  0.1721 -0.1440
  421TMC3    C6 6335   3.280   1.678  13.676  0.8739 -0.3338  0.2968
  421TMC3     C 6336   3.047   1.430  13.453 -0.3184  0.5710  0.1404
  421TMC3     O 6337   2.997   1.483  13.358  0.2192  0.4650 -0.0095
  421TMC3     H 6338   3.087   1.697  13.413  2.1363  0.1700 -0.5610
  421TMC3    H1 6339   3.248   1.345  13.598 -0.6956  0.3627 -1.2275
  421TMC3    H2 6340   3.323   1.749  13.746  0.8972  0.0935 -0.1464
  421TMC3    C7 6341   3.425   1.507  13.748  0.2303  0.2332 -0.0021
  421TMC3    C8 6342   3.160   1.868  13.603  0.2335  0.2424  0.1797
  421TMC3    O1 6343   3.512   1.589  13.764  0.3272 -0.4050 -0.3829
  421TMC3    O2 6344   3.225   1.937  13.685  0.1437  0.3106  0.0637
  422TMC3    C1 6345   1.093   3.453  12.085  1.3253  0.5551 -0.4203
  422TMC3    C2 6346   1.067   3.507  12.205  0.0297 -0.8489  0.1401
  422TMC3    C3 6347   0.942   3.543  12.231  0.1856 -0.8663  0.4503
  422TMC3    C4 6348   0.997   3.443  11.989 -0.2878  0.0343 -0.1138
  422TMC3    C5 6349   0.871   3.487  12.019  0.0384  0.6356  0.1218
  422TMC3    C6 6350   0.841   3.543  12.146  0.2182  0.4088 -0.3010
  422TMC3     C 6351   1.229   3.410  12.076 -0.0180  1.0323  0.5036
  422TMC3     O 6352   1.288   3.402  12.179 -0.1926 -0.1512 -0.3947
  422TMC3     H 6353   1.144   3.542  12.272 -0.4551  0.7371 -0.1379
  422TMC3    H1 6354   1.011   3.396  11.892 -0.5044  0.4207 -0.3277
  422TMC3    H2 6355   0.740   3.574  12.170 -0.2553 -1.0926 -0.3124
  422TMC3    C7 6356   0.754   3.423  11.962 -0.1975  0.0539  0.2493
  422TMC3    C8 6357   0.913   3.584  12.370  0.1286 -0.1282  0.1661
  422TMC3    O1 6358   0.712   3.457  11.853  0.0874 -0.4494 -0.4342
  422TMC3    O2 6359   0.820   3.663  12.383 -0.4163  0.0904 -0.2637
  423MPD2     C 6360   1.252   4.042   0.160  0.5389 -0.4570 -0.1074
  423MPD2    C1 6361   1.352   4.007   0.247 -0.0130  0.4454 -0.2161
  423MPD2    C2 6362   1.471   3.970   0.193 -0.4839 -0.3041 -1.0777
  423MPD2    C3 6363   1.495   3.961   0.054 -1.1380 -0.3587  0.5408
  423MPD2    C4 6364   1.400   4.007  17.722  0.6750  0.5795  0.2861
  423MPD2    C5 6365   1.285   4.053   0.024  1.1143  0.5323 -0.0744
  423MPD2     H 6366   1.542   3.938   0.268  0.1489  0.5572 -1.3117
  423MPD2    H1 6367   1.406   4.011  17.614 -0.8991  0.8980  0.2023
  423MPD2    H2 6368   1.158   4.081   0.197  0.2225 -0.2548 -1.1292
  423MPD2    H3 6369   1.209   4.087  17.705  1.1585  1.0060  0.1087
  423MPD2     N 6370   1.613   3.909  17.749  0.2836  0.1111  0.0320
  423MPD2    H5 6371   1.630   3.912  17.649  2.4796  0.7886  0.4106
  423MPD2    N1 6372   1.344   3.995   0.388  0.2347 -0.8605  0.0040
  423MPD2    H7 6373   1.426   3.949   0.426  0.9490 -0.2052 -0.7594
  424TMC3    C1 6374   1.273   4.057   0.617  0.0352  0.1358 -0.2059
  424TMC3    C2 6375   1.392   4.028   0.661 -0.0335  0.1096  0.6137
  424TMC3    C3 6376   1.422   4.062   0.787 -0.0789 -0.0616  0.4353
  424TMC3    C4 6377   1.168   4.109   0.695 -0.7858 -0.3116  0.3263
  424TMC3    C5 6378   1.203   4.152   0.825  0.2140  0.5730  0.6548
  424TMC3    C6 6379   1.333   4.123   0.868 -0.3243  0.1208  0.6302
  424TMC3     C 6380   1.236   4.038   0.476  0.2353  0.5030 -0.3839
  424TMC3     O 6381   1.119   4.071   0.443  0.1849  0.1880  0.4258
  424TMC3     H 6382   1.456   3.974   0.592 -2.7261  0.3697 -2.0586
  424TMC3    H1 6383   1.069   4.130   0.658 -1.3918 -2.9163  0.4128
  424TMC3    H2 6384   1.361   4.148   0.970  1.5894  5.0009 -1.1020
  424TMC3    C7 6385   1.099   4.171   0.921  0.3425  0.7697  0.2519
  424TMC3    C8 6386   1.567   4.036   0.812  0.3528  0.9798 -0.8550
  424TMC3    O1 6387   1.132   4.143   1.033  0.6225  0.5469  0.2401
  424TMC3    O2 6388   1.634   3.981   0.724 -0.0827  0.3178 -0.4933
  425MPD2     C 6389   1.025   3.106  17.546 -0.6224 -0.1103 -0.0736
  425MPD2    C1 6390   0.991   3.084  17.416  0.5182 -0.3016  0.2380
  425MPD2    C2 6391   0.874   3.134  17.368 -0.4241  0.3156  0.3978
  425MPD2    C3 6392   0.793   3.211  17.442  0.2637  0.0760  0.6792
  425MPD2    C4 6393   0.830   3.240  17.569  0.4802  0.0883  0.4252
  425MPD2    C5 6394   0.949   3.189  17.621 -0.4941  0.6975 -0.0173
  425MPD2     H 6395   0.843   3.102  17.269  1.1356  2.4048 -0.7827
  425MPD2    H1 6396   0.770   3.303  17.634 -2.2408 -1.4172 -0.6269
  425MPD2    H2 6397   1.108   3.052  17.590  0.5567  0.9214 -1.0452
  425MPD2    H3 6398   0.982   3.215  17.721  1.1321 -0.0470 -0.3686
  425MPD2     N 6399   0.671   3.260  17.379  0.2441 -0.1212 -0.4026
  425MPD2    H5 6400   0.655   3.230  17.283  0.5530  1.7040 -1.0190
  425MPD2    N1 6401   1.073   2.993  17.347 -0.2792 -0.2093  0.5224
  425MPD2    H7 6402   1.144   2.944  17.400  0.0848 -0.0191  0.2103
  426TMC3    C1 6403   1.159   2.862  17.160  0.0264  0.4161 -0.3939
  426TMC3    C2 6404   1.166   2.870  17.022 -0.4014 -0.0177  0.5071
  426TMC3    C3 6405   1.237   2.769  16.960  0.7610  0.2817  0.0860
  426TMC3    C4 6406   1.216   2.762  17.237 -0.9196  0.1083 -0.4000
  426TMC3    C5 6407   1.283   2.666  17.171  0.3150  0.2311 -0.3828
  426TMC3    C6 6408   1.286   2.663  17.031  0.9014 -0.4159  0.0179
  426TMC3     C 6409   1.062   2.957  17.217  0.6194  0.0522  0.5246
  426TMC3     O 6410   0.998   3.011  17.131  0.2469  0.2050 -0.3372
  426TMC3     H 6411   1.114   2.943  16.961 -1.0944  0.1545  1.2972
  426TMC3    H1 6412   1.213   2.772  17.345 -0.4347 -1.2377 -0.2669
  426TMC3    H2 6413   1.338   2.584  16.977  0.8288 -0.0675 -0.5652
  426TMC3    C7 6414   1.339   2.556  17.234 -0.0070 -0.8557 -0.0779
  426TMC3    C8 6415   1.232   2.759  16.809 -0.1225  0.8584 -0.3998
  426TMC3    O1 6416   1.433   2.500  17.180  0.5235  0.2820 -0.1867
  426TMC3    O2 6417   1.134   2.808  16.751 -0.6722  0.1221 -0.2170
  427MPD2     C 6418   4.551   0.304  14.940  0.1458 -0.7876 -0.3899
  427MPD2    C1 6419   4.458   0.310  15.036  0.7810 -0.5045  0.1326
  427MPD2    C2 6420   4.322   0.343  15.016  0.2300 -0.3481  0.3498
  427MPD2    C3 6421   4.280   0.378  14.887 -0.3028  0.3360  0.4118
  427MPD2    C4 6422   4.374   0.382  14.788  0.5117  0.0139  0.7334
  427MPD2    C5 6423   4.509   0.340  14.813  0.3770  0.1624  0.5850
  427MPD2     H 6424   4.250   0.334  15.096 -1.8667 -0.9600 -1.5937
  427MPD2    H1 6425   4.349   0.407  14.685 -1.1200 -2.2160  0.5721
  427MPD2    H2 6426   4.654   0.275  14.958  0.7100  1.8680  0.5185
  427MPD2    H3 6427   4.583   0.349  14.734 -0.4798 -2.2118 -0.4943
  427MPD2     N 6428   4.146   0.416  14.862  0.3559  0.0624 -0.2105
  427MPD2    H5 6429   4.077   0.387  14.930  0.7923 -1.6955 -0.5244
  427MPD2    N1 6430   4.517   0.289  15.169 -0.1323  0.1899 -0.0922
  427MPD2    H7 6431   4.614   0.260  15.167 -0.5188 -1.0409 -1.1884
  428TMC3    C1 6432   4.530   0.236  15.395 -0.4465 -0.3211  0.6959
  428TMC3    C2 6433   4.477   0.166  15.499  0.2667 -0.2487 -0.0054
  428TMC3    C3 6434   4.550   0.146  15.614 -0.1065 -0.4485  0.1817
  428TMC3    C4 6435   4.666   0.263  15.397  0.6187 -0.1055 -0.1743
  428TMC3    C5 6436   4.737   0.242  15.513 -0.1486 -0.2649 -0.0067
  428TMC3    C6 6437   4.681   0.189  15.626 -0.1684  0.6174  0.2575
  428TMC3     C 6438   4.450   0.288  15.290  0.8875 -0.3595  0.2747
  428TMC3     O 6439   4.328   0.307  15.311  0.3072 -0.5094  0.2958
  428TMC3     H 6440   4.371   0.143  15.501  0.1697  0.1354 -0.6884
  428TMC3    H1 6441   4.708   0.319  15.314  0.9913 -1.1479 -0.6942
  428TMC3    H2 6442   4.732   0.187  15.722  0.4499  3.4792 -0.0091
  428TMC3    C7 6443   0.141   0.271  15.525  0.2584  0.4752 -0.0665
  428TMC3    C8 6444   4.476   0.099  15.734  0.4749  0.2025  0.0991
  428TMC3    O1 6445   0.195   0.261  15.638 -0.0918 -0.3032 -0.1465
  428TMC3    O2 6446   4.540   0.108  15.839  0.4129 -0.7074 -0.5277
  429MPD2     C 6447   0.612   0.783  17.488 -0.1301 -0.0919  0.4296
  429MPD2    C1 6448   0.713   0.702  17.449  0.0079 -0.0090 -0.6281
  429MPD2    C2 6449   0.804   0.748  17.350 -0.1715 -0.4106 -0.2533
  429MPD2    C3 6450   0.798   0.878  17.305 -0.1046  0.3102 -0.7553
  429MPD2    C4 6451   0.695   0.960  17.348  0.4603  0.5848 -0.1666
  429MPD2    C5 6452   0.600   0.907  17.431  0.2029  0.2279  0.3054
  429MPD2     H 6453   0.881   0.680  17.316 -0.2056 -1.1724  1.1774
  429MPD2    H1 6454   0.671   1.059  17.312  0.3549  0.4493 -0.4666
  429MPD2    H2 6455   0.531   0.742  17.547  0.1521 -0.7707  0.3429
  429MPD2    H3 6456   0.509   0.954  17.465 -0.1635  0.3622 -0.8415
  429MPD2     N 6457   0.893   0.914  17.200 -0.5617 -0.4131  0.5866
  429MPD2    H5 6458   0.954   0.843  17.162  2.4698  1.5703  1.7700
  429MPD2    N1 6459   0.715   0.565  17.494 -0.2935 -0.1623 -0.0519
  429MPD2    H7 6460   0.801   0.517  17.468  1.3056  2.5124  0.3525
  430TMC3    C1 6461   1.010   1.062  17.055 -0.7179 -0.5863 -0.3051
  430TMC3    C2 6462   0.995   1.175  16.976 -1.0164 -0.0483  0.5424
  430TMC3    C3 6463   1.090   1.187  16.877 -0.6671  0.2269 -0.2966
  430TMC3    C4 6464   1.102   0.967  17.027  0.2050  0.1971 -0.3539
  430TMC3    C5 6465   1.190   0.988  16.927  0.0253  0.0934 -0.0748
  430TMC3    C6 6466   1.186   1.099  16.854 -0.4790 -0.2899  0.7628
  430TMC3     C 6467   0.919   1.041  17.164  0.4125 -0.1429 -0.6618
  430TMC3     O 6468   0.866   1.140  17.215  0.3253 -0.5879 -0.7085
  430TMC3     H 6469   0.906   1.234  16.991  1.2067  3.3022  0.5914
  430TMC3    H1 6470   1.111   0.873  17.080 -1.5402 -0.7998 -1.8227
  430TMC3    H2 6471   1.252   1.112  16.769 -0.5615 -2.3129  0.3923
  430TMC3    C7 6472   1.217   0.865  16.848  0.0622  0.1708 -0.0083
  430TMC3    C8 6473   1.040   1.222  16.744  0.0835  0.1479  0.5828
  430TMC3    O1 6474   1.246   0.759  16.905  0.3222 -0.2373  0.1278
  430TMC3    O2 6475   1.053   1.135  16.658 -0.7182 -0.6404 -0.2912
  431MPD2     C 6476   1.573   0.629  12.817  0.6965  0.0722  0.6246
  431MPD2    C1 6477   1.694   0.598  12.762  0.2492  0.8086  0.7789
  431MPD2    C2 6478   1.701   0.498  12.669 -0.0043 -0.1840 -0.5054
  431MPD2    C3 6479   1.589   0.428  12.631 -0.5248  0.2891  0.1748
  431MPD2    C4 6480   1.466   0.450  12.687  0.0008 -0.9311  0.1473
  431MPD2    C5 6481   1.461   0.554  12.779  0.1145  0.3145  0.7561
  431MPD2     H 6482   1.802   0.472  12.641 -0.3810 -1.1193 -1.0099
  431MPD2    H1 6483   1.379   0.387  12.672 -2.2886  2.3935 -0.6288
  431MPD2    H2 6484   1.561   0.699  12.899 -0.4362 -1.5768  1.8646
  431MPD2    H3 6485   1.371   0.570  12.836  0.0296  1.0284  0.4279
  431MPD2     N 6486   1.600   0.315  12.540  0.2094 -0.5486 -0.2098
  431MPD2    H5 6487   1.518   0.256  12.536 -0.0290 -0.1296 -1.4670
  431MPD2    N1 6488   1.804   0.644  12.835  0.1150 -0.2792 -0.1155
  431MPD2    H7 6489   1.790   0.720  12.902  1.4283  0.0942 -0.2727
  432TMC3    C1 6490   1.684   0.156  12.381 -0.5856 -0.5402 -0.1969
  432TMC3    C2 6491   1.789   0.132  12.296  0.5275 -0.5104  0.0997
  432TMC3    C3 6492   1.804   0.006  12.243  0.1454 -0.5212  0.3505
  432TMC3    C4 6493   1.617   0.050  12.439 -0.0852 -0.2093 -0.4869
  432TMC3    C5 6494   1.647   4.661  12.394 -0.5301  0.1084  1.2050
  432TMC3    C6 6495   1.729   4.638  12.283  0.4503 -0.0442 -0.9143
  432TMC3     C 6496   1.704   0.279  12.455 -0.2347  0.1899 -0.2287
  432TMC3     O 6497   1.812   0.332  12.442 -0.3443 -0.2989 -0.6307
  432TMC3     H 6498   1.847   0.214  12.255 -1.2510 -0.6819 -2.7342
  432TMC3    H1 6499   1.534   0.056  12.508  0.5441 -1.5333  0.3998
  432TMC3    H2 6500   1.756   4.535  12.264  0.8383  0.3498 -2.5312
  432TMC3    C7 6501   1.664   4.563  12.504 -0.2952 -0.1325 -0.1622
  432TMC3    C8 6502   1.881   4.732  12.122  0.1453 -0.1371 -0.4399
  432TMC3    O1 6503   1.689   4.448  12.484 -0.7482 -0.2994  0.5821
  432TMC3    O2 6504   1.871   4.627  12.055  0.0257  0.3378  0.1794
  433MPD2     C 6505   1.058   3.851  10.689  0.0522  0.3814  0.2620
  433MPD2    C1 6506   1.186   3.856  10.743 -0.2425 -0.0942  0.4193
  433MPD2    C2 6507   1.199   3.920  10.865  0.0100 -0.7518  0.3808
  433MPD2    C3 6508   1.088   3.966  10.940  0.1278 -0.1486 -0.3306
  433MPD2    C4 6509   0.962   3.952  10.885 -0.3569  0.2877  0.4433
  433MPD2    C5 6510   0.950   3.891  10.766 -0.5541 -0.8173  0.3570
  433MPD2     H 6511   1.296   3.947  10.904 -0.7965  1.9379  0.5212
  433MPD2    H1 6512   0.870   3.970  10.940 -1.1242  1.6854 -1.2723
  433MPD2    H2 6513   1.045   3.805  10.591  0.1211 -2.2890  1.4931
  433MPD2    H3 6514   0.848   3.871  10.733 -1.1823  2.8616  0.0184
  433MPD2     N 6515   1.114   4.015  11.067  0.2988  0.2031 -0.2000
  433MPD2    H5 6516   1.208   3.992  11.099 -0.3870 -0.4524  1.3465
  433MPD2    N1 6517   1.290   3.783  10.672  0.2911 -0.3566 -0.3493
  433MPD2    H7 6518   1.261   3.735  10.587 -0.2036 -2.6384  1.1080
  434TMC3    C1 6519   1.467   3.626  10.702  0.0345 -0.2767 -0.1131
  434TMC3    C2 6520   1.552   3.585  10.796 -0.3798  0.1016 -0.3147
  434TMC3    C3 6521   1.551   3.452  10.834 -0.2872  0.5629  0.4878
  434TMC3    C4 6522   1.390   3.537  10.635  0.2891 -0.3686  0.2370
  434TMC3    C5 6523   1.405   3.406  10.657  0.1398  0.4171  0.3908
  434TMC3    C6 6524   1.475   3.362  10.764  0.2466 -0.4561  0.0424
  434TMC3     C 6525   1.410   3.759  10.732  0.2485 -0.1879  0.7988
  434TMC3     O 6526   1.468   3.821  10.820  0.4394  0.3957  0.4063
  434TMC3     H 6527   1.627   3.649  10.842  0.3679 -1.5342  0.7411
  434TMC3    H1 6528   1.351   3.563  10.537  1.3330  2.4997  0.6032
  434TMC3    H2 6529   1.455   3.256  10.778 -0.2392 -0.2172  1.1397
  434TMC3    C7 6530   1.293   3.335  10.602  0.7456  0.0139 -0.4609
  434TMC3    C8 6531   1.627   3.416  10.957  0.4025  0.4339 -0.1454
  434TMC3    O1 6532   1.208   3.398  10.541 -0.0276  1.0248 -0.1355
  434TMC3    O2 6533   1.699   3.504  11.001  0.4959  0.6984  0.2699
  435MPD2     C 6534   2.709   4.012  15.529  0.4097  0.6285 -0.1462
  435MPD2    C1 6535   2.654   3.940  15.632 -0.3543 -0.8667 -0.5672
  435MPD2    C2 6536   2.734   3.863  15.718 -0.1661  0.6026  0.2518
  435MPD2    C3 6537   2.867   3.843  15.691  0.3336  0.4417 -0.1551
  435MPD2    C4 6538   2.920   3.917  15.587  0.5500 -0.2674  0.4843
  435MPD2    C5 6539   2.841   4.001  15.519 -0.1661  0.3846 -0.8147
  435MPD2     H 6540   2.692   3.812  15.804 -0.7145  0.5165 -0.0634
  435MPD2    H1 6541   3.027   3.910  15.571  0.5318  0.7423 -0.1034
  435MPD2    H2 6542   2.663   4.097  15.479  0.5639 -0.0816 -1.4979
  435MPD2    H3 6543   2.883   4.070  15.446  0.7755  0.7624  0.0885
  435MPD2     N 6544   2.934   3.749  15.769 -0.1468 -0.1809  0.2039
  435MPD2    H5 6545   2.874   3.708  15.841  0.6763 -2.1174 -0.2323
  435MPD2    N1 6546   2.516   3.943  15.660 -0.6765 -0.3871  0.6093
  435MPD2    H7 6547   2.476   3.909  15.747  0.9901  0.9071  1.8635
  436TMC3    C1 6548   2.215   4.122  15.876 -0.2663  0.3579  0.9169
  436TMC3    C2 6549   2.311   4.065  15.795  0.7521 -0.3578  1.2248
  436TMC3    C3 6550   2.295   4.043  15.668 -0.3921  0.3982  0.9105
  436TMC3    C4 6551   2.102   4.162  15.819 -0.1232 -0.5071  0.2207
  436TMC3    C5 6552   2.078   4.122  15.689  0.5958  1.2016 -0.1548
  436TMC3    C6 6553   2.177   4.071  15.607  0.2211 -0.2085  0.2706
  436TMC3     C 6554   2.253   4.183  16.002 -0.0540 -1.0022 -0.2692
  436TMC3     O 6555   2.370   4.189  16.026  0.1271 -0.1685 -0.0844
  436TMC3     H 6556   2.410   4.071  15.838  1.1417 -1.0234  0.4211
  436TMC3    H1 6557   2.038   4.233  15.871 -2.9459 -3.4050  0.7319
  436TMC3    H2 6558   2.156   4.049  15.504  0.2792 -3.7795  1.0130
  436TMC3    C7 6559   1.943   4.127  15.632 -0.1101  0.3769 -0.1444
  436TMC3    C8 6560   2.416   4.016  15.584 -0.2524 -0.3166  0.0593
  436TMC3    O1 6561   1.933   4.121  15.510  0.3302 -0.0657  0.1865
  436TMC3    O2 6562   2.416   4.020  15.462 -1.3216 -0.0166 -0.1808
  437TMC3    C1 6563   0.879   1.049  13.283  0.0283  0.4207 -0.5588
  437TMC3    C2 6564   0.779   1.139  13.301  0.1057  0.0234 -0.0223
  437TMC3    C3 6565   0.814   1.272  13.306 -0.3201  0.1362 -0.1786
  437TMC3    C4 6566   1.007   1.086  13.255  0.1644  0.2031  0.9732
  437TMC3    C5 6567   1.035   1.222  13.253  0.0235 -0.1494 -0.2148
  437TMC3    C6 6568   0.938   1.316  13.272 -0.3404 -0.2856  0.0345
  437TMC3     C 6569   0.850   0.903  13.318  0.1177 -0.2623  0.5555
  437TMC3     O 6570   0.739   0.868  13.289 -0.1080 -0.1623 -0.3088
  437TMC3     H 6571   0.684   1.100  13.336 -1.1049 -0.0582 -3.3953
  437TMC3    H1 6572   1.089   1.016  13.243  0.2044 -0.1551  3.3294
  437TMC3    H2 6573   0.955   1.423  13.268 -0.2484 -0.2110  2.3541
  437TMC3    C7 6574   1.173   1.269  13.239 -0.5076  0.4277  0.2373
  437TMC3    C8 6575   0.692   1.359  13.315  0.0505  0.9030  0.1934
  437TMC3    O1 6576   1.251   1.200  13.175 -0.3154  0.3323 -0.3922
  437TMC3    O2 6577   0.591   1.306  13.352 -0.5486  0.4198  0.8765
  438MPD2     C 6578   3.480   2.026  16.350 -0.2116 -0.4503  0.2667
  438MPD2    C1 6579   3.513   1.944  16.453  0.4766 -0.6207 -1.2113
  438MPD2    C2 6580   3.490   1.991  16.583  0.4117 -0.5111 -0.0719
  438MPD2    C3 6581   3.428   2.117  16.604  0.2158  0.5116 -0.1679
  438MPD2    C4 6582   3.391   2.195  16.497  0.0185  0.0021 -0.3707
  438MPD2    C5 6583   3.415   2.145  16.372  0.0581 -0.1825  0.1758
  438MPD2     H 6584   3.526   1.935  16.668 -0.6113  0.2919  0.9002
  438MPD2    H1 6585   3.339   2.288  16.511 -1.4100 -0.7179 -0.9039
  438MPD2    H2 6586   3.511   2.016  16.246 -1.4555  0.2194 -0.1649
  438MPD2    H3 6587   3.375   2.201  16.289 -1.5939 -0.1249  1.0135
  438MPD2     N 6588   3.393   2.171  16.731  0.0063 -0.5423  0.1295
  438MPD2    H5 6589   3.355   2.265  16.735  0.5307 -0.3196 -0.1730
  438MPD2    N1 6590   3.570   1.815  16.432  0.3161  0.6688  0.4869
  438MPD2    H7 6591   3.580   1.756  16.514  2.8934  0.6629  0.1708
  439TMC3    C1 6592   3.618   1.613  16.332 -0.3246 -0.2701  0.5035
  439TMC3    C2 6593   3.598   1.541  16.219  0.2942 -0.6086  0.2919
  439TMC3    C3 6594   3.679   1.428  16.197 -0.5105  0.6615  0.1492
  439TMC3    C4 6595   3.704   1.565  16.435 -0.2799 -0.2313  0.1000
  439TMC3    C5 6596   3.771   1.449  16.406 -0.1122 -0.0345  0.2285
  439TMC3    C6 6597   3.754   1.373  16.294 -0.2146  0.4094  0.3880
  439TMC3     C 6598   3.585   1.749  16.315 -0.2644 -0.2908  0.3182
  439TMC3     O 6599   3.566   1.789  16.203  0.2109 -0.0753 -0.3562
  439TMC3     H 6600   3.530   1.565  16.139  0.4908 -1.9119 -0.2726
  439TMC3    H1 6601   3.743   1.631  16.511  1.1566 -1.6966  0.6397
  439TMC3    H2 6602   3.817   1.287  16.275 -0.8818  0.3163 -1.3975
  439TMC3    C7 6603   3.881   1.414  16.491  0.3128  0.2678 -0.0449
  439TMC3    C8 6604   3.704   1.387  16.065  0.4283 -0.9576 -0.0527
  439TMC3    O1 6605   3.854   1.380  16.605 -0.6469 -0.7319 -0.2857
  439TMC3    O2 6606   3.748   1.275  16.052 -0.7843  0.7303  0.7636
  440MPD2     C 6607   2.660   2.009  14.574  0.0205  0.5842  0.9634
  440MPD2    C1 6608   2.661   2.094  14.687 -0.6316  0.4155  0.5696
  440MPD2    C2 6609   2.713   2.040  14.802  0.1780 -0.0258  0.1265
  440MPD2    C3 6610   2.741   1.906  14.811  0.4683 -0.3674  0.2476
  440MPD2    C4 6611   2.732   1.825  14.703 -0.2906 -0.2672 -0.0995
  440MPD2    C5 6612   2.692   1.878  14.586  0.0623  0.0389  0.0925
  440MPD2     H 6613   2.718   2.108  14.886 -0.4801  2.0531 -1.5283
  440MPD2    H1 6614   2.762   1.721  14.701  2.0383  0.3993  0.4275
  440MPD2    H2 6615   2.616   2.041  14.480  0.8245 -0.1722  0.3261
  440MPD2    H3 6616   2.669   1.809  14.506 -0.3636 -2.4321  2.3460
  440MPD2     N 6617   2.769   1.841  14.933  0.5357 -0.0332  0.0555
  440MPD2    H5 6618   2.771   1.740  14.948  2.3032  0.4684  3.2178
  440MPD2    N1 6619   2.602   2.225  14.693 -0.1500  0.1574 -0.1898
  440MPD2    H7 6620   2.620   2.261  14.786  1.6223 -0.7069 -0.1912
  441TMC3    C1 6621   2.820   1.816  15.164  0.0197  0.0166  0.7139
  441TMC3    C2 6622   2.867   1.874  15.274  0.0688 -0.2993  0.5493
  441TMC3    C3 6623   2.851   1.818  15.395  0.7024 -0.4765  0.7498
  441TMC3    C4 6624   2.745   1.693  15.172  0.1869  0.3006  0.3067
  441TMC3    C5 6625   2.739   1.638  15.299  0.4504  0.2035 -1.0825
  441TMC3    C6 6626   2.793   1.696  15.410 -0.3025 -0.3688 -0.3282
  441TMC3     C 6627   2.800   1.905  15.049  0.1300 -0.4891 -0.1441
  441TMC3     O 6628   2.810   2.025  15.075 -0.2245 -0.3715  0.3512
  441TMC3     H 6629   2.913   1.972  15.266 -1.7934  0.6833  1.8973
  441TMC3    H1 6630   2.693   1.647  15.089 -1.6026  2.6564  0.1208
  441TMC3    H2 6631   2.756   1.673  15.509 -0.4896  0.5616 -0.1824
  441TMC3    C7 6632   2.606   1.590  15.329  0.0591  0.3305 -0.1184
  441TMC3    C8 6633   2.823   1.903  15.504 -0.1547 -0.3189  0.6858
  441TMC3    O1 6634   2.520   1.644  15.260 -0.2429  0.4063 -0.1641
  441TMC3    O2 6635   2.841   1.861  15.621  0.6389  0.9207  0.8799
  442MPD2     C 6636   0.529   2.700  16.282 -0.3976  0.5016 -0.4442
  442MPD2    C1 6637   0.421   2.619  16.312 -0.0809 -0.1146 -0.7038
  442MPD2    C2 6638   0.395   2.505  16.242 -0.5902  0.0806 -0.0798
  442MPD2    C3 6639   0.476   2.470  16.133  0.2245 -0.1050  0.5676
  442MPD2    C4 6640   0.582   2.553  16.096 -0.1709 -0.4808 -0.4257
  442MPD2    C5 6641   0.601   2.670  16.164 -0.3950 -0.0914  0.1637
  442MPD2     H 6642   0.312   2.443  16.276 -0.5139  0.4893  0.8402
  442MPD2    H1 6643   0.644   2.543  16.008 -0.7550  2.2149 -1.1500
  442MPD2    H2 6644   0.547   2.791  16.338  4.0066 -1.3994  1.1978
  442MPD2    H3 6645   0.678   2.738  16.130 -1.6393  0.0456 -2.3248
  442MPD2     N 6646   0.463   2.355  16.055  0.1518 -0.6575  0.6912
  442MPD2    H5 6647   0.517   2.355  15.969 -0.5769 -0.9664  0.2332
  442MPD2    N1 6648   0.328   2.646  16.417 -0.4578 -0.0228 -0.7228
  442MPD2    H7 6649   0.246   2.585  16.425  0.4158 -1.0723  0.2339
  443TMC3    C1 6650   0.228   2.753  16.607 -0.4765 -0.2690 -0.2042
  443TMC3    C2 6651   0.163   2.870  16.641 -0.9049 -0.4566 -0.5787
  443TMC3    C3 6652   0.033   2.870  16.681  0.5541  0.3612  0.0216
  443TMC3    C4 6653   0.157   2.638  16.631 -0.0182 -0.1797 -0.2845
  443TMC3    C5 6654   0.038   2.645  16.702 -0.1169 -0.4678  0.5327
  443TMC3    C6 6655   4.705   2.762  16.723  0.0363 -0.6931  0.4440
  443TMC3     C 6656   0.335   2.755  16.504 -0.6356  0.7267  0.7154
  443TMC3     O 6657   0.393   2.861  16.485 -0.1324 -0.3599 -0.1928
  443TMC3     H 6658   0.221   2.961  16.628 -0.1549 -0.6661  1.3020
  443TMC3    H1 6659   0.214   2.546  16.628  2.8423  1.5496  1.0211
  443TMC3    H2 6660   4.608   2.775  16.769 -0.6106 -0.7268 -0.9218
  443TMC3    C7 6661   4.736   2.521  16.752 -0.3353  1.0642  0.6054
  443TMC3    C8 6662   4.705   2.997  16.696 -0.2385  0.3159  0.1305
  443TMC3    O1 6663   0.015   2.432  16.675  0.6552 -0.4338  0.5073
  443TMC3    O2 6664   4.648   3.027  16.797 -0.1193  0.6075  0.0303
  444MPD2     C 6665   0.438   2.234  16.560 -0.1828  0.2295 -0.3452
  444MPD2    C1 6666   0.460   2.133  16.657  0.1997 -0.5790  0.0261
  444MPD2    C2 6667   0.529   2.018  16.622  0.2332  0.1127  0.3449
  444MPD2    C3 6668   0.564   1.995  16.490 -0.5669 -0.0509  0.2183
  444MPD2    C4 6669   0.536   2.098  16.398  0.4769  0.0647  0.2755
  444MPD2    C5 6670   0.479   2.217  16.429 -0.0086  0.1827  0.0468
  444MPD2     H 6671   0.545   1.938  16.693  2.5683 -2.7661 -3.4410
  444MPD2    H1 6672   0.548   2.092  16.291  2.1490  1.8263  0.3635
  444MPD2    H2 6673   0.387   2.327  16.580 -1.6545 -0.6227 -0.0844
  444MPD2    H3 6674   0.478   2.295  16.355 -0.4203 -2.2568 -2.5144
  444MPD2     N 6675   0.623   1.870  16.453 -0.6526 -0.1870 -0.2046
  444MPD2    H5 6676   0.639   1.798  16.523 -1.2040  1.2823  1.4208
  444MPD2    N1 6677   0.406   2.146  16.789  0.0532  0.2077 -0.2558
  444MPD2    H7 6678   0.431   2.074  16.856 -1.5007  0.6795  0.8195
  445TMC3    C1 6679   0.729   1.710  16.328 -0.6581  0.0520 -0.3117
  445TMC3    C2 6680   0.694   1.638  16.219  0.3915 -0.0849 -0.3030
  445TMC3    C3 6681   0.769   1.525  16.186 -0.4754 -0.2361 -0.0223
  445TMC3    C4 6682   0.833   1.679  16.413 -0.0777  0.4692 -0.1391
  445TMC3    C5 6683   0.901   1.566  16.372 -0.0557  0.3589  0.3528
  445TMC3    C6 6684   0.878   1.491  16.261  0.1574  0.7889  0.0817
  445TMC3     C 6685   0.664   1.841  16.327  0.0549  0.3336 -0.4548
  445TMC3     O 6686   0.632   1.894  16.223 -0.4286 -0.1161 -0.0535
  445TMC3     H 6687   0.617   1.661  16.145 -0.2559 -2.0383 -0.2150
  445TMC3    H1 6688   0.863   1.761  16.478  3.9789 -0.2184 -1.1699
  445TMC3    H2 6689   0.944   1.408  16.238 -0.6127  0.7087 -1.8476
  445TMC3    C7 6690   1.038   1.549  16.427  0.0266  0.3864 -0.3198
  445TMC3    C8 6691   0.718   1.447  16.068  0.2663 -0.6626 -0.6741
  445TMC3    O1 6692   1.109   1.474  16.364 -0.1597  1.2594 -0.2331
  445TMC3    O2 6693   0.640   1.496  15.992  0.6788 -0.3354  0.0854
  446MPD2     C 6694   1.183   3.079  11.024 -0.4415 -0.1506  0.0942
  446MPD2    C1 6695   1.127   3.189  10.963 -0.2714 -0.7704 -0.7880
  446MPD2    C2 6696   1.186   3.311  10.990  0.3629 -0.5148  0.7933
  446MPD2    C3 6697   1.287   3.330  11.088  0.6700 -0.4582  0.0980
  446MPD2    C4 6698   1.342   3.217  11.143 -0.4366 -0.5851 -0.0202
  446MPD2    C5 6699   1.297   3.090  11.103  0.6155 -0.4607  0.0528
  446MPD2     H 6700   1.140   3.400  10.949 -1.6923 -1.5978  0.7333
  446MPD2    H1 6701   1.424   3.210  11.214 -2.3888 -1.4785  2.1356
  446MPD2    H2 6702   1.140   2.981  11.009 -0.5417 -0.1614  0.4588
  446MPD2    H3 6703   1.347   3.006  11.152 -0.0478 -1.8155 -1.5924
  446MPD2     N 6704   1.333   3.460  11.122  0.3079  0.6493  0.0251
  446MPD2    H5 6705   1.304   3.539  11.065 -0.6407  1.6292  1.8549
  446MPD2    N1 6706   1.008   3.179  10.887 -0.6534 -0.0902  0.1821
  446MPD2    H7 6707   0.987   3.264  10.835  1.5237  0.9166  0.9022
  447TMC3    C1 6708   1.491   3.612  11.222  0.3864 -0.1755 -0.3064
  447TMC3    C2 6709   1.452   3.718  11.145 -0.1418  0.3108  0.0523
  447TMC3    C3 6710   1.530   3.827  11.153 -0.6561 -1.2875  0.3535
  447TMC3    C4 6711   1.602   3.607  11.293  0.7315 -0.4690 -0.0408
  447TMC3    C5 6712   1.685   3.712  11.296  1.1763  1.3685 -0.2529
  447TMC3    C6 6713   1.653   3.823  11.227 -0.2726 -0.1586  0.2444
  447TMC3     C 6714   1.424   3.485  11.226  0.8086 -0.0314  0.4021
  447TMC3     O 6715   1.460   3.407  11.314 -0.1803 -0.1531 -0.0976
  447TMC3     H 6716   1.353   3.722  11.100  0.4644  0.7576 -1.2698
  447TMC3    H1 6717   1.639   3.517  11.340 -0.4796 -1.3439 -0.7534
  447TMC3    H2 6718   1.712   3.913  11.230  0.7631 -0.7908 -1.2092
  447TMC3    C7 6719   1.804   3.695  11.369  0.5690  0.0748  0.6592
  447TMC3    C8 6720   1.491   3.967  11.111 -0.0292 -0.5434  0.0401
  447TMC3    O1 6721   1.867   3.586  11.362 -0.1066  0.1696  0.2106
  447TMC3    O2 6722   1.377   4.009  11.143 -0.6237  0.0845  0.0111
  448TMC3    C1 6723   3.168   3.174  16.838 -0.2509 -0.3152  0.8473
  448TMC3    C2 6724   3.157   3.092  16.726 -0.7125  0.0507 -0.4915
  448TMC3    C3 6725   3.214   2.970  16.732 -0.8411 -0.0954 -0.1406
  448TMC3    C4 6726   3.229   3.129  16.953  0.4149 -0.4799  0.2604
  448TMC3    C5 6727   3.285   2.999  16.951  0.1452  0.1315  0.2319
  448TMC3    C6 6728   3.278   2.915  16.843  0.2855 -0.0696  0.3706
  448TMC3     C 6729   3.104   3.300  16.821 -0.2825  0.0886 -0.4362
  448TMC3     O 6730   3.093   3.342  16.707  0.4971 -0.2308  0.2736
  448TMC3     H 6731   3.084   3.112  16.648  1.1979  0.2118 -2.2346
  448TMC3    H1 6732   3.241   3.190  17.042 -0.1043  0.6309 -0.4284
  448TMC3    H2 6733   3.311   2.812  16.851 -0.7731 -0.4486 -0.1075
  448TMC3    C7 6734   3.313   2.936  17.083  0.5118 -0.6512 -0.2708
  448TMC3    C8 6735   3.236   2.887  16.615 -0.4287  0.5796 -0.0502
  448TMC3    O1 6736   3.271   2.988  17.184  0.3324 -0.1941 -0.0981
  448TMC3    O2 6737   3.289   2.780  16.627  0.1441  0.0596 -0.4360
  449MPD2     C 6738   0.365   2.319  14.183 -0.4189 -0.0601  0.1064
  449MPD2    C1 6739   0.244   2.326  14.116 -0.6661 -1.2922 -0.5082
  449MPD2    C2 6740   0.157   2.222  14.138 -0.4195  0.9609 -0.0042
  449MPD2    C3 6741   0.183   2.111  14.217 -0.5017 -0.0753 -0.4924
  449MPD2    C4 6742   0.303   2.104  14.282  0.1118 -0.6878  0.3040
  449MPD2    C5 6743   0.388   2.214  14.273 -0.9869 -0.3067  0.0054
  449MPD2     H 6744   0.059   2.234  14.093 -0.6356  0.6022  0.3829
  449MPD2    H1 6745   0.319   2.025  14.354  3.3722  0.9746  1.3769
  449MPD2    H2 6746   0.442   2.394  14.169  0.5089 -0.9773  0.2759
  449MPD2    H3 6747   0.479   2.212  14.333 -0.9797  1.1920  0.0580
  449MPD2     N 6748   0.076   2.021  14.221  0.4346  0.4736  0.0160
  449MPD2    H5 6749   0.001   2.031  14.153 -0.3640  1.5319  1.0707
  449MPD2    N1 6750   0.210   2.428  14.027  0.7432  0.3352  0.0341
  449MPD2    H7 6751   0.116   2.424  13.986  0.0718  1.1465  1.5119
  450TMC3    C1 6752   0.234   2.590  13.867 -0.2630  0.1679  0.6070
  450TMC3    C2 6753   0.274   2.550  13.741  0.1326  0.1592 -0.1537
  450TMC3    C3 6754   0.182   2.536  13.650  0.6210  0.5207 -0.6983
  450TMC3    C4 6755   0.101   2.615  13.893  0.6821 -0.5063  1.0366
  450TMC3    C5 6756   0.011   2.601  13.794 -0.6175  0.0660 -0.1470
  450TMC3    C6 6757   0.057   2.567  13.670 -0.3075 -0.2592  0.6557
  450TMC3     C 6758   0.297   2.520  13.972  0.2560  0.5063  0.3046
  450TMC3     O 6759   0.418   2.531  13.975 -0.0241 -0.2439  0.0598
  450TMC3     H 6760   0.379   2.525  13.729 -0.1356 -0.8394 -0.4959
  450TMC3    H1 6761   0.080   2.650  13.994  0.7564  0.0891  0.8482
  450TMC3    H2 6762   4.730   2.539  13.587  2.4899  0.6092 -1.8424
  450TMC3    C7 6763   4.661   2.491  13.835  0.0110 -0.6527  0.0510
  450TMC3    C8 6764   0.215   2.473  13.523  0.2595  0.3455  0.4674
  450TMC3    O1 6765   4.691   2.431  13.940 -0.1228 -0.5917  0.1022
  450TMC3    O2 6766   0.154   2.507  13.420  0.3199  0.7871  0.1536
  451MPD2     C 6767   2.178   0.653   0.831 -0.3049 -0.2063 -0.3134
  451MPD2    C1 6768   2.061   0.658   0.898 -0.4783  0.4618  0.9404
  451MPD2    C2 6769   1.995   0.544   0.932  0.5494  0.3922 -1.0320
  451MPD2    C3 6770   2.059   0.422   0.900 -0.0240 -0.5041 -0.5963
  451MPD2    C4 6771   2.177   0.423   0.825  0.0723 -0.1799  0.0700
  451MPD2    C5 6772   2.239   0.533   0.797  1.0566  0.1765  0.6118
  451MPD2     H 6773   1.895   0.563   0.969  1.1095 -1.0262  1.1886
  451MPD2    H1 6774   2.215   0.328   0.790  0.4848 -0.2197  0.6270
  451MPD2    H2 6775   2.235   0.741   0.804  0.6455 -0.5250  0.6740
  451MPD2    H3 6776   2.327   0.523   0.733  0.5315  1.2189 -0.2833
  451MPD2     N 6777   2.003   0.292   0.923  0.1743  0.2820  0.1641
  451MPD2    H5 6778   2.062   0.213   0.900 -3.0773 -1.4394 -2.4211
  451MPD2    N1 6779   2.001   0.786   0.914  0.4634  0.0482  0.2736
  451MPD2    H7 6780   2.051   0.855   0.859  1.0931 -0.5179  0.1375
  452TMC3    C1 6781   1.837   0.138   0.960 -0.1757  0.3957 -0.6687
  452TMC3    C2 6782   1.722   0.144   0.876  0.6401 -0.5335  0.2400
  452TMC3    C3 6783   1.733   0.087   0.750  0.1029 -1.4073 -0.5467
  452TMC3    C4 6784   1.937   0.058   0.910 -0.0700 -0.6158 -0.0188
  452TMC3    C5 6785   1.941   4.738   0.788  0.0825 -1.0169 -0.2569
  452TMC3    C6 6786   1.833   0.014   0.705  0.3174  0.4478  0.4760
  452TMC3     C 6787   1.886   0.272   0.991  0.6646  0.0142 -0.4695
  452TMC3     O 6788   1.796   0.355   1.010 -0.3429 -0.5003  0.1361
  452TMC3     H 6789   1.636   0.208   0.890  1.3315  0.2182  1.0718
  452TMC3    H1 6790   2.028   0.050   0.969  1.3543  0.3533 -2.0696
  452TMC3    H2 6791   1.832   4.731   0.598 -2.2153 -0.8483  0.7717
  452TMC3    C7 6792   2.071   0.018   0.724 -0.2927 -0.0223 -0.1354
  452TMC3    C8 6793   1.643   0.155   0.653  0.2622 -0.6077 -0.7059
  452TMC3    O1 6794   2.153   0.084   0.787 -0.0994  0.0200  0.0357
  452TMC3    O2 6795   1.523   0.176   0.683 -0.3030  0.1881  0.2511
  453TMC3    C1 6796   2.710   2.083  11.641  0.4947 -0.2511  0.5022
  453TMC3    C2 6797   2.667   1.957  11.648 -0.9257  0.2786  0.3399
  453TMC3    C3 6798   2.582   1.916  11.555 -0.5178 -0.2328  0.5902
  453TMC3    C4 6799   2.679   2.173  11.541  0.6615  0.4126  0.2691
  453TMC3    C5 6800   2.576   2.135  11.458  0.2334 -0.2574  0.0016
  453TMC3    C6 6801   2.525   2.004  11.464 -1.1294  0.9008  0.7250
  453TMC3     C 6802   2.818   2.129  11.719  0.4086  0.4055 -0.2930
  453TMC3     O 6803   2.887   2.224  11.682  0.3015  0.2213  0.4506
  453TMC3     H 6804   2.708   1.887  11.720  0.4973  0.1130 -0.6290
  453TMC3    H1 6805   2.731   2.268  11.539  0.4280  0.5487  0.5350
  453TMC3    H2 6806   2.455   1.969  11.390  0.0856 -0.0993  0.0410
  453TMC3    C7 6807   2.568   2.207  11.333 -0.5595  0.0665  0.9397
  453TMC3    C8 6808   2.531   1.779  11.551  0.2608  0.1392 -0.8279
  453TMC3    O1 6809   2.670   2.273  11.307  0.2587  0.0775 -0.2491
  453TMC3    O2 6810   2.442   1.753  11.474 -0.5774  0.2217  0.0692
  454MPD2     C 6811   1.502   2.139  16.027 -0.5742 -0.7163  0.4802
  454MPD2    C1 6812   1.378   2.114  15.978  0.5067 -0.3314 -0.1766
  454MPD2    C2 6813   1.280   2.206  15.953 -0.0661  0.6529 -0.1931
  454MPD2    C3 6814   1.319   2.336  15.974  0.7442 -0.3063  0.4822
  454MPD2    C4 6815   1.442   2.362  16.026  0.2095  0.2972  0.9164
  454MPD2    C5 6816   1.538   2.269  16.048 -0.2291 -0.3951  0.4707
  454MPD2     H 6817   1.183   2.179  15.913 -0.8359  0.7902  1.5835
  454MPD2    H1 6818   1.471   2.465  16.046 -3.3201  1.3425  0.6838
  454MPD2    H2 6819   1.578   2.069  16.059 -0.3291 -1.5901 -2.0616
  454MPD2    H3 6820   1.641   2.291  16.073 -0.4257  0.1381  0.7997
  454MPD2     N 6821   1.226   2.438  15.953 -0.0745  0.7224 -0.0558
  454MPD2    H5 6822   1.248   2.526  15.999 -0.2069 -0.5017  2.3385
  454MPD2    N1 6823   1.346   1.984  15.930  0.4044 -0.6128  0.2725
  454MPD2    H7 6824   1.258   1.972  15.880  0.9716 -0.7324 -0.7078
  455TMC3    C1 6825   1.001   2.492  15.963 -0.0721 -0.2331 -0.8780
  455TMC3    C2 6826   1.045   2.569  16.069 -0.3907  1.0825  0.4111
  455TMC3    C3 6827   0.990   2.570  16.197  0.0397  0.3550 -0.0536
  455TMC3    C4 6828   0.892   2.403  15.990  0.5023  1.4297  0.3484
  455TMC3    C5 6829   0.843   2.400  16.119  0.8526  0.1792  0.1572
  455TMC3    C6 6830   0.887   2.487  16.222  0.1570  0.0681  0.5533
  455TMC3     C 6831   1.105   2.432  15.884 -0.0578 -0.3140 -0.0548
  455TMC3     O 6832   1.064   2.334  15.819  0.3292  0.4172  0.1110
  455TMC3     H 6833   1.118   2.645  16.043 -0.2923  0.5748 -0.8023
  455TMC3    H1 6834   0.859   2.336  15.912  1.7238  1.2375 -0.0018
  455TMC3    H2 6835   0.846   2.479  16.322  0.8415 -0.1181  0.8190
  455TMC3    C7 6836   0.788   2.269  16.157  0.3817 -0.3458  0.0544
  455TMC3    C8 6837   1.065   2.617  16.315 -0.5930 -0.3871 -0.6262
  455TMC3    O1 6838   0.743   2.200  16.067  0.3004 -0.0118 -0.0539
  455TMC3    O2 6839   0.999   2.624  16.412 -0.4309 -0.1695 -0.6555
  456MPD2     C 6840   3.989   2.068  15.608  0.7674 -0.2656 -0.1199
  456MPD2    C1 6841   3.939   1.973  15.689 -0.2266  0.8874 -0.5807
  456MPD2    C2 6842   3.870   2.014  15.804 -0.0597  0.0223  0.9158
  456MPD2    C3 6843   3.853   2.150  15.837  0.7280 -0.3481 -0.3164
  456MPD2    C4 6844   3.909   2.237  15.747 -0.1695  0.2700 -0.3272
  456MPD2    C5 6845   3.973   2.198  15.632  0.5625  0.1803 -0.9988
  456MPD2     H 6846   3.816   1.946  15.868 -1.2459  0.7948  0.7299
  456MPD2    H1 6847   3.906   2.344  15.766 -0.5157  0.1700  0.1780
  456MPD2    H2 6848   4.071   2.043  15.541  2.4064 -0.9212  2.0911
  456MPD2    H3 6849   4.023   2.260  15.558  0.9097  0.2005 -0.7471
  456MPD2     N 6850   3.778   2.184  15.960  0.1340  0.0793  0.1688
  456MPD2    H5 6851   3.755   2.110  16.025  1.4723 -0.4925 -0.0053
  456MPD2    N1 6852   3.990   1.842  15.669 -0.5330  0.0073 -0.1655
  456MPD2    H7 6853   4.039   1.811  15.585 -2.4065 -0.7233 -0.9759
  457TMC3    C1 6854   3.676   2.326  16.106 -0.2314  0.6104  0.2016
  457TMC3    C2 6855   3.579   2.421  16.133 -0.0518 -0.7084  0.0670
  457TMC3    C3 6856   3.557   2.453  16.263 -0.1203  0.0964 -0.3914
  457TMC3    C4 6857   3.746   2.258  16.209 -0.1149  0.6837  0.4962
  457TMC3    C5 6858   3.715   2.292  16.343 -0.2168  1.6208  0.4221
  457TMC3    C6 6859   3.621   2.393  16.365 -0.0555  0.7940  0.5666
  457TMC3     C 6860   3.742   2.317  15.978 -0.1753 -0.3599  0.2134
  457TMC3     O 6861   3.756   2.421  15.914 -0.2493  0.0442 -0.0781
  457TMC3     H 6862   3.524   2.467  16.052  0.4726  0.9848  0.6543
  457TMC3    H1 6863   3.819   2.178  16.198 -3.4771 -2.4830  1.1245
  457TMC3    H2 6864   3.613   2.442  16.462 -0.9675 -0.1118  0.9562
  457TMC3    C7 6865   3.796   2.250  16.455 -0.3428 -0.3099 -0.9558
  457TMC3    C8 6866   3.440   2.538  16.298 -0.3948  0.4008 -0.4335
  457TMC3    O1 6867   3.728   2.239  16.559  0.3126 -0.0412 -0.5748
  457TMC3    O2 6868   3.392   2.524  16.411  0.3640  0.0324 -1.0355
  458MPD2     C 6869   1.562   1.549  13.419  0.1310  0.2586  0.5217
  458MPD2    C1 6870   1.560   1.443  13.333  0.2126 -0.1004 -0.0263
  458MPD2    C2 6871   1.445   1.380  13.306  0.0160 -0.1788 -1.0938
  458MPD2    C3 6872   1.325   1.419  13.368  0.5346 -0.4536 -0.6893
  458MPD2    C4 6873   1.328   1.510  13.469 -0.1720  0.0670 -0.2726
  458MPD2    C5 6874   1.446   1.580  13.485 -0.8566  0.3772 -0.5214
  458MPD2     H 6875   1.454   1.291  13.244 -0.4113 -0.1719 -1.1623
  458MPD2    H1 6876   1.233   1.539  13.511 -0.7145 -0.3547 -1.2049
  458MPD2    H2 6877   1.653   1.594  13.457  0.7711 -0.1910 -0.4583
  458MPD2    H3 6878   1.451   1.662  13.555  0.3283 -0.8099  0.7982
  458MPD2     N 6879   1.198   1.361  13.334  0.7679  0.1226 -0.1283
  458MPD2    H5 6880   1.117   1.397  13.383  0.2328  2.0101 -2.4057
  458MPD2    N1 6881   1.678   1.383  13.283 -0.4802  0.3877  0.0406
  458MPD2    H7 6882   1.673   1.291  13.241 -0.1663  0.4230 -0.0777
  459TMC3    C1 6883   1.904   1.368  13.226  0.1591 -0.0159  0.1255
  459TMC3    C2 6884   1.993   1.418  13.140  0.5285 -0.6015 -0.3046
  459TMC3    C3 6885   2.105   1.339  13.111 -0.0391  0.2186 -0.0188
  459TMC3    C4 6886   1.916   1.237  13.265  0.5653  0.3527 -0.0788
  459TMC3    C5 6887   2.022   1.158  13.227 -0.2641  0.1691 -1.0965
  459TMC3    C6 6888   2.121   1.207  13.149 -0.4895  0.2139  0.0652
  459TMC3     C 6889   1.796   1.450  13.267  0.0616  0.6110 -0.1338
  459TMC3     O 6890   1.816   1.570  13.278 -0.3277  0.4241 -0.5858
  459TMC3     H 6891   1.981   1.518  13.099  2.1096 -0.8429 -1.3779
  459TMC3    H1 6892   1.834   1.188  13.317 -0.1183 -0.2429 -1.7376
  459TMC3    H2 6893   2.208   1.152  13.114  0.4721  1.5685  0.3218
  459TMC3    C7 6894   2.042   1.033  13.303  0.1714 -0.5326  0.2535
  459TMC3    C8 6895   2.189   1.373  13.002 -0.5927  0.3739  0.4517
  459TMC3    O1 6896   2.079   0.940  13.237  0.1856 -0.7577  0.1643
  459TMC3    O2 6897   2.313   1.364  13.015 -0.2485 -0.0150 -0.2989
  460MPD2     C 6898   1.707   4.157  10.877  0.7283 -0.2975  0.1232
  460MPD2    C1 6899   1.597   4.138  10.953  0.1078 -0.0003 -0.1323
  460MPD2    C2 6900   1.482   4.215  10.942 -0.6032  0.3608  0.0349
  460MPD2    C3 6901   1.489   4.318  10.845 -0.0685  0.1867 -0.1164
  460MPD2    C4 6902   1.600   4.338  10.767 -0.6597 -0.7686  0.0772
  460MPD2    C5 6903   1.708   4.259  10.787  0.0632  0.1001  0.5742
  460MPD2     H 6904   1.405   4.212  11.018  1.7780 -0.0692  2.3903
  460MPD2    H1 6905   1.606   4.417  10.692  1.4569  0.3803  1.4604
  460MPD2    H2 6906   1.789   4.089  10.899  1.1308 -0.4429 -1.8504
  460MPD2    H3 6907   1.800   4.287  10.737  0.5028 -0.2792  1.1837
  460MPD2     N 6908   1.370   4.403  10.822  0.7226  0.5978  0.3702
  460MPD2    H5 6909   1.282   4.380  10.867  0.6141 -1.2242 -0.7585
  460MPD2    N1 6910   1.598   4.027  11.044  0.1389 -0.2368 -0.0087
  460MPD2    H7 6911   1.682   3.971  11.040 -0.4293 -1.0438 -0.6204
  461TMC3    C1 6912   1.244   4.566  10.734 -0.8615  0.2930 -0.0057
  461TMC3    C2 6913   1.143   4.478  10.696  0.8258 -0.2054  1.0949
  461TMC3    C3 6914   1.036   4.540  10.630 -0.1382  0.0114  0.0477
  461TMC3    C4 6915   1.245   4.702  10.694 -0.6104 -0.0909  0.2071
  461TMC3    C5 6916   1.137   0.013  10.618  0.3179  0.5843 -0.2756
  461TMC3    C6 6917   1.031   4.670  10.590 -0.3066 -0.4359 -0.0257
  461TMC3     C 6918   1.373   4.517  10.742  0.1914  0.2368  0.7084
  461TMC3     O 6919   1.464   4.591  10.706 -0.4328 -0.4107  0.1677
  461TMC3     H 6920   1.152   4.372  10.716 -0.9726 -0.1570  2.1297
  461TMC3    H1 6921   1.330   0.029  10.711  0.1398 -1.1098  0.3385
  461TMC3    H2 6922   0.944   4.708  10.538 -0.4147  2.1982  2.0795
  461TMC3    C7 6923   1.147   0.137  10.532  0.0521 -0.1004 -0.0301
  461TMC3    C8 6924   0.982   4.455  10.522  0.0063 -0.3931 -0.0620
  461TMC3    O1 6925   1.048   0.172  10.467  0.1546 -0.2067  0.1259
  461TMC3    O2 6926   0.984   4.514  10.417 -0.2443 -0.5529  0.8310
  462TMC3    C1 6927   0.534   0.751   0.195 -0.1938 -0.3628  0.0342
  462TMC3    C2 6928   0.669   0.757   0.214 -0.5817 -0.0887  0.4107
  462TMC3    C3 6929   0.737   0.637   0.226 -0.9333  0.1738 -0.3875
  462TMC3    C4 6930   0.468   0.630   0.184  0.0139  0.4147  0.6318
  462TMC3    C5 6931   0.542   0.524   0.197 -0.6935 -0.6391  0.3386
  462TMC3    C6 6932   0.675   0.521   0.220  0.2074  0.3919 -0.2369
  462TMC3     C 6933   0.448   0.861   0.146 -0.0125 -0.3453  1.0212
  462TMC3     O 6934   0.339   0.856   0.198 -0.3616  0.4965 -0.0128
  462TMC3     H 6935   0.715   0.854   0.225  0.8448 -0.7294  0.0965
  462TMC3    H1 6936   0.361   0.628   0.172  0.2960 -1.8751 -1.4215
  462TMC3    H2 6937   0.724   0.426   0.203  1.7786  0.6907  2.6369
  462TMC3    C7 6938   0.483   0.393   0.173 -0.5052 -0.1559  0.1135
  462TMC3    C8 6939   0.876   0.646   0.212  0.0204  0.2273 -1.3373
  462TMC3    O1 6940   0.547   0.295   0.204 -0.6481 -0.2867 -0.2437
  462TMC3    O2 6941   0.924   0.758   0.189  1.0223 -0.1710 -0.3538
  463MPD2     C 6942   2.451   3.233   1.221 -0.2971  0.2954  0.0437
  463MPD2    C1 6943   2.326   3.260   1.279 -0.1185  0.2213 -0.1462
  463MPD2    C2 6944   2.291   3.397   1.295 -1.1445 -0.4697 -0.2692
  463MPD2    C3 6945   2.380   3.493   1.252 -0.1181 -0.1042 -0.0800
  463MPD2    C4 6946   2.501   3.460   1.193 -0.3479 -0.6165 -0.0697
  463MPD2    C5 6947   2.538   3.328   1.184 -0.1767 -0.6518  0.5287
  463MPD2     H 6948   2.206   3.416   1.360  0.3654 -0.4873  1.6952
  463MPD2    H1 6949   2.568   3.540   1.163 -1.8156  1.6463  2.6823
  463MPD2    H2 6950   2.490   3.133   1.210 -0.4136  0.4199 -1.4754
  463MPD2    H3 6951   2.633   3.305   1.136 -0.0187 -1.4790  1.2319
  463MPD2     N 6952   2.349   3.627   1.269  0.0216 -0.1107 -0.5046
  463MPD2    H5 6953   2.425   3.692   1.253  1.6297 -1.8847 -0.1047
  463MPD2    N1 6954   2.232   3.157   1.324  0.2231  0.3737 -0.2972
  463MPD2    H7 6955   2.146   3.184   1.372  0.4160  1.0193 -0.3076
  464TMC3    C1 6956   2.136   2.940   1.344 -1.0298  0.2118  0.6389
  464TMC3    C2 6957   2.040   3.004   1.417 -0.1151  0.4329  0.3344
  464TMC3    C3 6958   1.922   2.946   1.415 -0.5293  0.3355 -0.3843
  464TMC3    C4 6959   2.119   2.817   1.279  0.3883 -0.1866  0.7012
  464TMC3    C5 6960   1.989   2.769   1.271 -0.3068 -0.2306  0.3955
  464TMC3    C6 6961   1.893   2.839   1.342  0.6433  0.6449 -0.5944
  464TMC3     C 6962   2.247   3.018   1.291  0.4870 -0.2186  0.5301
  464TMC3     O 6963   2.334   2.962   1.228  0.7757 -0.1553  0.6519
  464TMC3     H 6964   2.065   3.088   1.481  1.3106  0.4436 -0.2315
  464TMC3    H1 6965   2.193   2.757   1.228 -1.7924 -1.6471 -0.7434
  464TMC3    H2 6966   1.791   2.813   1.319  0.6614  0.1609 -0.1328
  464TMC3    C7 6967   1.962   2.661   1.178 -0.7131 -0.5627 -0.4450
  464TMC3    C8 6968   1.817   3.036   1.464  0.2836 -0.2073  0.2350
  464TMC3    O1 6969   2.062   2.620   1.125  0.0779  0.6330  0.2144
  464TMC3    O2 6970   1.848   3.154   1.456 -0.5622  0.1970  0.3044
  465MPD2     C 6971   3.360   1.388  16.493 -0.5168 -0.1969 -0.4802
  465MPD2    C1 6972   3.306   1.406  16.617 -0.0438 -0.6463  0.0888
  465MPD2    C2 6973   3.238   1.521  16.655 -0.4720 -0.3363  0.6383
  465MPD2    C3 6974   3.225   1.626  16.558 -0.6459  0.2993  0.3012
  465MPD2    C4 6975   3.263   1.600  16.429 -0.3269  0.0804  0.1761
  465MPD2    C5 6976   3.326   1.487  16.402 -0.0445  0.6670 -0.2035
  465MPD2     H 6977   3.201   1.535  16.756  1.0602  2.9445  0.7630
  465MPD2    H1 6978   3.261   1.678  16.354  1.0684  1.8265  1.9556
  465MPD2    H2 6979   3.417   1.302  16.458  0.2764  0.5702 -1.0606
  465MPD2    H3 6980   3.357   1.464  16.300  0.2025 -0.1633  0.0522
  465MPD2     N 6981   3.185   1.754  16.598 -0.4886  0.3503 -0.4933
  465MPD2    H5 6982   3.164   1.763  16.697  0.8567  1.7237 -0.3326
  465MPD2    N1 6983   3.327   1.311  16.721 -0.0030  0.5288  0.0689
  465MPD2    H7 6984   3.303   1.338  16.816  2.5697  0.7010  0.6684
  466TMC3    C1 6985   3.028   2.102  16.764  0.0792 -0.0029  0.2114
  466TMC3    C2 6986   2.967   2.197  16.693  0.4987 -0.0509  0.7564
  466TMC3    C3 6987   2.976   2.178  16.558  0.4309  0.4601 -0.4777
  466TMC3    C4 6988   3.097   1.992  16.715  0.6931 -0.2142  0.1176
  466TMC3    C5 6989   3.111   1.988  16.582 -0.0263 -0.1866  0.8714
  466TMC3    C6 6990   3.055   2.086  16.503  0.6847 -0.0138 -0.2579
  466TMC3     C 6991   2.981   2.093  16.900  0.0401  0.4023  0.0020
  466TMC3     O 6992   2.958   2.201  16.955 -0.2054  0.1658  0.1928
  466TMC3     H 6993   2.919   2.277  16.748 -0.2878 -0.5806  0.8329
  466TMC3    H1 6994   3.158   1.928  16.778 -0.0040  0.1790  1.1849
  466TMC3    H2 6995   3.056   2.074  16.396  0.1924 -1.3858 -0.1047
  466TMC3    C7 6996   3.145   1.863  16.517  0.0247  0.0653  0.5178
  466TMC3    C8 6997   2.905   2.275  16.473  1.0237 -0.3093 -0.5133
  466TMC3    O1 6998   3.139   1.858  16.398  0.1357  0.6625 -0.0814
  466TMC3    O2 6999   2.936   2.269  16.356 -0.2611  0.0701 -0.5753
  467TMC3    C1 7000   4.201   0.390  13.979 -0.6216 -0.6543 -0.2355
  467TMC3    C2 7001   4.128   0.506  13.956  0.7634  0.6345 -0.1550
  467TMC3    C3 7002   3.994   0.499  13.943 -0.3009  0.4218  0.1097
  467TMC3    C4 7003   4.150   0.273  14.002  0.1431 -0.0320  0.1704
  467TMC3    C5 7004   4.017   0.267  13.983 -0.5458 -0.0102 -0.0327
  467TMC3    C6 7005   3.931   0.377  13.956  0.5190  0.1709  0.2606
  467TMC3     C 7006   4.343   0.404  14.010  0.6035 -0.1823  0.0746
  467TMC3     O 7007   4.359   0.512  14.062  0.1992  0.9313  0.4241
  467TMC3     H 7008   4.185   0.594  13.928  3.0320 -0.8255 -0.0431
  467TMC3    H1 7009   4.210   0.191  14.039  1.7122 -0.2483 -2.7783
  467TMC3    H2 7010   3.825   0.355  13.952  0.8191 -0.8559 -1.7587
  467TMC3    C7 7011   3.957   0.133  13.992 -0.8492 -0.2350  0.4295
  467TMC3    C8 7012   3.956   0.578  13.833  0.8816 -0.0128 -0.0796
  467TMC3    O1 7013   4.028   0.043  13.949 -0.4387 -0.1018  0.5172
  467TMC3    O2 7014   3.954   0.699  13.854 -0.1019  0.1874  0.0887
  468MPD2     C 7015   3.502   4.081  10.633  0.4050 -0.0497 -0.2364
  468MPD2    C1 7016   3.548   4.060  10.761 -0.9996  0.2545 -0.5824
  468MPD2    C2 7017   3.551   3.936  10.811 -0.2227  0.3079 -0.0540
  468MPD2    C3 7018   3.514   3.826  10.735 -0.4514 -0.5246 -0.5302
  468MPD2    C4 7019   3.479   3.846  10.604  0.2126 -0.5479  0.0153
  468MPD2    C5 7020   3.463   3.972  10.554 -0.0474  0.1375 -0.1804
  468MPD2     H 7021   3.587   3.923  10.913  0.7234  0.3129 -0.3878
  468MPD2    H1 7022   3.454   3.761  10.542 -1.7852  0.2357 -0.2800
  468MPD2    H2 7023   3.509   4.181  10.592  3.2252  0.1114  0.6754
  468MPD2    H3 7024   3.433   3.980  10.450  1.3467 -2.3091 -0.7744
  468MPD2     N 7025   3.513   3.691  10.780  0.3213  0.0434  0.0433
  468MPD2    H5 7026   3.510   3.620  10.707 -4.7063  0.8746 -0.5414
  468MPD2    N1 7027   3.608   4.162  10.836 -0.2550 -0.3473  0.3282
  468MPD2    H7 7028   3.648   4.127  10.922  1.5349 -1.1441 -0.8279
  469TMC3    C1 7029   3.633   4.376  10.935  0.4451  0.3268  0.2415
  469TMC3    C2 7030   3.756   4.346  10.985 -0.6736  0.1543 -1.3238
  469TMC3    C3 7031   3.807   4.411  11.093 -0.0349 -0.1328 -0.2953
  469TMC3    C4 7032   3.571   4.487  10.979 -0.1230  0.3118 -0.1620
  469TMC3    C5 7033   3.625   4.549  11.086 -0.4002  0.5037  0.5675
  469TMC3    C6 7034   3.733   4.512  11.151 -0.2825 -0.0279  0.4142
  469TMC3     C 7035   3.581   4.296  10.824  1.0324 -0.1822 -0.4742
  469TMC3     O 7036   3.495   4.349  10.753 -0.1215  0.1947  0.2033
  469TMC3     H 7037   3.811   4.258  10.952 -1.0068 -1.2129  1.7899
  469TMC3    H1 7038   3.475   4.519  10.939 -0.9990  1.0209  2.4625
  469TMC3    H2 7039   3.764   4.559  11.244  1.7053  1.3429 -0.9256
  469TMC3    C7 7040   3.545   4.655  11.139  0.3162 -0.5338 -0.3583
  469TMC3    C8 7041   3.909   4.342  11.178  0.2683 -0.2699 -0.7085
  469TMC3    O1 7042   3.493   4.729  11.054  0.3809  0.3091  0.1190
  469TMC3    O2 7043   3.942   4.228  11.147  0.0589  0.1151  0.0233
  470TMC3    C1 7044   0.078   0.407   0.813  0.4545 -0.3937 -0.1532
  470TMC3    C2 7045   0.181   0.497   0.828  0.1469 -0.1092 -0.4407
  470TMC3    C3 7046   0.142   0.605   0.901 -0.0733  0.1756  0.4919
  470TMC3    C4 7047   4.693   0.419   0.867  0.3436  0.1338 -0.4612
  470TMC3    C5 7048   4.662   0.539   0.930 -0.7516  0.7133 -0.2143
  470TMC3    C6 7049   0.017   0.631   0.955 -0.2287 -0.6617  0.2771
  470TMC3     C 7050   0.119   0.280   0.744 -0.0722  0.5867  0.1022
  470TMC3     O 7051   0.219   0.290   0.673  0.4826  0.2425  0.3871
  470TMC3     H 7052   0.270   0.483   0.768  0.0069  1.6622 -1.0514
  470TMC3    H1 7053   4.620   0.339   0.860 -0.2831  0.5148  1.6069
  470TMC3    H2 7054   4.730   0.724   1.005 -0.7752  1.0684 -3.2096
  470TMC3    C7 7055   4.524   0.573   0.936 -0.2715  0.1580 -0.0908
  470TMC3    C8 7056   0.248   0.690   0.940  0.4609  0.3841  0.1634
  470TMC3    O1 7057   4.452   0.504   0.857 -0.2193  0.0338  0.1564
  470TMC3    O2 7058   0.209   0.784   1.005  0.3820 -0.0293 -0.3460
  471MPD2     C 7059   0.611   1.379  16.500 -0.1086  0.1651  0.1446
  471MPD2    C1 7060   0.699   1.279  16.466  0.1090 -0.5190  0.2132
  471MPD2    C2 7061   0.816   1.268  16.538 -0.1213  0.4074 -0.1362
  471MPD2    C3 7062   0.833   1.338  16.663 -0.4219 -0.4303 -0.8498
  471MPD2    C4 7063   0.738   1.430  16.700 -0.1010  0.4330  0.1967
  471MPD2    C5 7064   0.633   1.458  16.613  0.4479  0.3995 -0.0906
  471MPD2     H 7065   0.885   1.195  16.497 -0.4713 -0.7435  1.3212
  471MPD2    H1 7066   0.746   1.482  16.795 -0.8866 -2.0626  1.6372
  471MPD2    H2 7067   0.519   1.392  16.444  0.4606 -0.7736 -0.9945
  471MPD2    H3 7068   0.562   1.536  16.638  2.5421  2.0885  0.6755
  471MPD2     N 7069   0.940   1.316  16.750  0.4358 -0.0472  0.8814
  471MPD2    H5 7070   0.929   1.366  16.838  0.1027  2.3130 -0.4979
  471MPD2    N1 7071   0.681   1.180  16.358  0.1852  0.5753 -0.3314
  471MPD2    H7 7072   0.754   1.110  16.351  0.0943  0.2194  2.3779
  472TMC3    C1 7073   0.573   1.065  16.173  0.3410  0.4061 -0.0944
  472TMC3    C2 7074   0.465   1.058  16.091  0.3493  0.0734 -0.1733
  472TMC3    C3 7075   0.451   0.949  16.014  0.6118 -0.3991 -0.0074
  472TMC3    C4 7076   0.669   0.969  16.184  0.1952 -0.0979  0.6291
  472TMC3    C5 7077   0.659   0.874  16.088 -0.0233  0.1057 -0.7115
  472TMC3    C6 7078   0.555   0.865  15.997  0.5715 -0.8385  0.4210
  472TMC3     C 7079   0.570   1.173  16.270 -0.8214 -0.5732  0.0002
  472TMC3     O 7080   0.472   1.249  16.267  0.5067 -1.0284 -0.5027
  472TMC3     H 7081   0.384   1.130  16.101  1.5345  1.7448 -2.5935
  472TMC3    H1 7082   0.760   0.977  16.241  1.2716  2.1242 -1.4327
  472TMC3    H2 7083   0.534   0.778  15.937 -0.3341 -1.0034  0.9767
  472TMC3    C7 7084   0.730   0.754  16.114 -0.8640 -0.4237  1.0115
  472TMC3    C8 7085   0.337   0.868  16.054  0.3941 -0.9191  0.1022
  472TMC3    O1 7086   0.764   0.731  16.231 -0.2759  0.0335  0.2961
  472TMC3    O2 7087   0.363   0.755  16.096 -0.0319 -0.0653 -0.0117
  473MPD2     C 7088   0.578   3.211  13.840 -0.3489 -0.6525  0.3912
  473MPD2    C1 7089   0.704   3.258  13.802  0.0664 -0.1775  0.1994
  473MPD2    C2 7090   0.782   3.337  13.878 -0.0863 -0.1622  0.4163
  473MPD2    C3 7091   0.727   3.378  14.002 -0.3600 -0.4387 -0.1220
  473MPD2    C4 7092   0.605   3.342  14.039 -0.3589 -0.3890 -0.2084
  473MPD2    C5 7093   0.536   3.247  13.965 -0.6608 -0.0790  0.3203
  473MPD2     H 7094   0.877   3.380  13.847 -0.6273 -0.2688 -1.3611
  473MPD2    H1 7095   0.567   3.377  14.134  0.1299 -1.0011  0.2065
  473MPD2    H2 7096   0.517   3.143  13.781  1.8280 -1.5705 -0.7896
  473MPD2    H3 7097   0.439   3.206  13.991 -0.9765  0.8274  0.5587
  473MPD2     N 7098   0.790   3.479  14.078  0.3792  0.7338  0.0393
  473MPD2    H5 7099   0.744   3.533  14.151  1.1618 -0.8179  1.7028
  473MPD2    N1 7100   0.756   3.218  13.674 -0.1124 -0.1898 -0.0589
  473MPD2    H7 7101   0.846   3.259  13.649  1.1245 -1.4757  2.2759
  474TMC3    C1 7102   0.950   3.624  14.153  0.2256  0.3516 -0.5373
  474TMC3    C2 7103   0.854   3.730  14.147 -0.1537  0.1591 -0.8170
  474TMC3    C3 7104   0.858   3.830  14.235  0.4238 -0.4882  0.3269
  474TMC3    C4 7105   1.039   3.617  14.257  0.5119  0.5220  0.5078
  474TMC3    C5 7106   1.025   3.711  14.355  0.3860  0.4907  0.3650
  474TMC3    C6 7107   0.947   3.819  14.339 -0.7690  0.2082 -0.0439
  474TMC3     C 7108   0.926   3.503  14.079  0.4165 -0.2697  0.5046
  474TMC3     O 7109   1.018   3.435  14.037 -0.4183  0.0021 -0.0647
  474TMC3     H 7110   0.777   3.733  14.071 -0.6267 -1.5808 -0.4049
  474TMC3    H1 7111   1.115   3.540  14.263 -1.6136 -1.7331 -1.3145
  474TMC3    H2 7112   0.951   3.888  14.423 -0.4620 -0.0899  0.1827
  474TMC3    C7 7113   1.153   3.723  14.433 -0.4740 -0.9791  0.5146
  474TMC3    C8 7114   0.766   3.945  14.218 -0.7778  0.3414  0.0675
  474TMC3    O1 7115   1.258   3.666  14.396  0.7740 -0.1771  0.2515
  474TMC3    O2 7116   0.688   3.938  14.129 -0.0011  0.3769 -0.3765
  475MPD2     C 7117   4.381   1.791  11.141 -0.2126 -0.2592  0.1388
  475MPD2    C1 7118   4.360   1.910  11.214 -0.9838 -0.3941  0.0891
  475MPD2    C2 7119   4.250   1.983  11.176  0.2677  1.4582  0.5630
  475MPD2    C3 7120   4.162   1.941  11.078 -0.2066 -0.0651 -0.7943
  475MPD2    C4 7121   4.164   1.816  11.024 -0.2125  0.0201  1.0590
  475MPD2    C5 7122   4.277   1.745  11.058 -0.1263  0.0338 -0.5241
  475MPD2     H 7123   4.243   2.081  11.221 -0.1889  1.0907  1.2990
  475MPD2    H1 7124   4.092   1.787  10.947  0.2011 -2.5859  1.6508
  475MPD2    H2 7125   4.461   1.721  11.161  0.0952  0.1083  0.1930
  475MPD2    H3 7126   4.293   1.644  11.020 -1.0053 -1.3449  2.7505
  475MPD2     N 7127   4.059   2.040  11.048 -0.2811 -0.2756  0.3011
  475MPD2    H5 7128   4.065   2.138  11.071  0.5869 -0.2098 -0.1876
  475MPD2    N1 7129   4.450   1.962  11.313  0.5212  0.0884 -0.6637
  475MPD2    H7 7130   4.439   2.056  11.351 -2.3722 -0.3886 -0.3058
  476TMC3    C1 7131   4.656   1.984  11.438 -1.2623  0.2887 -0.0104
  476TMC3    C2 7132   0.029   2.029  11.368 -0.0199  0.6843 -0.5644
  476TMC3    C3 7133   0.054   2.161  11.355 -0.0970 -0.3960 -0.1420
  476TMC3    C4 7134   4.585   2.079  11.509 -0.4849  0.3777  0.5742
  476TMC3    C5 7135   4.625   2.209  11.510 -0.4039 -0.7665  1.3190
  476TMC3    C6 7136   4.735   2.247  11.444 -0.5380 -1.2042  0.3389
  476TMC3     C 7137   4.575   1.907  11.342  0.8670  0.1564 -0.0988
  476TMC3     O 7138   4.642   1.829  11.278 -0.4746  0.5330 -0.7722
  476TMC3     H 7139   0.099   1.969  11.310  0.2950  0.7173 -0.2198
  476TMC3    H1 7140   4.493   2.054  11.560 -1.0785  0.4444 -0.4701
  476TMC3    H2 7141   0.033   2.349  11.440  1.6381 -2.0166 -0.5164
  476TMC3    C7 7142   4.549   2.300  11.597 -0.8536  0.2116  0.4277
  476TMC3    C8 7143   0.045   2.212  11.220  0.0070 -0.2340  0.2133
  476TMC3    O1 7144   4.495   2.250  11.697  0.4998  0.3358 -0.1246
  476TMC3    O2 7145   0.047   2.333  11.206 -0.4991  0.1319 -0.2331
  477MPD2     C 7146   2.299   3.540  12.159 -0.7592  0.3063 -0.1752
  477MPD2    C1 7147   2.276   3.427  12.082  0.7040 -0.8062  0.3417
  477MPD2    C2 7148   2.302   3.302  12.133 -0.2664  0.3817  1.5255
  477MPD2    C3 7149   2.345   3.286  12.264  0.4126 -0.3682 -0.6992
  477MPD2    C4 7150   2.370   3.395  12.341  0.5434 -0.1196 -0.3323
  477MPD2    C5 7151   2.356   3.520  12.286 -0.0383 -0.7232  0.3917
  477MPD2     H 7152   2.288   3.214  12.071 -0.0481 -0.4272  2.6323
  477MPD2    H1 7153   2.399   3.374  12.443 -0.0602 -1.6833 -0.4853
  477MPD2    H2 7154   2.285   3.643  12.128  0.3061  0.2625 -0.8066
  477MPD2    H3 7155   2.370   3.604  12.353 -0.2366 -0.7768  0.5023
  477MPD2     N 7156   2.357   3.152  12.316  0.1018  0.2308  0.6982
  477MPD2    H5 7157   2.374   3.092  12.236 -2.2045  2.0396 -1.1923
  477MPD2    N1 7158   2.205   3.443  11.963 -0.0477  0.1166  0.5753
  477MPD2    H7 7159   2.179   3.537  11.935 -0.1315 -0.0866 -0.0292
  478TMC3    C1 7160   2.078   3.393  11.775  0.0055 -0.0887 -0.2267
  478TMC3    C2 7161   1.996   3.492  11.799 -0.4966 -0.1069 -0.1820
  478TMC3    C3 7162   1.876   3.505  11.733  1.1208  0.0262 -0.0748
  478TMC3    C4 7163   2.055   3.304  11.670  0.0892  0.2448  0.6765
  478TMC3    C5 7164   1.938   3.328  11.602 -0.1517  0.0586  0.1285
  478TMC3    C6 7165   1.845   3.422  11.626  0.0380 -0.1814  0.4547
  478TMC3     C 7166   2.161   3.343  11.880 -1.3022 -0.6207 -0.4646
  478TMC3     O 7167   2.210   3.230  11.872 -0.1091  0.1654 -0.2537
  478TMC3     H 7168   2.013   3.566  11.876 -1.0997 -0.6932  0.5169
  478TMC3    H1 7169   2.122   3.222  11.648  1.5812  1.5281  0.3574
  478TMC3    H2 7170   1.749   3.421  11.575  0.9731  1.6301 -1.3560
  478TMC3    C7 7171   1.915   3.231  11.500 -0.1375  0.2462  0.3005
  478TMC3    C8 7172   1.779   3.580  11.808 -0.2015  0.0578  0.4578
  478TMC3    O1 7173   1.960   3.122  11.519  0.0474 -0.1306 -0.9434
  478TMC3    O2 7174   1.811   3.625  11.916 -0.2325 -0.7394 -0.1020
  479MPD2     C 7175   0.364   0.366  15.253 -0.3467 -0.1282  0.1177
  479MPD2    C1 7176   0.322   0.358  15.380  0.3802  0.1539 -0.1596
  479MPD2    C2 7177   0.395   0.415  15.483  0.7700 -0.5968  0.2157
  479MPD2    C3 7178   0.490   0.512  15.448  0.0176 -0.0911  0.4449
  479MPD2    C4 7179   0.546   0.513  15.323  0.1420  0.1192 -0.4696
  479MPD2    C5 7180   0.479   0.437  15.227  0.1051 -0.0405  0.3545
  479MPD2     H 7181   0.379   0.408  15.590 -1.3621 -0.1230 -0.0727
  479MPD2    H1 7182   0.634   0.570  15.295 -1.1985  1.7471 -1.3766
  479MPD2    H2 7183   0.309   0.321  15.171  2.9522 -1.3607 -1.4193
  479MPD2    H3 7184   0.510   0.444  15.124  0.4772 -0.6088  0.4266
  479MPD2     N 7185   0.545   0.618  15.536  0.1756 -0.6359  0.7043
  479MPD2    H5 7186   0.629   0.661  15.498 -1.3597  1.6030 -0.1487
  479MPD2    N1 7187   0.200   0.294  15.402 -0.0723  0.1245 -0.0371
  479MPD2    H7 7188   0.141   0.272  15.323  0.0345  0.1333 -0.1196
  480TMC3    C1 7189   0.187   0.565  15.807 -0.7057  0.1962  0.0972
  480TMC3    C2 7190   0.100   0.576  15.703 -0.1316 -0.2810  0.6106
  480TMC3    C3 7191   0.153   0.635  15.590 -0.2287 -0.2948  0.2246
  480TMC3    C4 7192   0.315   0.612  15.809  0.3713  0.2303 -0.0164
  480TMC3    C5 7193   0.362   0.663  15.693 -0.2940 -0.1522  0.3723
  480TMC3    C6 7194   0.281   0.687  15.586  0.2531 -0.2213 -0.9333
  480TMC3     C 7195   0.150   0.481  15.917  0.5120 -0.3416  0.1130
  480TMC3     O 7196   0.245   0.438  15.981 -0.3033 -0.4019 -0.1058
  480TMC3     H 7197   4.734   0.548  15.704  0.2062 -1.5617 -0.2851
  480TMC3    H1 7198   0.374   0.601  15.899  1.0838  2.0084 -0.2662
  480TMC3    H2 7199   0.325   0.729  15.496  0.0172  0.3428 -0.7839
  480TMC3    C7 7200   0.505   0.649  15.666  0.4167  1.0626  0.3154
  480TMC3    C8 7201   0.072   0.614  15.470  0.3182 -0.0409  0.0895
  480TMC3    O1 7202   0.587   0.674  15.754 -0.2939 -0.6292 -0.3653
  480TMC3    O2 7203   4.701   0.558  15.476  0.6362  0.0720 -0.4678
  481MPD2     C 7204   2.214   0.050  14.478  0.2934  0.4829  0.1381
  481MPD2    C1 7205   2.087   0.019  14.526  0.2195  0.8354 -0.4430
  481MPD2    C2 7206   2.083   4.718  14.660 -0.1266 -0.4650  0.1765
  481MPD2    C3 7207   2.196   4.686  14.727  0.3575 -0.1547 -0.1616
  481MPD2    C4 7208   2.315   4.712  14.678  0.1600 -0.4205 -0.1272
  481MPD2    C5 7209   2.325   0.026  14.558 -0.3619  0.3013  0.2775
  481MPD2     H 7210   1.991   4.718  14.718  0.0322  1.3963  0.3984
  481MPD2    H1 7211   2.401   4.677  14.734  1.2766 -0.6217 -2.0060
  481MPD2    H2 7212   2.233   0.071  14.373 -2.2407  0.5381 -0.3111
  481MPD2    H3 7213   2.422   0.044  14.512 -1.2142  0.1514 -1.5967
  481MPD2     N 7214   2.187   4.624  14.855  0.1367  0.2919 -1.0178
  481MPD2    H5 7215   2.272   4.601  14.905 -1.1559 -1.0439  0.6158
  481MPD2    N1 7216   1.977   0.046  14.445 -0.2319  0.1955  0.3025
  481MPD2    H7 7217   1.998   0.074  14.350 -1.0217 -0.5894 -0.0923
  482TMC3    C1 7218   1.747   0.019  14.381  0.0832 -0.4599 -0.2524
  482TMC3    C2 7219   1.641   4.669  14.388  0.6277 -0.1139  0.3308
  482TMC3    C3 7220   1.535   4.703  14.306  0.8443  0.2632  0.5253
  482TMC3    C4 7221   1.758   0.125  14.293 -0.7153  0.3847 -0.3516
  482TMC3    C5 7222   1.659   0.127  14.197  0.1637  0.0303 -0.3336
  482TMC3    C6 7223   1.539   0.062  14.213 -0.0424  0.0310  0.2043
  482TMC3     C 7224   1.843   0.012  14.490  0.0866 -0.5012  0.2239
  482TMC3     O 7225   1.806   4.704  14.599 -0.5210  0.4786 -0.2341
  482TMC3     H 7226   1.622   4.603  14.472 -0.0372 -0.0896  0.2036
  482TMC3    H1 7227   1.856   0.163  14.266 -1.1618  0.3569 -2.0325
  482TMC3    H2 7228   1.468   0.082  14.134 -3.2434 -0.1128  3.0467
  482TMC3    C7 7229   1.685   0.211  14.079  0.3255  0.0001  0.8912
  482TMC3    C8 7230   1.431   4.601  14.296  0.4345 -0.5272  0.2243
  482TMC3    O1 7231   1.629   0.176  13.977 -0.2173  0.5052  0.1463
  482TMC3    O2 7232   1.451   4.494  14.352 -0.1590  0.0885  0.0072
  483TMC3    C1 7233   4.374   3.777   0.813  0.2605 -0.3402  0.3869
  483TMC3    C2 7234   4.455   3.872   0.755 -0.3934  0.0482 -0.1746
  483TMC3    C3 7235   4.586   3.885   0.786 -0.8749 -0.0829  0.5563
  483TMC3    C4 7236   4.432   3.678   0.897 -0.5127 -0.0486  0.4668
  483TMC3    C5 7237   4.566   3.682   0.908 -0.0338 -0.2173 -0.2384
  483TMC3    C6 7238   4.646   3.792   0.870  0.6631 -0.1290  0.1896
  483TMC3     C 7239   4.249   3.740   0.734  0.8382  0.1128 -0.6754
  483TMC3     O 7240   4.198   3.817   0.649  1.2418  0.1771 -0.0016
  483TMC3     H 7241   4.404   3.931   0.680 -0.6256 -0.5523 -0.4910
  483TMC3    H1 7242   4.379   3.600   0.951 -0.2464 -0.1330  0.6028
  483TMC3    H2 7243   0.011   3.803   0.900 -0.5268  0.9497  3.9705
  483TMC3    C7 7244   4.617   3.546   0.891  0.5017  0.3099 -0.9074
  483TMC3    C8 7245   4.663   3.998   0.728 -0.6776  0.1201 -0.0748
  483TMC3    O1 7246   4.541   3.450   0.896  0.0688 -0.2718  0.0879
  483TMC3    O2 7247   4.615   4.060   0.635  0.3702  0.3603 -0.2145
  484MPD2     C 7248   2.074   1.468  12.658  0.7419  0.0207 -0.0013
  484MPD2    C1 7249   2.162   1.426  12.758 -0.4686 -0.1688  0.5778
  484MPD2    C2 7250   2.291   1.416  12.720  0.2566 -0.0631 -0.2075
  484MPD2    C3 7251   2.342   1.449  12.594  0.1897  0.3044 -0.0255
  484MPD2    C4 7252   2.254   1.476  12.494 -0.2207  0.2308  0.0587
  484MPD2    C5 7253   2.124   1.480  12.529 -1.1867 -0.9094  0.4740
  484MPD2     H 7254   2.364   1.389  12.795  0.6820 -1.9768 -1.3284
  484MPD2    H1 7255   2.291   1.489  12.392 -1.3020 -0.8471 -0.4771
  484MPD2    H2 7256   1.968   1.467  12.680  0.1918 -0.1794 -2.6058
  484MPD2    H3 7257   2.049   1.514  12.457  0.4923  0.4909 -0.6158
  484MPD2     N 7258   2.479   1.458  12.560 -0.1111  0.1150 -0.7016
  484MPD2    H5 7259   2.509   1.487  12.468  2.5472  1.7285  0.6812
  484MPD2    N1 7260   2.112   1.408  12.891  0.3795  1.1389 -0.3131
  484MPD2    H7 7261   2.011   1.411  12.906  0.4651  2.9578 -0.0191
  485TMC3    C1 7262   2.715   1.447  12.575  0.7322 -0.2953 -0.0521
  485TMC3    C2 7263   2.823   1.448  12.661  0.1759 -0.6725  0.0986
  485TMC3    C3 7264   2.944   1.491  12.609 -1.0988  0.3090  0.5163
  485TMC3    C4 7265   2.724   1.491  12.442 -0.0411 -0.0930 -0.6641
  485TMC3    C5 7266   2.850   1.523  12.398 -0.3111 -0.1347  0.1591
  485TMC3    C6 7267   2.960   1.525  12.483  0.0866  0.2994  0.3640
  485TMC3     C 7268   2.584   1.424  12.641  0.3521 -0.3201  1.3320
  485TMC3     O 7269   2.582   1.416  12.764 -0.2142 -0.1180 -0.2617
  485TMC3     H 7270   2.805   1.413  12.763 -0.7361 -1.2809 -0.2721
  485TMC3    H1 7271   2.642   1.490  12.372 -0.1095 -4.5904 -0.5288
  485TMC3    H2 7272   3.058   1.538  12.440  0.2410 -0.8355  0.3818
  485TMC3    C7 7273   2.860   1.573  12.255 -0.1217  0.2437 -0.8927
  485TMC3    C8 7274   3.059   1.517  12.697  0.0961 -0.0175 -0.0601
  485TMC3    O1 7275   2.765   1.563  12.180  0.3705  0.1234  0.0282
  485TMC3    O2 7276   3.082   1.440  12.791 -0.1598  0.7875  0.1076
  486MPD2     C 7277   0.063   0.325  13.143  0.6795 -0.4044  0.5574
  486MPD2    C1 7278   0.017   0.270  13.026  0.3459 -0.0655  0.9263
  486MPD2    C2 7279   4.670   0.355  12.951  0.5262  0.7316 -0.0713
  486MPD2    C3 7280   4.642   0.489  12.984  0.0766  0.0174 -0.8492
  486MPD2    C4 7281   4.689   0.529  13.110 -0.3748  0.1471  0.6635
  486MPD2    C5 7282   0.027   0.450  13.184 -0.4378 -0.0299  0.0451
  486MPD2     H 7283   4.644   0.322  12.851 -2.1334 -1.7006  1.4365
  486MPD2    H1 7284   4.664   0.626  13.153 -2.3120 -0.5900  1.1896
  486MPD2    H2 7285   0.135   0.274  13.206 -1.2722 -0.7949  2.4538
  486MPD2    H3 7286   0.058   0.498  13.276 -1.1027  2.4753 -1.0188
  486MPD2     N 7287   4.569   0.575  12.890 -0.0814 -0.3697 -0.1273
  486MPD2    H5 7288   4.553   0.548  12.794 -0.0776  2.3715 -0.9038
  486MPD2    N1 7289   0.051   0.142  13.001 -0.9536 -0.5432  0.0164
  486MPD2    H7 7290   0.107   0.105  13.078  0.0215 -1.1265 -0.9819
  487TMC3    C1 7291   0.001   4.657  12.919 -0.4128 -0.3943  0.1688
  487TMC3    C2 7292   4.668   4.582  12.833  0.5405  0.1479 -0.7980
  487TMC3    C3 7293   4.667   4.446  12.849  0.3844 -0.4798  0.1112
  487TMC3    C4 7294   0.070   4.597  13.026 -0.0071  0.1172 -0.4361
  487TMC3    C5 7295   0.063   4.463  13.045  0.2418 -0.2955 -0.7475
  487TMC3    C6 7296   0.002   4.381  12.946 -0.2671  0.2452  0.0231
  487TMC3     C 7297   4.729   0.063  12.905  0.3953 -0.0809  0.6442
  487TMC3     O 7298   4.639   0.090  12.828 -0.2284  0.1611 -0.4001
  487TMC3     H 7299   4.603   4.620  12.755  1.3737 -0.3228 -1.7260
  487TMC3    H1 7300   0.126   4.657  13.097  1.2830 -1.9908  0.3402
  487TMC3    H2 7301   4.725   4.281  12.984  2.1768  0.0397  0.4564
  487TMC3    C7 7302   0.102   4.410  13.178 -0.1666  0.5695 -1.0323
  487TMC3    C8 7303   4.542   4.389  12.814  0.4929 -0.5154 -0.8723
  487TMC3    O1 7304   0.128   4.483  13.272 -0.3742  0.3940  0.0165
  487TMC3    O2 7305   4.495   4.414  12.704 -0.1708 -0.0458 -0.1576
  488MPD2     C 7306   4.575   2.099  16.013 -0.3457  0.1120 -0.7138
  488MPD2    C1 7307   4.647   2.151  16.111 -0.8903  0.3303  0.1777
  488MPD2    C2 7308   4.634   2.094  16.235 -0.2890 -0.0444 -0.7630
  488MPD2    C3 7309   4.550   1.988  16.257  0.8135  0.6129  0.3686
  488MPD2    C4 7310   4.481   1.941  16.156  0.1842  0.0572  0.3260
  488MPD2    C5 7311   4.502   1.988  16.032 -0.1863  0.1919 -0.1129
  488MPD2     H 7312   4.688   2.145  16.314  0.2388  0.2641 -1.3168
  488MPD2    H1 7313   4.416   1.856  16.172  0.2804 -0.1615 -0.4690
  488MPD2    H2 7314   4.575   2.137  15.911  0.4137  0.1511 -0.7033
  488MPD2    H3 7315   4.458   1.940  15.946 -0.7825  0.1800  0.1989
  488MPD2     N 7316   4.538   1.942  16.391 -0.0411 -0.2469 -0.1951
  488MPD2    H5 7317   4.604   1.982  16.457 -1.0047  1.9618 -0.5411
  488MPD2    N1 7318   4.729   2.265  16.098  0.3271 -0.0600  0.2449
  488MPD2    H7 7319   0.049   2.298  16.175  1.5114  0.7461 -0.9978
  489TMC3    C1 7320   4.466   1.824  16.578 -0.5112  0.4208 -0.4764
  489TMC3    C2 7321   4.582   1.862  16.644  0.3596 -0.1583  0.5900
  489TMC3    C3 7322   4.581   1.865  16.778  0.7089  0.5104 -0.1960
  489TMC3    C4 7323   4.365   1.761  16.645 -0.1409 -0.3960 -0.0421
  489TMC3    C5 7324   4.381   1.742  16.779  0.4560 -0.1651 -0.4710
  489TMC3    C6 7325   4.485   1.800  16.853 -0.0416  0.0562  0.4041
  489TMC3     C 7326   4.448   1.853  16.438  0.2398 -0.2687  0.6167
  489TMC3     O 7327   4.357   1.792  16.383 -0.1887  0.4221  0.3735
  489TMC3     H 7328   4.665   1.915  16.599 -0.0481  1.0120  1.2223
  489TMC3    H1 7329   4.276   1.736  16.587 -0.2896 -1.9327  0.8552
  489TMC3    H2 7330   4.480   1.807  16.961  2.6087 -1.2635  0.6003
  489TMC3    C7 7331   4.270   1.697  16.859 -0.6762  0.6886  0.8822
  489TMC3    C8 7332   4.641   1.989  16.827 -0.3737  0.2865  0.0614
  489TMC3    O1 7333   4.298   1.671  16.974  0.8760 -0.3982 -0.7640
  489TMC3    O2 7334   4.735   2.038  16.770  0.6919  0.6502  0.3659
  490MPD2     C 7335   0.593   1.780  17.655 -0.5201  0.3122 -0.3706
  490MPD2    C1 7336   0.638   1.727  17.540  0.1085 -0.0497  0.3907
  490MPD2    C2 7337   0.777   1.711  17.523  0.0740 -0.1047 -0.2059
  490MPD2    C3 7338   0.863   1.755  17.622  0.9987  0.4088  0.4793
  490MPD2    C4 7339   0.808   1.791  17.748 -0.6171 -0.8453  0.1324
  490MPD2    C5 7340   0.671   1.814   0.014 -0.0779  0.3996 -0.0828
  490MPD2     H 7341   0.809   1.654  17.437  2.2159  1.0437 -0.1648
  490MPD2    H1 7342   0.870   1.826   0.078  1.4200 -0.8639 -1.4055
  490MPD2    H2 7343   0.487   1.803  17.658 -0.0050  2.7600 -0.7605
  490MPD2    H3 7344   0.636   1.864   0.103 -1.7151 -0.9831  0.0607
  490MPD2     N 7345   1.002   1.758  17.603 -0.1025 -0.2498  0.2050
  490MPD2    H5 7346   1.061   1.782  17.681  0.6313  1.2905 -0.8297
  490MPD2    N1 7347   0.551   1.672  17.442  0.7261  0.3851 -0.1183
  490MPD2    H7 7348   0.597   1.631  17.362 -1.9063 -3.2661  0.2339
  491TMC3    C1 7349   0.357   1.579  17.330  0.6076  0.6153 -0.0052
  491TMC3    C2 7350   0.244   1.508  17.362  0.8210 -0.5254 -0.3786
  491TMC3    C3 7351   0.195   1.425  17.270  0.5491  0.2172 -0.4781
  491TMC3    C4 7352   0.403   1.594  17.205  0.4345 -0.5682  0.0168
  491TMC3    C5 7353   0.340   1.520  17.105 -0.4085  0.3222 -1.0941
  491TMC3    C6 7354   0.244   1.426  17.141  0.8372 -0.1539 -0.3863
  491TMC3     C 7355   0.414   1.670  17.440  0.3156 -0.2031 -0.2426
  491TMC3     O 7356   0.334   1.718  17.522  0.3596 -0.2172 -0.4429
  491TMC3     H 7357   0.205   1.512  17.464 -0.1031  0.9379 -0.7946
  491TMC3    H1 7358   0.492   1.653  17.187 -2.7668  4.4755  0.6768
  491TMC3    H2 7359   0.221   1.364  17.055 -0.7437 -0.0662 -0.0189
  491TMC3    C7 7360   0.395   1.514  16.972  0.2171  0.1150  0.2368
  491TMC3    C8 7361   0.099   1.320  17.307 -0.2603  0.1419  0.1840
  491TMC3    O1 7362   0.416   1.401  16.926 -0.6597  0.5186 -0.4199
  491TMC3    O2 7363   0.071   1.311  17.426 -0.0036 -0.0629 -0.2017
  492MPD2     C 7364   1.625   1.433  11.380 -0.0376 -0.3680 -0.1941
  492MPD2    C1 7365   1.489   1.436  11.360  0.1349  0.5218  0.4296
  492MPD2    C2 7366   1.410   1.393  11.473  0.4713 -0.1983 -0.3864
  492MPD2    C3 7367   1.460   1.368  11.599 -0.3543  0.0616  0.2580
  492MPD2    C4 7368   1.596   1.378  11.612 -0.2254  1.6580  0.7627
  492MPD2    C5 7369   1.673   1.400  11.503  0.5796  0.0337 -0.1474
  492MPD2     H 7370   1.303   1.383  11.459  0.5201 -0.7307 -0.3600
  492MPD2    H1 7371   1.643   1.358  11.707 -0.3573  0.5143  0.5886
  492MPD2    H2 7372   1.695   1.472  11.307  0.5990  1.6768  1.5233
  492MPD2    H3 7373   1.780   1.385  11.505  0.5460 -0.4431 -1.3509
  492MPD2     N 7374   1.389   1.317  11.708 -0.4053  0.5725 -0.1056
  492MPD2    H5 7375   1.439   1.333  11.794  1.5784  1.5376 -1.4581
  492MPD2    N1 7376   1.454   1.488  11.240  0.4401 -0.2213  0.9295
  492MPD2    H7 7377   1.522   1.504  11.167 -3.3307 -0.8108 -2.6946
  493TMC3    C1 7378   1.331   1.607  11.105  0.7245  0.1414 -0.0390
  493TMC3    C2 7379   1.437   1.702  11.115  0.5001 -0.3174  0.0972
  493TMC3    C3 7380   1.441   1.794  11.018 -0.1193 -0.5034 -0.2156
  493TMC3    C4 7381   1.239   1.609  11.014  0.9505  0.1813  0.5422
  493TMC3    C5 7382   1.239   1.723  10.928 -0.5553  0.5721 -0.6422
  493TMC3    C6 7383   1.335   1.814  10.929 -0.8597 -0.9012  1.2269
  493TMC3     C 7384   1.321   1.510  11.210 -0.0682 -0.5121 -0.5114
  493TMC3     O 7385   1.214   1.485  11.266 -0.0032  0.2901 -0.3212
  493TMC3     H 7386   1.504   1.711  11.200  1.8832 -1.0302 -0.9293
  493TMC3    H1 7387   1.153   1.544  11.014 -0.2729  1.7961 -0.0816
  493TMC3    H2 7388   1.332   1.903  10.867  1.4121 -2.6207 -1.3936
  493TMC3    C7 7389   1.124   1.734  10.840 -0.3842  0.0863  0.4909
  493TMC3    C8 7390   1.564   1.882  11.026 -0.3791 -0.3354  0.1920
  493TMC3    O1 7391   1.029   1.664  10.862 -0.2502 -0.0923 -0.0257
  493TMC3    O2 7392   1.643   1.851  11.114  0.8669  0.3065 -0.1051
  494TMC3    C1 7393   1.336   3.576   0.316 -0.1934  0.7799  0.8002
  494TMC3    C2 7394   1.401   3.466   0.354  0.2474 -0.5505 -0.7280
  494TMC3    C3 7395   1.477   3.409   0.262  0.4336 -0.0706  0.3984
  494TMC3    C4 7396   1.346   3.636   0.193 -0.7405 -0.1047 -0.2998
  494TMC3    C5 7397   1.446   3.581   0.106 -0.0067 -0.3133 -0.4817
  494TMC3    C6 7398   1.506   3.460   0.140  0.5448  0.1929 -0.5013
  494TMC3     C 7399   1.229   3.632   0.396 -0.5074  0.8498  0.6421
  494TMC3     O 7400   1.150   3.709   0.344  0.1987 -0.1686  0.0896
  494TMC3     H 7401   1.378   3.418   0.448  3.7761  2.7543  1.8282
  494TMC3    H1 7402   1.292   3.724   0.161  2.2609  1.8302  0.0253
  494TMC3    H2 7403   1.584   3.426   0.073 -0.5110 -0.7730 -1.2547
  494TMC3    C7 7404   1.448   3.615  17.714  0.3560  0.1253 -0.5170
  494TMC3    C8 7405   1.504   3.263   0.283  0.1320  0.0040  0.5169
  494TMC3    O1 7406   1.541   3.571  17.654 -0.2052 -0.5071 -0.2864
  494TMC3    O2 7407   1.507   3.227   0.398  0.8566 -0.4188 -0.5769
  495TMC3    C1 7408   0.594   0.471  14.700  0.3000 -0.2431  0.4000
  495TMC3    C2 7409   0.517   0.447  14.586 -0.4665 -0.0695  0.1171
  495TMC3    C3 7410   0.411   0.530  14.566  0.3358  0.3394  0.0376
  495TMC3    C4 7411   0.574   0.575  14.788  0.1445  0.2686  0.0674
  495TMC3    C5 7412   0.463   0.647  14.761  0.0551 -0.1600 -0.6554
  495TMC3    C6 7413   0.383   0.627  14.654 -0.3940 -0.3804  0.1535
  495TMC3     C 7414   0.703   0.386  14.733 -1.1824 -0.3531  0.3702
  495TMC3     O 7415   0.791   0.436  14.804  0.8797  0.0842  0.2976
  495TMC3     H 7416   0.535   0.358  14.527  0.1926  1.1163 -1.4533
  495TMC3    H1 7417   0.629   0.576  14.882 -0.1474  1.7022  0.2211
  495TMC3    H2 7418   0.283   0.668  14.641  0.4265  1.8956  1.0922
  495TMC3    C7 7419   0.392   0.661  14.884 -1.1243  0.4399  0.4722
  495TMC3    C8 7420   0.294   0.473  14.491  0.3694 -0.7903  0.3800
  495TMC3    O1 7421   0.459   0.679  14.985 -0.1559 -0.5289 -0.8791
  495TMC3    O2 7422   0.186   0.516  14.511  0.5552  0.3611  0.4383
  496MPD2     C 7423   2.146   0.546  15.164 -0.5745 -0.1385 -0.7474
  496MPD2    C1 7424   2.238   0.547  15.268 -0.6085  0.3587  0.0066
  496MPD2    C2 7425   2.188   0.527  15.399 -0.0935  0.4395 -0.3580
  496MPD2    C3 7426   2.054   0.506  15.420  0.7519 -0.1679 -0.2011
  496MPD2    C4 7427   1.968   0.501  15.316  0.1732 -0.3490 -0.2297
  496MPD2    C5 7428   2.015   0.520  15.187  0.3787  0.1926  0.1262
  496MPD2     H 7429   2.249   0.534  15.488 -0.2648  2.0112 -0.3719
  496MPD2    H1 7430   1.862   0.494  15.335  0.1234  0.1008 -0.3484
  496MPD2    H2 7431   2.178   0.568  15.062  0.8129  0.1048 -0.2620
  496MPD2    H3 7432   1.954   0.522  15.098 -0.6944 -0.4884  0.8462
  496MPD2     N 7433   1.998   0.481  15.546  0.5275 -0.5981 -0.1011
  496MPD2    H5 7434   1.897   0.466  15.547  0.6363 -1.2131  1.1859
  496MPD2    N1 7435   2.374   0.566  15.248  0.5264  0.1061  0.4608
  496MPD2    H7 7436   2.399   0.574  15.150  2.1059 -3.0840  0.6123
  497TMC3    C1 7437   1.966   0.427  15.772 -1.5128  1.0127  0.2160
  497TMC3    C2 7438   1.882   0.331  15.736  0.3203 -0.9344 -0.1537
  497TMC3    C3 7439   1.852   0.231  15.826  0.4642  0.3465 -0.1808
  497TMC3    C4 7440   2.002   0.442  15.901  0.2422  0.2931  0.2341
  497TMC3    C5 7441   1.958   0.349  15.998 -0.5608 -0.0364 -0.2172
  497TMC3    C6 7442   1.900   0.235  15.951 -0.8570 -0.1495 -0.5765
  497TMC3     C 7443   2.054   0.492  15.673 -0.1872  0.7975 -0.3004
  497TMC3     O 7444   2.156   0.543  15.714  0.2283 -0.4266 -0.3867
  497TMC3     H 7445   1.865   0.315  15.630 -0.9050  0.1099 -0.1051
  497TMC3    H1 7446   2.069   0.519  15.939  0.9038 -1.8980  3.4688
  497TMC3    H2 7447   1.862   0.159  16.018  0.0822 -1.0059 -1.0247
  497TMC3    C7 7448   2.003   0.340  16.134  0.3565  0.3856 -0.1316
  497TMC3    C8 7449   1.851   0.106  15.758 -1.1334  0.0478  0.0931
  497TMC3    O1 7450   1.962   0.244  16.196  0.0903 -0.2894 -0.1702
  497TMC3    O2 7451   1.750   0.069  15.699  0.0988  0.9009  0.2963
  498MPD2     C 7452   3.655   2.216  10.519  0.0699 -0.2527  0.3737
  498MPD2    C1 7453   3.777   2.155  10.511 -0.0525  0.5311 -0.4029
  498MPD2    C2 7454   3.800   2.037  10.576  0.1904 -0.7495 -0.3608
  498MPD2    C3 7455   3.695   1.963  10.638  0.1634  0.2869 -0.5249
  498MPD2    C4 7456   3.574   2.028  10.652  0.1453 -0.6182  0.2371
  498MPD2    C5 7457   3.556   2.149  10.593 -0.4290 -0.5970  0.5685
  498MPD2     H 7458   3.895   1.986  10.570  0.5195 -0.4089  1.8389
  498MPD2    H1 7459   3.490   1.979  10.700 -0.9448 -1.3379 -2.4025
  498MPD2    H2 7460   3.643   2.315  10.476  0.8592 -0.8556 -1.2312
  498MPD2    H3 7461   3.458   2.195  10.587 -0.2194  0.3095  4.0384
  498MPD2     N 7462   3.722   1.838  10.692 -0.2436 -0.1311 -0.6604
  498MPD2    H5 7463   3.820   1.811  10.686 -0.1277  0.5881 -1.9661
  498MPD2    N1 7464   3.889   2.204  10.434 -0.0574 -0.1745 -0.1888
  498MPD2    H7 7465   3.980   2.161  10.443  0.4348  0.4364 -2.0646
  499TMC3    C1 7466   3.998   2.350  10.290  0.1744 -1.2618 -1.0204
  499TMC3    C2 7467   4.113   2.341  10.366  0.4161  0.3671 -0.3399
  499TMC3    C3 7468   4.233   2.383  10.311 -0.2550 -0.3410 -0.2872
  499TMC3    C4 7469   4.002   2.408  10.165 -0.1069  0.9863 -0.3072
  499TMC3    C5 7470   4.119   2.458  10.123 -0.4254  0.1015 -0.5599
  499TMC3    C6 7471   4.240   2.438  10.186  0.9036 -0.9893 -0.1463
  499TMC3     C 7472   3.877   2.300  10.336 -0.4551  0.2605 -0.0771
  499TMC3     O 7473   3.775   2.345  10.285  0.5095  0.4326 -0.3241
  499TMC3     H 7474   4.102   2.297  10.464  0.3277  1.0603 -0.0387
  499TMC3    H1 7475   3.911   2.421  10.107 -0.7353  0.2298  0.5126
  499TMC3    H2 7476   4.328   2.479  10.139 -0.7431 -0.0895 -2.4551
  499TMC3    C7 7477   4.118   2.578  10.036 -0.0517 -0.9443 -0.0476
  499TMC3    C8 7478   4.355   2.331  10.377  0.3813 -0.4992  0.9629
  499TMC3    O1 7479   4.224   2.627   9.992 -0.5295 -0.3847 -0.6531
  499TMC3    O2 7480   4.342   2.295  10.493 -0.3905 -0.1010 -0.2466
  500MPD2     C 7481   0.486   2.734  11.077  0.5544 -0.6292  0.0431
  500MPD2    C1 7482   0.545   2.719  10.952 -0.1633 -0.1215  0.0983
  500MPD2    C2 7483   0.472   2.745  10.839  0.6159  0.6011 -0.3102
  500MPD2    C3 7484   0.343   2.791  10.850 -0.2943  0.2650 -0.6024
  500MPD2    C4 7485   0.292   2.810  10.971  0.3430 -0.3722  0.0411
  500MPD2    C5 7486   0.360   2.777  11.082 -0.2498 -0.0509  0.2788
  500MPD2     H 7487   0.516   2.735  10.740 -0.6419 -0.2215 -0.7879
  500MPD2    H1 7488   0.192   2.849  10.989  1.4215  0.9671  3.1248
  500MPD2    H2 7489   0.543   2.718  11.168  1.3468  0.8670 -0.1883
  500MPD2    H3 7490   0.301   2.789  11.172 -0.3080 -0.0514  0.2407
  500MPD2     N 7491   0.268   2.839  10.746 -0.0488 -0.7554  0.0435
  500MPD2    H5 7492   0.180   2.883  10.774 -0.0281 -0.5887 -0.1531
  500MPD2    N1 7493   0.673   2.670  10.942  0.0623  0.8602 -0.1275
  500MPD2    H7 7494   0.713   2.666  10.848  0.0265  0.7572 -0.1386
  501TMC3    C1 7495   0.883   2.579  10.990 -0.4856 -0.4955 -0.2582
  501TMC3    C2 7496   0.943   2.669  10.903  0.1689  0.4613  0.3185
  501TMC3    C3 7497   1.074   2.656  10.890 -0.0785  0.2291 -1.1337
  501TMC3    C4 7498   0.958   2.496  11.069  0.1799  0.2658 -0.2971
  501TMC3    C5 7499   1.091   2.489  11.056  0.0551 -0.2925  0.1618
  501TMC3    C6 7500   1.155   2.570  10.963  0.3968 -1.3672 -0.6542
  501TMC3     C 7501   0.754   2.614  11.040  0.4981 -0.2094 -0.0780
  501TMC3     O 7502   0.746   2.595  11.160  0.4189  0.5111  0.8362
  501TMC3     H 7503   0.889   2.756  10.866  1.1405  0.3173 -1.4766
  501TMC3    H1 7504   0.902   2.440  11.143 -0.3316 -0.1568 -0.9980
  501TMC3    H2 7505   1.263   2.568  10.956  0.3813  0.1386 -1.3650
  501TMC3    C7 7506   1.159   2.404  11.148  0.0872  0.4078  0.0458
  501TMC3    C8 7507   1.137   2.756  10.811 -0.5900 -0.1931 -0.2280
  501TMC3    O1 7508   1.106   2.299  11.177 -0.8481 -0.0783 -0.5984
  501TMC3    O2 7509   1.254   2.791  10.838 -0.7711 -0.3264  0.7270
  502TMC3    C1 7510   4.355   1.197  14.510  0.1241 -0.0420 -0.4616
  502TMC3    C2 7511   4.464   1.253  14.572 -0.5972  0.5209 -0.6478
  502TMC3    C3 7512   4.525   1.355  14.501  0.2363 -0.2198  1.1704
  502TMC3    C4 7513   4.328   1.222  14.383 -0.0933 -0.3713  1.0695
  502TMC3    C5 7514   4.404   1.313  14.309  0.1853 -0.2834  0.1991
  502TMC3    C6 7515   4.513   1.379  14.371 -0.5165  0.2342 -0.1074
  502TMC3     C 7516   4.235   1.169  14.590  0.3557  0.0519  0.0443
  502TMC3     O 7517   4.138   1.190  14.518  0.5257  0.1613  0.0097
  502TMC3     H 7518   4.491   1.225  14.673  1.1989  2.0476 -0.7011
  502TMC3    H1 7519   4.254   1.161  14.331  4.2719 -1.7058 -3.5686
  502TMC3    H2 7520   4.562   1.462  14.320  1.6449 -0.7706  0.3084
  502TMC3    C7 7521   4.311   1.413  14.260 -0.0480 -0.3849  0.4861
  502TMC3    C8 7522   4.540   1.486  14.569 -0.7101  0.5532  0.5206
  502TMC3    O1 7523   4.353   1.490  14.173  0.2586 -0.4039 -0.3717
  502TMC3    O2 7524   4.540   1.581  14.496 -0.8532  0.4293 -0.1942
  503MPD2     C 7525   2.176   2.339  17.096 -0.3209 -0.3072  0.4830
  503MPD2    C1 7526   2.137   2.333  17.230  1.0413  0.4954 -0.9997
  503MPD2    C2 7527   2.182   2.229  17.310 -0.1910  0.3951  0.4452
  503MPD2    C3 7528   2.279   2.143  17.263  0.0798 -0.2242  0.0213
  503MPD2    C4 7529   2.324   2.147  17.136 -0.0419 -0.7045  0.5218
  503MPD2    C5 7530   2.273   2.247  17.053  0.2116  0.7074  0.0809
  503MPD2     H 7531   2.137   2.218  17.408 -0.4711 -1.4922  0.1012
  503MPD2    H1 7532   2.390   2.074  17.093 -0.3877  0.9001 -2.7175
  503MPD2    H2 7533   2.141   2.412  17.023  0.4349  1.8130  2.2733
  503MPD2    H3 7534   2.304   2.263  16.951 -1.4367  0.0602 -0.5303
  503MPD2     N 7535   2.325   2.023  17.330 -0.1751  0.2529 -1.1096
  503MPD2    H5 7536   2.388   1.959  17.283  2.5526  0.9831  1.5797
  503MPD2    N1 7537   2.036   2.423  17.278  0.0686  0.0520  0.5161
  503MPD2    H7 7538   2.007   2.400  17.373  0.9173 -0.2842  0.6908
  504TMC3    C1 7539   2.337   1.843  17.472  0.1691  0.1829  0.1763
  504TMC3    C2 7540   2.327   1.784  17.595 -0.1366  0.2144  0.7449
  504TMC3    C3 7541   2.365   1.653  17.606  0.3818  0.9353 -0.6832
  504TMC3    C4 7542   2.381   1.772  17.362  0.3349  0.2152 -0.0708
  504TMC3    C5 7543   2.426   1.642  17.381  0.5716  0.5356  0.0537
  504TMC3    C6 7544   2.429   1.581  17.504  0.4885 -0.3409 -0.7572
  504TMC3     C 7545   2.291   1.984  17.457  0.8697 -0.3740  0.5950
  504TMC3     O 7546   2.242   2.047  17.550  0.3838 -0.0838  0.2498
  504TMC3     H 7547   2.287   1.839  17.680  0.2260  1.9766 -0.2143
  504TMC3    H1 7548   2.373   1.812  17.262  2.0958 -0.3175 -0.4138
  504TMC3    H2 7549   2.481   1.487  17.519 -1.0164 -1.1044 -0.3223
  504TMC3    C7 7550   2.474   1.580  17.262 -0.6757 -0.0991 -0.9364
  504TMC3    C8 7551   2.299   1.572  17.708  0.2574  1.0161 -0.2903
  504TMC3    O1 7552   2.416   1.610  17.157 -0.5208  0.4732 -1.0693
  504TMC3    O2 7553   2.246   1.462  17.676  0.4050  0.5546 -0.3653
  505MPD2     C 7554   2.772   1.067  10.875 -0.2585 -0.3712  0.2580
  505MPD2    C1 7555   2.841   0.971  10.948 -0.2935 -0.6158  0.6719
  505MPD2    C2 7556   2.888   0.996  11.077  0.1824  0.9226  0.1677
  505MPD2    C3 7557   2.871   1.126  11.129 -0.3211 -0.3274  0.2616
  505MPD2    C4 7558   2.804   1.227  11.052 -0.1596 -0.2388 -0.2147
  505MPD2    C5 7559   2.753   1.192  10.931  0.7337 -0.2826 -0.5281
  505MPD2     H 7560   2.957   0.934  11.133  0.1292  0.3003 -0.4508
  505MPD2    H1 7561   2.788   1.326  11.093 -1.8444 -0.7775  0.4076
  505MPD2    H2 7562   2.743   1.067  10.771  0.4605 -0.9628  0.0562
  505MPD2    H3 7563   2.691   1.262  10.876  1.1637  0.2174 -0.3865
  505MPD2     N 7564   2.913   1.143  11.262  0.8952 -0.1014 -0.6837
  505MPD2    H5 7565   2.963   1.063  11.298  0.9149  1.1907  2.1280
  505MPD2    N1 7566   2.887   0.861  10.880  0.0028  0.3135 -0.4584
  505MPD2    H7 7567   2.870   0.861  10.780 -2.4015 -0.0701 -0.0351
  506TMC3    C1 7568   2.993   0.648  10.856  0.6442  0.3637 -0.2546
  506TMC3    C2 7569   3.065   0.695  10.745  0.2639  0.0803 -0.1707
  506TMC3    C3 7570   3.173   0.631  10.714  0.2831 -0.3017  0.5662
  506TMC3    C4 7571   3.040   0.540  10.925 -0.1731 -1.1512 -0.4534
  506TMC3    C5 7572   3.163   0.485  10.901 -0.2153  0.0413  0.3173
  506TMC3    C6 7573   3.228   0.536  10.796  0.3928 -0.1578 -0.3108
  506TMC3     C 7574   2.931   0.745  10.940 -0.1716 -0.0347  0.0244
  506TMC3     O 7575   2.919   0.709  11.057 -0.1564  0.1068 -0.5647
  506TMC3     H 7576   3.023   0.778  10.691 -1.4794 -3.3529 -4.0901
  506TMC3    H1 7577   2.990   0.495  11.011 -1.1586 -2.9206 -1.9427
  506TMC3    H2 7578   3.329   0.502  10.774  0.9350  0.3645  1.4118
  506TMC3    C7 7579   3.255   0.480  11.018 -0.3157  0.7012 -0.3343
  506TMC3    C8 7580   3.257   0.700  10.622 -0.5580 -0.6508 -0.6303
  506TMC3    O1 7581   3.353   0.409  11.021  0.4648  0.6100  0.4920
  506TMC3    O2 7582   3.225   0.687  10.506 -0.1902  0.1282  0.3008
  507TMC3    C1 7583   2.955   1.497  14.692  0.1387 -0.2670  0.4454
  507TMC3    C2 7584   2.962   1.421  14.579 -0.5297 -0.2376  0.3809
  507TMC3    C3 7585   3.048   1.471  14.477 -0.8293 -0.3140 -0.0034
  507TMC3    C4 7586   3.041   1.601  14.718  0.9126 -0.0434  0.5962
  507TMC3    C5 7587   3.121   1.648  14.613  0.2800  0.3571 -0.5630
  507TMC3    C6 7588   3.128   1.585  14.493 -0.1788 -0.2156  0.1117
  507TMC3     C 7589   2.849   1.487  14.791 -0.4757  1.2102 -0.4985
  507TMC3     O 7590   2.860   1.538  14.903 -0.3767 -0.5124  0.4353
  507TMC3     H 7591   2.900   1.332  14.574  0.8593 -1.2187  0.6599
  507TMC3    H1 7592   3.017   1.672  14.796  0.2400  1.9252 -1.4147
  507TMC3    H2 7593   3.190   1.609  14.407 -0.4933  2.4255  0.6123
  507TMC3    C7 7594   3.107   1.789  14.577  0.1064 -0.4639  0.4884
  507TMC3    C8 7595   2.969   1.481  14.347  0.2983  0.2987  0.0375
  507TMC3    O1 7596   3.094   1.806  14.455  0.4114  0.3975  0.1140
  507TMC3    O2 7597   2.915   1.389  14.297  0.5878  0.0198  0.2806
  508MPD2     C 7598   3.547   4.007  16.111  0.1016 -0.9576 -0.2274
  508MPD2    C1 7599   3.667   4.056  16.131 -0.0084  0.8834 -0.2232
  508MPD2    C2 7600   3.713   4.150  16.044 -0.1542  0.3058 -0.8895
  508MPD2    C3 7601   3.636   4.188  15.947  0.8157  0.4822 -0.2835
  508MPD2    C4 7602   3.509   4.135  15.930 -0.1026  0.5856 -0.1432
  508MPD2    C5 7603   3.465   4.045  16.015  0.3276  0.6393 -0.0475
  508MPD2     H 7604   3.812   4.192  16.053  0.1572 -0.2467 -1.7969
  508MPD2    H1 7605   3.445   4.158  15.846 -1.7730 -0.4463  0.8336
  508MPD2    H2 7606   3.507   3.931  16.177  1.6749 -1.5423  0.0545
  508MPD2    H3 7607   3.369   3.994  16.018 -0.2597  1.5256 -3.4914
  508MPD2     N 7608   3.682   4.286  15.852  0.7400 -0.0136 -0.2573
  508MPD2    H5 7609   3.780   4.311  15.856  0.4389  1.2720 -0.9603
  508MPD2    N1 7610   3.739   4.005  16.240  0.3181 -0.0656  0.3534
  508MPD2    H7 7611   3.703   3.928  16.295  2.4136 -1.3812 -0.1281
  509TMC3    C1 7612   3.666   4.579  15.483  0.0152 -0.0069 -0.1785
  509TMC3    C2 7613   3.776   4.647  15.520 -0.0335 -0.1679  0.0061
  509TMC3    C3 7614   3.841   4.603  15.632  0.1647  0.1549  0.3390
  509TMC3    C4 7615   3.613   4.474  15.549  0.1212 -0.0057  0.5608
  509TMC3    C5 7616   3.672   4.438  15.667 -0.6693  0.2550 -0.1815
  509TMC3    C6 7617   3.791   4.494  15.705 -0.4468  0.1020  0.2067
  509TMC3     C 7618   3.560   4.654  15.416  0.2145  0.1974 -0.4539
  509TMC3     O 7619   3.443   4.631  15.435  0.4784  0.2808  0.0928
  509TMC3     H 7620   3.811   0.002  15.476  0.5749  0.3122  1.5019
  509TMC3    H1 7621   3.516   4.431  15.528  1.1884 -2.7432  1.2488
  509TMC3    H2 7622   3.823   4.475  15.806  1.0294  1.4471 -0.0069
  509TMC3    C7 7623   3.603   4.354  15.755  0.7301 -0.3217  0.5336
  509TMC3    C8 7624   3.929   4.686  15.711  0.9466  0.1023 -0.0315
  509TMC3    O1 7625   3.483   4.361  15.748  0.0830  0.4275 -0.6741
  509TMC3    O2 7626   3.899   4.685  15.829 -0.1084 -0.3200 -0.1486
  510MPD2     C 7627   1.646   0.985  14.933 -0.0089  0.2357 -0.7435
  510MPD2    C1 7628   1.716   0.926  15.029 -0.5460 -0.5279 -0.1970
  510MPD2    C2 7629   1.858   0.922  15.026 -0.5705 -0.6898 -0.3965
  510MPD2    C3 7630   1.928   0.989  14.920 -0.4642  0.1736 -0.3879
  510MPD2    C4 7631   1.848   1.057  14.827 -0.5285  0.8857 -0.2733
  510MPD2    C5 7632   1.713   1.054  14.834 -0.1333  0.2823 -0.2019
  510MPD2     H 7633   1.922   0.869  15.095  0.3955  0.0859 -0.7091
  510MPD2    H1 7634   1.898   1.106  14.745 -0.4355  0.7974 -0.2695
  510MPD2    H2 7635   1.539   0.999  14.942 -0.0324 -0.9609  0.7466
  510MPD2    H3 7636   1.659   1.110  14.758 -0.7693 -0.3577 -0.2135
  510MPD2     N 7637   2.071   0.986  14.918  0.2008  0.5189  0.1335
  510MPD2    H5 7638   2.124   0.945  14.994 -0.0114 -0.7773 -0.4146
  510MPD2    N1 7639   1.647   0.839  15.115  0.0322 -0.1161  0.1024
  510MPD2    H7 7640   1.547   0.826  15.100  0.3758 -0.3471 -1.9006
  511TMC3    C1 7641   1.606   0.672  15.262 -0.0148  0.9738  0.4098
  511TMC3    C2 7642   1.512   0.720  15.353 -0.0755  0.0018  0.1275
  511TMC3    C3 7643   1.408   0.639  15.392  0.2835  0.3098  0.4522
  511TMC3    C4 7644   1.609   0.544  15.221 -0.4069 -0.0203 -0.4195
  511TMC3    C5 7645   1.511   0.461  15.263  0.3838  0.0149  0.4415
  511TMC3    C6 7646   1.408   0.509  15.346  0.2896 -0.2111 -0.3419
  511TMC3     C 7647   1.700   0.768  15.215  0.5827 -0.1871  0.2780
  511TMC3     O 7648   1.805   0.783  15.279  0.0514 -0.1126  0.4399
  511TMC3     H 7649   1.508   0.825  15.381 -3.6819  0.0574 -0.5894
  511TMC3    H1 7650   1.684   0.504  15.154 -0.0114 -0.9674  0.5825
  511TMC3    H2 7651   1.331   0.441  15.382 -1.4836  1.2697 -1.3350
  511TMC3    C7 7652   1.491   0.336  15.193  0.1040  1.0990 -0.1008
  511TMC3    C8 7653   1.359   0.654  15.524 -0.1842 -0.6207  0.5352
  511TMC3    O1 7654   1.569   0.314  15.101 -0.5928 -0.1157 -1.2902
  511TMC3    O2 7655   1.367   0.556  15.599  0.0278 -0.1220  0.0561
  512TMC3    C1 7656   0.365   0.175  13.472  0.2443  0.5226 -0.5290
  512TMC3    C2 7657   0.460   0.184  13.567  0.1209 -0.5909 -0.6052
  512TMC3    C3 7658   0.547   0.080  13.576  0.0033  0.3713  0.1907
  512TMC3    C4 7659   0.361   0.069  13.385 -1.0278 -0.5881  0.6249
  512TMC3    C5 7660   0.467   4.719  13.380 -0.5595  1.0102 -0.8488
  512TMC3    C6 7661   0.554   4.719  13.485 -0.4891 -0.0289 -0.8343
  512TMC3     C 7662   0.240   0.238  13.492  0.2189 -0.1325 -0.1754
  512TMC3     O 7663   0.142   0.168  13.480  0.5531 -0.4636  0.6783
  512TMC3     H 7664   0.452   0.259  13.645  2.2100  2.6799 -3.5561
  512TMC3    H1 7665   0.273   0.057  13.323  0.4167  1.8068 -1.9071
  512TMC3    H2 7666   0.626   4.640  13.502 -2.1979 -1.3761  0.0190
  512TMC3    C7 7667   0.463   4.596  13.308  0.5595  0.5131  0.3039
  512TMC3    C8 7668   0.643   0.084  13.693  0.1208 -0.0316 -0.1428
  512TMC3    O1 7669   0.501   4.491  13.363 -0.0318 -0.2352  0.0336
  512TMC3    O2 7670   0.711   4.723  13.705  0.0664  0.4961 -0.0906
  513MPD2     C 7671   2.842   0.182  13.409  0.3556 -0.3666 -1.1300
  513MPD2    C1 7672   2.866   0.317  13.405 -0.4191 -0.7694  0.0103
  513MPD2    C2 7673   2.910   0.378  13.524 -0.5210 -0.1016  0.6007
  513MPD2    C3 7674   2.920   0.306  13.642  1.1062  0.6276 -0.2373
  513MPD2    C4 7675   2.880   0.174  13.646  0.0954  0.8195  0.3318
  513MPD2    C5 7676   2.844   0.112  13.528 -0.0752  0.6046  0.7014
  513MPD2     H 7677   2.943   0.481  13.528  0.3948 -0.3348 -1.1137
  513MPD2    H1 7678   2.873   0.109  13.732  0.9777 -0.0481 -0.2586
  513MPD2    H2 7679   2.807   0.135  13.318 -0.6028 -0.8863 -0.4924
  513MPD2    H3 7680   2.821   0.006  13.531  1.1389  0.3031 -0.5795
  513MPD2     N 7681   2.965   0.373  13.760  0.3922  0.3062 -0.0450
  513MPD2    H5 7682   2.974   0.474  13.754  1.0481  0.3516  1.7164
  513MPD2    N1 7683   2.839   0.380  13.285  0.2579 -0.3632  0.3965
  513MPD2    H7 7684   2.800   0.327  13.208  1.0582  1.7002 -1.4234
  514TMC3    C1 7685   2.899   0.542  13.122 -0.1088 -0.2269 -0.7691
  514TMC3    C2 7686   2.792   0.549  13.037 -0.4738  0.1417  0.3332
  514TMC3    C3 7687   2.760   0.679  12.988 -0.4170 -0.7047 -0.3027
  514TMC3    C4 7688   2.983   0.642  13.133  0.6657 -0.1453 -1.0048
  514TMC3    C5 7689   2.959   0.764  13.076  0.1220 -0.4113  0.2699
  514TMC3    C6 7690   2.834   0.793  13.021  0.1931 -0.0044  0.1612
  514TMC3     C 7691   2.858   0.514  13.260  0.7855  0.2410  0.4978
  514TMC3     O 7692   2.879   0.603  13.342 -0.2608  0.1138  0.0083
  514TMC3     H 7693   2.730   0.461  13.027  2.0444 -1.5212 -0.5022
  514TMC3    H1 7694   3.084   0.614  13.164 -0.1838 -0.7211  1.2198
  514TMC3    H2 7695   2.817   0.896  12.989  0.6131 -0.2021 -0.6868
  514TMC3    C7 7696   3.013   0.875  13.148  1.0938 -0.5893 -0.2373
  514TMC3    C8 7697   2.660   0.694  12.886  0.2598  0.7417  0.4135
  514TMC3    O1 7698   3.045   0.976  13.081  0.3639  0.1351 -0.5229
  514TMC3    O2 7699   2.610   0.804  12.868 -0.1982 -0.2350  0.1844
  515MPD2     C 7700   0.580   2.090  15.176 -0.2108  0.3873 -0.5733
  515MPD2    C1 7701   0.497   2.166  15.092 -0.1723 -0.4920  0.3647
  515MPD2    C2 7702   0.496   2.305  15.104  0.0453 -0.0873  0.4777
  515MPD2    C3 7703   0.586   2.377  15.183 -0.0840  0.5928  0.1204
  515MPD2    C4 7704   0.669   2.297  15.263  0.3260 -0.6050  0.3817
  515MPD2    C5 7705   0.661   2.158  15.263  0.2587  0.1090 -0.5145
  515MPD2     H 7706   0.423   2.364  15.050 -0.2459 -3.1839 -2.4910
  515MPD2    H1 7707   0.735   2.350  15.330  0.6074  1.0192 -1.1721
  515MPD2    H2 7708   0.586   1.982  15.174  0.3232  0.4358 -1.5780
  515MPD2    H3 7709   0.725   2.108  15.335 -2.1689  0.8872  2.1578
  515MPD2     N 7710   0.603   2.516  15.202 -0.3666 -0.6729 -0.0696
  515MPD2    H5 7711   0.684   2.533  15.261 -0.7620 -2.1392  0.8852
  515MPD2    N1 7712   0.400   2.113  15.009  0.0920  0.1202 -0.2245
  515MPD2    H7 7713   0.354   2.180  14.948  3.6747 -0.8900 -4.0646
  516TMC3    C1 7714   0.259   1.957  14.900 -0.4488  0.4748  0.0493
  516TMC3    C2 7715   0.192   2.061  14.833  0.7910 -0.6479  0.5523
  516TMC3    C3 7716   0.089   2.038  14.746 -0.6049 -0.4040  0.0178
  516TMC3    C4 7717   0.219   1.828  14.891  0.0246  0.3744  0.7377
  516TMC3    C5 7718   0.120   1.812  14.793  0.2131  0.5334 -0.1763
  516TMC3    C6 7719   0.055   1.904  14.720  0.0627  0.0638  0.1240
  516TMC3     C 7720   0.371   1.980  14.991 -0.6120 -0.2649  0.3853
  516TMC3     O 7721   0.414   1.883  15.054  0.6056  0.6962  0.3041
  516TMC3     H 7722   0.210   2.166  14.853 -1.8852 -0.2951  1.1079
  516TMC3    H1 7723   0.270   1.746  14.940  0.1670 -0.5378 -0.9195
  516TMC3    H2 7724   4.724   1.872  14.643 -0.0790 -1.9483  1.0807
  516TMC3    C7 7725   0.109   1.674  14.747  0.7026 -0.8539  0.4663
  516TMC3    C8 7726   0.047   2.130  14.647  0.9071  0.5933  0.9122
  516TMC3    O1 7727   0.128   1.592  14.834 -0.1814 -1.1822 -0.0308
  516TMC3    O2 7728   4.686   2.104  14.582  0.4478  0.7327 -0.1256
  517MPD2     C 7729   0.053   3.820  17.297  0.1013  0.5645  0.3619
  517MPD2    C1 7730   0.127   3.767  17.403  0.2124 -0.7459  0.2670
  517MPD2    C2 7731   0.179   3.855  17.491 -0.2267  0.5898 -0.2074
  517MPD2    C3 7732   0.138   3.983  17.501 -0.4429  0.5992 -0.4132
  517MPD2    C4 7733   0.051   4.029  17.411 -0.1578 -0.0662 -0.8851
  517MPD2    C5 7734   0.002   3.948  17.310  0.4363  1.0026  0.5916
  517MPD2     H 7735   0.245   3.807  17.562  0.4941  1.6401 -0.1701
  517MPD2    H1 7736   0.003   4.123  17.434 -0.0309 -0.1983 -0.0958
  517MPD2    H2 7737   0.040   3.762  17.207  0.2120  1.1387 -0.0232
  517MPD2    H3 7738   4.670   3.981  17.235  0.1304  1.3337  1.0234
  517MPD2     N 7739   0.182   4.082  17.594 -0.7113  0.2074 -0.2052
  517MPD2    H5 7740   0.127   4.166  17.590 -0.9083 -0.0160 -2.3050
  517MPD2    N1 7741   0.182   3.636  17.410 -0.1052  0.0437 -0.0424
  517MPD2    H7 7742   0.256   3.623  17.477 -0.6374 -0.0942  0.5166
  518TMC3    C1 7743   0.230   3.413  17.359  0.3498  0.7530 -0.2771
  518TMC3    C2 7744   0.192   3.284  17.321 -0.0926  0.0868 -0.0702
  518TMC3    C3 7745   0.292   3.189  17.320 -0.3656 -0.8098  0.0693
  518TMC3    C4 7746   0.361   3.438  17.402  0.7262 -0.1376 -0.5946
  518TMC3    C5 7747   0.450   3.336  17.396  0.2174 -0.5839  0.1034
  518TMC3    C6 7748   0.422   3.207  17.358 -0.5499  0.2858  0.4428
  518TMC3     C 7749   0.144   3.526  17.334  0.2874  0.7428 -0.4191
  518TMC3     O 7750   0.041   3.510  17.271 -0.0509  0.0956  0.0665
  518TMC3     H 7751   0.089   3.271  17.288  0.8191 -2.8530 -1.7244
  518TMC3    H1 7752   0.395   3.530  17.449 -0.6516  0.2860 -0.4168
  518TMC3    H2 7753   0.491   3.124  17.365 -0.7823 -0.0638 -1.2803
  518TMC3    C7 7754   0.586   3.348  17.441  0.3185 -0.0871 -0.3255
  518TMC3    C8 7755   0.260   3.053  17.286  0.7446 -0.5290  0.6859
  518TMC3    O1 7756   0.602   3.411  17.543 -0.6703 -0.1362  0.0163
  518TMC3    O2 7757   0.350   2.978  17.245  0.0087  0.1841 -0.2940
  519MPD2     C 7758   2.186   2.329  13.880 -0.1978  0.1320  0.4129
  519MPD2    C1 7759   2.113   2.236  13.952 -0.1294  0.1293 -0.7801
  519MPD2    C2 7760   2.134   2.099  13.931  0.2399  0.1793  0.5317
  519MPD2    C3 7761   2.224   2.053  13.837 -0.2076  0.2974 -0.2881
  519MPD2    C4 7762   2.311   2.147  13.775  0.0044  0.5152 -0.2164
  519MPD2    C5 7763   2.282   2.283  13.788  0.2767  0.3339 -0.0775
  519MPD2     H 7764   2.066   2.029  13.977  0.5171  0.5253  1.4752
  519MPD2    H1 7765   2.397   2.118  13.715  2.4439  3.0247  2.0641
  519MPD2    H2 7766   2.176   2.436  13.893 -0.8920  0.1816 -0.5129
  519MPD2    H3 7767   2.346   2.351  13.733  1.9595 -0.4293  0.9312
  519MPD2     N 7768   2.247   1.914  13.814 -0.3671  0.1690 -0.0997
  519MPD2    H5 7769   2.312   1.882  13.742  0.1651 -0.8711  0.8451
  519MPD2    N1 7770   2.006   2.276  14.029 -0.0636 -0.1358  0.2975
  519MPD2    H7 7771   1.981   2.375  14.023 -0.7981 -0.4652 -2.0528
  520TMC3    C1 7772   2.177   1.697  13.764 -0.7597 -0.1590  0.3142
  520TMC3    C2 7773   2.073   1.623  13.728  0.2463  0.2336  0.1786
  520TMC3    C3 7774   2.093   1.498  13.687 -0.6638 -0.3691  0.9902
  520TMC3    C4 7775   2.305   1.649  13.742  0.2271  0.3977 -0.1316
  520TMC3    C5 7776   2.319   1.517  13.711  0.5178  0.4625  0.2337
  520TMC3    C6 7777   2.218   1.438  13.679 -0.0673  0.0398  0.1993
  520TMC3     C 7778   2.147   1.825  13.838  0.1192 -0.3907 -0.2593
  520TMC3     O 7779   2.040   1.832  13.897 -0.2679  0.0353 -0.3029
  520TMC3     H 7780   1.976   1.672  13.720  0.4948  0.9771  1.6691
  520TMC3    H1 7781   2.396   1.699  13.773 -0.0897  2.4632 -2.5701
  520TMC3    H2 7782   2.228   1.335  13.646  3.0970  0.5987 -0.6246
  520TMC3    C7 7783   2.451   1.464  13.681 -0.1022 -0.5101  0.0447
  520TMC3    C8 7784   1.976   1.421  13.638 -0.1768  0.0561 -0.4056
  520TMC3    O1 7785   2.451   1.341  13.676  0.1730  0.1340  0.5646
  520TMC3    O2 7786   1.995   1.318  13.573 -0.0494  0.0490  0.4324
  521MPD2     C 7787   2.474   4.100  17.596 -0.6358  0.3041  0.0805
  521MPD2    C1 7788   2.488   4.141  17.465 -0.0063  0.7003 -0.7349
  521MPD2    C2 7789   2.605   4.122  17.395 -0.5365 -0.0850 -0.4103
  521MPD2    C3 7790   2.708   4.055  17.450 -0.0058 -0.0968  0.5391
  521MPD2    C4 7791   2.691   4.007  17.584  0.4300  0.5435 -0.1644
  521MPD2    C5 7792   2.574   4.023  17.650 -0.2482  0.4843 -0.5492
  521MPD2     H 7793   2.622   4.178  17.304 -0.8240  1.1994  0.3293
  521MPD2    H1 7794   2.767   3.953  17.639  0.0225 -1.2379 -1.3683
  521MPD2    H2 7795   2.383   4.108  17.654  1.5521 -0.3738  3.5688
  521MPD2    H3 7796   2.566   3.991   0.002  4.3210  0.6081 -0.1326
  521MPD2     N 7797   2.826   4.041  17.368  0.1091 -0.1111  0.5767
  521MPD2    H5 7798   2.829   4.081  17.275  0.6037  0.8587  1.0121
  521MPD2    N1 7799   2.380   4.214  17.416 -0.3912 -0.1400  0.1618
  521MPD2    H7 7800   2.296   4.214  17.473  1.2312 -0.0407  2.5259
  522TMC3    C1 7801   3.055   4.013  17.318 -0.9423  0.0693 -0.1405
  522TMC3    C2 7802   3.155   3.919  17.305  0.1942  0.2907  0.3702
  522TMC3    C3 7803   3.267   3.960  17.237  0.0610  0.2439 -0.3993
  522TMC3    C4 7804   3.071   4.141  17.269  0.1086 -0.1013  0.9119
  522TMC3    C5 7805   3.185   4.173  17.199 -0.0480  0.1941 -0.1119
  522TMC3    C6 7806   3.286   4.084  17.186 -0.3903  0.2574  0.3351
  522TMC3     C 7807   2.951   3.998  17.416 -0.0218 -0.0320  0.2634
  522TMC3     O 7808   2.973   3.937  17.519 -0.0930  0.0583 -0.0960
  522TMC3     H 7809   3.145   3.817  17.340  6.1734 -0.3675  0.0987
  522TMC3    H1 7810   2.999   4.220  17.286  1.4167  1.6622 -1.6396
  522TMC3    H2 7811   3.379   4.114  17.139 -0.5610  0.5711  0.1957
  522TMC3    C7 7812   3.215   4.302  17.139  0.8670 -0.0608 -0.1029
  522TMC3    C8 7813   3.380   3.871  17.234  0.2714 -0.1228  0.4412
  522TMC3    O1 7814   3.324   4.325  17.096  0.4179  0.4378 -0.2337
  522TMC3    O2 7815   3.388   3.781  17.316  0.1264 -0.0086 -0.2069
  523MPD2     C 7816   1.443   0.245  10.354 -0.6724  0.4378  0.7923
  523MPD2    C1 7817   1.320   0.265  10.406  0.3459 -0.2380 -0.4645
  523MPD2    C2 7818   1.232   0.355  10.346  0.0827 -0.2459  0.6333
  523MPD2    C3 7819   1.269   0.419  10.229  0.1977 -0.1558 -0.2083
  523MPD2    C4 7820   1.393   0.398  10.180  0.0358 -0.5222  0.4841
  523MPD2    C5 7821   1.477   0.309  10.241 -0.1235  0.1116 -0.2027
  523MPD2     H 7822   1.133   0.368  10.387  0.0843  1.2230  0.1995
  523MPD2    H1 7823   1.424   0.432  10.082  3.1301 -1.3850  1.1768
  523MPD2    H2 7824   1.512   0.174  10.399  0.5483  0.6887 -0.6692
  523MPD2    H3 7825   1.576   0.287  10.201 -0.3997 -0.2995 -0.6591
  523MPD2     N 7826   1.177   0.502  10.163  0.0241  0.5431  0.1998
  523MPD2    H5 7827   1.199   0.529  10.067  0.0863  1.0936  0.3703
  523MPD2    N1 7828   1.285   0.170  10.504  0.4695 -0.4027 -0.5350
  523MPD2    H7 7829   1.359   0.113  10.544  1.4248 -0.8321 -2.9516
  524TMC3    C1 7830   0.985   0.617  10.117  0.8172 -0.5644  0.0283
  524TMC3    C2 7831   0.998   0.569   9.991 -0.9717  0.4531  0.5797
  524TMC3    C3 7832   0.943   0.645   9.891  0.7738 -0.5498 -0.2164
  524TMC3    C4 7833   0.901   0.727  10.148 -0.1702 -0.2224 -0.3884
  524TMC3    C5 7834   0.846   0.799  10.046 -0.5486 -0.6545  0.0183
  524TMC3    C6 7835   0.858   0.752   9.918  0.0850  0.3760  0.2386
  524TMC3     C 7836   1.055   0.548  10.219  1.1505 -0.5368 -0.3102
  524TMC3     O 7837   1.024   0.567  10.336 -0.0402 -0.0760 -0.2257
  524TMC3     H 7838   1.066   0.488   9.965 -1.5477  0.5059 -1.1138
  524TMC3    H1 7839   0.910   0.769  10.248 -0.8032  0.9263 -0.8141
  524TMC3    H2 7840   0.790   0.795   9.844 -1.0699 -2.0667 -0.1119
  524TMC3    C7 7841   0.768   0.917  10.085 -0.1237  0.1196  0.2908
  524TMC3    C8 7842   0.970   0.600   9.755  0.2331  0.1406  0.1843
  524TMC3    O1 7843   0.707   0.909  10.191  0.1552 -0.0671  0.5033
  524TMC3    O2 7844   1.055   0.508   9.738 -0.0349 -0.1827  0.1308
  525MPD2     C 7845   3.229   1.377  14.140 -0.0315  0.6498  0.3385
  525MPD2    C1 7846   3.356   1.399  14.187  0.7305  0.7108 -0.0724
  525MPD2    C2 7847   3.402   1.530  14.179 -0.0364  0.0017  0.0403
  525MPD2    C3 7848   3.328   1.639  14.126 -0.6832 -0.4028  0.9126
  525MPD2    C4 7849   3.209   1.609  14.065 -0.8481 -0.2817 -0.0318
  525MPD2    C5 7850   3.156   1.482  14.081  0.2079  0.2180  1.0663
  525MPD2     H 7851   3.501   1.546  14.221 -0.7854  1.1361  1.3888
  525MPD2    H1 7852   3.158   1.691  14.016 -0.3379  0.0322 -0.0485
  525MPD2    H2 7853   3.190   1.277  14.144  2.2303 -0.3330 -1.7005
  525MPD2    H3 7854   3.054   1.465  14.049 -0.4995 -0.2695  3.5645
  525MPD2     N 7855   3.371   1.776  14.123 -0.0811 -0.2515  0.0001
  525MPD2    H5 7856   3.306   1.850  14.099  0.8591  0.5262 -0.1844
  525MPD2    N1 7857   3.438   1.305  14.252 -0.0961  0.0592 -0.0726
  525MPD2    H7 7858   3.528   1.342  14.279 -0.2397 -0.0585  0.5612
  526TMC3    C1 7859   3.497   1.113  14.370 -0.0488 -0.6042  0.2950
  526TMC3    C2 7860   3.466   1.030  14.473 -0.0651 -0.5519 -0.1810
  526TMC3    C3 7861   3.570   0.987  14.554 -0.5237 -0.2248  0.0821
  526TMC3    C4 7862   3.624   1.147  14.339  1.2210  0.1506 -0.4813
  526TMC3    C5 7863   3.721   1.101  14.418  0.0354  0.2980  0.2355
  526TMC3    C6 7864   3.694   1.027  14.532  0.7619  0.2521  0.3699
  526TMC3     C 7865   3.393   1.189  14.307  0.2101 -0.9665 -0.0439
  526TMC3     O 7866   3.285   1.136  14.303 -0.1281  0.4900  0.4751
  526TMC3     H 7867   3.364   0.996  14.489 -0.3862  0.8864  0.8458
  526TMC3    H1 7868   3.657   1.197  14.249 -1.0077 -0.5141 -1.6454
  526TMC3    H2 7869   3.781   1.005  14.593  1.8817 -1.0962 -1.7221
  526TMC3    C7 7870   3.856   1.098  14.365  0.1687  0.5855  0.3742
  526TMC3    C8 7871   3.528   0.953  14.687 -0.0655 -0.2010 -0.5006
  526TMC3    O1 7872   3.891   1.188  14.292  0.1150  0.0017 -0.0805
  526TMC3    O2 7873   3.589   1.014  14.775 -0.5674 -0.3756 -0.2260
  527MPD2     C 7874   0.637   4.325   1.087  0.3312 -0.1055 -0.4120
  527MPD2    C1 7875   0.667   4.395   0.968 -0.0459  0.4210  0.1905
  527MPD2    C2 7876   0.782   4.355   0.901 -0.5102  0.5984 -1.4006
  527MPD2    C3 7877   0.868   4.259   0.949 -0.0866 -0.4662  0.2745
  527MPD2    C4 7878   0.835   4.187   1.059 -0.4696 -0.1208 -0.2228
  527MPD2    C5 7879   0.726   4.228   1.135 -0.8000 -0.1038  0.1444
  527MPD2     H 7880   0.813   4.404   0.810  3.0294 -0.7585 -0.9260
  527MPD2    H1 7881   0.913   4.148   1.122 -0.0439  1.1318  0.0238
  527MPD2    H2 7882   0.553   4.352   1.150  0.8834  0.5390  0.0505
  527MPD2    H3 7883   0.705   4.195   1.237  0.6727 -1.7436 -0.0962
  527MPD2     N 7884   0.986   4.235   0.875 -0.2318 -1.2072 -0.3279
  527MPD2    H5 7885   0.995   4.287   0.788  0.2026 -2.0517 -0.7956
  527MPD2    N1 7886   0.592   4.503   0.917  0.3782  1.0417 -0.6288
  527MPD2    H7 7887   0.623   4.531   0.825 -0.4124  2.0146 -0.5955
  528TMC3    C1 7888   0.443   4.692   0.932  0.0752  0.0200  0.2094
  528TMC3    C2 7889   0.530   0.024   0.850  0.8707  0.0181  0.0234
  528TMC3    C3 7890   0.517   0.154   0.837  0.4614  0.3052 -0.0788
  528TMC3    C4 7891   0.349   0.015   1.013  0.4276 -0.4562 -0.6322
  528TMC3    C5 7892   0.341   0.148   0.999  0.5754 -1.0361 -0.4465
  528TMC3    C6 7893   0.425   0.218   0.919  0.0658  0.7145 -0.0943
  528TMC3     C 7894   0.480   4.556   0.979 -0.4448  0.0498 -0.2838
  528TMC3     O 7895   0.415   4.519   1.072 -0.3333  0.1998 -0.4678
  528TMC3     H 7896   0.607   4.716   0.790  0.4048 -0.2646 -0.3519
  528TMC3    H1 7897   0.297   4.703   1.093  0.8745 -1.2889 -0.8560
  528TMC3    H2 7898   0.407   0.325   0.910 -4.0528  0.1095  0.8627
  528TMC3    C7 7899   0.244   0.207   1.088 -0.6309  0.0211 -0.1503
  528TMC3    C8 7900   0.581   0.221   0.722  0.0896  0.3936 -0.5499
  528TMC3    O1 7901   0.169   0.138   1.157  0.2985 -0.4059  0.2958
  528TMC3    O2 7902   0.689   0.187   0.679 -0.1256 -1.0048  0.3126
  529MPD2     C 7903   4.007   2.348   0.561 -0.1998 -0.1912 -0.1167
  529MPD2    C1 7904   3.904   2.412   0.625 -0.1328  0.2302 -0.2347
  529MPD2    C2 7905   3.818   2.493   0.551  0.3424 -0.4605 -0.0182
  529MPD2    C3 7906   3.835   2.504   0.410 -0.0891  0.5432 -0.0970
  529MPD2    C4 7907   3.945   2.445   0.351  0.2810 -0.4243 -0.1374
  529MPD2    C5 7908   4.034   2.374   0.426 -0.4975 -0.1353  0.0290
  529MPD2     H 7909   3.733   2.531   0.606  1.3548  1.8945 -0.0934
  529MPD2    H1 7910   3.966   2.446   0.244  2.3763  0.6284  0.2953
  529MPD2    H2 7911   4.083   2.289   0.611 -0.0780 -0.1578 -0.2640
  529MPD2    H3 7912   4.120   2.327   0.380  1.7742  3.6925  0.4087
  529MPD2     N 7913   3.745   2.577   0.325  0.1932 -0.0427  0.0265
  529MPD2    H5 7914   3.767   2.593   0.227 -0.3223  0.7511  0.0410
  529MPD2    N1 7915   3.880   2.400   0.765 -0.0106 -0.3478  0.1928
  529MPD2    H7 7916   3.815   2.469   0.801 -1.4340 -1.3575 -0.4650
  530TMC3    C1 7917   3.903   2.353   0.988  0.3250 -0.2787  0.3887
  530TMC3    C2 7918   3.990   2.334   1.086  0.6420  0.4514 -0.6150
  530TMC3    C3 7919   3.944   2.325   1.217  0.3332 -0.0650 -0.5140
  530TMC3    C4 7920   3.769   2.365   1.012  0.1961  0.7346 -0.4604
  530TMC3    C5 7921   3.724   2.351   1.143 -0.4255 -0.2516  0.0132
  530TMC3    C6 7922   3.812   2.333   1.246 -0.1995  0.8495 -0.3258
  530TMC3     C 7923   3.946   2.319   0.852  0.5574 -0.7029  0.6066
  530TMC3     O 7924   4.041   2.243   0.835  0.2798 -0.4096  0.2605
  530TMC3     H 7925   4.095   2.330   1.057  0.8353  0.0970  0.1411
  530TMC3    H1 7926   3.690   2.356   0.938  0.3239 -0.0645 -0.5038
  530TMC3    H2 7927   3.783   2.319   1.350 -1.9308  0.8677 -0.8029
  530TMC3    C7 7928   3.599   2.281   1.168  0.3663  0.2230 -0.4164
  530TMC3    C8 7929   4.036   2.297   1.329  0.1054 -0.4852 -0.2758
  530TMC3    O1 7930   3.580   2.183   1.090  0.3334 -0.3088  0.1842
  530TMC3    O2 7931   4.007   2.301   1.447  0.3686 -0.3892  0.2254
  531MPD2     C 7932   3.295   0.979  13.568  0.5484  0.4651  0.3370
  531MPD2    C1 7933   3.215   0.866  13.588  0.2160 -0.2878 -0.1010
  531MPD2    C2 7934   3.142   0.820  13.483  0.3155  0.6067 -0.4879
  531MPD2    C3 7935   3.132   0.888  13.367 -0.5425  0.2993 -0.3303
  531MPD2    C4 7936   3.204   1.005  13.342  0.4303 -0.5568 -0.2553
  531MPD2    C5 7937   3.293   1.045  13.445 -0.5390  0.4399  0.1962
  531MPD2     H 7938   3.088   0.726  13.488  2.3667 -0.5862 -1.0155
  531MPD2    H1 7939   3.188   1.065  13.253 -0.7729  0.4893  0.6642
  531MPD2    H2 7940   3.361   1.020  13.644  1.2249 -0.4803  0.2539
  531MPD2    H3 7941   3.358   1.131  13.431 -0.4497  0.3909  0.3096
  531MPD2     N 7942   3.047   0.826  13.272  0.0707  0.3623  0.3046
  531MPD2    H5 7943   3.003   0.737  13.297  0.8769 -0.6271 -1.8056
  531MPD2    N1 7944   3.217   0.796  13.712  0.3869  0.2042 -0.4460
  531MPD2    H7 7945   3.284   0.827  13.782 -2.5241  1.2751  1.8436
  532TMC3    C1 7946   3.154   0.624  13.864 -0.3013  1.0461  0.0912
  532TMC3    C2 7947   3.054   0.548  13.912 -0.2589 -0.3771  0.1064
  532TMC3    C3 7948   3.076   0.421  13.958 -0.3456 -0.0301 -0.3503
  532TMC3    C4 7949   3.285   0.578  13.882  0.3739  1.0468 -0.2393
  532TMC3    C5 7950   3.303   0.451  13.932 -0.3436 -0.9582  0.6971
  532TMC3    C6 7951   3.202   0.373  13.981  0.2985  0.3869  0.6083
  532TMC3     C 7952   3.125   0.698  13.749 -0.1187  0.3944 -0.0439
  532TMC3     O 7953   3.028   0.655  13.691 -0.7500  0.2826 -0.0475
  532TMC3     H 7954   2.952   0.585  13.915 -0.3168 -0.5364  0.0887
  532TMC3    H1 7955   3.377   0.619  13.842 -0.3742  0.4570 -2.6023
  532TMC3    H2 7956   3.219   0.276  14.025  3.4927 -0.1055 -1.6926
  532TMC3    C7 7957   3.421   0.379  13.896 -0.3318 -0.1091 -0.3511
  532TMC3    C8 7958   2.999   0.318  13.885 -0.8615 -0.3844 -0.4277
  532TMC3    O1 7959   3.523   0.440  13.890  0.3680  0.4371  0.1608
  532TMC3    O2 7960   3.040   0.204  13.900 -0.4461  0.3731  0.2783
  533TMC3    C1 7961   3.495   1.963  14.206 -0.3943  0.5097 -0.0327
  533TMC3    C2 7962   3.613   2.025  14.208 -0.1556  0.1307  0.5723
  533TMC3    C3 7963   3.630   2.136  14.279  0.3642  0.3941  0.6232
  533TMC3    C4 7964   3.395   2.009  14.287  0.3422 -0.3112  0.1551
  533TMC3    C5 7965   3.412   2.110  14.375 -0.3023  0.1679  0.0415
  533TMC3    C6 7966   3.530   2.175  14.366 -0.1659 -0.3129  0.1704
  533TMC3     C 7967   3.493   1.824  14.168 -0.3827  0.9894  0.1456
  533TMC3     O 7968   3.590   1.758  14.201  0.2654 -0.2113 -0.0117
  533TMC3     H 7969   3.703   1.984  14.162 -0.5387  1.1818 -1.1067
  533TMC3    H1 7970   3.315   1.936  14.289  0.0333  0.0724  2.0393
  533TMC3    H2 7971   3.551   2.251  14.440 -1.8799  0.7126 -0.3863
  533TMC3    C7 7972   3.386   2.046  14.499 -0.8926  0.3769 -0.1540
  533TMC3    C8 7973   3.755   2.159  14.335 -0.2303 -0.1562  0.1391
  533TMC3    O1 7974   3.390   1.922  14.497  0.4008  0.5716 -0.4293
  533TMC3    O2 7975   3.821   2.066  14.385  0.1445 -0.6904  0.2847
  534MPD2     C 7976   1.884   2.442   1.010  0.3211 -0.3722  1.0992
  534MPD2    C1 7977   1.792   2.526   1.076 -0.5890 -0.1650  0.0745
  534MPD2    C2 7978   1.652   2.514   1.050  0.3571  0.4054 -0.3931
  534MPD2    C3 7979   1.612   2.412   0.971 -0.0961 -0.3682  0.3648
  534MPD2    C4 7980   1.700   2.323   0.917 -0.2175 -0.1296  0.3597
  534MPD2    C5 7981   1.835   2.343   0.933 -0.1708  0.3567 -1.1808
  534MPD2     H 7982   1.588   2.592   1.090  0.2522 -0.5007  1.1963
  534MPD2    H1 7983   1.664   2.242   0.855 -0.9743  0.1844  0.3984
  534MPD2    H2 7984   1.990   2.436   1.032  0.2582  1.6817  2.0448
  534MPD2    H3 7985   1.904   2.271   0.890  0.8729  0.6468 -0.0149
  534MPD2     N 7986   1.471   2.397   0.947 -0.4029  0.0328  0.2560
  534MPD2    H5 7987   1.444   2.343   0.866 -1.5495  1.2192 -0.1439
  534MPD2    N1 7988   1.830   2.638   1.151  0.3393 -0.1863 -0.2038
  534MPD2    H7 7989   1.762   2.693   1.202  0.7423  1.2715 -1.2509
  535TMC3    C1 7990   1.235   2.419   0.952 -0.4631 -0.3519  0.1103
  535TMC3    C2 7991   1.122   2.491   0.994  0.1081  0.0950  0.0407
  535TMC3    C3 7992   1.013   2.487   0.912  0.3933  0.6022  0.0865
  535TMC3    C4 7993   1.241   2.344   0.835  0.3320  0.5799 -0.1749
  535TMC3    C5 7994   1.123   2.330   0.766  0.5190  0.1617 -0.2894
  535TMC3    C6 7995   1.017   2.412   0.795  0.5936 -0.7383  0.1197
  535TMC3     C 7996   1.363   2.449   1.011 -0.8457 -0.2931 -0.6044
  535TMC3     O 7997   1.361   2.528   1.104  0.5483 -0.4969  0.5879
  535TMC3     H 7998   1.126   2.544   1.088 -0.1575  1.4094 -0.6951
  535TMC3    H1 7999   1.328   2.287   0.802 -1.2287 -0.8370 -1.8033
  535TMC3    H2 8000   0.922   2.396   0.744 -0.0706  0.3205  1.0243
  535TMC3    C7 8001   1.153   2.317   0.623 -0.2908 -0.0169 -1.1777
  535TMC3    C8 8002   0.886   2.514   0.967  0.1963 -0.3392  0.2464
  535TMC3    O1 8003   1.247   2.237   0.597  0.0812 -0.0718  0.1242
  535TMC3    O2 8004   0.797   2.445   0.925 -0.9520 -0.5112  0.1428
  536MPD2     C 8005   0.057   1.389  15.850 -0.2399 -0.4664 -0.3261
  536MPD2    C1 8006   4.692   1.332  15.926 -0.5332 -0.7783 -0.1241
  536MPD2    C2 8007   4.589   1.255  15.870  0.1868 -0.4542 -0.3904
  536MPD2    C3 8008   4.579   1.244  15.732  0.0607 -0.0801 -0.5297
  536MPD2    C4 8009   4.681   1.299  15.662 -0.3854  0.5127 -0.3563
  536MPD2    C5 8010   0.050   1.367  15.718 -0.6024 -0.5840 -0.2285
  536MPD2     H 8011   4.510   1.213  15.930 -1.0587  1.6616 -0.5264
  536MPD2    H1 8012   4.685   1.298  15.554 -0.0749  0.0883 -0.3408
  536MPD2    H2 8013   0.152   1.429  15.884  0.2667 -1.8195 -0.1250
  536MPD2    H3 8014   0.123   1.409  15.650 -1.1849  0.0586 -0.4521
  536MPD2     N 8015   4.475   1.186  15.660 -0.2061  0.2238  0.1879
  536MPD2    H5 8016   4.471   1.198  15.559  3.0484  0.6393  0.0924
  536MPD2    N1 8017   4.721   1.332  16.065 -0.4382 -0.7619  0.8074
  536MPD2    H7 8018   0.077   1.357  16.092 -0.4560  1.6729 -1.3372
  537TMC3    C1 8019   4.711   1.245  16.285 -0.5296 -0.1241 -0.3727
  537TMC3    C2 8020   0.094   1.304  16.309  0.1165 -0.8466 -0.8409
  537TMC3    C3 8021   0.176   1.238  16.399 -0.1003 -0.2755  0.4647
  537TMC3    C4 8022   4.669   1.128  16.336  0.6537  0.1429  0.0442
  537TMC3    C5 8023   0.016   1.053  16.418  0.6000 -0.2638  0.2166
  537TMC3    C6 8024   0.140   1.104  16.445  0.0706  0.1662  0.1421
  537TMC3     C 8025   4.639   1.279  16.164  0.5184 -0.4439  0.0361
  537TMC3     O 8026   4.521   1.241  16.161 -0.4763  0.1628  0.1693
  537TMC3     H 8027   0.101   1.410  16.287 -1.6346 -0.0402  2.5548
  537TMC3    H1 8028   4.570   1.087  16.323  1.5285 -1.2923 -2.0408
  537TMC3    H2 8029   0.215   1.057  16.507  0.0347  1.1606  0.9496
  537TMC3    C7 8030   4.703   0.961  16.511 -0.9035 -0.5325  0.0184
  537TMC3    C8 8031   0.253   1.315  16.500  0.5082 -0.0947  0.0811
  537TMC3    O1 8032   4.585   0.937  16.501 -0.6176 -0.1154 -0.3658
  537TMC3    O2 8033   0.288   1.255  16.601  0.3340  0.2127  0.6572
  538TMC3    C1 8034   1.504   4.338  11.433  0.0822 -0.2616  0.6913
  538TMC3    C2 8035   1.623   4.283  11.397 -1.7681 -0.0766 -0.3983
  538TMC3    C3 8036   1.685   4.337  11.281 -0.8124 -0.5548 -0.1554
  538TMC3    C4 8037   1.435   4.419  11.349  0.7019 -0.7382 -0.4190
  538TMC3    C5 8038   1.484   4.449  11.230  0.3784 -0.3990 -0.0914
  538TMC3    C6 8039   1.611   4.409  11.190 -0.2923 -0.0048 -0.6698
  538TMC3     C 8040   1.442   4.303  11.554  0.2181  0.4379 -0.5615
  538TMC3     O 8041   1.318   4.303  11.562  0.5723 -1.1218 -0.0069
  538TMC3     H 8042   1.677   4.207  11.454 -0.7521  0.2195 -0.9541
  538TMC3    H1 8043   1.332   4.436  11.377  1.0696  0.0596  0.4401
  538TMC3    H2 8044   1.642   4.433  11.089 -2.1294  0.5874 -1.0903
  538TMC3    C7 8045   1.416   4.541  11.152 -0.3582 -0.1540  0.4086
  538TMC3    C8 8046   1.820   4.286  11.248  0.2262 -0.1720  0.3157
  538TMC3    O1 8047   1.292   4.534  11.155 -0.7154 -0.3748  0.4479
  538TMC3    O2 8048   1.863   4.181  11.302  0.1357  0.1616  0.7408
  539MPD2     C 8049   1.510   3.652  11.911  0.2785 -0.2025 -0.0466
  539MPD2    C1 8050   1.546   3.657  11.778  0.1351  0.0022  0.4817
  539MPD2    C2 8051   1.463   3.724  11.693  0.4195 -0.5957  0.2307
  539MPD2    C3 8052   1.344   3.777  11.734 -0.4799  0.0875  0.7004
  539MPD2    C4 8053   1.314   3.771  11.867  0.2046  0.3688 -0.4375
  539MPD2    C5 8054   1.399   3.712  11.956  0.4390 -0.2502 -0.0754
  539MPD2     H 8055   1.496   3.723  11.590  0.8820 -0.4382  0.3785
  539MPD2    H1 8056   1.215   3.810  11.891  0.8600  0.5079  1.9718
  539MPD2    H2 8057   1.570   3.605  11.988  0.9088 -0.2361 -0.5512
  539MPD2    H3 8058   1.382   3.725  12.062  1.2344 -2.7153  0.3670
  539MPD2     N 8059   1.257   3.853  11.651  0.2644 -0.3489  0.0445
  539MPD2    H5 8060   1.176   3.902  11.688 -0.7759 -1.5651 -0.5894
  539MPD2    N1 8061   1.666   3.601  11.729  0.3742  0.1513 -0.7658
  539MPD2    H7 8062   1.675   3.583  11.629 -0.1610 -1.1822 -0.5710
  540TMC3    C1 8063   1.185   3.965  11.465  0.1967  0.0126 -0.2370
  540TMC3    C2 8064   1.155   3.969  11.330 -0.1955  0.5741 -0.4480
  540TMC3    C3 8065   1.062   4.060  11.285  0.2511 -0.1492 -0.1800
  540TMC3    C4 8066   1.111   4.049  11.550  0.3750 -0.3161  0.0121
  540TMC3    C5 8067   1.026   4.143  11.503 -0.2799 -0.0711 -0.3010
  540TMC3    C6 8068   0.995   4.147  11.367 -0.0053  0.1396  0.2623
  540TMC3     C 8069   1.276   3.869  11.516 -0.0915  0.2377  0.4224
  540TMC3     O 8070   1.358   3.820  11.437  0.2983  0.3431  0.1750
  540TMC3     H 8071   1.218   3.895  11.282  0.1728 -0.5198  1.7633
  540TMC3    H1 8072   1.146   4.055  11.652  1.4407 -1.5831 -0.2764
  540TMC3    H2 8073   0.943   4.233  11.326 -1.3950 -0.6667  0.3740
  540TMC3    C7 8074   0.963   4.222  11.611  0.3974 -0.2784  0.0526
  540TMC3    C8 8075   1.009   4.056  11.145  0.7967  0.3410  0.2886
  540TMC3    O1 8076   0.940   4.168  11.717  0.3420 -0.0278  0.0316
  540TMC3    O2 8077   0.892   4.086  11.121  0.5932 -0.6300  0.1484
  541MPD2     C 8078   4.221   0.176  13.549 -0.2290 -0.5094  0.6350
  541MPD2    C1 8079   4.192   0.095  13.439  0.8965 -0.1727 -0.0160
  541MPD2    C2 8080   4.227   0.144  13.308  0.6243  0.0096  0.8575
  541MPD2    C3 8081   4.282   0.273  13.291  0.3943 -0.3270 -0.4116
  541MPD2    C4 8082   4.309   0.344  13.409 -1.1206  1.2646 -0.3368
  541MPD2    C5 8083   4.269   0.300  13.533 -0.5119 -0.0529 -0.6711
  541MPD2     H 8084   4.204   0.081  13.224  1.8317  0.6039  0.0897
  541MPD2    H1 8085   4.344   0.447  13.411  0.9133  0.5495  2.3851
  541MPD2    H2 8086   4.196   0.140  13.648  1.9687 -2.2067  0.5723
  541MPD2    H3 8087   4.278   0.365  13.619 -4.7247 -0.9909  0.4804
  541MPD2     N 8088   4.311   0.329  13.167 -0.2762  0.4923 -0.7080
  541MPD2    H5 8089   4.328   0.429  13.161 -0.9907  0.6591  0.0979
  541MPD2    N1 8090   4.137   4.701  13.453  0.0364  0.1050  0.0463
  541MPD2    H7 8091   4.133   4.646  13.368  1.4011 -0.8036  0.5664
  542TMC3    C1 8092   4.306   0.318  12.922 -0.1158  1.4898  0.1067
  542TMC3    C2 8093   4.318   0.244  12.805 -0.2739  0.6174 -0.5741
  542TMC3    C3 8094   4.264   0.293  12.688  0.4172 -0.2214 -0.2232
  542TMC3    C4 8095   4.237   0.444  12.922 -0.0245 -0.1187 -0.0761
  542TMC3    C5 8096   4.171   0.472  12.807  0.5839  0.3848  0.3541
  542TMC3    C6 8097   4.192   0.406  12.692  0.0856 -0.0895  0.2480
  542TMC3     C 8098   4.331   0.251  13.052 -0.0128  0.7601  0.4780
  542TMC3     O 8099   4.343   0.130  13.046  0.3008  0.0766 -0.7629
  542TMC3     H 8100   4.385   0.160  12.804 -1.5716 -0.4194 -0.8235
  542TMC3    H1 8101   4.215   0.510  13.006  2.1929  0.1114  0.3223
  542TMC3    H2 8102   4.138   0.435  12.602  0.3996 -1.4902 -0.3879
  542TMC3    C7 8103   4.096   0.594  12.810  0.1198  0.2596  0.2690
  542TMC3    C8 8104   4.308   0.240  12.561  0.2634  0.2464 -0.1422
  542TMC3    O1 8105   4.137   0.681  12.879 -0.2332 -0.5131  0.6673
  542TMC3    O2 8106   4.243   0.271  12.457 -0.6314  0.1955 -0.3729
  543TMC3    C1 8107   3.359   2.168  16.962  0.0711 -0.2407 -0.5876
  543TMC3    C2 8108   3.344   2.087  17.068 -0.6003 -0.0460 -0.4753
  543TMC3    C3 8109   3.284   2.140  17.178  0.7291  0.1592 -0.1028
  543TMC3    C4 8110   3.309   2.289  16.949  0.3088 -0.3398 -0.9851
  543TMC3    C5 8111   3.246   2.334  17.064  0.1953  0.4591  0.0295
  543TMC3    C6 8112   3.223   2.259  17.173 -0.0026  0.2352 -0.6967
  543TMC3     C 8113   3.413   2.101  16.846 -0.2251  0.0603 -0.0814
  543TMC3     O 8114   3.445   1.982  16.864  0.1511 -0.4883 -0.1389
  543TMC3     H 8115   3.386   1.987  17.070 -0.8543 -0.1540 -0.5219
  543TMC3    H1 8116   3.321   2.350  16.860  0.4094  0.7333 -0.2371
  543TMC3    H2 8117   3.185   2.305  17.264 -2.6500  0.6680 -2.0293
  543TMC3    C7 8118   3.160   2.452  17.049  0.1975  0.1655 -0.0199
  543TMC3    C8 8119   3.269   2.048  17.290  0.0368 -0.5395 -0.7985
  543TMC3    O1 8120   3.183   2.525  16.952  0.5965 -0.4028  0.5590
  543TMC3    O2 8121   3.290   1.929  17.276 -0.0206  0.7503 -0.0796
  544MPD2     C 8122   3.049   1.932  17.740 -0.5337  0.0633  0.3450
  544MPD2    C1 8123   3.108   1.849  17.639 -0.3462 -0.3545 -1.0956
  544MPD2    C2 8124   3.162   1.909  17.528 -0.1090 -0.3050 -0.3273
  544MPD2    C3 8125   3.162   2.045  17.517  0.1300  0.2284  0.1591
  544MPD2    C4 8126   3.109   2.122  17.612  0.1889  0.0603 -0.3399
  544MPD2    C5 8127   3.053   2.072  17.724  0.6474 -0.3142 -0.4503
  544MPD2     H 8128   3.199   1.841  17.452  0.9535  0.5221 -0.5567
  544MPD2    H1 8129   3.105   2.230  17.603  0.2725 -0.0060 -1.1121
  544MPD2    H2 8130   3.010   1.893   0.082  1.9968 -2.9903  0.1112
  544MPD2    H3 8131   3.009   2.133   0.051 -0.0676  0.4954 -1.4806
  544MPD2     N 8132   3.212   2.106  17.401 -0.3881 -0.0069  0.1446
  544MPD2    H5 8133   3.196   2.206  17.397 -1.7005 -0.2366 -0.4856
  544MPD2    N1 8134   3.124   1.711  17.659  0.4752 -0.9304  0.1874
  544MPD2    H7 8135   3.172   1.658  17.587 -0.0825 -1.1074 -0.0480
  545TMC3    C1 8136   3.123   1.498   0.008  1.4924  0.1790 -0.9816
  545TMC3    C2 8137   3.229   1.468  17.691 -0.0037 -0.0528 -0.3792
  545TMC3    C3 8138   3.260   1.330  17.689 -0.3806 -0.4680  0.2854
  545TMC3    C4 8139   3.057   1.407   0.091  0.4147  0.3527  0.7387
  545TMC3    C5 8140   3.107   1.281   0.096 -0.2140  0.0569 -0.3038
  545TMC3    C6 8141   3.208   1.240   0.012  0.7277  0.4538 -0.0639
  545TMC3     C 8142   3.069   1.631   0.003 -0.7836 -0.3055 -0.1574
  545TMC3     O 8143   2.975   1.659   0.076 -0.2594  0.1880 -0.1621
  545TMC3     H 8144   3.298   1.539  17.647 -0.1310  0.8271  0.8452
  545TMC3    H1 8145   2.968   1.438   0.144  1.2337 -1.9161  3.4025
  545TMC3    H2 8146   3.243   1.138   0.016 -1.1982 -0.1626  1.1981
  545TMC3    C7 8147   3.022   1.174   0.150 -0.0077 -0.3571 -0.4506
  545TMC3    C8 8148   3.367   1.283  17.598 -0.8033  0.5268  0.7777
  545TMC3    O1 8149   2.904   1.199   0.132  0.0247  0.1380 -0.4455
  545TMC3    O2 8150   3.437   1.194  17.644  0.5389  0.0926 -0.2977
  546MPD2     C 8151   4.663   1.647  17.520 -0.1214  0.0523  0.0590
  546MPD2    C1 8152   4.650   1.638  17.380  0.1302 -0.8994 -0.1759
  546MPD2    C2 8153   4.707   1.729  17.290 -0.0712 -0.2773  0.2046
  546MPD2    C3 8154   0.046   1.832  17.349 -0.0713 -0.0474 -0.6872
  546MPD2    C4 8155   0.045   1.845  17.484  0.2093 -0.1788 -0.0700
  546MPD2    C5 8156   4.729   1.755  17.566 -0.1572  0.2089 -0.3608
  546MPD2     H 8157   4.700   1.732  17.182  0.5620  1.3225  0.2020
  546MPD2    H1 8158   0.108   1.922  17.525  1.8354 -2.4968  1.7458
  546MPD2    H2 8159   4.612   1.571  17.579  0.7043 -1.5258 -1.2494
  546MPD2    H3 8160   4.738   1.762  17.674 -0.1332  1.7919 -0.4781
  546MPD2     N 8161   0.116   1.928  17.280  0.2030  1.0646 -0.7690
  546MPD2    H5 8162   0.156   1.998  17.342 -0.7398  0.7909  0.1494
  546MPD2    N1 8163   4.575   1.530  17.333 -0.1229  0.2283 -0.0437
  546MPD2    H7 8164   4.523   1.474  17.399 -0.5051 -0.3728 -0.8532
  547TMC3    C1 8165   4.468   1.395  17.183  0.5749  0.0001  0.0201
  547TMC3    C2 8166   4.412   1.405  17.059  0.0948  0.1626 -0.3931
  547TMC3    C3 8167   4.304   1.320  17.037  0.2000 -0.9002 -0.1973
  547TMC3    C4 8168   4.417   1.314  17.280  0.5869 -0.4353  0.6292
  547TMC3    C5 8169   4.305   1.244  17.255 -0.3694  0.8016  0.3038
  547TMC3    C6 8170   4.245   1.251  17.136  0.3601 -0.0120 -0.1238
  547TMC3     C 8171   4.577   1.481  17.205  0.4685 -0.2988 -0.6949
  547TMC3     O 8172   4.639   1.511  17.107  0.5004 -0.3587 -0.6063
  547TMC3     H 8173   4.448   1.482  16.992 -0.4735  2.7721  2.2805
  547TMC3    H1 8174   4.479   1.286  17.364  2.3831  2.6382  0.3281
  547TMC3    H2 8175   4.157   1.190  17.116 -0.3952  0.7671  0.8275
  547TMC3    C7 8176   4.253   1.160  17.365 -0.4011 -0.1869  1.0985
  547TMC3    C8 8177   4.230   1.342  16.912 -0.0975 -0.4630 -0.7203
  547TMC3    O1 8178   4.290   1.184  17.479 -0.0581  0.3837  0.3987
  547TMC3    O2 8179   4.113   1.304  16.910 -0.2757  0.0166  0.4470
  548MPD2     C 8180   4.552   2.077  12.915  0.9484 -1.2193  0.1817
  548MPD2    C1 8181   4.512   1.954  12.873 -0.1094  0.5653 -0.2804
  548MPD2    C2 8182   4.610   1.858  12.848  0.3581 -0.2298 -0.2746
  548MPD2    C3 8183   0.002   1.882  12.860  0.3640  0.4434 -0.1555
  548MPD2    C4 8184   0.049   2.008  12.912  0.2499 -0.3356  0.4379
  548MPD2    C5 8185   4.688   2.110  12.929  0.8935  0.0642  1.2288
  548MPD2     H 8186   4.584   1.760  12.809  0.1597 -1.0087  1.7804
  548MPD2    H1 8187   0.153   2.039  12.915  0.3086 -0.2606 -2.0767
  548MPD2    H2 8188   4.484   2.160  12.920  5.6845  2.7676 -1.4530
  548MPD2    H3 8189   4.718   2.207  12.965  0.9573 -0.1612  1.7888
  548MPD2     N 8190   0.087   1.776  12.828 -0.3321 -0.4561  0.2873
  548MPD2    H5 8191   0.041   1.694  12.789 -2.9627  0.1694  2.0273
  548MPD2    N1 8192   4.375   1.933  12.840 -0.1357 -0.4222 -0.1653
  548MPD2    H7 8193   4.302   2.002  12.856 -0.3347 -0.6943  0.1073
  549TMC3    C1 8194   4.181   1.828  12.793  0.3918 -0.3849  0.6045
  549TMC3    C2 8195   4.125   1.931  12.729  0.2213  0.1891 -0.1453
  549TMC3    C3 8196   3.990   1.919  12.708  0.6062  0.4531 -0.2703
  549TMC3    C4 8197   4.106   1.726  12.855  0.2505 -1.2904  0.6811
  549TMC3    C5 8198   3.968   1.730  12.850  0.1208  0.9800  0.0715
  549TMC3    C6 8199   3.911   1.821  12.767 -0.1403  0.5335  0.4376
  549TMC3     C 8200   4.325   1.813  12.807 -0.0585  0.3949  0.5073
  549TMC3     O 8201   4.366   1.696  12.814  0.2789 -0.1770 -0.4237
  549TMC3     H 8202   4.188   2.006  12.683 -0.5351  0.6407 -0.4531
  549TMC3    H1 8203   4.167   1.664  12.920  1.1703 -0.6226  0.4521
  549TMC3    H2 8204   3.803   1.819  12.754 -0.2421  2.4505  0.9906
  549TMC3    C7 8205   3.901   1.608  12.891  0.2465 -0.0644 -0.6082
  549TMC3    C8 8206   3.924   2.025  12.631 -0.1061 -0.8465  0.5181
  549TMC3    O1 8207   3.783   1.614  12.915 -0.0833 -0.0579 -0.0112
  549TMC3    O2 8208   3.806   2.002  12.609 -0.0300  0.2068  0.4387
  550TMC3    C1 8209   3.970   4.729  12.382  0.3090  0.1278 -0.0171
  550TMC3    C2 8210   3.992   0.056  12.506 -0.3904 -0.0265 -0.0013
  550TMC3    C3 8211   3.888   0.122  12.565 -0.3199 -0.1539 -0.1617
  550TMC3    C4 8212   3.842   0.011  12.322  0.4163 -0.7898 -0.2689
  550TMC3    C5 8213   3.746   0.091  12.387 -0.3035  0.1757 -0.3644
  550TMC3    C6 8214   3.759   0.129  12.516 -0.6823 -0.2464  0.2628
  550TMC3     C 8215   4.089   4.701  12.306 -0.3751 -0.1151 -0.6501
  550TMC3     O 8216   4.178   4.661  12.381 -0.1245 -0.3494 -0.9648
  550TMC3     H 8217   4.091   0.058  12.551  0.2613  0.1131 -1.4402
  550TMC3    H1 8218   3.815   4.704  12.227  0.6948 -0.7494 -0.3683
  550TMC3    H2 8219   3.685   0.198  12.554 -0.5687  0.8043 -1.4116
  550TMC3    C7 8220   3.622   0.115  12.318 -0.3430  0.1557 -0.0307
  550TMC3    C8 8221   3.908   0.226  12.662 -0.3968 -0.3971  0.1407
  550TMC3    O1 8222   3.531   0.137  12.392  0.3418 -1.4172  0.0035
  550TMC3    O2 8223   3.875   0.341  12.639  0.2400  0.6749 -0.5628
  551TMC3    C1 8224   1.586   2.488  13.191  0.8330 -1.1753  1.4047
  551TMC3    C2 8225   1.722   2.513  13.214  0.0567  0.2103  0.2652
  551TMC3    C3 8226   1.751   2.605  13.318  0.6132  0.4828 -0.0103
  551TMC3    C4 8227   1.489   2.554  13.261  0.0010 -0.0629  0.6475
  551TMC3    C5 8228   1.520   2.648  13.348 -0.2304 -0.2378  0.0196
  551TMC3    C6 8229   1.647   2.679  13.377  0.2196 -0.2154 -0.2965
  551TMC3     C 8230   1.545   2.442  13.058  0.0660  0.1555  0.0427
  551TMC3     O 8231   1.454   2.496  12.996 -0.3107 -0.2677 -0.3691
  551TMC3     H 8232   1.792   2.477  13.140 -2.2031  1.5507 -2.5419
  551TMC3    H1 8233   1.385   2.545  13.231  0.1203 -0.5743  0.3894
  551TMC3    H2 8234   1.664   2.776  13.423 -2.0503  0.6466 -1.2589
  551TMC3    C7 8235   1.405   2.729  13.392  0.3767  0.0605 -0.8988
  551TMC3    C8 8236   1.869   2.691  13.290 -0.2979 -0.5809  0.1356
  551TMC3    O1 8237   1.313   2.739  13.313 -0.1127  0.0452 -0.5384
  551TMC3    O2 8238   1.876   2.796  13.361  0.2994  0.4769 -0.1371
  552MPD2     C 8239   2.735   4.160  14.630  0.5567 -0.0535  0.5952
  552MPD2    C1 8240   2.824   4.188  14.515 -0.7924 -0.0547 -0.3664
  552MPD2    C2 8241   2.946   4.233  14.547 -0.0208 -0.3293  0.4188
  552MPD2    C3 8242   2.991   4.264  14.675  0.2146  0.9556 -0.5239
  552MPD2    C4 8243   2.898   4.249  14.779 -0.9038 -0.7073 -0.0798
  552MPD2    C5 8244   2.777   4.194  14.757 -0.1657 -0.0745 -0.6486
  552MPD2     H 8245   3.002   4.251  14.456 -0.2544 -0.4838  0.2451
  552MPD2    H1 8246   2.934   4.263  14.880  0.6648  1.0907 -0.8911
  552MPD2    H2 8247   2.635   4.122  14.616 -0.0814  2.3130 -1.1592
  552MPD2    H3 8248   2.713   4.169  14.840 -0.9256 -0.2886 -1.2974
  552MPD2     N 8249   3.108   4.327  14.709 -0.8942  0.1625  0.4261
  552MPD2    H5 8250   3.114   4.350  14.807 -0.8075  0.0628  0.4438
  552MPD2    N1 8251   2.784   4.167  14.386 -0.1380 -0.1651 -0.1353
  552MPD2    H7 8252   2.850   4.198  14.315 -0.0511  2.5212  1.1130
  553TMC3    C1 8253   2.654   4.104  14.200  0.3919 -0.4305  0.9409
  553TMC3    C2 8254   2.705   4.201  14.117  0.3550  0.3662 -0.3741
  553TMC3    C3 8255   2.682   4.187  13.982 -0.1293 -0.2552  0.1522
  553TMC3    C4 8256   2.576   4.007  14.151  1.0345  0.0029  0.8752
  553TMC3    C5 8257   2.569   3.984  14.018 -0.1199  0.4798 -0.0336
  553TMC3    C6 8258   2.617   4.079  13.929 -0.4877 -0.2518  0.4181
  553TMC3     C 8259   2.676   4.097  14.344 -0.3387 -0.3391  0.7615
  553TMC3     O 8260   2.613   4.011  14.405 -0.0449  0.3216  0.6965
  553TMC3     H 8261   2.749   4.292  14.156 -0.3221 -0.1632  1.5938
  553TMC3    H1 8262   2.561   3.914  14.206 -0.6299 -0.1179  0.2189
  553TMC3    H2 8263   2.620   4.045  13.826 -0.1928 -0.9964  0.6687
  553TMC3    C7 8264   2.597   3.847  13.984  0.0257 -0.4608 -0.3141
  553TMC3    C8 8265   2.765   4.265  13.890  0.6559  0.1322  0.6156
  553TMC3    O1 8266   2.504   3.768  14.003 -0.3646 -0.1518  0.0704
  553TMC3    O2 8267   2.874   4.291  13.934 -0.1138 -0.1636 -0.5020
  554TMC3    C1 8268   0.628   3.986  11.273 -0.1317 -0.0520 -0.4214
  554TMC3    C2 8269   0.588   3.958  11.140  0.3002 -0.4630 -0.2257
  554TMC3    C3 8270   0.529   4.071  11.076  0.4735  0.6601 -0.6563
  554TMC3    C4 8271   0.615   4.112  11.330  0.2977  0.3092  0.0553
  554TMC3    C5 8272   0.565   4.214  11.255  0.4839  0.3274 -0.3807
  554TMC3    C6 8273   0.528   4.189  11.127  0.7684  0.1762 -0.5437
  554TMC3     C 8274   0.689   3.879  11.344  0.8629  0.4261 -0.3780
  554TMC3     O 8275   0.722   3.779  11.283  0.2193  0.0169 -0.0201
  554TMC3     H 8276   0.580   3.862  11.092 -2.7159  0.5413 -1.7081
  554TMC3    H1 8277   0.678   4.137  11.414  1.7789 -0.3198 -0.8704
  554TMC3    H2 8278   0.495   4.277  11.071 -1.2194 -0.5285 -0.4813
  554TMC3    C7 8279   0.627   4.345  11.272 -0.1241  0.3502 -0.0003
  554TMC3    C8 8280   0.535   4.069  10.933 -1.3018  0.0719 -0.2305
  554TMC3    O1 8281   0.744   4.367  11.240 -0.1656 -0.1487 -0.2414
  554TMC3    O2 8282   0.583   4.167  10.877  0.1499  0.3366  0.0426
  555TMC3    C1 8283   3.532   3.293  15.206 -0.6955 -0.3906  0.5844
  555TMC3    C2 8284   3.519   3.402  15.294 -0.7116 -0.3711 -0.5335
  555TMC3    C3 8285   3.557   3.376  15.423  0.2947 -0.3909 -0.7542
  555TMC3    C4 8286   3.597   3.175  15.234 -0.5397  0.1765  0.4810
  555TMC3    C5 8287   3.645   3.167  15.359  0.5386 -0.0541 -0.5711
  555TMC3    C6 8288   3.620   3.261  15.450 -0.5737  0.8827 -0.3697
  555TMC3     C 8289   3.476   3.305  15.066  0.3641 -0.2269 -0.0040
  555TMC3     O 8290   3.501   3.213  14.985 -0.1915 -0.0727 -0.4226
  555TMC3     H 8291   3.492   3.501  15.260  0.6039  0.1094 -0.1893
  555TMC3    H1 8292   3.595   3.092  15.165 -2.0035  0.4195  0.2396
  555TMC3    H2 8293   3.650   3.257  15.554 -3.1885 -0.8607  0.3050
  555TMC3    C7 8294   3.706   3.049  15.403  0.1398 -0.2051  0.8227
  555TMC3    C8 8295   3.539   3.485  15.513  0.8396 -0.0978 -0.1750
  555TMC3    O1 8296   3.679   2.953  15.335  0.1100 -0.2349  0.1640
  555TMC3    O2 8297   3.446   3.556  15.479  0.3311 -0.3915  0.1969
  556MPD2     C 8298   2.230   0.588  11.042 -0.0985 -0.1222 -0.6217
  556MPD2    C1 8299   2.234   0.457  11.095  0.9031  0.1815 -0.2242
  556MPD2    C2 8300   2.249   0.353  11.006 -0.0156  0.1148  0.0841
  556MPD2    C3 8301   2.271   0.373  10.870 -0.8551  0.2279 -0.4923
  556MPD2    C4 8302   2.286   0.506  10.824 -0.1578  0.7399 -0.0912
  556MPD2    C5 8303   2.264   0.606  10.914 -0.0623 -0.0624  0.4787
  556MPD2     H 8304   2.244   0.256  11.053  0.6479 -0.2511 -0.6006
  556MPD2    H1 8305   2.304   0.516  10.717  0.7737  1.0752  0.0936
  556MPD2    H2 8306   2.219   0.678  11.102  2.7222 -0.6683  0.6993
  556MPD2    H3 8307   2.266   0.707  10.876 -0.4623  0.5607  2.0956
  556MPD2     N 8308   2.281   0.257  10.790  0.4531 -0.5741 -0.3148
  556MPD2    H5 8309   2.253   0.167  10.827 -1.1032 -0.9009 -2.2530
  556MPD2    N1 8310   2.208   0.424  11.233  0.4926 -0.6061  0.3191
  556MPD2    H7 8311   2.173   0.330  11.243  0.8702 -0.8104 -0.2500
  557TMC3    C1 8312   2.299   0.110  10.606 -0.5805 -0.3222  0.9812
  557TMC3    C2 8313   2.383   0.054  10.507 -0.2635  0.0442 -0.4482
  557TMC3    C3 8314   2.367   4.660  10.462 -0.6825  0.8409  0.1107
  557TMC3    C4 8315   2.202   0.033  10.658 -0.3281  0.0603 -0.0969
  557TMC3    C5 8316   2.198   4.638  10.624  0.1522 -0.0073  0.1747
  557TMC3    C6 8317   2.275   4.580  10.525 -0.0838  0.1129  0.1847
  557TMC3     C 8318   2.330   0.247  10.661 -0.3402  0.2000  0.3476
  557TMC3     O 8319   2.380   0.334  10.589 -0.2528  0.4673 -0.2400
  557TMC3     H 8320   2.471   0.104  10.467  0.2226  1.5298  2.4877
  557TMC3    H1 8321   2.146   0.065  10.745 -1.0111 -1.4325  0.0120
  557TMC3    H2 8322   2.256   4.475  10.504  0.2078 -0.4865  2.9815
  557TMC3    C7 8323   2.108   4.563  10.704 -0.1686 -1.2230 -0.3710
  557TMC3    C8 8324   2.469   4.599  10.386 -0.4688 -0.5155  0.7069
  557TMC3    O1 8325   2.005   4.621  10.733 -0.9751 -0.0140 -0.0723
  557TMC3    O2 8326   2.582   4.646  10.385 -0.5924  0.0051  0.2049
  558TMC3    C1 8327   0.219   2.947  10.552  0.1576  0.1713  0.5805
  558TMC3    C2 8328   0.128   3.030  10.620  0.7034  0.2812  0.3638
  558TMC3    C3 8329   0.036   3.092  10.536  0.1332 -0.6756  0.4025
  558TMC3    C4 8330   0.222   2.941  10.415 -0.2069 -0.2666 -0.1883
  558TMC3    C5 8331   0.133   3.010  10.343  0.1740 -0.2703 -0.1755
  558TMC3    C6 8332   0.034   3.085  10.400  0.3566  0.7393 -0.3586
  558TMC3     C 8333   0.307   2.849  10.618  0.0797 -0.1214  1.1693
  558TMC3     O 8334   0.391   2.790  10.552 -0.7369  0.5546 -0.2978
  558TMC3     H 8335   0.124   3.036  10.729 -0.6342  0.0532  0.3297
  558TMC3    H1 8336   0.310   2.893  10.372  0.6161  0.0940  1.0951
  558TMC3    H2 8337   4.712   3.152  10.339 -0.0757 -1.0762 -1.9211
  558TMC3    C7 8338   0.145   3.005  10.202  0.3073  0.1951 -0.3106
  558TMC3    C8 8339   4.661   3.167  10.594  0.2367  0.1500  0.5211
  558TMC3    O1 8340   0.251   2.956  10.156 -0.2033 -0.0503  0.0318
  558TMC3    O2 8341   4.573   3.200  10.514 -0.2433  0.1855  0.3140
  559MPD2     C 8342   0.253   3.323  10.210 -0.0019 -0.3810  0.9793
  559MPD2    C1 8343   0.213   3.394  10.321 -0.8430  0.1676  0.2569
  559MPD2    C2 8344   0.296   3.387  10.432  0.1588 -0.6701 -0.3911
  559MPD2    C3 8345   0.411   3.315  10.425 -0.4753 -0.1156 -0.1709
  559MPD2    C4 8346   0.441   3.236  10.316  0.1034  1.0293  0.3532
  559MPD2    C5 8347   0.366   3.252  10.203  0.1030  0.3213 -0.1071
  559MPD2     H 8348   0.271   3.439  10.524 -1.6405 -0.3490 -1.0661
  559MPD2    H1 8349   0.534   3.181  10.312  0.7456  2.1123  0.1031
  559MPD2    H2 8350   0.191   3.333  10.122 -2.9419  1.4531  3.2566
  559MPD2    H3 8351   0.384   3.205  10.107 -1.2610 -0.1676 -0.1116
  559MPD2     N 8352   0.485   3.317  10.547  0.5491  0.3905  0.8810
  559MPD2    H5 8353   0.445   3.367  10.626 -0.4934  0.7710  0.1122
  559MPD2    N1 8354   0.092   3.465  10.313  0.1071  0.0798  0.1870
  559MPD2    H7 8355   0.041   3.466  10.225 -0.9281 -1.6245  0.7732
  560TMC3    C1 8356   0.631   3.230  10.717  0.0282 -0.1354  0.7951
  560TMC3    C2 8357   0.537   3.233  10.820 -0.2958 -0.5374  0.5132
  560TMC3    C3 8358   0.574   3.167  10.934  0.2128 -0.9907 -0.0142
  560TMC3    C4 8359   0.763   3.189  10.739  0.0835  0.3516  0.0475
  560TMC3    C5 8360   0.784   3.118  10.849  0.0679  0.4536 -0.8070
  560TMC3    C6 8361   0.696   3.104  10.948 -0.4385  0.1791  0.1101
  560TMC3     C 8362   0.600   3.259  10.574 -0.4092 -0.3767 -0.2831
  560TMC3     O 8363   0.676   3.212  10.487  0.4491 -0.3384  0.1908
  560TMC3     H 8364   0.445   3.284  10.795  0.1302 -0.6911 -1.4065
  560TMC3    H1 8365   0.840   3.205  10.665  0.3249  1.4733  0.5300
  560TMC3    H2 8366   0.734   3.044  11.029  0.6257  0.2246 -0.3611
  560TMC3    C7 8367   0.918   3.071  10.894 -0.2595  0.2854 -0.3598
  560TMC3    C8 8368   0.470   3.160  11.039 -0.1567 -0.3235 -0.1862
  560TMC3    O1 8369   0.920   2.974  10.966  0.1019 -0.1529 -0.4865
  560TMC3    O2 8370   0.349   3.186  11.020 -0.3461  0.0104  0.2623
  561TMC3    C1 8371   2.964   2.608  11.400 -0.1943  0.5165 -0.5183
  561TMC3    C2 8372   2.858   2.562  11.471  0.2670 -0.0311  0.5114
  561TMC3    C3 8373   2.819   2.628  11.582  0.1736  0.1798 -0.4075
  561TMC3    C4 8374   3.017   2.728  11.418  0.8864 -0.6831  0.2316
  561TMC3    C5 8375   2.964   2.799  11.522  0.3517 -0.7166  0.6669
  561TMC3    C6 8376   2.863   2.756  11.606  0.6337 -0.1834  0.5663
  561TMC3     C 8377   3.051   2.504  11.334  0.6948 -0.1151  0.1249
  561TMC3     O 8378   3.003   2.386  11.332  0.4144 -0.0791  0.5028
  561TMC3     H 8379   2.818   2.468  11.437  0.5557  0.3016 -0.7623
  561TMC3    H1 8380   3.113   2.758  11.378 -0.6097  3.3938 -0.3923
  561TMC3    H2 8381   2.831   2.819  11.688  0.9463  1.9028 -0.9307
  561TMC3    C7 8382   3.015   2.929  11.555  0.0976  0.0663  0.7633
  561TMC3    C8 8383   2.707   2.577  11.658  0.1304  0.5357 -0.3301
  561TMC3    O1 8384   2.971   2.988  11.651 -0.4025 -0.5424  0.2075
  561TMC3    O2 8385   2.664   2.466  11.624  0.2434 -0.0423 -0.3702
  562TMC3    C1 8386   3.521   3.543  16.680 -0.0446 -0.0054 -0.2251
  562TMC3    C2 8387   3.452   3.661  16.666  0.3211  0.5654 -0.1018
  562TMC3    C3 8388   3.440   3.718  16.539  0.0819 -0.0816  0.2813
  562TMC3    C4 8389   3.566   3.477  16.571 -0.1611  0.0173 -0.2791
  562TMC3    C5 8390   3.546   3.535  16.448  0.1618 -0.4875  0.0498
  562TMC3    C6 8391   3.499   3.665  16.431 -0.3643  0.8242 -0.0699
  562TMC3     C 8392   3.522   3.456  16.801  0.0243  0.9296  0.0151
  562TMC3     O 8393   3.575   3.347  16.792  0.0225 -0.2569 -0.0519
  562TMC3     H 8394   3.411   3.719  16.748 -0.3120 -0.3144  0.1943
  562TMC3    H1 8395   3.622   3.385  16.582 -0.0847  0.0625 -0.2925
  562TMC3    H2 8396   3.486   3.708  16.333 -2.0193 -2.1988 -1.1641
  562TMC3    C7 8397   3.566   3.470  16.322  0.8101 -0.5147 -0.4762
  562TMC3    C8 8398   3.381   3.853  16.539 -0.9261 -1.0658  0.1732
  562TMC3    O1 8399   3.508   3.518  16.225 -0.4430 -0.1953 -0.1029
  562TMC3    O2 8400   3.365   3.914  16.645  0.2971  0.5497 -0.1137
  563MPD2     C 8401   1.364   4.480  15.728 -0.1948 -0.0688  0.2619
  563MPD2    C1 8402   1.360   4.584  15.815  0.0383 -0.5033 -0.8532
  563MPD2    C2 8403   1.475   4.617  15.884 -0.5434 -0.5859 -0.1569
  563MPD2    C3 8404   1.593   4.541  15.872  0.1816 -0.2479  0.1799
  563MPD2    C4 8405   1.600   4.440  15.782  0.2938 -0.2229 -0.5327
  563MPD2    C5 8406   1.484   4.410  15.710 -0.0284 -0.3043  0.1320
  563MPD2     H 8407   1.485   4.701  15.953 -0.1574 -1.5332  0.9311
  563MPD2    H1 8408   1.685   4.387  15.741  0.1705  0.9231 -2.2664
  563MPD2    H2 8409   1.271   4.450  15.682  0.4916 -1.3746 -0.2683
  563MPD2    H3 8410   1.485   4.337  15.630  1.9521  0.6323 -0.6856
  563MPD2     N 8411   1.696   4.564  15.959  0.1213 -0.2588 -0.7720
  563MPD2    H5 8412   1.687   4.649  16.015  0.5455 -0.5762 -0.2177
  563MPD2    N1 8413   1.235   4.643  15.830  0.0496 -0.1579  0.8370
  563MPD2    H7 8414   1.153   4.584  15.820 -0.6840  0.9170  0.4684
  564TMC3    C1 8415   1.110   0.059  15.954  0.7842  0.2242  0.5139
  564TMC3    C2 8416   0.987   0.012  15.915  0.2297  0.2902 -0.4015
  564TMC3    C3 8417   0.889   4.723  16.011 -0.0047  0.2684  0.0449
  564TMC3    C4 8418   1.142   0.073  16.087 -0.1123  0.2273  0.0121
  564TMC3    C5 8419   1.049   0.041  16.178  0.3197 -0.5262  0.3126
  564TMC3    C6 8420   0.925   0.004  16.138 -0.4297  0.1078 -0.4557
  564TMC3     C 8421   1.229   0.038  15.876 -0.1109 -0.3316 -0.2325
  564TMC3     O 8422   1.316   0.112  15.910  0.2054 -0.1683 -0.0707
  564TMC3     H 8423   0.971   4.726  15.810  1.1607 -3.3600  0.3118
  564TMC3    H1 8424   1.245   0.083  16.119  0.4222 -0.2097 -1.5823
  564TMC3    H2 8425   0.846   4.728  16.211  0.2032 -1.9048 -0.1613
  564TMC3    C7 8426   1.113   4.674  16.265 -0.0173 -0.2532  0.3920
  564TMC3    C8 8427   0.825   4.591  16.000 -0.0859  0.2746  0.2523
  564TMC3    O1 8428   1.218   4.701  16.318  0.4894  0.5137 -0.2267
  564TMC3    O2 8429   0.827   4.516  16.098 -0.2851 -0.1487  0.5153
  565TMC3    C1 8430   2.155   2.607   9.956 -0.3851 -0.0393  0.2290
  565TMC3    C2 8431   2.137   2.489  10.030 -0.2209  0.5938  0.2136
  565TMC3    C3 8432   2.011   2.436  10.030 -0.5317 -0.6318  0.2438
  565TMC3    C4 8433   2.062   2.660   9.874  0.0176 -0.1382  0.5637
  565TMC3    C5 8434   1.938   2.601   9.890  0.3925  0.7668  0.4421
  565TMC3    C6 8435   1.910   2.485   9.959  0.3280  0.3217 -0.1567
  565TMC3     C 8436   2.274   2.686   9.977  0.8013  0.0956 -0.3519
  565TMC3     O 8437   2.286   2.783   9.906 -0.1728  0.8392 -0.1277
  565TMC3     H 8438   2.211   2.424  10.077 -0.4365  1.5589  1.8980
  565TMC3    H1 8439   2.082   2.755   9.826 -0.9723  0.5043  1.4393
  565TMC3    H2 8440   1.810   2.452   9.983 -0.5808  3.9449  1.0246
  565TMC3    C7 8441   1.823   2.661   9.820  0.2973 -0.6269  0.0222
  565TMC3    C8 8442   1.990   2.307  10.094  0.6636  0.9822  0.2577
  565TMC3    O1 8443   1.718   2.600   9.819  0.3082  0.0221  0.4993
  565TMC3    O2 8444   1.912   2.229  10.045 -0.1109  0.4818  1.0490
  566MPD2     C 8445   3.122   3.106  14.045  0.0731 -0.2553 -0.1376
  566MPD2    C1 8446   3.177   3.006  13.969  0.8855  0.1556  0.1011
  566MPD2    C2 8447   3.115   2.964  13.854  0.0699  0.0017 -0.6805
  566MPD2    C3 8448   2.999   3.026  13.813 -0.3067 -0.7525 -0.3799
  566MPD2    C4 8449   2.946   3.127  13.890  0.3508 -0.2944 -0.3046
  566MPD2    C5 8450   3.006   3.160  14.006  0.0830 -0.4817 -0.1194
  566MPD2     H 8451   3.155   2.881  13.797  0.3398 -0.1619 -0.2438
  566MPD2    H1 8452   2.857   3.180  13.859  0.5542  0.9005  1.1639
  566MPD2    H2 8453   3.175   3.149  14.129  0.4266  0.2064 -0.5947
  566MPD2    H3 8454   2.954   3.229  14.071  0.4186  0.2481 -0.6370
  566MPD2     N 8455   2.940   2.997  13.687  0.4484  0.2996 -0.3587
  566MPD2    H5 8456   2.853   3.046  13.666 -0.0036 -1.7559 -3.2498
  566MPD2    N1 8457   3.300   2.943  14.023  0.5646 -0.0705 -0.6055
  566MPD2    H7 8458   3.341   2.980  14.108 -0.8184 -2.4060  1.0746
  567TMC3    C1 8459   3.532   2.878  13.992 -0.4150  0.3516 -0.2340
  567TMC3    C2 8460   3.630   2.912  13.906 -0.2963 -0.3398  0.1607
  567TMC3    C3 8461   3.754   2.922  13.952 -0.0087  0.2441  0.4379
  567TMC3    C4 8462   3.544   2.874  14.127  0.0889  0.2693  0.2807
  567TMC3    C5 8463   3.670   2.890  14.174  0.0473 -0.5765 -0.0026
  567TMC3    C6 8464   3.780   2.909  14.088  0.2000 -0.6611  0.5430
  567TMC3     C 8465   3.396   2.888  13.937 -0.2283  0.6311 -0.7734
  567TMC3     O 8466   3.388   2.880  13.815  0.3889  0.0629  0.3780
  567TMC3     H 8467   3.613   2.929  13.800 -0.4233 -1.9062 -0.0664
  567TMC3    H1 8468   3.458   2.836  14.181  0.0519 -0.8284 -0.5405
  567TMC3    H2 8469   3.880   2.916  14.128 -0.0998  0.3847  1.1241
  567TMC3    C7 8470   3.696   2.863  14.308  0.3055  0.4244 -0.4735
  567TMC3    C8 8471   3.868   2.960  13.860  0.6742 -0.1379 -0.4575
  567TMC3    O1 8472   3.817   2.864  14.332  0.5936  0.2553  0.4898
  567TMC3    O2 8473   3.827   2.987  13.750 -0.0043  0.1444 -0.1738
  568MPD2     C 8474   0.825   3.199  16.356 -0.1420 -0.0192  0.4607
  568MPD2    C1 8475   0.791   3.274  16.464  0.8573  0.2735  0.2290
  568MPD2    C2 8476   0.710   3.386  16.444 -0.2801  0.7818 -0.6137
  568MPD2    C3 8477   0.681   3.435  16.314  0.8611  0.6647 -0.6110
  568MPD2    C4 8478   0.716   3.356  16.208 -0.2360 -0.1927  0.0602
  568MPD2    C5 8479   0.786   3.239  16.231 -0.2036  0.1311 -0.2527
  568MPD2     H 8480   0.681   3.436  16.535 -0.9186  0.7008 -0.7706
  568MPD2    H1 8481   0.700   3.380  16.103  2.3639 -1.1057 -0.5468
  568MPD2    H2 8482   0.888   3.111  16.362 -0.4129 -0.2746 -0.4502
  568MPD2    H3 8483   0.816   3.179  16.147  1.1911  0.6973 -0.1600
  568MPD2     N 8484   0.621   3.565  16.305 -0.1853  0.5513  0.1002
  568MPD2    H5 8485   0.600   3.606  16.395 -3.3473 -2.7772  0.8620
  568MPD2    N1 8486   0.850   3.239  16.583 -0.3169  0.0971  0.0937
  568MPD2    H7 8487   0.926   3.172  16.586 -0.6620 -0.1724  2.7620
  569TMC3    C1 8488   0.565   3.763  16.216 -0.3604  0.2329  1.0426
  569TMC3    C2 8489   0.622   3.821  16.324  0.0952 -0.1942  0.0064
  569TMC3    C3 8490   0.632   3.954  16.335  0.1747  0.7750  0.2832
  569TMC3    C4 8491   0.499   3.839  16.123  0.7666  0.0192  0.7643
  569TMC3    C5 8492   0.505   3.974  16.136 -0.2021 -0.2113 -0.6542
  569TMC3    C6 8493   0.573   4.033  16.239 -0.2570 -0.7581  0.0507
  569TMC3     C 8494   0.599   3.627  16.189  0.2573  0.1582 -0.3263
  569TMC3     O 8495   0.641   3.610  16.075 -0.6904  0.1341  0.2852
  569TMC3     H 8496   0.670   3.762  16.402  1.8268  1.7850  0.4391
  569TMC3    H1 8497   0.457   3.787  16.038  1.5635  1.8839 -0.7597
  569TMC3    H2 8498   0.559   4.137  16.263 -0.0976 -0.4358 -1.2723
  569TMC3    C7 8499   0.457   4.062  16.034 -0.0675  0.4232 -0.1116
  569TMC3    C8 8500   0.655   4.015  16.466 -0.2568  0.5159 -0.0790
  569TMC3    O1 8501   0.365   4.028  15.961  0.1129  0.0188 -0.0078
  569TMC3    O2 8502   0.691   3.939  16.556  0.7047  0.0618 -0.5474
  570TMC3    C1 8503   0.089   2.455  15.994 -0.1381  0.5264  0.0094
  570TMC3    C2 8504   0.152   2.503  15.882 -0.1529  0.2548 -0.5307
  570TMC3    C3 8505   0.217   2.626  15.879  0.2015 -0.0521 -0.3908
  570TMC3    C4 8506   0.067   2.543  16.099  0.0456 -0.6566  0.4267
  570TMC3    C5 8507   0.120   2.672  16.088  0.1313  0.0007 -0.8472
  570TMC3    C6 8508   0.199   2.712  15.988  0.0992 -0.5365 -0.2833
  570TMC3     C 8509   0.015   2.328  15.976  0.4022 -0.9170 -0.1407
  570TMC3     O 8510   4.719   2.298  15.864 -0.0476 -0.0850 -0.1817
  570TMC3     H 8511   0.157   2.442  15.793  2.3039 -1.0387  0.5130
  570TMC3    H1 8512   0.019   2.510  16.190  2.1746 -0.2186  1.7056
  570TMC3    H2 8513   0.245   2.809  16.001 -0.0392 -0.4979 -0.0814
  570TMC3    C7 8514   0.099   2.762  16.199 -0.4146 -0.3122  0.0891
  570TMC3    C8 8515   0.347   2.657  15.823 -0.0664 -0.3357 -0.7407
  570TMC3    O1 8516   0.038   2.714  16.293 -0.1104 -0.0103 -0.2580
  570TMC3    O2 8517   0.406   2.758  15.856  0.0716 -1.0732 -0.0820
  571MPD2     C 8518   1.951   4.270   0.737 -0.5482 -0.4893 -0.0576
  571MPD2    C1 8519   2.050   4.256   0.637  0.5260 -0.1825  0.1934
  571MPD2    C2 8520   2.172   4.317   0.657  0.0159 -0.2040  0.2456
  571MPD2    C3 8521   2.192   4.413   0.756 -0.7146 -0.2194  0.6028
  571MPD2    C4 8522   2.086   4.426   0.848 -0.1347 -0.5696  0.5086
  571MPD2    C5 8523   1.971   4.359   0.835  0.3476  0.5086  0.4909
  571MPD2     H 8524   2.252   4.298   0.586 -0.8039 -0.9145 -0.4864
  571MPD2    H1 8525   2.103   4.494   0.931 -0.0047 -0.5944  0.5029
  571MPD2    H2 8526   1.855   4.220   0.728 -1.1274  1.0699 -2.6234
  571MPD2    H3 8527   1.896   4.379   0.911  0.1955  1.6561  0.0408
  571MPD2     N 8528   2.309   4.491   0.780  0.7644 -0.5387  0.3025
  571MPD2    H5 8529   2.314   4.564   0.851  0.1284 -0.1450 -0.0578
  571MPD2    N1 8530   2.022   4.171   0.528 -0.6905  0.0706 -0.3496
  571MPD2    H7 8531   1.936   4.118   0.517 -0.4326 -0.0035 -2.0003
  572TMC3    C1 8532   2.509   4.598   0.723  0.2389 -0.5208  0.3402
  572TMC3    C2 8533   2.479   4.691   0.819  0.4846  0.1188  0.2895
  572TMC3    C3 8534   2.573   0.047   0.849 -0.1716  0.0549  0.7480
  572TMC3    C4 8535   2.636   4.595   0.672  0.4991  0.0592  0.0982
  572TMC3    C5 8536   2.725   4.703   0.690 -0.0141  0.2081  0.9670
  572TMC3    C6 8537   2.693   0.058   0.789 -0.2558  0.1214  0.5163
  572TMC3     C 8538   2.424   4.485   0.699  0.0620 -0.0448  0.2484
  572TMC3     O 8539   2.464   4.396   0.625  0.3242 -0.0204  0.5243
  572TMC3     H 8540   2.378   4.712   0.851  0.0028 -1.2074 -0.3940
  572TMC3    H1 8541   2.659   4.513   0.605  2.1734 -0.1924  0.9616
  572TMC3    H2 8542   2.761   0.138   0.815  0.9804 -0.3047 -1.3538
  572TMC3    C7 8543   2.788   0.025   0.573 -0.3421 -0.7511 -0.6073
  572TMC3    C8 8544   2.523   0.168   0.909  0.5717  0.6252  0.7359
  572TMC3    O1 8545   2.796   0.144   0.568 -0.6130  0.5102 -0.4856
  572TMC3    O2 8546   2.573   0.274   0.867  0.0178  0.1877  0.1030
  573MPD2     C 8547   3.177   0.816   1.114  0.2643 -0.2586 -0.2536
  573MPD2    C1 8548   3.300   0.753   1.094  0.2533 -0.0642  0.3503
  573MPD2    C2 8549   3.320   0.672   0.986 -0.0061  0.0474  0.1083
  573MPD2    C3 8550   3.227   0.654   0.888  0.7058 -0.1331  0.6958
  573MPD2    C4 8551   3.106   0.717   0.899 -0.0909 -0.6775 -0.0153
  573MPD2    C5 8552   3.081   0.791   1.015 -0.3613 -1.2949  0.4628
  573MPD2     H 8553   3.416   0.622   0.981  0.3350  0.7623 -0.4902
  573MPD2    H1 8554   3.026   0.707   0.828  1.0483  1.4938 -1.6069
  573MPD2    H2 8555   3.156   0.875   1.202 -2.3622 -2.1288  0.4053
  573MPD2    H3 8556   2.981   0.833   1.027  0.9483  1.7380  0.8994
  573MPD2     N 8557   3.239   0.561   0.784 -0.3177 -0.1331 -0.1605
  573MPD2    H5 8558   3.153   0.557   0.729 -0.5575 -1.2194  0.2989
  573MPD2    N1 8559   3.401   0.794   1.192  0.3352 -0.3204  0.5351
  573MPD2    H7 8560   3.367   0.838   1.277  1.6649  2.9398 -0.6131
  574TMC3    C1 8561   3.295   0.401   0.639 -0.2144 -0.0001 -0.1381
  574TMC3    C2 8562   3.268   0.476   0.527  0.0248  0.3903  0.1496
  574TMC3    C3 8563   3.215   0.409   0.417 -0.2274  1.0826 -0.8528
  574TMC3    C4 8564   3.270   0.269   0.644 -0.0948 -0.2636  0.6656
  574TMC3    C5 8565   3.229   0.201   0.536 -0.3006  0.4405 -0.1935
  574TMC3    C6 8566   3.200   0.273   0.421 -0.1530 -0.3287 -0.0077
  574TMC3     C 8567   3.334   0.472   0.756 -0.7425  0.1453 -0.0042
  574TMC3     O 8568   3.411   0.424   0.837 -0.0805 -1.0140 -0.0723
  574TMC3     H 8569   3.272   0.583   0.540  1.2979  0.5646 -1.8169
  574TMC3    H1 8570   3.289   0.226   0.742 -0.2542  2.6290  1.9683
  574TMC3    H2 8571   3.165   0.213   0.338  0.3943 -0.3450 -0.2289
  574TMC3    C7 8572   3.220   0.059   0.534 -1.4443 -0.3300  0.5946
  574TMC3    C8 8573   3.130   0.483   0.328 -0.9301  0.5351  0.4707
  574TMC3    O1 8574   3.219   0.002   0.639  0.4150 -0.9182  0.2404
  574TMC3    O2 8575   3.052   0.417   0.258  0.0319 -0.6667 -0.3360
  575TMC3    C1 8576   1.574   1.570  10.175  0.0759 -0.0259  0.0909
  575TMC3    C2 8577   1.602   1.479  10.274 -0.4486 -0.1484 -0.2510
  575TMC3    C3 8578   1.674   1.519  10.381 -0.0892  0.4004  0.5195
  575TMC3    C4 8579   1.614   1.709  10.184 -0.2756 -0.0222  0.0357
  575TMC3    C5 8580   1.675   1.740  10.307  0.6569 -0.4356  0.3293
  575TMC3    C6 8581   1.707   1.651  10.401 -0.2572  0.1139 -0.0103
  575TMC3     C 8582   1.462   1.547  10.086  0.0611  0.9597 -0.2910
  575TMC3     O 8583   1.409   1.643  10.028  0.4775 -0.3087 -0.0834
  575TMC3     H 8584   1.578   1.375  10.259 -2.4090  0.5600 -2.0489
  575TMC3    H1 8585   1.577   1.789  10.121  2.1887  1.4464  0.4308
  575TMC3    H2 8586   1.755   1.677  10.495  0.1874 -2.3077  0.4305
  575TMC3    C7 8587   1.737   1.874  10.298 -0.2165  0.3171  0.3124
  575TMC3    C8 8588   1.739   1.428  10.461 -0.5652 -0.3226  0.6021
  575TMC3    O1 8589   1.719   1.947  10.201  0.0977 -0.1602  0.3955
  575TMC3    O2 8590   1.848   1.460  10.511 -0.5654 -0.0315 -0.1858
  576MPD2     C 8591   1.830   2.694  12.752 -0.4756  0.9948 -0.4748
  576MPD2    C1 8592   1.897   2.810  12.785  0.0108 -0.1880  0.7261
  576MPD2    C2 8593   1.838   2.897  12.877 -0.0462  0.0232  0.4605
  576MPD2    C3 8594   1.725   2.868  12.952 -0.1118  0.3829 -0.3354
  576MPD2    C4 8595   1.660   2.750  12.909  0.2124 -0.1500  0.2343
  576MPD2    C5 8596   1.706   2.673  12.812  0.1546  0.2810  0.0648
  576MPD2     H 8597   1.887   2.991  12.902  0.4607 -0.1941  0.2932
  576MPD2    H1 8598   1.563   2.723  12.949 -0.3709 -2.4603 -2.7774
  576MPD2    H2 8599   1.857   2.632  12.667  1.6348 -1.1657  1.7875
  576MPD2    H3 8600   1.644   2.592  12.776  0.7404  0.8172 -2.1401
  576MPD2     N 8601   1.689   2.962  13.051 -0.0635 -0.3940 -0.4628
  576MPD2    H5 8602   1.755   3.029  13.089 -1.0648 -0.7638  1.9633
  576MPD2    N1 8603   2.012   2.851  12.715 -0.2521 -0.5888 -0.5504
  576MPD2    H7 8604   2.037   2.949  12.722  0.6231 -0.9816  1.9861
  577TMC3    C1 8605   2.212   2.813  12.586  0.2357  0.2315  0.3628
  577TMC3    C2 8606   2.276   2.718  12.505  0.1905  0.3367 -0.5006
  577TMC3    C3 8607   2.365   2.761  12.417  0.6588  0.1227  0.0029
  577TMC3    C4 8608   2.244   2.947  12.574  0.6509 -0.3135 -0.7286
  577TMC3    C5 8609   2.323   2.982  12.467  0.3238  0.3056  0.3229
  577TMC3    C6 8610   2.377   2.890  12.383 -0.5724 -0.2521  0.3313
  577TMC3     C 8611   2.098   2.764  12.656 -0.3503 -0.7265 -0.3306
  577TMC3     O 8612   2.096   2.645  12.666 -0.2336 -0.1935  0.2087
  577TMC3     H 8613   2.252   2.613  12.517  1.0385  0.2279  0.3311
  577TMC3    H1 8614   2.208   3.018  12.648 -0.2756 -1.0763 -0.4569
  577TMC3    H2 8615   2.456   2.925  12.319 -0.1173 -2.4258 -0.2999
  577TMC3    C7 8616   2.358   3.120  12.451 -0.9503  0.2831  0.1327
  577TMC3    C8 8617   2.413   2.656  12.327 -0.0453 -0.0560  0.5497
  577TMC3    O1 8618   2.332   3.192  12.546  0.2959  0.1997  0.5294
  577TMC3    O2 8619   2.389   2.545  12.369  0.0359  0.3920 -0.3826
  578MPD2     C 8620   4.077   2.659   1.163  0.2703 -0.6783  0.3899
  578MPD2    C1 8621   4.146   2.660   1.047  0.1781  0.7552 -1.1145
  578MPD2    C2 8622   4.273   2.608   1.052  0.1357 -0.0112 -0.7584
  578MPD2    C3 8623   4.343   2.582   1.170  0.4061 -0.1277  0.1442
  578MPD2    C4 8624   4.279   2.597   1.291 -0.1563 -0.7182  0.1006
  578MPD2    C5 8625   4.144   2.636   1.287  0.1401  0.1661  0.4681
  578MPD2     H 8626   4.335   2.595   0.964 -0.2253  3.1191 -1.4903
  578MPD2    H1 8627   4.319   2.570   1.388 -0.3363  1.5032  0.8072
  578MPD2    H2 8628   3.974   2.688   1.174  0.9321  1.8583 -0.1062
  578MPD2    H3 8629   4.081   2.628   1.375 -1.6290 -0.4213 -0.8626
  578MPD2     N 8630   4.470   2.529   1.149  0.2036 -0.5712 -0.5276
  578MPD2    H5 8631   4.504   2.499   1.058 -2.0683  1.7590 -2.1813
  578MPD2    N1 8632   4.082   2.701   0.929  0.3472  0.0017 -0.0039
  578MPD2    H7 8633   3.986   2.731   0.935  0.3223 -0.4106  1.8514
  579TMC3    C1 8634   4.694   2.482   1.204  0.4730  0.2900  0.3530
  579TMC3    C2 8635   0.066   2.522   1.273 -0.1054 -0.5626 -0.4058
  579TMC3    C3 8636   0.188   2.479   1.231 -0.1658 -0.5722  0.8259
  579TMC3    C4 8637   4.706   2.387   1.101 -0.9213 -0.0338  0.0215
  579TMC3    C5 8638   0.088   2.344   1.061 -0.0020 -0.0786  0.4570
  579TMC3    C6 8639   0.198   2.384   1.129  0.2454 -0.1849 -0.2222
  579TMC3     C 8640   4.557   2.528   1.250  0.3356  0.5924  0.5280
  579TMC3     O 8641   4.548   2.590   1.356  0.1680 -0.0645  0.1946
  579TMC3     H 8642   0.052   2.603   1.344  2.1771  0.0028 -0.6182
  579TMC3    H1 8643   4.612   2.338   1.078 -0.9110  0.3288 -0.7908
  579TMC3    H2 8644   0.291   2.333   1.106 -0.4937 -2.3066  1.4849
  579TMC3    C7 8645   0.105   2.243   0.959 -0.1004  0.1736 -0.9118
  579TMC3    C8 8646   0.306   2.556   1.277  0.3471 -1.0060  0.0815
  579TMC3    O1 8647   0.220   2.207   0.941 -0.6875 -0.6440 -0.6880
  579TMC3    O2 8648   0.285   2.620   1.380 -0.2878 -0.8976  0.1393
  580TMC3    C1 8649   0.060   1.953  12.467  0.0312  0.0038 -0.0518
  580TMC3    C2 8650   0.188   1.978  12.424  0.0952  0.0754  0.4635
  580TMC3    C3 8651   0.251   1.874  12.359  0.2575  0.0390  0.4693
  580TMC3    C4 8652   4.734   1.832  12.459 -0.1642  0.3247  0.3929
  580TMC3    C5 8653   0.072   1.728  12.410 -0.9334 -0.3882  0.6762
  580TMC3    C6 8654   0.193   1.747  12.356 -0.7221  0.0175  0.0866
  580TMC3     C 8655   4.705   2.059  12.483 -0.2818  0.3683  0.2993
  580TMC3     O 8656   4.604   2.040  12.547  0.1585 -0.0996  0.0446
  580TMC3     H 8657   0.224   2.080  12.410 -0.7796  0.6804  2.6706
  580TMC3    H1 8658   4.627   1.817  12.464 -0.2159  0.6259  0.1391
  580TMC3    H2 8659   0.254   1.666  12.318  0.1163  1.2091 -1.0948
  580TMC3    C7 8660   0.028   1.591  12.434 -0.1987 -0.7277 -0.3700
  580TMC3    C8 8661   0.373   1.888  12.279 -0.2157 -0.2256 -0.9100
  580TMC3    O1 8662   4.677   1.571  12.511  0.0918 -0.9108 -0.1335
  580TMC3    O2 8663   0.409   1.794  12.208 -0.0257 -0.5271 -0.1957
  581MPD2     C 8664   2.038   1.695  14.867 -0.0704 -0.0177  0.2909
  581MPD2    C1 8665   1.931   1.665  14.943 -0.3550 -0.0432  0.1733
  581MPD2    C2 8666   1.818   1.735  14.926  0.5471  0.0831 -0.4484
  581MPD2    C3 8667   1.812   1.842  14.837 -0.9341  0.1455  0.1904
  581MPD2    C4 8668   1.918   1.862  14.752  0.3084 -0.4581 -0.0575
  581MPD2    C5 8669   2.031   1.788  14.771  0.1535  0.9543 -0.2784
  581MPD2     H 8670   1.736   1.697  14.985  0.5789 -0.5082 -0.7846
  581MPD2    H1 8671   1.922   1.938  14.674 -0.0349 -0.9895 -0.5925
  581MPD2    H2 8672   2.121   1.626  14.864 -0.5225 -0.5231 -0.4181
  581MPD2    H3 8673   2.117   1.787  14.704  1.5280  0.8100  1.5009
  581MPD2     N 8674   1.698   1.921  14.844  0.6410 -0.7224 -0.0327
  581MPD2    H5 8675   1.634   1.893  14.918 -0.8816  2.8226 -0.0041
  581MPD2    N1 8676   1.939   1.556  15.027  0.4311  0.3642  0.1945
  581MPD2    H7 8677   2.023   1.522  15.072  0.4857  0.4800  0.1784
  582TMC3    C1 8678   1.869   1.376  15.168  0.5077 -0.0887 -0.6433
  582TMC3    C2 8679   1.884   1.429  15.290 -0.1468 -0.8536  0.3753
  582TMC3    C3 8680   1.824   1.353  15.389 -0.4716  0.2198  0.2243
  582TMC3    C4 8681   1.796   1.262  15.140 -0.3422  0.1359 -0.0926
  582TMC3    C5 8682   1.727   1.198  15.238 -0.0716 -0.6384 -0.5555
  582TMC3    C6 8683   1.755   1.242  15.361 -0.1486 -0.4032  0.3887
  582TMC3     C 8684   1.833   1.477  15.062 -0.2150  0.3044 -0.2034
  582TMC3     O 8685   1.735   1.456  14.993  0.4611  0.0531 -0.4243
  582TMC3     H 8686   1.928   1.524  15.319 -0.2884 -0.2777 -1.3003
  582TMC3    H1 8687   1.783   1.237  15.035  0.7336 -0.4488 -0.0896
  582TMC3    H2 8688   1.697   1.204  15.444  0.5353  1.2905  1.6382
  582TMC3    C7 8689   1.581   1.189  15.214  0.3672  0.3934  0.1230
  582TMC3    C8 8690   1.856   1.390  15.531 -0.5661 -0.0673 -0.2925
  582TMC3    O1 8691   1.510   1.110  15.274 -0.5380 -0.1471  0.4896
  582TMC3    O2 8692   1.839   1.507  15.560 -0.1387  0.5802  0.0332
  583MPD2     C 8693   2.067   2.854  16.757 -0.6512 -0.3456  0.5773
  583MPD2    C1 8694   2.068   2.960  16.667  0.4336  0.3909 -0.1714
  583MPD2    C2 8695   1.985   3.070  16.698 -0.5815  0.2513 -0.0302
  583MPD2    C3 8696   1.906   3.072  16.813 -0.4265 -0.3019  0.2331
  583MPD2    C4 8697   1.911   2.971  16.909  0.4003 -0.9428  0.0236
  583MPD2    C5 8698   1.990   2.862  16.872  0.5589 -0.3826  0.3716
  583MPD2     H 8699   1.987   3.140  16.615 -1.0748 -0.0460 -0.2940
  583MPD2    H1 8700   1.865   2.965  17.006 -0.2876  0.2501 -0.2314
  583MPD2    H2 8701   2.137   2.772  16.747  0.0433  0.1277  1.5083
  583MPD2    H3 8702   2.006   2.792  16.953 -1.1176 -0.5415  0.5716
  583MPD2     N 8703   1.816   3.180  16.826  0.2030  0.2178 -0.5928
  583MPD2    H5 8704   1.814   3.239  16.743  2.7963 -1.3097 -1.7338
  583MPD2    N1 8705   2.144   2.959  16.541 -0.3781  0.7088  0.1151
  583MPD2    H7 8706   2.148   3.051  16.498 -0.9002  1.2612  1.2525
  584TMC3    C1 8707   1.684   3.338  16.941  0.0093  0.3509  0.1011
  584TMC3    C2 8708   1.702   3.436  16.845 -0.5200  0.6861 -0.2282
  584TMC3    C3 8709   1.627   3.556  16.854  0.1188  0.2753  0.0981
  584TMC3    C4 8710   1.600   3.359  17.047  0.2213  0.0102 -0.0697
  584TMC3    C5 8711   1.530   3.476  17.059 -0.2532 -0.1572  0.1618
  584TMC3    C6 8712   1.549   3.576  16.967 -0.5053  0.2871 -0.3503
  584TMC3     C 8713   1.757   3.216  16.952 -0.6482  0.0036  0.0371
  584TMC3     O 8714   1.758   3.154  17.057  0.1464  0.5936 -0.8680
  584TMC3     H 8715   1.764   3.422  16.757  0.3521  0.1818  0.4727
  584TMC3    H1 8716   1.596   3.283  17.124  1.0043  1.1248  1.0720
  584TMC3    H2 8717   1.488   3.665  16.978  2.1992  2.2089 -0.7109
  584TMC3    C7 8718   1.471   3.510  17.186 -0.4589  0.1717  0.5753
  584TMC3    C8 8719   1.673   3.668  16.776  0.6832  0.4706 -0.2247
  584TMC3    O1 8720   1.533   3.468  17.285 -0.4141 -0.1468 -0.4015
  584TMC3    O2 8721   1.695   3.645  16.660  0.5101 -0.4776 -0.3721
  585MPD2     C 8722   1.494   2.081   0.427  0.2376 -0.3842  0.0659
  585MPD2    C1 8723   1.584   2.090   0.320  0.3666  1.0305  0.8086
  585MPD2    C2 8724   1.563   2.019   0.204  0.4091 -0.4060 -0.8634
  585MPD2    C3 8725   1.441   1.951   0.192  0.6727  0.1973 -0.2379
  585MPD2    C4 8726   1.340   1.972   0.286  0.0560  0.5069 -0.0399
  585MPD2    C5 8727   1.371   2.026   0.410 -0.0531  1.4086  0.3087
  585MPD2     H 8728   1.641   2.008   0.130  0.9898  0.2178 -0.3432
  585MPD2    H1 8729   1.240   1.930   0.276  0.2404  0.1270 -0.2830
  585MPD2    H2 8730   1.525   2.124   0.521  0.0280 -0.6283  0.2481
  585MPD2    H3 8731   1.303   2.033   0.493 -0.7398  1.6340 -0.2752
  585MPD2     N 8732   1.404   1.877   0.082  0.1394  0.0547 -0.4503
  585MPD2    H5 8733   1.316   1.830   0.102 -0.4007 -0.2998 -3.6288
  585MPD2    N1 8734   1.696   2.174   0.338 -0.5971  0.1252 -0.7765
  585MPD2    H7 8735   1.719   2.191   0.435 -0.0809 -0.3637 -0.8100
  586TMC3    C1 8736   1.402   1.790  17.617 -0.3403  0.3359 -0.0006
  586TMC3    C2 8737   1.478   1.738  17.515 -0.3131 -0.2326 -0.8191
  586TMC3    C3 8738   1.422   1.672  17.408  0.1972  0.0930  0.4378
  586TMC3    C4 8739   1.270   1.778  17.613 -0.1936  0.6285 -0.7684
  586TMC3    C5 8740   1.215   1.718  17.500 -0.7059  0.6098 -0.6728
  586TMC3    C6 8741   1.287   1.669  17.397  1.1243 -0.2857 -0.0014
  586TMC3     C 8742   1.474   1.862  17.716 -0.1556  0.4377  0.1139
  586TMC3     O 8743   1.588   1.899  17.691 -0.1192 -0.4590 -0.2347
  586TMC3     H 8744   1.586   1.743  17.505 -0.1635 -0.5921  0.6000
  586TMC3    H1 8745   1.206   1.815  17.692  1.6808 -1.4115  1.7141
  586TMC3    H2 8746   1.243   1.611  17.317 -0.9595  4.1360 -2.0132
  586TMC3    C7 8747   1.068   1.717  17.486 -0.0974 -0.2959 -0.0518
  586TMC3    C8 8748   1.501   1.669  17.285 -0.1978  0.2919  0.1530
  586TMC3    O1 8749   1.024   1.689  17.376  0.3289 -0.0771 -0.8141
  586TMC3    O2 8750   1.496   1.568  17.207 -0.2520  0.3554  0.1000
  587TMC3    C1 8751   3.615   0.930  16.142  0.1927  0.1293  0.0888
  587TMC3    C2 8752   3.562   1.045  16.094  0.4167 -0.0171  0.1619
  587TMC3    C3 8753   3.546   1.057  15.955 -0.4967 -0.1591  0.4879
  587TMC3    C4 8754   3.668   0.835  16.066 -0.2123  0.0459 -0.1202
  587TMC3    C5 8755   3.664   0.859  15.927 -0.1660  0.0484 -0.3654
  587TMC3    C6 8756   3.594   0.964  15.865 -0.6212 -0.0441  0.7135
  587TMC3     C 8757   3.573   0.881  16.276 -0.4928  0.4949  0.1230
  587TMC3     O 8758   3.647   0.803  16.332 -0.2215 -0.2867  0.4674
  587TMC3     H 8759   3.530   1.118  16.168  1.5206 -1.3390  1.9647
  587TMC3    H1 8760   3.724   0.756  16.116  0.7587  0.7119 -0.1577
  587TMC3    H2 8761   3.592   0.987  15.759  1.7952 -3.4697 -0.0658
  587TMC3    C7 8762   3.733   0.764  15.841 -0.6371  0.3223 -0.1670
  587TMC3    C8 8763   3.470   1.169  15.907 -0.5196  0.6788 -0.1577
  587TMC3    O1 8764   3.801   0.683  15.901  0.0977 -0.1934  0.6568
  587TMC3    O2 8765   3.466   1.189  15.786  0.2960  0.7098  0.1823
  588TMC3    C1 8766   1.594   3.519   9.911 -0.5708  0.3149 -0.0622
  588TMC3    C2 8767   1.530   3.397   9.905  0.1174 -0.1652  0.2034
  588TMC3    C3 8768   1.606   3.283   9.925 -0.4956  0.1133 -0.4328
  588TMC3    C4 8769   1.724   3.526   9.950  0.0382 -0.0702  0.4037
  588TMC3    C5 8770   1.792   3.411   9.974 -0.4342 -0.0527  0.3917
  588TMC3    C6 8771   1.738   3.288   9.973 -0.1002 -0.5813 -0.0453
  588TMC3     C 8772   1.508   3.624   9.964  0.5430  0.1329 -0.1214
  588TMC3     O 8773   1.387   3.606   9.971 -0.2733 -0.4300  0.0776
  588TMC3     H 8774   1.422   3.387   9.900  0.1955 -0.9914  0.0721
  588TMC3    H1 8775   1.781   3.617   9.933 -0.4897  0.4055  1.1706
  588TMC3    H2 8776   1.804   3.203   9.983  0.4242 -0.1390  0.2456
  588TMC3    C7 8777   1.905   3.435  10.072 -0.4156  0.1445 -0.1574
  588TMC3    C8 8778   1.524   3.153   9.938  0.1111  0.0843  0.2376
  588TMC3    O1 8779   1.996   3.354  10.074 -0.5077  0.2270 -0.0263
  588TMC3    O2 8780   1.401   3.164   9.919  0.1186  0.9461  0.0760
  589TMC3    C1 8781   0.525   1.500   1.080  0.3556  0.1526 -0.3345
  589TMC3    C2 8782   0.662   1.511   1.118 -0.0764  0.2471 -0.3100
  589TMC3    C3 8783   0.752   1.416   1.084  0.1989  0.2659 -0.3191
  589TMC3    C4 8784   0.483   1.396   1.003 -0.2462 -0.2840 -0.3681
  589TMC3    C5 8785   0.576   1.298   0.972 -0.1489 -0.6778  0.1861
  589TMC3    C6 8786   0.716   1.303   1.012  0.3975  0.2708  0.9551
  589TMC3     C 8787   0.431   1.593   1.139  0.2010 -0.1057 -0.2105
  589TMC3     O 8788   0.317   1.591   1.094 -0.0810 -0.0985  0.5856
  589TMC3     H 8789   0.701   1.599   1.169 -1.1052 -0.7335  2.1891
  589TMC3    H1 8790   0.378   1.387   0.978  0.6479 -0.5594 -4.0624
  589TMC3    H2 8791   0.783   1.218   1.006  1.1264  0.6846  3.1254
  589TMC3    C7 8792   0.516   1.170   0.957  0.1561 -0.0621 -0.3321
  589TMC3    C8 8793   0.880   1.424   1.146  0.0940 -0.6665 -0.5911
  589TMC3    O1 8794   0.396   1.155   0.973 -0.0543  0.2659  0.0851
  589TMC3    O2 8795   0.882   1.498   1.243  0.6441 -0.5291  0.5705
  590MPD2     C 8796   4.399   4.062  16.832 -0.3771  0.3315  0.2205
  590MPD2    C1 8797   4.399   4.024  16.697 -0.6248 -0.8971 -0.4332
  590MPD2    C2 8798   4.493   4.077  16.615  0.5650  0.1153  0.3785
  590MPD2    C3 8799   4.584   4.168  16.659  0.6345  0.8630  0.4210
  590MPD2    C4 8800   4.589   4.201  16.799 -0.3301  0.0924  0.4595
  590MPD2    C5 8801   4.494   4.143  16.888  0.2437 -0.0011  0.0400
  590MPD2     H 8802   4.496   4.050  16.510 -2.6682  1.4801 -0.0642
  590MPD2    H1 8803   4.655   4.273  16.846 -3.0694  1.8462  1.6461
  590MPD2    H2 8804   4.311   4.043  16.892 -0.2822 -2.8660 -0.6526
  590MPD2    H3 8805   4.490   4.167  16.994  1.8152  1.5300 -0.2429
  590MPD2     N 8806   4.672   4.240  16.573  0.2541  0.3245  0.0818
  590MPD2    H5 8807   4.666   4.219  16.474 -0.4698 -2.2328  0.6646
  590MPD2    N1 8808   4.286   3.941  16.654  0.0609 -0.2819 -0.6351
  590MPD2    H7 8809   4.216   3.912  16.721 -0.5639 -0.5910 -1.4114
  591TMC3    C1 8810   0.020   4.445  16.490 -0.4481  0.1067  0.4114
  591TMC3    C2 8811   0.073   4.374  16.387 -0.3000  0.8037 -0.0198
  591TMC3    C3 8812   0.127   4.454  16.286 -0.6869 -0.5180  0.9035
  591TMC3    C4 8813   4.737   4.576  16.486 -0.1841 -0.3060  0.2850
  591TMC3    C5 8814   0.039   4.649  16.382 -0.3747 -0.8003 -0.6445
  591TMC3    C6 8815   0.098   4.588  16.272 -0.5939 -0.2288  0.3360
  591TMC3     C 8816   4.704   4.371  16.606  0.1573 -0.0114  0.3826
  591TMC3     O 8817   4.690   4.435  16.708 -0.2388 -0.2231 -0.0202
  591TMC3     H 8818   0.108   4.271  16.397  0.1210  1.1397  2.1268
  591TMC3    H1 8819   4.698   4.621  16.577  0.0993  1.0414 -0.2540
  591TMC3    H2 8820   0.122   4.643  16.181 -0.8293  0.2401  0.5556
  591TMC3    C7 8821   4.691   0.018  16.354 -0.2875  0.2793  0.3325
  591TMC3    C8 8822   0.150   4.383  16.163  0.2161 -0.3535 -0.2295
  591TMC3    O1 8823   4.576   4.737  16.397  0.2836  0.9098 -0.2874
  591TMC3    O2 8824   0.204   4.274  16.176 -0.4270 -0.0935 -0.1536
  592MPD2     C 8825   0.458   0.801  11.895 -0.7138  0.0384  0.4327
  592MPD2    C1 8826   0.422   0.878  11.999 -0.5660 -0.0765 -0.6092
  592MPD2    C2 8827   0.343   0.824  12.099 -0.0246 -0.2833 -0.4149
  592MPD2    C3 8828   0.311   0.688  12.099 -0.7202  0.3203 -0.6830
  592MPD2    C4 8829   0.355   0.610  11.995 -1.0772  0.6210 -0.2000
  592MPD2    C5 8830   0.420   0.668  11.889  0.2250  0.3762  0.3111
  592MPD2     H 8831   0.303   0.885  12.179 -0.6521 -0.5224 -0.5453
  592MPD2    H1 8832   0.348   0.502  11.995 -0.2951  0.5742  1.3789
  592MPD2    H2 8833   0.515   0.844  11.814 -0.6883  1.7358  1.3579
  592MPD2    H3 8834   0.454   0.594  11.817  0.3285  0.8258 -0.1029
  592MPD2     N 8835   0.247   0.634  12.212 -0.0498  0.2921  0.0375
  592MPD2    H5 8836   0.221   0.694  12.290 -1.2354 -1.4773  1.0027
  592MPD2    N1 8837   0.468   1.008  12.000 -0.0546  0.3621 -0.7762
  592MPD2    H7 8838   0.534   1.029  11.926  0.8812  0.2612  0.0219
  593TMC3    C1 8839   0.539   1.208  12.094  0.0719 -0.2923 -0.1202
  593TMC3    C2 8840   0.506   1.308  12.177 -0.1570 -0.1627  0.0198
  593TMC3    C3 8841   0.603   1.402  12.201 -1.0202  0.9865 -0.1019
  593TMC3    C4 8842   0.660   1.197  12.027  0.7233  0.8731  0.0099
  593TMC3    C5 8843   0.742   1.301  12.050 -0.0941  0.0817  0.2911
  593TMC3    C6 8844   0.729   1.397  12.147  0.6616 -0.3459 -0.1893
  593TMC3     C 8845   0.452   1.093  12.103  0.3590 -0.8789 -0.9955
  593TMC3     O 8846   0.369   1.098  12.187  0.4467  0.0258 -0.5078
  593TMC3     H 8847   0.410   1.315  12.226 -0.1259 -0.1667  0.0807
  593TMC3    H1 8848   0.690   1.116  11.961 -5.5279 -2.0710  0.7734
  593TMC3    H2 8849   0.812   1.461  12.176  0.0077 -0.2488  1.4690
  593TMC3    C7 8850   0.823   1.359  11.945 -0.1471 -1.2045  0.0327
  593TMC3    C8 8851   0.578   1.499  12.302 -0.0280 -0.1673  0.5759
  593TMC3    O1 8852   0.883   1.463  11.976 -0.0458  0.2832  0.0121
  593TMC3    O2 8853   0.475   1.472  12.367  0.1350  0.1615  0.0959
  594MPD2     C 8854   3.755   4.432  14.345 -0.4197  0.0052 -0.1559
  594MPD2    C1 8855   3.730   4.545  14.421 -0.8584 -0.8989  0.9389
  594MPD2    C2 8856   3.824   4.646  14.418  0.0988 -0.3830 -0.0623
  594MPD2    C3 8857   3.941   4.639  14.352  0.1775  0.4916  0.3594
  594MPD2    C4 8858   3.971   4.521  14.288  0.2249  0.3299 -0.6707
  594MPD2    C5 8859   3.882   4.414  14.290  0.0310  0.2380 -0.0022
  594MPD2     H 8860   3.800   0.005  14.459 -1.1829 -1.7940  2.5407
  594MPD2    H1 8861   4.064   4.506  14.234  0.5522  0.3588 -0.1095
  594MPD2    H2 8862   3.685   4.350  14.352 -0.5441  0.3085  2.2095
  594MPD2    H3 8863   3.916   4.321  14.246  0.8765  0.1143  0.9267
  594MPD2     N 8864   4.021   0.015  14.350 -0.7096 -0.2325  0.6514
  594MPD2    H5 8865   3.991   0.102  14.391  0.0383 -0.1242  0.9610
  594MPD2    N1 8866   3.610   4.560  14.495  0.1732  0.3838 -0.1014
  594MPD2    H7 8867   3.553   4.476  14.499  3.2020 -1.5029  3.3956
  595TMC3    C1 8868   4.395   0.280  14.326 -0.3419  0.5696 -0.4767
  595TMC3    C2 8869   4.345   0.152  14.317 -0.3766  0.0491 -0.1501
  595TMC3    C3 8870   4.203   0.141  14.325 -0.5040  0.0838  0.6982
  595TMC3    C4 8871   4.320   0.389  14.346 -0.2467  0.5516  0.3520
  595TMC3    C5 8872   4.186   0.368  14.354 -0.3812 -0.0393  0.3882
  595TMC3    C6 8873   4.122   0.246  14.350  0.2575  0.2371  0.0781
  595TMC3     C 8874   4.539   0.299  14.348  0.7262  0.3889  0.5238
  595TMC3     O 8875   4.566   0.385  14.432  0.0684  0.3126  0.1757
  595TMC3     H 8876   4.406   0.063  14.313  0.1615  0.3126  1.9190
  595TMC3    H1 8877   4.367   0.484  14.368 -1.9908  0.9387  2.3985
  595TMC3    H2 8878   4.019   0.246  14.317  0.1576 -2.2036  0.4181
  595TMC3    C7 8879   4.104   0.490  14.331  0.5129  0.2782  0.4155
  595TMC3    C8 8880   4.146   0.017  14.285  0.1062  0.9979  0.2536
  595TMC3    O1 8881   3.984   0.487  14.348  0.1164  0.5913 -0.3061
  595TMC3    O2 8882   4.219   4.669  14.235  0.0133  0.6972  0.2283
  596MPD2     C 8883   2.808   2.915  16.824  0.0192  1.0827  1.0008
  596MPD2    C1 8884   2.778   3.012  16.730 -0.4797  0.6354  0.8192
  596MPD2    C2 8885   2.812   2.995  16.594 -0.8343 -0.2601 -0.6973
  596MPD2    C3 8886   2.888   2.882  16.552  0.4152  0.2073  0.1850
  596MPD2    C4 8887   2.920   2.789  16.648 -0.1833 -0.6860 -0.6804
  596MPD2    C5 8888   2.881   2.804  16.777  0.4928 -0.4881 -0.7912
  596MPD2     H 8889   2.781   3.072  16.525 -1.5868 -2.1704 -2.5025
  596MPD2    H1 8890   2.983   2.702  16.630  2.6682  0.7785  2.0072
  596MPD2    H2 8891   2.783   2.933  16.928  1.4338  1.7165  1.2206
  596MPD2    H3 8892   2.921   2.733  16.848  1.4394  1.0392  0.1692
  596MPD2     N 8893   2.935   2.865  16.407  0.5575  0.2449  0.4564
  596MPD2    H5 8894   2.982   2.777  16.388 -1.6559 -0.9955  0.8058
  596MPD2    N1 8895   2.752   3.146  16.764  0.1683 -0.6921 -1.0281
  596MPD2    H7 8896   2.769   3.216  16.692  1.8065 -0.2524 -0.2181
  597TMC3    C1 8897   2.681   3.330  16.877 -0.1793  0.0957  1.4812
  597TMC3    C2 8898   2.756   3.417  16.796 -0.6365  0.4826  0.0107
  597TMC3    C3 8899   2.704   3.545  16.772  0.9817 -0.9529  0.3786
  597TMC3    C4 8900   2.570   3.378  16.944 -0.0420  1.0309  0.1728
  597TMC3    C5 8901   2.529   3.505  16.920 -0.2313  0.2553  0.3812
  597TMC3    C6 8902   2.586   3.589  16.831 -0.3602 -0.1526 -0.1200
  597TMC3     C 8903   2.693   3.188  16.873 -0.3706  0.0229  0.3079
  597TMC3     O 8904   2.641   3.113  16.957 -0.3125  0.1265  0.1848
  597TMC3     H 8905   2.851   3.385  16.754 -0.3852 -1.7312  2.2884
  597TMC3    H1 8906   2.518   3.308  17.009  0.4129  0.0696 -0.5097
  597TMC3    H2 8907   2.566   3.695  16.828 -2.1836 -0.5350 -1.6981
  597TMC3    C7 8908   2.415   3.537  17.000 -0.3478  0.5271 -0.7030
  597TMC3    C8 8909   2.780   3.643  16.703  0.5031  0.0829  0.0360
  597TMC3    O1 8910   2.353   3.451  17.062  0.5612  0.0083 -0.6896
  597TMC3    O2 8911   2.752   3.761  16.721  0.6219  0.0958 -0.1084
  598TMC3    C1 8912   0.862   4.455  15.545  0.4238 -0.1767  0.0909
  598TMC3    C2 8913   0.754   4.380  15.513 -0.6162 -0.6177 -0.1815
  598TMC3    C3 8914   0.721   4.379  15.379 -0.6514 -0.0561 -0.0102
  598TMC3    C4 8915   0.942   4.516  15.452  0.5831 -0.0948  0.3371
  598TMC3    C5 8916   0.906   4.511  15.323 -0.0416 -0.5649  0.1102
  598TMC3    C6 8917   0.795   4.441  15.280  0.1057  0.2466 -0.1371
  598TMC3     C 8918   0.938   4.417  15.669 -0.0709 -0.5983  0.5256
  598TMC3     O 8919   1.009   4.501  15.720  0.4818 -0.3009  0.4932
  598TMC3     H 8920   0.681   4.356  15.590 -1.3722  0.9391 -0.4029
  598TMC3    H1 8921   1.034   4.563  15.485  1.5099 -1.1053 -0.7916
  598TMC3    H2 8922   0.760   4.423  15.179 -0.0250  3.5837 -0.6849
  598TMC3    C7 8923   1.015   4.533  15.223 -0.1259 -0.4278 -0.2326
  598TMC3    C8 8924   0.605   4.321  15.328  0.2479  0.0756 -0.0920
  598TMC3    O1 8925   1.024   4.462  15.125 -0.4892 -0.2787  0.2782
  598TMC3    O2 8926   0.564   4.364  15.218  0.7216 -0.0685  0.2413
  599MPD2     C 8927   0.850   1.726  15.356  0.1567  0.1557  0.6137
  599MPD2    C1 8928   0.894   1.797  15.466 -0.5389 -0.2733  0.1596
  599MPD2    C2 8929   0.808   1.873  15.539  0.1988 -0.1242 -0.1804
  599MPD2    C3 8930   0.671   1.884  15.509 -0.3667 -0.0917  0.0907
  599MPD2    C4 8931   0.625   1.809  15.399 -0.2899  0.9174 -0.2439
  599MPD2    C5 8932   0.715   1.739  15.320 -0.0485 -0.3237 -0.7856
  599MPD2     H 8933   0.841   1.908  15.637  0.2488  1.9373 -0.9253
  599MPD2    H1 8934   0.519   1.807  15.376 -0.4558  3.3118  0.3255
  599MPD2    H2 8935   0.909   1.653  15.301  1.7972  1.0491  1.1874
  599MPD2    H3 8936   0.672   1.672  15.247  1.4823 -1.2205 -0.8843
  599MPD2     N 8937   0.575   1.944  15.591  0.2577 -0.1763  0.1587
  599MPD2    H5 8938   0.484   1.930  15.549  0.4562 -0.5480 -0.1531
  599MPD2    N1 8939   1.027   1.777  15.502 -0.3527  0.3471 -0.3855
  599MPD2    H7 8940   1.080   1.706  15.452 -0.9488 -0.4984  0.1799
  600TMC3    C1 8941   0.474   2.043  15.782  0.2145 -0.1964 -0.2300
  600TMC3    C2 8942   0.363   1.966  15.767 -1.0075 -0.2280  0.1065
  600TMC3    C3 8943   0.269   1.978  15.863 -0.6534 -0.2969 -0.4496
  600TMC3    C4 8944   0.485   2.139  15.879 -0.5129  0.1441 -0.0698
  600TMC3    C5 8945   0.388   2.151  15.975  0.4299  0.6897 -0.7550
  600TMC3    C6 8946   0.284   2.067  15.966  0.3170  0.8854  0.0842
  600TMC3     C 8947   0.592   2.012  15.708  0.0615  1.1495  0.4448
  600TMC3     O 8948   0.698   2.039  15.761 -0.2488 -0.1908  0.2324
  600TMC3     H 8949   0.355   1.896  15.685 -0.0473  2.0607 -1.9473
  600TMC3    H1 8950   0.578   2.195  15.877  0.2197 -1.1203 -2.4186
  600TMC3    H2 8951   0.195   2.077  16.027 -0.6379 -0.2740 -1.1049
  600TMC3    C7 8952   0.381   2.247  16.079 -0.8077 -0.1462  0.3884
  600TMC3    C8 8953   0.155   1.885  15.867  0.0085 -0.0843  0.0299
  600TMC3    O1 8954   0.295   2.233  16.162  0.3365  0.5392 -0.6487
  600TMC3    O2 8955   0.100   1.857  15.763 -0.2318  0.0593  0.1089
  601MPD2     C 8956   3.004   4.668   0.110  0.7288  0.2673 -0.4703
  601MPD2    C1 8957   2.963   0.047   0.173 -0.2648 -0.6349 -0.1473
  601MPD2    C2 8958   2.897   0.049   0.292  0.0136 -0.0190  0.1976
  601MPD2    C3 8959   2.875   4.674   0.358 -0.0217 -0.2098 -0.0892
  601MPD2    C4 8960   2.921   4.561   0.309 -0.4051  0.2646 -0.2154
  601MPD2    C5 8961   2.991   4.559   0.191 -0.3945 -0.1626  0.1024
  601MPD2     H 8962   2.861   0.148   0.320 -0.5352  0.3297 -1.7776
  601MPD2    H1 8963   2.913   4.469   0.366  1.2226  1.6702  2.2699
  601MPD2    H2 8964   3.055   4.661   0.015 -0.6993  0.8942 -1.2870
  601MPD2    H3 8965   3.013   4.462   0.148  0.7655  0.1254  0.0428
  601MPD2     N 8966   2.821   4.662   0.487 -0.3945 -0.2311  0.1679
  601MPD2    H5 8967   2.813   4.567   0.522 -2.1687 -0.9909 -2.3322
  601MPD2    N1 8968   2.986   0.176   0.107  0.6035  0.7162  0.4721
  601MPD2    H7 8969   2.970   0.260   0.162 -0.7632  1.4324 -1.0096
  602TMC3    C1 8970   3.017   0.329  17.679 -0.7060  0.7630  0.2998
  602TMC3    C2 8971   2.900   0.402  17.712 -0.4264  0.7746  0.4128
  602TMC3    C3 8972   2.878   0.519  17.641  0.4099  0.6489  0.1732
  602TMC3    C4 8973   3.095   0.370  17.572  0.4613 -0.5035 -0.0009
  602TMC3    C5 8974   3.057   0.470  17.491 -0.1744 -0.3402 -0.1486
  602TMC3    C6 8975   2.954   0.554  17.529 -0.0900 -0.8293 -0.3753
  602TMC3     C 8976   3.031   0.197  17.730 -0.2556  0.8509  0.4918
  602TMC3     O 8977   3.072   0.114  17.645 -0.3828 -0.2397  0.4436
  602TMC3     H 8978   2.830   0.368   0.035 -0.5030 -1.0458 -0.4864
  602TMC3    H1 8979   3.198   0.340  17.561  0.7047  0.1706  0.4514
  602TMC3    H2 8980   2.928   0.648  17.483  1.8874  1.3162  2.8795
  602TMC3    C7 8981   3.138   0.514  17.375 -0.4729 -0.2275 -0.1714
  602TMC3    C8 8982   2.762   0.600  17.677  0.0862  0.0458 -0.1109
  602TMC3    O1 8983   3.240   0.452  17.342 -0.1232 -0.1204 -0.3320
  602TMC3    O2 8984   2.690   0.557   0.012  0.3324 -0.2528 -0.2351
  603TMC3    C1 8985   1.336   0.912  11.095 -0.0444  0.3815  0.0815
  603TMC3    C2 8986   1.344   0.889  11.231 -0.2818 -0.1355 -0.2935
  603TMC3    C3 8987   1.438   0.966  11.296  0.4486  0.3942 -0.3780
  603TMC3    C4 8988   1.409   1.002  11.022 -0.2744 -1.1493  0.2846
  603TMC3    C5 8989   1.491   1.078  11.096 -0.0861 -0.3454 -0.1459
  603TMC3    C6 8990   1.513   1.059  11.228 -0.3190  0.6382  0.5573
  603TMC3     C 8991   1.204   0.901  11.035  1.1030  0.0587 -0.7031
  603TMC3     O 8992   1.195   0.901  10.913 -0.0015 -0.5812  0.3168
  603TMC3     H 8993   1.277   0.818  11.276 -1.0955 -0.9991 -2.8746
  603TMC3    H1 8994   1.389   1.027  10.919 -0.4689  0.5033  0.7199
  603TMC3    H2 8995   1.558   1.138  11.287  1.0832 -1.0890  1.8067
  603TMC3    C7 8996   1.532   1.206  11.048 -0.4494  0.5551  0.0577
  603TMC3    C8 8997   1.448   0.945  11.439  0.5046 -0.6689 -0.8439
  603TMC3    O1 8998   1.633   1.248  11.100 -0.0563 -0.5229  0.5414
  603TMC3    O2 8999   1.392   0.849  11.490  0.1433 -0.0199 -0.0509
  604MPD2     C 9000   2.192   4.454  16.435 -0.4102  0.6591 -0.6302
  604MPD2    C1 9001   2.070   4.389  16.401 -0.1039 -0.0358 -0.0672
  604MPD2    C2 9002   2.058   4.308  16.288  0.5413 -0.6868 -0.3556
  604MPD2    C3 9003   2.168   4.298  16.209 -0.2183  0.4539 -0.4044
  604MPD2    C4 9004   2.284   4.370  16.229 -0.8987  0.2947 -0.3943
  604MPD2    C5 9005   2.294   4.431  16.352  0.4049 -0.1681 -0.0324
  604MPD2     H 9006   1.966   4.253  16.274 -0.9915  1.1751  2.4495
  604MPD2    H1 9007   2.374   4.365  16.169 -1.9618 -0.5668 -1.9288
  604MPD2    H2 9008   2.195   4.519  16.521 -0.0309  1.8856 -1.5697
  604MPD2    H3 9009   2.381   4.487  16.384  0.5872 -0.0033 -0.7962
  604MPD2     N 9010   2.153   4.228  16.084 -0.2480 -0.3719  0.2837
  604MPD2    H5 9011   2.057   4.200  16.064 -1.1043  0.8941  2.6538
  604MPD2    N1 9012   1.968   4.413  16.495 -0.6003 -0.1565  0.2712
  604MPD2    H7 9013   1.985   4.475  16.574  0.4835  1.1567 -0.9788
  605TMC3    C1 9014   1.750   4.413  16.598  0.0016 -0.2675 -0.0002
  605TMC3    C2 9015   1.802   4.464  16.719  0.2980  0.7319  0.2170
  605TMC3    C3 9016   1.713   4.509  16.806  0.5310 -0.6837  0.7249
  605TMC3    C4 9017   1.617   4.391  16.578  0.2450  0.2632 -0.1518
  605TMC3    C5 9018   1.535   4.427  16.678  0.2845 -0.1445  0.3759
  605TMC3    C6 9019   1.574   4.486  16.791 -0.8572 -0.2907 -0.3523
  605TMC3     C 9020   1.837   4.363  16.488 -0.1477  0.6406 -0.7457
  605TMC3     O 9021   1.783   4.296  16.400 -0.0392 -0.0279 -0.2293
  605TMC3     H 9022   1.910   4.466  16.729  0.2672  0.0249  0.6228
  605TMC3    H1 9023   1.578   4.346  16.487 -1.2481  1.2454 -0.0013
  605TMC3    H2 9024   1.504   4.544  16.849  0.3474  0.2884  0.5154
  605TMC3    C7 9025   1.403   4.452  16.631  0.4267  0.0479  0.1782
  605TMC3    C8 9026   1.758   4.545  16.942 -1.0180 -0.6354 -0.5564
  605TMC3    O1 9027   1.355   4.564  16.643 -0.3515 -0.4299  0.6942
  605TMC3    O2 9028   1.692   4.508  17.040  0.1523 -0.1735  0.2861
  606TMC3    C1 9029   2.526   3.480   0.412 -0.2582  0.5698 -0.2635
  606TMC3    C2 9030   2.654   3.466   0.450  0.2132  0.4659 -0.0589
  606TMC3    C3 9031   2.730   3.367   0.404  0.2686 -0.4553  0.1054
  606TMC3    C4 9032   2.472   3.383   0.331 -0.6662 -0.6327  0.0361
  606TMC3    C5 9033   2.544   3.270   0.305  0.5557  0.7783 -0.0776
  606TMC3    C6 9034   2.680   3.264   0.334  0.2867  0.3695 -0.1022
  606TMC3     C 9035   2.445   3.601   0.434  0.5075 -0.0398  0.2664
  606TMC3     O 9036   2.326   3.600   0.409 -0.3375  0.4604 -0.3726
  606TMC3     H 9037   2.695   3.542   0.515  0.3231  2.0575 -1.9720
  606TMC3    H1 9038   2.375   3.398   0.287 -1.1412  0.7139  1.5365
  606TMC3    H2 9039   2.741   3.204   0.267  1.0481 -0.6535  1.5206
  606TMC3    C7 9040   2.504   3.206   0.179  0.0876  0.8836  1.1228
  606TMC3    C8 9041   2.874   3.382   0.426 -0.3388  0.6066  0.5651
  606TMC3    O1 9042   2.443   3.266   0.092  0.1809  0.7739 -0.1253
  606TMC3    O2 9043   2.908   3.480   0.492 -0.5986  0.1548  0.8898
  607MPD2     C 9044   0.846   0.719  11.948  0.8701  0.3718 -0.3438
  607MPD2    C1 9045   0.863   0.850  11.993  0.1501  1.0108  0.2054
  607MPD2    C2 9046   0.796   0.879  12.107  0.2814  0.0994 -0.5736
  607MPD2    C3 9047   0.696   0.800  12.167 -0.6718  0.3707 -0.1477
  607MPD2    C4 9048   0.683   0.669  12.116 -0.0082 -0.5389  0.3681
  607MPD2    C5 9049   0.766   0.627  12.016 -0.1144 -0.1657  0.1354
  607MPD2     H 9050   0.811   0.976  12.154 -0.3245  1.1254 -2.5178
  607MPD2    H1 9051   0.614   0.596  12.156 -1.1947 -0.1010 -0.8647
  607MPD2    H2 9052   0.896   0.692  11.856  3.8329 -0.9832  1.6899
  607MPD2    H3 9053   0.740   0.533  11.969  0.4717 -0.4662  0.4132
  607MPD2     N 9054   0.625   0.846  12.280 -1.0221  0.2626  1.0012
  607MPD2    H5 9055   0.651   0.940  12.305  1.2227  0.7575 -3.2576
  607MPD2    N1 9056   0.981   0.921  11.950  0.1806 -0.4739  0.5456
  607MPD2    H7 9057   1.020   0.901  11.859 -1.1668 -0.2754 -0.0843
  608TMC3    C1 9058   1.160   1.061  11.977  0.3456 -0.7787  0.6389
  608TMC3    C2 9059   1.220   1.129  12.081  0.0385  0.0005 -0.3003
  608TMC3    C3 9060   1.267   1.256  12.062  0.6129 -0.4797  0.2645
  608TMC3    C4 9061   1.158   1.113  11.852  0.3400 -0.3150 -0.5177
  608TMC3    C5 9062   1.209   1.240  11.829  0.1966  0.0238 -0.0824
  608TMC3    C6 9063   1.255   1.310  11.939 -0.4613  0.1541  0.0437
  608TMC3     C 9064   1.039   1.014  12.030 -0.4131 -0.1237  0.2843
  608TMC3     O 9065   1.013   1.060  12.140 -0.5746 -0.2473 -0.4112
  608TMC3     H 9066   1.228   1.090  12.182  0.7526  0.5261 -0.1520
  608TMC3    H1 9067   1.115   1.054  11.772 -1.2945  1.8445 -1.2393
  608TMC3    H2 9068   1.296   1.409  11.921  0.0013  0.1902  1.3088
  608TMC3    C7 9069   1.268   1.255  11.696  0.7480  0.5738  0.2334
  608TMC3    C8 9070   1.227   1.355  12.163  0.4590  0.1722  0.5292
  608TMC3    O1 9071   1.216   1.196  11.602  0.3800  0.0019  0.1599
  608TMC3    O2 9072   1.265   1.468  12.162 -0.3007 -0.2461 -0.4733
  609TMC3    C1 9073   4.574   1.159   9.276  0.5821 -0.9914  0.1890
  609TMC3    C2 9074   4.576   1.277   9.207  0.0525 -0.1596 -0.0538
  609TMC3    C3 9075   4.656   1.291   9.097 -0.1373 -0.0125  0.1220
  609TMC3    C4 9076   4.669   1.069   9.253 -0.6771  0.3275  0.0092
  609TMC3    C5 9077   0.010   1.090   9.140  0.1496 -0.3934 -0.0952
  609TMC3    C6 9078   0.008   1.201   9.063  0.3040  0.3580 -0.2214
  609TMC3     C 9079   4.461   1.122   9.358  0.2927  0.0590  0.0833
  609TMC3     O 9080   4.452   1.000   9.382 -0.4312 -0.2860  0.8603
  609TMC3     H 9081   4.484   1.334   9.209  0.1116 -0.0576 -0.2586
  609TMC3    H1 9082   4.665   0.967   9.288 -0.8444  0.9323  1.7445
  609TMC3    H2 9083   0.085   1.222   8.990  1.3485 -2.3963  0.0938
  609TMC3    C7 9084   0.122   0.996   9.131 -0.2543  0.2143  0.4024
  609TMC3    C8 9085   4.663   1.424   9.029 -1.0874  0.0401 -0.0392
  609TMC3    O1 9086   0.164   0.948   9.236 -0.0362  0.4310  0.0070
  609TMC3    O2 9087   4.729   1.436   8.930 -0.1801 -0.3054  0.7936
  610TMC3    C1 9088   1.023   1.006  12.910 -0.3508 -0.4597 -0.1388
  610TMC3    C2 9089   1.122   1.068  12.837 -0.3061 -0.2526  0.0183
  610TMC3    C3 9090   1.254   1.024  12.846  0.0951  0.3102  0.3147
  610TMC3    C4 9091   1.049   0.895  12.987  0.1195  0.3998  0.2984
  610TMC3    C5 9092   1.182   0.854  12.989  0.0667 -0.0795 -0.6047
  610TMC3    C6 9093   1.282   0.915  12.920 -0.0101  0.4645 -0.7901
  610TMC3     C 9094   0.899   1.077  12.938 -0.0717  0.2651  0.4121
  610TMC3     O 9095   0.902   1.198  12.955 -0.2959  0.3409  0.0540
  610TMC3     H 9096   1.098   1.163  12.792  0.7896  0.7853  1.6333
  610TMC3    H1 9097   0.969   0.854  13.047  0.6960 -0.3743  0.5461
  610TMC3    H2 9098   1.378   0.866  12.911 -0.5474 -0.2023 -3.0109
  610TMC3    C7 9099   1.217   0.729  13.046  0.7987  0.7716  0.6048
  610TMC3    C8 9100   1.355   1.098  12.776 -0.6790 -0.5112  0.6264
  610TMC3    O1 9101   1.338   0.710  13.053  0.4555 -0.0131 -0.0423
  610TMC3    O2 9102   1.459   1.037  12.763  0.5343  0.2941  0.2396
  611MPD2     C 9103   0.533   1.216  10.754 -0.3426  0.1025 -0.0830
  611MPD2    C1 9104   0.517   1.204  10.621  0.3837 -0.5837 -0.3191
  611MPD2    C2 9105   0.614   1.247  10.543 -0.4068  0.0396 -0.6250
  611MPD2    C3 9106   0.725   1.310  10.597  0.3753  0.7843  0.3799
  611MPD2    C4 9107   0.732   1.330  10.725  0.7190 -0.2951 -0.1479
  611MPD2    C5 9108   0.636   1.286  10.807  0.6579  0.1815  0.2868
  611MPD2     H 9109   0.614   1.233  10.435  2.1999  0.2956 -0.6509
  611MPD2    H1 9110   0.816   1.384  10.766  0.6214 -0.5290  0.3542
  611MPD2    H2 9111   0.465   1.171  10.825  0.7510  0.0289  0.9232
  611MPD2    H3 9112   0.642   1.305  10.914  1.2118 -1.1751  0.5007
  611MPD2     N 9113   0.835   1.372  10.538  0.3904 -0.4935 -0.1158
  611MPD2    H5 9114   0.909   1.395  10.604  0.6696 -2.4224  0.2322
  611MPD2    N1 9115   0.396   1.138  10.585 -0.6147  0.2089 -0.0244
  611MPD2    H7 9116   0.339   1.106  10.662 -0.3502  0.7569  0.4010
  612TMC3    C1 9117   0.962   1.485  10.361  0.6813 -0.2035 -0.4378
  612TMC3    C2 9118   1.082   1.479  10.425  0.3264  0.0081  0.1851
  612TMC3    C3 9119   1.181   1.566  10.385  0.1536  0.6939 -0.1149
  612TMC3    C4 9120   0.962   1.555  10.243  0.1616  0.4832 -0.1349
  612TMC3    C5 9121   1.062   1.639  10.202  0.4928 -0.7996  0.0497
  612TMC3    C6 9122   1.180   1.645  10.279  0.4626 -0.1906 -0.2887
  612TMC3     C 9123   0.845   1.404  10.403 -0.0297 -0.1466 -0.0592
  612TMC3     O 9124   0.755   1.391  10.323  0.0335 -0.3699 -0.0295
  612TMC3     H 9125   1.086   1.424  10.518  0.4903  0.4972  0.4689
  612TMC3    H1 9126   0.868   1.556  10.189 -0.5129  1.1860  1.0427
  612TMC3    H2 9127   1.264   1.709  10.253  0.3923  0.6283  1.5389
  612TMC3    C7 9128   1.041   1.736  10.093  0.5005 -0.1728 -0.3834
  612TMC3    C8 9129   1.301   1.579  10.463 -0.1866  0.1586  0.1373
  612TMC3    O1 9130   0.926   1.764  10.065  1.1638 -0.1097  0.3473
  612TMC3    O2 9131   1.379   1.668  10.435  0.3163  0.0258 -0.3382
  613MPD2     C 9132   3.850   3.269  16.706  0.1439 -0.1338  0.1403
  613MPD2    C1 9133   3.930   3.242  16.601  0.1626 -0.6630  0.7018
  613MPD2    C2 9134   3.964   3.113  16.564  0.4941  0.0178  0.0409
  613MPD2    C3 9135   3.894   3.007  16.614  0.6700  0.3498 -0.1738
  613MPD2    C4 9136   3.803   3.039  16.708  0.5954 -0.1396 -0.1629
  613MPD2    C5 9137   3.780   3.166  16.747  0.1702  0.0277  0.6368
  613MPD2     H 9138   4.043   3.104  16.491  1.4417  0.1582  1.0506
  613MPD2    H1 9139   3.740   2.964  16.754 -0.7816  2.3393  1.9440
  613MPD2    H2 9140   3.833   3.368  16.748 -1.2414  0.3786 -1.5966
  613MPD2    H3 9141   3.697   3.176  16.817 -1.8824 -0.7349 -1.6731
  613MPD2     N 9142   3.915   2.871  16.577 -0.3303  0.3987  0.2329
  613MPD2    H5 9143   3.864   2.797  16.623  0.8985 -0.4426  0.2394
  613MPD2    N1 9144   4.003   3.353  16.536  0.2089  0.5479 -0.4706
  613MPD2    H7 9145   4.068   3.318  16.466 -0.6827  1.6279 -1.8376
  614TMC3    C1 9146   4.038   3.554  16.426  0.2652 -0.2802  0.5915
  614TMC3    C2 9147   4.144   3.486  16.369  0.5263  0.2006 -1.0675
  614TMC3    C3 9148   4.134   3.473  16.235  0.5985  0.4541  0.1596
  614TMC3    C4 9149   3.949   3.622  16.354 -0.1243 -0.1820 -0.3674
  614TMC3    C5 9150   3.950   3.610  16.218  0.2401 -0.3597  0.4836
  614TMC3    C6 9151   4.038   3.532  16.151  0.0299 -0.0167 -0.2845
  614TMC3     C 9152   3.968   3.485  16.539  0.4594  0.0119 -0.4470
  614TMC3     O 9153   3.866   3.536  16.581 -0.4249  0.4414  0.4658
  614TMC3     H 9154   4.213   3.432  16.433  0.6402 -0.5598 -1.8425
  614TMC3    H1 9155   3.866   3.678  16.396 -1.0946 -0.1718 -2.2798
  614TMC3    H2 9156   4.045   3.521  16.043  0.0435 -0.3565 -0.2484
  614TMC3    C7 9157   3.832   3.666  16.151  0.1462 -0.2128 -0.6581
  614TMC3    C8 9158   4.148   3.332  16.208  0.4882  0.6433 -0.1304
  614TMC3    O1 9159   3.741   3.719  16.214 -0.4428 -0.0960  0.2146
  614TMC3    O2 9160   4.167   3.261  16.307 -0.0819 -0.3534  0.1729
  615MPD2     C 9161   3.502   4.412  16.215  0.4110 -0.2792  0.7257
  615MPD2    C1 9162   3.592   4.501  16.265 -0.3832 -0.0107  0.4068
  615MPD2    C2 9163   3.618   4.615  16.188 -0.1593  0.2699  0.2551
  615MPD2    C3 9164   3.557   4.630  16.069  0.2834  0.5994  0.3506
  615MPD2    C4 9165   3.476   4.531  16.015  0.1147  0.6323  0.2242
  615MPD2    C5 9166   3.446   4.426  16.098  0.0396  0.3089  0.5171
  615MPD2     H 9167   3.687   4.691  16.224  0.3934  0.7080 -1.7637
  615MPD2    H1 9168   3.435   4.533  15.914  1.5971 -0.8330 -0.4063
  615MPD2    H2 9169   3.474   4.323  16.271  0.4746  1.3748  3.3652
  615MPD2    H3 9170   3.389   4.344  16.058  2.7064 -1.4080  0.2025
  615MPD2     N 9171   3.568   0.016  15.993  0.7598 -0.4214 -0.1545
  615MPD2    H5 9172   3.518   0.033  15.907  1.6707  2.9060 -0.0059
  615MPD2    N1 9173   3.661   4.482  16.380 -0.1570 -0.2656  0.4232
  615MPD2    H7 9174   3.724   4.557  16.407 -1.3875  0.9994 -0.2311
  616TMC3    C1 9175   3.771   4.391  16.557 -0.3905  0.3670  0.5094
  616TMC3    C2 9176   3.776   4.515  16.600  0.2648 -0.1567 -0.4054
  616TMC3    C3 9177   3.898   4.573  16.612 -0.4563  0.0977 -0.8131
  616TMC3    C4 9178   3.878   4.320  16.534 -0.1860  0.7339  0.3749
  616TMC3    C5 9179   3.999   4.379  16.546  0.5873 -0.8043  0.1997
  616TMC3    C6 9180   4.013   4.509  16.580  0.1529  0.6363 -0.7272
  616TMC3     C 9181   3.669   4.367  16.455 -0.3870 -0.1987  0.2267
  616TMC3     O 9182   3.645   4.252  16.427  1.1247  0.1471 -1.1534
  616TMC3     H 9183   3.690   4.580  16.612  0.1661 -0.3323 -0.1604
  616TMC3    H1 9184   3.870   4.213  16.517  0.5089  0.4851  1.5879
  616TMC3    H2 9185   4.113   4.550  16.594  0.2881  0.2243 -0.4940
  616TMC3    C7 9186   4.117   4.307  16.507 -0.3399  0.3072 -0.1727
  616TMC3    C8 9187   3.886   4.708  16.553  0.4783 -0.2407 -0.8557
  616TMC3    O1 9188   4.103   4.185  16.527 -0.4117 -0.3936 -0.5393
  616TMC3    O2 9189   3.791   4.735  16.483  0.3875  0.3992  0.1778
  617MPD2     C 9190   1.924   2.648  13.833  0.0994  0.2124 -0.2899
  617MPD2    C1 9191   1.865   2.542  13.765 -0.4114 -0.0002  1.3962
  617MPD2    C2 9192   1.727   2.525  13.777  0.5507 -0.0014 -0.6538
  617MPD2    C3 9193   1.652   2.619  13.848  0.1614 -0.5642 -0.2794
  617MPD2    C4 9194   1.713   2.729  13.900  0.1725 -0.4481  0.2815
  617MPD2    C5 9195   1.847   2.735  13.898 -0.6812 -0.0474  0.1256
  617MPD2     H 9196   1.673   2.442  13.735 -0.6441  0.0696  0.7218
  617MPD2    H1 9197   1.675   2.817  13.950  1.7339 -0.7402  1.9866
  617MPD2    H2 9198   2.028   2.679  13.827  0.2588 -0.1755  0.5099
  617MPD2    H3 9199   1.897   2.825  13.931  0.4225  0.0263 -1.7788
  617MPD2     N 9200   1.510   2.615  13.856  0.5661  0.1781  0.0519
  617MPD2    H5 9201   1.467   2.666  13.933  1.9322  0.7112  0.4532
  617MPD2    N1 9202   1.941   2.458  13.677  0.0828 -0.5864 -0.3295
  617MPD2    H7 9203   2.038   2.486  13.665  0.2533 -2.1209 -2.4351
  618TMC3    C1 9204   2.009   2.281  13.551  0.0808  0.8015  0.1953
  618TMC3    C2 9205   2.030   2.149  13.560  0.6819 -0.0362 -0.1078
  618TMC3    C3 9206   2.126   2.092  13.477 -0.3124 -0.2147 -0.9043
  618TMC3    C4 9207   2.079   2.359  13.463  0.5752  0.4662 -1.1739
  618TMC3    C5 9208   2.161   2.294  13.374  0.6978  0.0434  0.4697
  618TMC3    C6 9209   2.201   2.164  13.385 -0.7007  0.2173  0.4733
  618TMC3     C 9210   1.900   2.340  13.628 -0.4458 -0.5749  0.5323
  618TMC3     O 9211   1.800   2.275  13.653 -0.0429  0.0350  0.3006
  618TMC3     H 9212   1.975   2.084  13.627 -2.7207  1.3586 -1.5788
  618TMC3    H1 9213   2.033   2.450  13.428 -0.2802 -0.3340 -2.1710
  618TMC3    H2 9214   2.270   2.122  13.313 -1.4759  1.7537 -1.1716
  618TMC3    C7 9215   2.230   2.369  13.271 -0.1258 -0.0423 -0.1755
  618TMC3    C8 9216   2.149   1.949  13.487  0.4056 -0.2607 -0.0662
  618TMC3    O1 9217   2.294   2.464  13.314 -0.3056 -0.4529  0.3003
  618TMC3    O2 9218   2.047   1.885  13.527 -0.4075 -0.5390  0.1087
  619MPD2     C 9219   3.219   3.805  13.496 -0.8247  0.0677 -0.3890
  619MPD2    C1 9220   3.148   3.921  13.461  0.5818  0.3027  0.8212
  619MPD2    C2 9221   3.012   3.926  13.483 -0.1758 -0.7110 -0.1759
  619MPD2    C3 9222   2.947   3.817  13.533  0.6142  0.2313 -0.0780
  619MPD2    C4 9223   3.021   3.704  13.567 -0.0430 -0.1092 -0.4004
  619MPD2    C5 9224   3.151   3.700  13.542 -0.0563 -0.2705  0.0316
  619MPD2     H 9225   2.958   4.019  13.463 -1.7745 -1.0260  2.7063
  619MPD2    H1 9226   2.967   3.614  13.591  0.4984 -0.3297 -0.0004
  619MPD2    H2 9227   3.327   3.804  13.485 -0.7666  0.4376  0.1836
  619MPD2    H3 9228   3.196   3.603  13.555  2.6094  0.9584  0.0229
  619MPD2     N 9229   2.809   3.808  13.562  0.0863 -0.1401 -0.4356
  619MPD2    H5 9230   2.770   3.729  13.613  0.9335 -1.4605 -1.8311
  619MPD2    N1 9231   3.200   4.041  13.406 -0.3352 -0.2649  0.5254
  619MPD2    H7 9232   3.124   4.105  13.384  1.2395  0.9817 -1.2101
  620TMC3    C1 9233   3.340   4.205  13.342  0.0709  0.1274  1.0800
  620TMC3    C2 9234   3.229   4.259  13.293 -0.0436  0.3490  0.0501
  620TMC3    C3 9235   3.207   4.393  13.308  0.5861 -0.7913  0.1510
  620TMC3    C4 9236   3.425   4.290  13.413  0.2970  0.0082  0.4635
  620TMC3    C5 9237   3.389   4.416  13.438  0.1571  0.8252 -0.4093
  620TMC3    C6 9238   3.274   4.472  13.401  0.0384  0.1173 -0.2046
  620TMC3     C 9239   3.332   4.064  13.383  0.5564 -0.4590 -0.2541
  620TMC3     O 9240   3.428   3.993  13.411 -0.4979 -0.4736 -0.1449
  620TMC3     H 9241   3.162   4.200  13.231  1.1461 -1.4443  0.4787
  620TMC3    H1 9242   3.500   4.232  13.465  1.7041 -0.0879 -1.6714
  620TMC3    H2 9243   3.245   4.577  13.406 -0.7243 -0.1194  0.2851
  620TMC3    C7 9244   3.479   4.478  13.529  0.2672  0.0956 -0.7308
  620TMC3    C8 9245   3.064   4.422  13.308 -0.1318  0.2518 -0.6016
  620TMC3    O1 9246   3.593   4.430  13.533  0.0538  0.2249  0.5141
  620TMC3    O2 9247   3.018   4.455  13.201 -0.3690 -0.1485  0.1007
  621MPD2     C 9248   4.006   4.125  10.168 -0.7180 -0.5448  0.1710
  621MPD2    C1 9249   4.061   4.135  10.042 -0.6740  0.0095 -0.7357
  621MPD2    C2 9250   4.126   4.256  10.011  0.8248 -0.4331  0.0109
  621MPD2    C3 9251   4.134   4.363  10.097 -0.0242 -0.1674  0.5607
  621MPD2    C4 9252   4.071   4.346  10.218 -0.1390  0.6452 -0.1008
  621MPD2    C5 9253   4.010   4.230  10.251 -0.9094  0.5878 -0.3341
  621MPD2     H 9254   4.178   4.263   9.916  0.5704 -1.7171 -0.2128
  621MPD2    H1 9255   4.075   4.421  10.296 -2.8369  1.3753 -0.6612
  621MPD2    H2 9256   3.955   4.035  10.200 -0.3729 -0.4809  0.9160
  621MPD2    H3 9257   3.963   4.202  10.344  1.4980  2.8485  1.5904
  621MPD2     N 9258   4.192   4.483  10.055 -0.3453 -0.4896 -0.3183
  621MPD2    H5 9259   4.252   4.484   9.973 -0.4218 -1.2771 -0.3827
  621MPD2    N1 9260   4.056   4.036   9.947  0.3143 -0.0704 -0.0533
  621MPD2    H7 9261   4.066   4.061   9.849 -2.1327  2.1068  0.2550
  622TMC3    C1 9262   3.990   3.824   9.863  0.3710 -0.1101  0.6777
  622TMC3    C2 9263   3.892   3.729   9.882 -0.2457  0.3865  0.6995
  622TMC3    C3 9264   3.814   3.689   9.781  0.0870  0.3907 -0.1564
  622TMC3    C4 9265   4.009   3.873   9.733 -0.3988  0.3893 -0.0548
  622TMC3    C5 9266   3.933   3.822   9.629  0.3200 -0.2618  0.0973
  622TMC3    C6 9267   3.834   3.728   9.650 -0.5147  0.0052 -0.0195
  622TMC3     C 9268   4.021   3.904   9.977 -0.3372  0.1587  0.7195
  622TMC3     O 9269   3.994   3.853  10.085  0.5028 -0.2764 -0.0870
  622TMC3     H 9270   3.872   3.694   9.983 -0.5070 -0.0507  0.4929
  622TMC3    H1 9271   4.096   3.937   9.722  0.8547 -0.9838  2.0171
  622TMC3    H2 9272   3.766   3.694   9.573 -1.4884  0.5587  0.6090
  622TMC3    C7 9273   3.960   3.857   9.490  0.0249  0.3326 -0.3025
  622TMC3    C8 9274   3.682   3.628   9.808 -0.9197  0.0851  0.7285
  622TMC3    O1 9275   3.906   3.787   9.408 -0.4526 -0.2148  0.2927
  622TMC3    O2 9276   3.615   3.603   9.709 -0.1746 -0.4850  0.0195
  623MPD2     C 9277   2.418   0.172  16.204  0.3948  0.6493  0.7375
  623MPD2    C1 9278   2.337   0.136  16.310  0.1112 -0.0713 -0.1527
  623MPD2    C2 9279   2.378   0.172  16.439 -0.6175  0.5236 -0.1592
  623MPD2    C3 9280   2.503   0.228  16.458 -0.5270  0.5067 -0.7594
  623MPD2    C4 9281   2.591   0.257  16.358  0.2924 -0.6009 -0.0629
  623MPD2    C5 9282   2.540   0.238  16.231 -0.3443 -0.0961  0.1494
  623MPD2     H 9283   2.312   0.148  16.522 -1.5335 -0.5807 -1.2098
  623MPD2    H1 9284   2.688   0.301  16.377  0.0093  0.0638 -0.1887
  623MPD2    H2 9285   2.389   0.160  16.100  1.8678  0.5156  0.3487
  623MPD2    H3 9286   2.601   0.270  16.148 -1.4521 -0.0263 -0.6366
  623MPD2     N 9287   2.535   0.243  16.595 -0.3578 -0.2411 -0.3896
  623MPD2    H5 9288   2.465   0.211  16.662 -0.1644  2.2882  1.0538
  623MPD2    N1 9289   2.210   0.063  16.298  0.5771 -0.4451  0.1055
  623MPD2    H7 9290   2.163   0.054  16.388  1.1215 -0.5960  0.3719
  624TMC3    C1 9291   2.666   0.123  16.923 -0.0960  0.5506  0.1668
  624TMC3    C2 9292   2.541   0.121  16.976  0.0743 -0.0812 -0.0174
  624TMC3    C3 9293   2.455   0.219  16.935  0.9586  0.6173 -0.4868
  624TMC3    C4 9294   2.708   0.213  16.833 -0.7048 -0.2389  0.4826
  624TMC3    C5 9295   2.626   0.307  16.792  0.4176  0.4546 -0.5571
  624TMC3    C6 9296   2.495   0.314  16.842  0.3986 -0.2084 -0.0702
  624TMC3     C 9297   2.758   0.020  16.966  0.1023 -0.2235 -0.3646
  624TMC3     O 9298   2.708   4.652  17.005 -0.1172 -0.1831 -0.2195
  624TMC3     H 9299   2.504   0.045  17.043  0.7226 -0.8807 -0.5650
  624TMC3    H1 9300   2.799   0.197  16.776 -0.1887 -1.0769  1.5569
  624TMC3    H2 9301   2.433   0.394  16.806  1.8793  0.2537 -1.5752
  624TMC3    C7 9302   2.635   0.315  16.646 -0.1730  0.0047  0.2435
  624TMC3    C8 9303   2.307   0.194  16.939 -0.7043 -0.0268 -0.2822
  624TMC3    O1 9304   2.735   0.364  16.598  0.0907 -0.4608 -0.3396
  624TMC3    O2 9305   2.245   0.226  16.841  0.1505 -0.0918  0.0484
  625MPD2     C 9306   2.993   1.226   0.863  0.4061  0.2091 -0.3672
  625MPD2    C1 9307   2.968   1.360   0.837  0.2129  0.4884  0.1010
  625MPD2    C2 9308   3.078   1.437   0.797 -0.0132 -0.0795  0.7629
  625MPD2    C3 9309   3.209   1.386   0.808 -0.6368  0.3968  0.4417
  625MPD2    C4 9310   3.233   1.249   0.831 -0.0665 -0.0258  0.7063
  625MPD2    C5 9311   3.124   1.174   0.865 -0.4981 -0.4236 -0.5482
  625MPD2     H 9312   3.066   1.543   0.779 -2.3834 -0.4682  0.0369
  625MPD2    H1 9313   3.332   1.205   0.824 -0.0407  0.0529  0.5778
  625MPD2    H2 9314   2.908   1.162   0.883 -0.4133  0.9529 -1.5367
  625MPD2    H3 9315   3.134   1.070   0.897  2.0676 -0.1164 -0.3167
  625MPD2     N 9316   3.320   1.477   0.806  0.4728  0.0787 -0.2705
  625MPD2    H5 9317   3.300   1.576   0.805 -1.4072 -0.2965  1.4477
  625MPD2    N1 9318   2.836   1.414   0.822 -0.4738 -0.0720  0.5274
  625MPD2    H7 9319   2.838   1.507   0.781  0.3051 -1.2700 -2.1502
  626TMC3    C1 9320   2.607   1.444   0.857  0.3201  0.4807 -0.0668
  626TMC3    C2 9321   2.590   1.516   0.744  0.4406 -0.5414 -0.1713
  626TMC3    C3 9322   2.473   1.590   0.723  0.2708  0.8694 -0.0389
  626TMC3    C4 9323   2.508   1.435   0.948  0.4659 -0.5068 -0.4364
  626TMC3    C5 9324   2.395   1.511   0.931 -0.3757 -0.6866 -0.3165
  626TMC3    C6 9325   2.377   1.594   0.824  0.6211  0.3039 -0.1578
  626TMC3     C 9326   2.718   1.354   0.867  0.2886 -0.0914 -0.1171
  626TMC3     O 9327   2.703   1.240   0.911  0.2670  0.3184 -0.2361
  626TMC3     H 9328   2.671   1.529   0.674 -0.3562  0.5063 -0.9041
  626TMC3    H1 9329   2.516   1.383   1.042  1.0184 -0.1474 -0.2856
  626TMC3    H2 9330   2.280   1.638   0.807 -0.6499 -2.1658  0.7623
  626TMC3    C7 9331   2.333   1.549   1.056  0.1483 -0.2512 -0.3236
  626TMC3    C8 9332   2.438   1.614   0.591 -0.3598  0.1942  0.4281
  626TMC3    O1 9333   2.401   1.577   1.148  0.1917 -0.0829  0.0715
  626TMC3    O2 9334   2.534   1.651   0.521  0.2230  0.3794  0.2117
  627MPD2     C 9335   0.990   1.826  14.635  0.5238 -0.4025 -0.2545
  627MPD2    C1 9336   1.127   1.791  14.661  0.0042  0.4780 -0.6292
  627MPD2    C2 9337   1.163   1.668  14.616  0.7000 -0.0080 -0.6454
  627MPD2    C3 9338   1.084   1.597  14.526  0.5764  0.3031 -0.1391
  627MPD2    C4 9339   0.956   1.636  14.490 -0.7137  0.0960 -0.3423
  627MPD2    C5 9340   0.910   1.753  14.544 -0.0645 -0.5148  0.1430
  627MPD2     H 9341   1.263   1.633  14.640  1.2919  1.7824 -0.5182
  627MPD2    H1 9342   0.892   1.581  14.422  0.6996 -0.8191 -0.9373
  627MPD2    H2 9343   0.950   1.911  14.690  1.6879  1.2266 -1.9071
  627MPD2    H3 9344   0.803   1.770  14.537 -0.0407 -0.5608 -0.3430
  627MPD2     N 9345   1.141   1.475  14.487  0.3287  1.2788 -0.5101
  627MPD2    H5 9346   1.235   1.455  14.520  0.2650  2.9145  0.6358
  627MPD2    N1 9347   1.222   1.876  14.728  0.1218 -0.3407 -0.6456
  627MPD2    H7 9348   1.317   1.842  14.737 -0.2286 -1.3362 -0.7014
  628TMC3    C1 9349   1.313   2.075  14.802  0.5176  0.0893 -0.4812
  628TMC3    C2 9350   1.434   2.017  14.809  0.1657  0.3480 -0.2578
  628TMC3    C3 9351   1.546   2.099  14.808 -0.0877 -0.6766 -0.7835
  628TMC3    C4 9352   1.297   2.211  14.797  0.7883  0.1748  0.5064
  628TMC3    C5 9353   1.411   2.289  14.787  0.6163 -0.5168 -0.4937
  628TMC3    C6 9354   1.536   2.234  14.801  0.0790  0.0123  0.4176
  628TMC3     C 9355   1.195   2.003  14.762  0.0351 -0.0116  1.1358
  628TMC3     O 9356   1.088   2.048  14.790  0.2654 -1.2785  0.2935
  628TMC3     H 9357   1.443   1.909  14.800  0.0655  0.2774  0.5002
  628TMC3    H1 9358   1.199   2.255  14.782 -0.2492 -1.8939  1.1145
  628TMC3    H2 9359   1.622   2.281  14.755 -0.5673  0.8826  0.0833
  628TMC3    C7 9360   1.404   2.381  14.674  0.0998  0.1061  0.1269
  628TMC3    C8 9361   1.673   2.033  14.763 -0.0414  0.3058  0.2842
  628TMC3    O1 9362   1.479   2.370  14.581 -0.5773 -0.1883  0.2300
  628TMC3    O2 9363   1.746   2.095  14.686  0.8597 -0.2709  0.6096
  629MPD2     C 9364   4.150   0.376  16.367 -0.6856  0.1692  0.4641
  629MPD2    C1 9365   4.231   0.302  16.456  0.0233 -1.0581 -0.4917
  629MPD2    C2 9366   4.171   0.203  16.526  0.1261  0.1702 -0.0564
  629MPD2    C3 9367   4.044   0.150  16.499  0.1576 -0.6103  0.3318
  629MPD2    C4 9368   3.973   0.219  16.404 -0.0745 -0.2906 -0.4369
  629MPD2    C5 9369   4.023   0.327  16.344 -0.1108  0.5188  0.2580
  629MPD2     H 9370   4.227   0.151  16.602 -0.8790 -1.6141 -0.5244
  629MPD2    H1 9371   3.870   0.197  16.378  0.3109 -0.3021 -1.9701
  629MPD2    H2 9372   4.182   0.466  16.315 -0.5069  0.7900  1.6564
  629MPD2    H3 9373   3.954   0.387  16.286 -0.5560 -0.5009 -0.2724
  629MPD2     N 9374   4.007   0.029  16.565 -0.1442  0.0831 -0.1116
  629MPD2    H5 9375   4.075   4.732  16.631  1.0785 -0.6385 -1.7674
  629MPD2    N1 9376   4.360   0.350  16.488  0.1330  0.2060  0.2883
  629MPD2    H7 9377   4.387   0.427  16.427 -1.6435 -0.5705 -1.4649
  630TMC3    C1 9378   4.587   0.339  16.569 -0.2619  0.5273  0.2597
  630TMC3    C2 9379   4.611   0.448  16.496  0.5966  0.4701  0.1200
  630TMC3    C3 9380   0.003   0.470  16.460 -0.1714  0.3531 -0.4175
  630TMC3    C4 9381   4.682   0.250  16.601  0.0839  0.6429  0.0105
  630TMC3    C5 9382   0.067   0.277  16.560  0.2380  0.1068  0.2276
  630TMC3    C6 9383   0.103   0.398  16.503 -0.1083  0.5008  0.4885
  630TMC3     C 9384   4.450   0.288  16.570  0.6663 -0.5324 -0.4506
  630TMC3     O 9385   4.438   0.186  16.634 -0.5986 -0.3903 -0.3970
  630TMC3     H 9386   4.538   0.524  16.472 -1.5039 -0.8291  2.3930
  630TMC3    H1 9387   4.669   0.148  16.636 -1.7975  0.5396 -0.9719
  630TMC3    H2 9388   0.206   0.425  16.480 -0.1516 -0.2440 -0.5598
  630TMC3    C7 9389   0.170   0.205  16.641  0.0281  0.0511 -0.3225
  630TMC3    C8 9390   0.036   0.593  16.385 -0.2150  0.2456 -1.2739
  630TMC3    O1 9391   0.157   0.086  16.652  0.1097  0.1416  0.4787
  630TMC3    O2 9392   0.152   0.632  16.415  0.3425  0.1094  0.3865
  631MPD2     C 9393   2.929   0.202  15.583 -0.6708 -0.2567  0.0227
  631MPD2    C1 9394   2.986   0.317  15.537  0.2656 -0.2512  0.3400
  631MPD2    C2 9395   3.126   0.333  15.553  0.0251  0.2850 -0.0217
  631MPD2    C3 9396   3.200   0.233  15.614  0.1451  0.7754  0.0149
  631MPD2    C4 9397   3.143   0.116  15.659 -0.2488  0.3774 -0.0041
  631MPD2    C5 9398   3.006   0.105  15.642  0.3460  0.1900 -0.4169
  631MPD2     H 9399   3.176   0.423  15.519 -1.9254  1.0493 -0.9011
  631MPD2    H1 9400   3.196   0.036  15.708 -0.6341  1.2646  1.8630
  631MPD2    H2 9401   2.825   0.187  15.556  0.0131 -0.5129 -2.4238
  631MPD2    H3 9402   2.960   0.007  15.644  1.0177 -0.1253 -0.5713
  631MPD2     N 9403   3.336   0.265  15.627 -0.0201  0.0984 -0.0302
  631MPD2    H5 9404   3.368   0.355  15.592  2.0448 -0.6904 -0.1872
  631MPD2    N1 9405   2.902   0.412  15.466  0.1219  0.6346  0.3583
  631MPD2    H7 9406   2.802   0.392  15.466  0.5049 -1.2644 -2.0995
  632TMC3    C1 9407   2.842   0.595  15.330 -0.5307 -0.2859 -0.3288
  632TMC3    C2 9408   2.714   0.586  15.368  0.4481 -0.1823  0.4199
  632TMC3    C3 9409   2.612   0.561  15.282 -0.3842 -0.6587 -0.4990
  632TMC3    C4 9410   2.874   0.575  15.197 -0.3761  0.8133 -0.5268
  632TMC3    C5 9411   2.776   0.555  15.106 -0.4137  0.0032 -0.9095
  632TMC3    C6 9412   2.649   0.537  15.150 -0.3781 -0.0932  0.5849
  632TMC3     C 9413   2.947   0.527  15.413 -0.4353  0.1302  0.3545
  632TMC3     O 9414   3.056   0.577  15.388  0.1548  0.0466  0.4431
  632TMC3     H 9415   2.690   0.589  15.473 -1.0880  3.1979 -0.0331
  632TMC3    H1 9416   2.977   0.580  15.164  0.4996  2.3297  2.4205
  632TMC3    H2 9417   2.572   0.506  15.080 -0.8211  0.9321  0.6025
  632TMC3    C7 9418   2.813   0.515  14.976  0.4174  0.3325 -0.5915
  632TMC3    C8 9419   2.479   0.551  15.338 -0.2964  0.2602  0.8922
  632TMC3    O1 9420   2.757   0.414  14.942  0.3395 -0.7388  0.6569
  632TMC3    O2 9421   2.482   0.534  15.460  0.6647 -0.4210 -0.3396
  633MPD2     C 9422   2.176   2.802  17.375  0.3897  0.4126 -0.2000
  633MPD2    C1 9423   2.253   2.726  17.294  0.2012  0.8466  0.0783
  633MPD2    C2 9424   2.313   2.611  17.346  0.0272  0.3716 -0.3971
  633MPD2    C3 9425   2.293   2.568  17.479  0.0291 -0.3873 -0.4422
  633MPD2    C4 9426   2.216   2.650  17.556  0.4006  0.0348  0.4324
  633MPD2    C5 9427   2.166   2.763  17.502  0.3512  0.0603  0.4003
  633MPD2     H 9428   2.369   2.545  17.281 -0.4759 -0.0637 -0.3916
  633MPD2    H1 9429   2.194   2.618  17.657 -0.9961  0.5884  0.3074
  633MPD2    H2 9430   2.138   2.897  17.340  2.3554  1.2865  0.0372
  633MPD2    H3 9431   2.114   2.827  17.573 -1.8283 -0.3650 -0.8000
  633MPD2     N 9432   2.354   2.451  17.537 -0.1223  0.0074  0.0938
  633MPD2    H5 9433   2.336   2.427  17.633  1.5344 -1.2948  0.0637
  633MPD2    N1 9434   2.286   2.764  17.160  0.7595  0.0383  1.0506
  633MPD2    H7 9435   2.364   2.711  17.123 -0.4337 -2.3263  1.9573
  634TMC3    C1 9436   2.321   2.914  16.982  0.3845 -0.0289  0.0394
  634TMC3    C2 9437   2.376   2.807  16.914  0.6969 -0.1117  0.4746
  634TMC3    C3 9438   2.411   2.834  16.790 -0.0126  0.7756  0.0286
  634TMC3    C4 9439   2.328   3.048  16.942  0.2210  0.1966  0.4836
  634TMC3    C5 9440   2.369   3.069  16.812 -0.9603 -0.4162 -0.0370
  634TMC3    C6 9441   2.412   2.964  16.737 -0.3075  0.5889  0.1120
  634TMC3     C 9442   2.253   2.882  17.099  0.3265  0.1931  0.3305
  634TMC3     O 9443   2.173   2.968  17.135  0.2500 -0.0488 -0.2407
  634TMC3     H 9444   2.357   2.707  16.952  1.8118 -1.4830 -2.6377
  634TMC3    H1 9445   2.299   3.133  17.003 -1.0348  1.5806 -2.0439
  634TMC3    H2 9446   2.449   2.982  16.636 -2.2979 -2.8319 -1.2437
  634TMC3    C7 9447   2.321   3.186  16.735  1.0144 -0.6512 -0.5687
  634TMC3    C8 9448   2.494   2.736  16.728 -0.3636  0.2118 -0.8860
  634TMC3    O1 9449   2.342   3.188  16.616 -0.0376 -0.4200 -0.4108
  634TMC3    O2 9450   2.510   2.627  16.790 -0.3813  0.0842 -0.4852
  635TMC3    C1 9451   2.067   4.014   0.361  0.5352  0.0863 -0.7979
  635TMC3    C2 9452   2.021   3.912   0.441  0.1242 -0.7351 -0.4262
  635TMC3    C3 9453   2.034   3.781   0.398  0.6697  0.3421  0.1482
  635TMC3    C4 9454   2.131   3.988   0.243  0.8712 -0.4520  0.0001
  635TMC3    C5 9455   2.150   3.859   0.209  0.0680 -0.1296  0.7325
  635TMC3    C6 9456   2.115   3.747   0.288  0.3344 -0.0973 -0.3982
  635TMC3     C 9457   2.106   4.145   0.420 -0.6452 -0.6461  0.2556
  635TMC3     O 9458   2.181   4.222   0.367  0.2535 -0.4891 -0.1354
  635TMC3     H 9459   1.977   3.933   0.538  1.1014  2.1851 -0.6030
  635TMC3    H1 9460   2.167   4.073   0.186  1.4010 -0.4762  0.3020
  635TMC3    H2 9461   2.116   3.647   0.246 -0.3108  0.9644 -2.9945
  635TMC3    C7 9462   2.202   3.837   0.079  0.1373  0.2737  0.1524
  635TMC3    C8 9463   1.963   3.684   0.473  0.1706  0.2404  0.1105
  635TMC3    O1 9464   2.197   3.930   0.002  0.4766 -0.2552 -0.1251
  635TMC3    O2 9465   1.851   3.701   0.520 -0.0775  0.4027  0.2253
  636MPD2     C 9466   3.591   3.262  16.103  0.2750 -0.2855  0.0727
  636MPD2    C1 9467   3.634   3.246  16.232  0.9148 -0.3052  1.0037
  636MPD2    C2 9468   3.681   3.123  16.279 -0.3606  0.0468 -0.5946
  636MPD2    C3 9469   3.673   3.007  16.204 -0.5815 -0.7977 -0.1258
  636MPD2    C4 9470   3.634   3.019  16.070  0.3810 -0.4846  0.3116
  636MPD2    C5 9471   3.608   3.150  16.027  0.0000  0.4026 -0.1848
  636MPD2     H 9472   3.715   3.114  16.382 -0.2106 -2.3915 -0.8763
  636MPD2    H1 9473   3.626   2.937  16.000 -3.0997 -0.6855  0.9419
  636MPD2    H2 9474   3.560   3.351  16.050  0.7968 -1.1116 -1.6036
  636MPD2    H3 9475   3.569   3.171  15.928  1.6185 -2.8589 -1.5196
  636MPD2     N 9476   3.720   2.886  16.260 -0.2130 -0.3798 -0.1601
  636MPD2    H5 9477   3.756   2.888  16.355  0.9987 -0.2658 -0.6214
  636MPD2    N1 9478   3.629   3.347  16.328 -0.4833  0.1781  0.3073
  636MPD2    H7 9479   3.681   3.325  16.412  0.9618 -0.6477 -0.8104
  637TMC3    C1 9480   3.817   2.676  16.253  0.7193  0.4394 -0.5931
  637TMC3    C2 9481   3.838   2.701  16.384  0.9696 -0.3028 -0.1854
  637TMC3    C3 9482   3.971   2.703  16.423  0.3497 -0.3974 -0.8142
  637TMC3    C4 9483   3.912   2.635  16.168 -0.1449 -0.5932 -0.2790
  637TMC3    C5 9484   4.041   2.645  16.202  0.0530  0.3808  0.5383
  637TMC3    C6 9485   4.068   2.676  16.328  0.2230  0.2799 -0.0530
  637TMC3     C 9486   3.731   2.771  16.187  0.0841  0.1141 -0.5424
  637TMC3     O 9487   3.714   2.745  16.069 -0.5393 -0.4807  0.7361
  637TMC3     H 9488   3.754   2.720  16.450  1.6489 -2.5763  1.3466
  637TMC3    H1 9489   3.892   2.607  16.065  0.2905 -0.0498 -0.5132
  637TMC3    H2 9490   4.174   2.678  16.348  0.0126 -2.1838  1.2625
  637TMC3    C7 9491   4.120   2.703  16.089 -0.1538  0.5617 -0.0150
  637TMC3    C8 9492   4.007   2.825  16.488  0.3910  0.2945 -0.0999
  637TMC3    O1 9493   4.114   2.661  15.976  0.0033  0.4944  0.2574
  637TMC3    O2 9494   4.092   2.885  16.423 -0.7921  0.2503 -0.3690
  638MPD2     C 9495   3.478   2.203  14.828 -0.5589 -0.5801 -0.7221
  638MPD2    C1 9496   3.431   2.110  14.739  0.2322 -0.2364 -0.2837
  638MPD2    C2 9497   3.434   1.978  14.784  0.0788 -0.0204  0.0084
  638MPD2    C3 9498   3.494   1.943  14.905 -0.4850  0.3924 -0.0513
  638MPD2    C4 9499   3.547   2.038  14.988  0.0826  0.6627 -0.3798
  638MPD2    C5 9500   3.533   2.167  14.948 -0.2620 -0.2273  0.5661
  638MPD2     H 9501   3.410   1.898  14.714 -0.9950  0.2240  0.1058
  638MPD2    H1 9502   3.583   2.013  15.087  1.7337 -1.1478 -1.4372
  638MPD2    H2 9503   3.477   2.308  14.801 -1.9026 -0.6040 -0.7868
  638MPD2    H3 9504   3.582   2.248  15.001  1.6033 -0.4829 -0.7647
  638MPD2     N 9505   3.522   1.804  14.932 -0.0786 -0.2681  0.3987
  638MPD2    H5 9506   3.594   1.780  15.001  1.2222  1.8719 -0.2169
  638MPD2    N1 9507   3.406   2.141  14.602  0.1620 -0.0618  0.5130
  638MPD2    H7 9508   3.405   2.237  14.570 -1.0877 -0.5877 -1.0270
  639TMC3    C1 9509   3.529   1.582  14.853 -0.3743 -0.5256 -1.0143
  639TMC3    C2 9510   3.460   1.473  14.872 -0.5403 -0.3283 -0.0037
  639TMC3    C3 9511   3.501   1.360  14.805 -0.8634  0.6575 -0.0036
  639TMC3    C4 9512   3.637   1.589  14.776  0.2804 -0.2788  0.0729
  639TMC3    C5 9513   3.683   1.468  14.716 -0.0033  0.4438 -0.5115
  639TMC3    C6 9514   3.615   1.351  14.729 -0.3596  0.5665 -0.4454
  639TMC3     C 9515   3.455   1.703  14.872  0.0971 -0.0441 -0.5624
  639TMC3     O 9516   3.338   1.699  14.836 -0.6699 -0.9392 -0.0141
  639TMC3     H 9517   3.374   1.473  14.939 -0.6564  0.3850 -0.1585
  639TMC3    H1 9518   3.682   1.679  14.736 -1.1523 -0.3909 -1.8123
  639TMC3    H2 9519   3.629   1.263  14.666  0.1381  1.4214 -1.5387
  639TMC3    C7 9520   3.762   1.463  14.588 -0.8141 -0.4222  0.5926
  639TMC3    C8 9521   3.402   1.292  14.724  0.7877  0.2640  0.6709
  639TMC3    O1 9522   3.807   1.357  14.553 -0.0699 -0.2595  0.0529
  639TMC3    O2 9523   3.416   1.298  14.604 -0.0713 -0.6224  0.1146
  640MPD2     C 9524   4.590   1.034  10.281 -0.2541 -0.2225  0.0124
  640MPD2    C1 9525   4.661   1.156  10.288 -0.1563  0.6689  0.3889
  640MPD2    C2 9526   4.601   1.267  10.357  0.0786 -0.0331  1.0250
  640MPD2    C3 9527   4.486   1.250  10.427  0.0023 -0.4876 -0.4745
  640MPD2    C4 9528   4.433   1.120  10.449  0.2416 -0.1977  0.7862
  640MPD2    C5 9529   4.482   1.016  10.372 -0.6150 -0.1904 -0.3308
  640MPD2     H 9530   4.639   1.367  10.340  1.3187 -1.2546 -3.5452
  640MPD2    H1 9531   4.351   1.098  10.515 -1.0030  0.7713 -0.4279
  640MPD2    H2 9532   4.623   0.953  10.217  2.1174 -1.7435  3.1555
  640MPD2    H3 9533   4.436   0.919  10.385 -1.1360  0.1503  0.3352
  640MPD2     N 9534   4.430   1.362  10.497  0.2665  1.1220  0.6166
  640MPD2    H5 9535   4.344   1.343  10.548 -0.6954  2.1837 -0.5930
  640MPD2    N1 9536   0.033   1.169  10.205  0.0359 -0.7837 -0.0799
  640MPD2    H7 9537   0.062   1.097  10.139  3.4165  0.1521  0.3788
  641TMC3    C1 9538   0.206   1.272  10.086 -0.3449  1.0733  0.2856
  641TMC3    C2 9539   0.259   1.152  10.066  0.6146  0.7144  0.1580
  641TMC3    C3 9540   0.330   1.138   9.953  0.0413 -0.5054 -0.2631
  641TMC3    C4 9541   0.210   1.381  10.000 -0.2497  0.4179 -0.0139
  641TMC3    C5 9542   0.294   1.367   9.885  0.6673  0.5754 -0.6147
  641TMC3    C6 9543   0.354   1.243   9.863  0.1135 -0.1743 -0.1718
  641TMC3     C 9544   0.106   1.291  10.190  0.5974 -0.1439  0.1643
  641TMC3     O 9545   0.077   1.404  10.223 -0.3256  0.1453 -0.0006
  641TMC3     H 9546   0.245   1.067  10.131 -0.5982  0.9666  0.2255
  641TMC3    H1 9547   0.165   1.478  10.018  2.3269  1.9674 -1.9617
  641TMC3    H2 9548   0.421   1.226   9.780  0.2363  0.3517 -0.1814
  641TMC3    C7 9549   0.320   1.477   9.788 -0.1350 -0.6826 -0.1568
  641TMC3    C8 9550   0.387   1.011   9.904  0.1032 -0.7181  0.2399
  641TMC3    O1 9551   0.308   1.450   9.667  0.1641  0.7427  0.0658
  641TMC3    O2 9552   0.411   1.010   9.785 -0.1074 -0.1450  0.3479
  642TMC3    C1 9553   0.281   1.652  12.828 -0.2134  0.3504 -0.1847
  642TMC3    C2 9554   0.420   1.648  12.836  0.1379 -0.2002  0.1789
  642TMC3    C3 9555   0.479   1.529  12.812 -0.8380 -0.0437 -0.3237
  642TMC3    C4 9556   0.211   1.537  12.794  0.5075 -0.3487 -0.6295
  642TMC3    C5 9557   0.271   1.418  12.786  0.0896  1.0520 -0.2651
  642TMC3    C6 9558   0.406   1.414  12.789  0.6888 -0.0750 -0.1132
  642TMC3     C 9559   0.220   1.780  12.846  0.1289 -0.0710 -0.4054
  642TMC3     O 9560   0.296   1.866  12.882  0.2752 -0.1451  0.0203
  642TMC3     H 9561   0.480   1.734  12.863 -0.1688 -0.2976  1.1812
  642TMC3    H1 9562   0.103   1.542  12.807  0.7579  1.0742  0.8279
  642TMC3    H2 9563   0.454   1.317  12.785 -1.9276 -1.3802 -0.1406
  642TMC3    C7 9564   0.192   1.300  12.810  0.1016  0.1496 -0.6149
  642TMC3    C8 9565   0.622   1.511  12.817 -1.0347 -0.1525  0.0708
  642TMC3    O1 9566   0.095   1.331  12.879  0.3277  0.7605 -0.3171
  642TMC3    O2 9567   0.661   1.394  12.803  0.7334  0.3413 -0.3047
  643TMC3    C1 9568   3.812   1.285   0.326  0.0203 -0.1008  0.5462
  643TMC3    C2 9569   3.704   1.370   0.280 -0.4215 -0.5855 -0.8335
  643TMC3    C3 9570   3.649   1.352   0.155 -0.0711 -0.2852  0.3194
  643TMC3    C4 9571   3.855   1.180   0.252  0.4899 -0.0789 -0.2418
  643TMC3    C5 9572   3.802   1.172   0.124  0.0437 -0.5760 -0.8671
  643TMC3    C6 9573   3.701   1.256   0.070 -0.4511 -0.3328 -0.4548
  643TMC3     C 9574   3.859   1.305   0.455  0.7716  0.7846 -0.8530
  643TMC3     O 9575   3.787   1.357   0.537  0.0998 -0.3734  0.0059
  643TMC3     H 9576   3.681   1.451   0.348 -1.6738 -2.0160  0.4440
  643TMC3    H1 9577   3.932   1.111   0.283  0.4073  0.6182  1.4906
  643TMC3    H2 9578   3.665   1.239  17.720  0.8985 -2.4765 -0.5789
  643TMC3    C7 9579   3.890   1.119   0.023  0.6225 -0.3965  0.3720
  643TMC3    C8 9580   3.587   1.462   0.091  0.3890 -0.0128 -0.5232
  643TMC3    O1 9581   4.008   1.153   0.031  0.8340  0.5071 -0.4152
  643TMC3    O2 9582   3.530   1.542   0.163 -0.0130  0.7646 -0.1473
  644MPD2     C 9583   0.640   2.306   9.660  0.1286 -0.1570 -0.3145
  644MPD2    C1 9584   0.637   2.203   9.754  0.2973  0.0429  0.6051
  644MPD2    C2 9585   0.577   2.234   9.877 -0.1247 -0.4341 -0.0536
  644MPD2    C3 9586   0.516   2.357   9.901  0.8116 -0.3564  0.2465
  644MPD2    C4 9587   0.524   2.458   9.812 -0.5456  0.2988  0.8673
  644MPD2    C5 9588   0.586   2.426   9.695  0.3474  0.1276 -0.1997
  644MPD2     H 9589   0.578   2.166   9.961  2.0543  0.4476  0.6352
  644MPD2    H1 9590   0.470   2.551   9.824 -1.1116  0.2538 -1.4580
  644MPD2    H2 9591   0.680   2.307   9.559 -1.1944 -0.4733 -0.8447
  644MPD2    H3 9592   0.588   2.507   9.623  0.5008  0.8326  0.6017
  644MPD2     N 9593   0.455   2.375  10.029 -0.1216  0.5213 -0.3336
  644MPD2    H5 9594   0.458   2.294  10.090  2.0913  0.1076 -0.9953
  644MPD2    N1 9595   0.682   2.071   9.729 -0.5165  0.0261  0.6563
  644MPD2    H7 9596   0.657   2.006   9.803 -0.6580 -0.0605  0.5328
  645TMC3    C1 9597   0.306   2.471  10.194 -0.5775 -0.1910 -0.0964
  645TMC3    C2 9598   0.366   2.414  10.294  0.3630 -0.2583 -1.0535
  645TMC3    C3 9599   0.332   2.439  10.426  0.0778  0.5301  0.7186
  645TMC3    C4 9600   0.192   2.549  10.213 -0.0753  0.0601 -0.2643
  645TMC3    C5 9601   0.164   2.582  10.343  0.3586  0.3231 -0.2447
  645TMC3    C6 9602   0.229   2.528  10.459 -0.2886 -0.4449 -0.2578
  645TMC3     C 9603   0.376   2.486  10.068  0.1560  0.0996 -0.4897
  645TMC3     O 9604   0.336   2.581  10.007 -0.0972 -0.2816  0.2606
  645TMC3     H 9605   0.464   2.369  10.282 -0.2646 -1.6167 -1.1065
  645TMC3    H1 9606   0.132   2.569  10.125  1.0050 -0.2907 -1.0755
  645TMC3    H2 9607   0.201   2.540  10.563  1.3835  0.9458  0.0387
  645TMC3    C7 9608   0.035   2.646  10.360  0.5970 -0.4158 -0.7068
  645TMC3    C8 9609   0.430   2.400  10.522  0.1435  0.7068  0.0177
  645TMC3    O1 9610   4.727   2.704  10.263 -0.3361 -0.6765  1.1397
  645TMC3    O2 9611   0.548   2.403  10.490  0.1232  0.0351 -0.2314
  646MPD2     C 9612   3.748   0.671  14.193  0.1541  0.3238 -0.4187
  646MPD2    C1 9613   3.671   0.671  14.309  0.0555  0.6930  0.0036
  646MPD2    C2 9614   3.542   0.722  14.301 -0.4720 -0.0154 -0.7874
  646MPD2    C3 9615   3.492   0.763  14.175 -0.5767 -0.4317  0.4220
  646MPD2    C4 9616   3.577   0.762  14.067 -0.4894 -0.1495 -0.3825
  646MPD2    C5 9617   3.702   0.709  14.071  0.4086  0.2790  0.6150
  646MPD2     H 9618   3.467   0.718  14.378  2.2035  3.0965  1.9955
  646MPD2    H1 9619   3.548   0.805  13.971  2.1243 -0.1177 -1.1445
  646MPD2    H2 9620   3.847   0.629  14.189  0.5980  1.4925 -1.7136
  646MPD2    H3 9621   3.759   0.700  13.979  3.4127  1.2846  2.3662
  646MPD2     N 9622   3.367   0.830  14.175  0.1309  0.0501  0.3659
  646MPD2    H5 9623   3.317   0.845  14.262 -0.6198  0.9976 -0.2232
  646MPD2    N1 9624   3.724   0.610  14.434 -0.2954 -0.9887  0.4093
  646MPD2    H7 9625   3.816   0.570  14.428  0.3701  0.6146 -0.1008
  647TMC3    C1 9626   3.743   0.549  14.662 -0.8296  0.2054 -0.0644
  647TMC3    C2 9627   3.679   0.494  14.767 -0.2996  0.0179 -0.6304
  647TMC3    C3 9628   3.749   0.416  14.851 -0.2138 -0.7846  0.2074
  647TMC3    C4 9629   3.882   0.531  14.651 -0.2163 -0.2665  0.0765
  647TMC3    C5 9630   3.945   0.460  14.744  0.4587  0.1518 -0.5503
  647TMC3    C6 9631   3.886   0.403  14.846 -0.2112  0.4738  0.3800
  647TMC3     C 9632   3.667   0.608  14.553  0.3141 -0.1536  1.5018
  647TMC3     O 9633   3.552   0.649  14.579 -0.3787 -1.0014  0.2478
  647TMC3     H 9634   3.572   0.505  14.780 -0.0339  0.4069  1.2571
  647TMC3    H1 9635   3.940   0.594  14.584  0.7634  0.1671  1.3482
  647TMC3    H2 9636   3.928   0.316  14.894  0.4749  0.6886  0.1701
  647TMC3    C7 9637   4.090   0.460  14.743  0.1200  0.5657  0.5139
  647TMC3    C8 9638   3.700   0.369  14.971 -0.8171 -0.6567  1.0371
  647TMC3    O1 9639   4.143   0.491  14.643 -0.1522 -0.0646 -0.0101
  647TMC3    O2 9640   3.772   0.366  15.071  0.4101  0.3148 -0.3040
  648TMC3    C1 9641   2.935   2.912  16.176 -0.6386 -0.2926  0.5788
  648TMC3    C2 9642   2.987   2.792  16.141  0.1630 -0.4347  0.4292
  648TMC3    C3 9643   2.996   2.774  16.006 -1.4210  0.4852  0.3603
  648TMC3    C4 9644   2.888   3.003  16.088  0.7948  0.2975 -0.1928
  648TMC3    C5 9645   2.900   2.982  15.957 -0.2106 -0.3507 -0.1214
  648TMC3    C6 9646   2.957   2.865  15.907  1.1678  0.5321 -0.0097
  648TMC3     C 9647   2.906   2.956  16.314 -0.6270  0.1608  0.3981
  648TMC3     O 9648   2.876   3.071  16.331 -0.9119 -0.2608 -0.3012
  648TMC3     H 9649   3.024   2.724  16.217 -1.2606  0.0716  1.5711
  648TMC3    H1 9650   2.844   3.097  16.118 -2.1850 -1.2596  0.3180
  648TMC3    H2 9651   2.977   2.853  15.802 -0.2224 -1.2762 -0.0710
  648TMC3    C7 9652   2.850   3.080  15.860  0.9368  0.1349  0.2286
  648TMC3    C8 9653   3.074   2.665  15.953 -0.5295 -0.1802  0.1977
  648TMC3    O1 9654   2.896   3.078  15.745  0.7154  0.0631 -0.0464
  648TMC3    O2 9655   3.111   2.674  15.837  0.0826  0.6495  0.0598
  649TMC3    C1 9656   1.743   4.015  13.148  0.2576  0.1154 -0.7458
  649TMC3    C2 9657   1.874   4.053  13.165 -0.1142  0.0124  0.1231
  649TMC3    C3 9658   1.934   4.001  13.281 -0.1116 -0.0687 -0.2925
  649TMC3    C4 9659   1.675   3.941  13.234  0.0740 -0.8688 -0.5374
  649TMC3    C5 9660   1.738   3.885  13.335  0.2114  0.3837  0.3969
  649TMC3    C6 9661   1.870   3.912  13.362 -0.5008  0.2419  0.3728
  649TMC3     C 9662   1.680   4.034  13.013 -0.6088 -0.2121 -0.1848
  649TMC3     O 9663   1.565   4.071  13.004 -0.1574 -0.2360  0.4532
  649TMC3     H 9664   1.923   4.116  13.092 -2.0413 -0.6445 -1.7340
  649TMC3    H1 9665   1.570   3.926  13.213 -0.2763 -0.5516  0.9764
  649TMC3    H2 9666   1.921   3.876  13.451  0.1698  2.5130  0.9053
  649TMC3    C7 9667   1.667   3.802  13.432 -0.0371  0.0184  0.2946
  649TMC3    C8 9668   2.059   4.050  13.324  0.0503  0.1746  0.2090
  649TMC3    O1 9669   1.714   3.776  13.543  0.6392  0.1948  0.7200
  649TMC3    O2 9670   2.120   3.987  13.409  0.0138 -0.2302  0.3615
  650TMC3    C1 9671   4.457   0.766  12.791  0.1244 -0.3474 -0.5953
  650TMC3    C2 9672   4.350   0.851  12.823  1.3836 -0.5680 -0.2630
  650TMC3    C3 9673   4.341   0.966  12.747 -0.0644 -0.1733  0.6254
  650TMC3    C4 9674   4.551   0.794  12.696 -0.3560  0.1479 -0.8599
  650TMC3    C5 9675   4.532   0.905  12.617  0.5361  0.5311 -0.3063
  650TMC3    C6 9676   4.429   0.989  12.646 -0.7323 -0.4252 -0.0615
  650TMC3     C 9677   4.521   0.699  12.910 -0.2159  0.1009 -0.1587
  650TMC3     O 9678   4.526   0.768  13.011  0.4061 -0.2543 -0.6926
  650TMC3     H 9679   4.309   0.836  12.922  1.2701  0.8652 -0.0948
  650TMC3    H1 9680   4.638   0.730  12.690  1.1231  1.9361  1.7498
  650TMC3    H2 9681   4.403   1.066  12.575 -0.8999 -1.2064 -0.8429
  650TMC3    C7 9682   4.623   0.946  12.513 -0.3035  1.0554 -0.4864
  650TMC3    C8 9683   4.241   1.079  12.767  0.2384 -0.2320 -0.3501
  650TMC3    O1 9684   4.693   0.866  12.454 -0.6634 -0.0328 -0.0822
  650TMC3    O2 9685   4.240   1.161  12.674 -0.0545 -0.4379 -0.3932
  651MPD2     C 9686   3.920   3.158  10.555 -0.7341 -0.2831  0.1017
  651MPD2    C1 9687   3.916   3.278  10.619  0.5358  0.1303  0.5887
  651MPD2    C2 9688   4.017   3.365  10.609 -0.4165  0.1942  0.6695
  651MPD2    C3 9689   4.124   3.328  10.524 -0.1491  0.4568 -0.1084
  651MPD2    C4 9690   4.127   3.211  10.456  0.3565  0.0375 -0.8149
  651MPD2    C5 9691   4.028   3.125  10.481  0.2048 -0.0644 -0.2224
  651MPD2     H 9692   4.024   3.458  10.665  0.2603 -0.1838  1.2167
  651MPD2    H1 9693   4.207   3.179  10.390  0.4636  1.8216 -1.5509
  651MPD2    H2 9694   3.843   3.082  10.558  0.9381 -2.0157 -0.8913
  651MPD2    H3 9695   4.033   3.022  10.446 -0.5628 -0.4056  0.6557
  651MPD2     N 9696   4.221   3.425  10.512 -0.4660 -0.1377 -0.3393
  651MPD2    H5 9697   4.210   3.513  10.561 -2.4766  0.1777 -1.3367
  651MPD2    N1 9698   3.817   3.306  10.716  0.4246 -0.0355  0.6245
  651MPD2    H7 9699   3.830   3.394  10.766  2.1781  0.2672 -0.3579
  652TMC3    C1 9700   4.648   3.598  10.402  0.0432  0.1146  0.2470
  652TMC3    C2 9701   4.547   3.510  10.389  0.0062  0.0521  0.0954
  652TMC3    C3 9702   4.433   3.525  10.460 -0.4163  0.2298  0.5402
  652TMC3    C4 9703   4.634   3.709  10.484 -0.4194 -0.1896  0.1616
  652TMC3    C5 9704   4.519   3.715  10.562  0.3221 -0.0608 -0.0292
  652TMC3    C6 9705   4.417   3.626  10.556  0.3018  0.3737  0.3051
  652TMC3     C 9706   0.033   3.534  10.422 -0.2770 -0.4019  0.1479
  652TMC3     O 9707   0.084   3.570  10.530  0.3958  0.5950  0.0232
  652TMC3     H 9708   4.567   3.421  10.329 -2.1395  0.4503 -1.2168
  652TMC3    H1 9709   4.723   3.768  10.502  0.1328 -1.9047  3.0892
  652TMC3    H2 9710   4.330   3.637  10.620 -0.7873  0.6425 -1.2185
  652TMC3    C7 9711   4.531   3.796  10.679 -0.1936  0.4276 -0.9323
  652TMC3    C8 9712   4.339   3.412  10.441 -0.4988  0.7060  0.8839
  652TMC3    O1 9713   4.481   3.748  10.778 -0.1002 -0.1387  0.5069
  652TMC3    O2 9714   4.364   3.334  10.353  0.1176  0.2905  0.1702
  653MPD2     C 9715   2.017   3.178   0.095 -0.2529  1.0865 -0.3008
  653MPD2    C1 9716   1.950   3.223  17.738 -0.7136  0.4328 -1.2707
  653MPD2    C2 9717   1.881   3.129  17.658  0.0486 -0.2728 -0.5146
  653MPD2    C3 9718   1.881   2.991  17.684  0.9727 -0.7079  0.6204
  653MPD2    C4 9719   1.939   2.955   0.054  0.8858 -0.4436  0.0063
  653MPD2    C5 9720   2.008   3.046   0.126 -0.4559  0.7886  0.0158
  653MPD2     H 9721   1.830   3.176  17.575 -1.5113  1.6324  1.5030
  653MPD2    H1 9722   1.945   2.854   0.094 -1.8800 -0.9464 -0.8464
  653MPD2    H2 9723   2.083   3.248   0.145  0.2108  1.4422 -1.4045
  653MPD2    H3 9724   2.059   3.012   0.215  0.8196  0.6795 -0.7407
  653MPD2     N 9725   1.828   2.902  17.588 -0.2422 -0.1084 -0.2531
  653MPD2    H5 9726   1.789   2.944  17.504  0.6779  1.3893  0.0811
  653MPD2    N1 9727   1.943   3.358  17.691  0.0536  0.4183 -0.2936
  653MPD2    H7 9728   1.903   3.379  17.601 -0.4936 -0.9173 -0.3632
  654TMC3    C1 9729   1.779   2.691  17.491 -0.3082 -0.4786 -0.2073
  654TMC3    C2 9730   1.675   2.747  17.436  0.1700 -0.3919 -0.2652
  654TMC3    C3 9731   1.655   2.710  17.305 -0.0326  1.2406 -0.4008
  654TMC3    C4 9732   1.876   2.609  17.428  0.0345 -0.6833  0.5976
  654TMC3    C5 9733   1.855   2.579  17.301 -0.4546 -0.1234  0.0444
  654TMC3    C6 9734   1.748   2.633  17.234 -0.8230  0.3204  0.6759
  654TMC3     C 9735   1.827   2.764  17.607  0.3087 -0.2957  0.1571
  654TMC3     O 9736   1.893   2.702  17.689 -0.2980  0.4543  0.1548
  654TMC3     H 9737   1.599   2.795  17.496  0.3296 -0.5734  0.0856
  654TMC3    H1 9738   1.955   2.569  17.490 -1.1219 -0.4052  2.2554
  654TMC3    H2 9739   1.723   2.591  17.138 -1.4195 -1.0901  1.4506
  654TMC3    C7 9740   1.960   2.524  17.215  0.4146  0.0314 -0.5976
  654TMC3    C8 9741   1.580   2.800  17.229  0.0126  0.0236 -0.1745
  654TMC3    O1 9742   1.981   2.571  17.104  0.3691 -0.1195 -0.1316
  654TMC3    O2 9743   1.516   2.890  17.281  0.2073 -0.4864 -0.3868
  655MPD2     C 9744   3.383   3.080  15.666  1.0495 -0.4317  0.1103
  655MPD2    C1 9745   3.300   3.178  15.621 -0.2416 -0.4491 -0.3212
  655MPD2    C2 9746   3.261   3.186  15.485  0.0419  0.0597  0.0052
  655MPD2    C3 9747   3.300   3.089  15.392 -0.2948  0.4350  0.5246
  655MPD2    C4 9748   3.382   2.992  15.441 -0.4335 -0.3394  0.6123
  655MPD2    C5 9749   3.425   2.991  15.572 -0.6073 -0.4153 -0.7325
  655MPD2     H 9750   3.202   3.273  15.461 -1.1476 -0.4894  0.9203
  655MPD2    H1 9751   3.425   2.916  15.378  0.2278  1.4061 -1.0118
  655MPD2    H2 9752   3.406   3.070  15.772 -0.3655  0.8851  0.5471
  655MPD2    H3 9753   3.491   2.913  15.608  0.9996  0.8032 -1.0221
  655MPD2     N 9754   3.270   3.091  15.253  0.3687  0.7382  0.0631
  655MPD2    H5 9755   3.303   3.012  15.199  0.7716  1.3480 -0.5797
  655MPD2    N1 9756   3.249   3.283  15.704 -0.0727 -0.7100 -0.0584
  655MPD2    H7 9757   3.182   3.347  15.663  1.2936 -0.5092 -1.9756
  656TMC3    C1 9758   3.208   3.420  15.895  0.2456 -0.4032 -0.1463
  656TMC3    C2 9759   3.139   3.398  16.013  0.1923 -0.2402 -0.5251
  656TMC3    C3 9760   3.045   3.500  16.046 -0.3191  0.0464  0.2856
  656TMC3    C4 9761   3.194   3.535  15.820 -0.1288 -0.0460 -0.4865
  656TMC3    C5 9762   3.107   3.632  15.868 -0.3210 -0.3913 -0.0828
  656TMC3    C6 9763   3.029   3.619  15.974  0.0680  0.0288  0.6344
  656TMC3     C 9764   3.277   3.305  15.839  0.6691 -0.0790 -0.7729
  656TMC3     O 9765   3.329   3.237  15.925  0.0770 -0.4527 -0.1510
  656TMC3     H 9766   3.147   3.308  16.072 -1.4347 -0.5297 -0.7447
  656TMC3    H1 9767   3.251   3.552  15.730 -2.5382 -1.2918 -2.2395
  656TMC3    H2 9768   2.951   3.692  15.994 -1.8165 -2.6106  2.9664
  656TMC3    C7 9769   3.065   3.716  15.762 -0.1376  0.1186  0.4089
  656TMC3    C8 9770   2.936   3.442  16.127  1.0360 -1.1970 -0.6773
  656TMC3    O1 9771   3.150   3.744  15.678 -0.2642  0.4548 -0.3117
  656TMC3    O2 9772   2.950   3.328  16.171  0.7443 -0.3324  0.1795
  657TMC3    C1 9773   2.446   2.377  14.653  0.4671 -0.1921  0.2873
  657TMC3    C2 9774   2.398   2.339  14.779 -0.0207  0.2448  0.0288
  657TMC3    C3 9775   2.332   2.436  14.852 -0.2779  0.3895  0.4218
  657TMC3    C4 9776   2.448   2.510  14.616 -0.2071 -0.0391  0.4556
  657TMC3    C5 9777   2.376   2.607  14.682 -0.7842  0.0434  0.2226
  657TMC3    C6 9778   2.318   2.565  14.799  0.3598 -0.0447 -0.1248
  657TMC3     C 9779   2.531   2.279  14.593 -0.0389  0.0502 -0.5045
  657TMC3     O 9780   2.517   2.252  14.474  0.2075  0.2376  0.3028
  657TMC3     H 9781   2.400   2.237  14.815  0.3393  0.1402 -0.2883
  657TMC3    H1 9782   2.504   2.535  14.526 -0.7854  1.9529  0.6426
  657TMC3    H2 9783   2.257   2.638  14.853  0.8048  0.4777 -0.3232
  657TMC3    C7 9784   2.391   2.740  14.654 -0.0011 -0.5448  0.6091
  657TMC3    C8 9785   2.266   2.400  14.975  0.4174  0.3919  0.3811
  657TMC3    O1 9786   2.491   2.774  14.592 -0.4558 -0.6036  0.1035
  657TMC3    O2 9787   2.179   2.483  15.008  0.5262  0.3628 -0.0398
  658MPD2     C 9788   3.575   2.836  14.801 -0.2977  0.1052 -0.4931
  658MPD2    C1 9789   3.466   2.881  14.736 -0.0486 -0.2270 -0.3148
  658MPD2    C2 9790   3.462   2.880  14.600 -0.0044  0.0286 -0.1654
  658MPD2    C3 9791   3.573   2.846  14.528  0.2323  0.1428  0.0251
  658MPD2    C4 9792   3.682   2.794  14.596  0.0461  1.0094  0.7216
  658MPD2    C5 9793   3.676   2.775  14.731 -0.0210  0.0791 -0.0151
  658MPD2     H 9794   3.380   2.931  14.551 -0.4211  0.3610  0.8802
  658MPD2    H1 9795   3.765   2.765  14.533 -0.0251 -0.3597  1.2509
  658MPD2    H2 9796   3.582   2.822  14.908 -0.3959 -2.8113 -0.8597
  658MPD2    H3 9797   3.760   2.730  14.781  0.1467  0.1924 -0.1961
  658MPD2     N 9798   3.579   2.862  14.387 -0.3884 -0.6512 -0.1038
  658MPD2    H5 9799   3.486   2.882  14.352  0.9090  2.1147 -2.0553
  658MPD2    N1 9800   3.362   2.931  14.819  0.2304  0.6152 -0.1271
  658MPD2    H7 9801   3.369   2.922  14.920 -2.7173  1.0754  0.1182
  659TMC3    C1 9802   3.161   3.033  14.864 -0.5055  0.0206 -0.4450
  659TMC3    C2 9803   3.212   3.077  14.988  0.5381  0.3548  0.0719
  659TMC3    C3 9804   3.130   3.141  15.070 -0.5659  0.3783  0.9716
  659TMC3    C4 9805   3.035   3.061  14.820 -0.5115  0.6873  0.0691
  659TMC3    C5 9806   2.948   3.125  14.907  0.0898 -0.1406  0.0947
  659TMC3    C6 9807   2.997   3.174  15.028  0.3160  0.0685  0.2045
  659TMC3     C 9808   3.248   2.979  14.763 -0.5200  0.3123 -0.6326
  659TMC3     O 9809   3.226   3.026  14.654 -0.4609  0.1036 -0.1368
  659TMC3     H 9810   3.318   3.061  15.006  0.3088  0.8123  1.8195
  659TMC3    H1 9811   3.000   3.034  14.721  0.1646 -0.9019  0.2687
  659TMC3    H2 9812   2.926   3.206  15.103 -0.7057 -0.4166 -0.5598
  659TMC3    C7 9813   2.808   3.113  14.881 -0.1493  0.4287  0.0707
  659TMC3    C8 9814   3.176   3.184  15.207  0.1642  0.4166 -0.4852
  659TMC3    O1 9815   2.764   3.020  14.820  0.1878  0.6213  0.0450
  659TMC3    O2 9816   3.097   3.262  15.260  0.4329  0.4910  0.2314
  660MPD2     C 9817   1.158   2.394  13.127  0.1922 -0.4440  0.2089
  660MPD2    C1 9818   1.182   2.266  13.085  0.0545  0.5948  0.3806
  660MPD2    C2 9819   1.176   2.162  13.177 -0.5094  0.5368  0.1812
  660MPD2    C3 9820   1.131   2.186  13.313  0.0066  0.2169  0.6521
  660MPD2    C4 9821   1.120   2.322  13.352 -0.1870 -0.5586 -0.0875
  660MPD2    C5 9822   1.128   2.420  13.260 -0.2219 -0.0714 -0.3417
  660MPD2     H 9823   1.162   2.063  13.136  0.4428  0.7078 -0.5380
  660MPD2    H1 9824   1.076   2.350  13.448 -1.4483 -2.0964 -0.2081
  660MPD2    H2 9825   1.157   2.481  13.062 -2.8526  0.0114  0.8640
  660MPD2    H3 9826   1.126   2.519  13.302  1.0454 -0.5253  0.7921
  660MPD2     N 9827   1.075   2.094  13.404 -0.1004 -0.5434 -0.0255
  660MPD2    H5 9828   1.053   2.127  13.498 -3.3377 -1.0026 -0.6417
  660MPD2    N1 9829   1.199   2.251  12.950 -0.4465 -0.1372 -0.1435
  660MPD2    H7 9830   1.193   2.336  12.894  1.5755  0.0579 -0.0436
  661TMC3    C1 9831   1.242   2.138  12.756 -0.4164 -0.0689  0.1547
  661TMC3    C2 9832   1.332   2.066  12.688  0.6675  0.1703  0.0274
  661TMC3    C3 9833   1.289   2.007  12.568 -0.1541 -0.4888  0.1861
  661TMC3    C4 9834   1.111   2.148  12.718  0.6024 -0.6110 -0.3437
  661TMC3    C5 9835   1.077   2.100  12.597 -0.0925  0.2158  0.1453
  661TMC3    C6 9836   1.158   2.022  12.523  0.8147 -0.0639 -0.1163
  661TMC3     C 9837   1.264   2.144  12.902  0.0154  0.0320  0.0783
  661TMC3     O 9838   1.301   2.042  12.958 -0.2239 -0.5636 -0.2390
  661TMC3     H 9839   1.434   2.060  12.723  0.8322 -0.2422 -0.5093
  661TMC3    H1 9840   1.032   2.182  12.785 -1.1995 -1.8494 -1.8312
  661TMC3    H2 9841   1.130   1.988  12.423  0.6985 -0.2221 -0.0291
  661TMC3    C7 9842   0.935   2.059  12.593 -0.1162  0.6026  0.2969
  661TMC3    C8 9843   1.375   1.909  12.504 -0.5833 -0.2335 -0.0505
  661TMC3    O1 9844   0.861   2.116  12.673  0.1976  0.4490  0.0285
  661TMC3    O2 9845   1.340   1.865  12.396 -0.1898  0.2464 -0.2158
  662MPD2     C 9846   1.798   1.884  16.930 -0.6241 -0.3887  0.0456
  662MPD2    C1 9847   1.775   1.747  16.959 -0.3469 -0.6677 -0.8728
  662MPD2    C2 9848   1.700   1.717  17.070 -0.8691 -0.2830  0.2293
  662MPD2    C3 9849   1.637   1.818  17.143  0.5979 -0.0731  0.1314
  662MPD2    C4 9850   1.658   1.952  17.110  0.0157  0.3090 -0.8059
  662MPD2    C5 9851   1.744   1.980  17.005 -0.1565 -0.5469 -0.2642
  662MPD2     H 9852   1.686   1.615  17.102 -3.0729 -0.4983 -1.4135
  662MPD2    H1 9853   1.611   2.030  17.168 -0.8111 -1.3920  0.8084
  662MPD2    H2 9854   1.860   1.923  16.850  1.8911  2.0769  3.2002
  662MPD2    H3 9855   1.763   2.084  16.981  1.3304 -1.2696 -2.2025
  662MPD2     N 9856   1.557   1.790  17.254 -0.0775 -0.0161 -0.4049
  662MPD2    H5 9857   1.524   1.867  17.312 -0.3273 -3.0562  3.5060
  662MPD2    N1 9858   1.806   1.645  16.863 -0.1977  0.1026  0.0515
  662MPD2    H7 9859   1.775   1.549  16.880 -3.5812  1.3392  0.8001
  663TMC3    C1 9860   1.908   1.543  16.680 -0.2564 -0.2904  0.6327
  663TMC3    C2 9861   2.042   1.509  16.697 -0.9885 -0.6206 -0.3857
  663TMC3    C3 9862   2.073   1.376  16.712  0.2248 -0.6696 -0.4167
  663TMC3    C4 9863   1.806   1.455  16.678 -0.5566  0.1087  0.1168
  663TMC3    C5 9864   1.842   1.325  16.689 -0.2614  0.4415  0.1560
  663TMC3    C6 9865   1.972   1.284  16.715  0.1773 -0.2489 -0.5986
  663TMC3     C 9866   1.885   1.668  16.752 -0.1425  0.2471  0.0182
  663TMC3     O 9867   1.975   1.754  16.738 -0.1503 -0.0784  0.3853
  663TMC3     H 9868   2.112   1.587  16.722 -1.0178 -0.6292 -0.2775
  663TMC3    H1 9869   1.700   1.478  16.675 -0.4524  0.7033  0.9963
  663TMC3    H2 9870   2.010   1.186  16.688  0.4961 -0.5517  0.9777
  663TMC3    C7 9871   1.752   1.227  16.625 -0.1261 -0.6238 -1.3418
  663TMC3    C8 9872   2.148   1.368  16.838 -0.0180 -0.5959  0.2134
  663TMC3    O1 9873   1.686   1.268  16.533 -0.4649 -0.3492  0.0880
  663TMC3    O2 9874   2.244   1.446  16.849  0.1466  0.1707  0.5693
  664MPD2     C 9875   4.552   0.493  17.459  0.9525  0.4476 -0.3662
  664MPD2    C1 9876   4.640   0.572  17.527 -0.3815 -0.5258 -0.3981
  664MPD2    C2 9877   4.608   0.604  17.655  0.1532 -0.1890  0.8709
  664MPD2    C3 9878   4.498   0.556  17.721  0.5306  0.0792  0.1721
  664MPD2    C4 9879   4.408   0.477  17.647 -0.7053  0.2364  1.1834
  664MPD2    C5 9880   4.437   0.447  17.516  0.0442  0.1587 -0.0923
  664MPD2     H 9881   4.676   0.662  17.716 -1.4126  1.6652  0.8728
  664MPD2    H1 9882   4.324   0.419  17.684 -0.6036  0.1638  1.3011
  664MPD2    H2 9883   4.578   0.458  17.359  1.8457  0.9040 -0.2966
  664MPD2    H3 9884   4.385   0.363  17.470 -1.3899 -0.8725  3.4017
  664MPD2     N 9885   4.480   0.588   0.104 -0.2675 -0.2559  0.1687
  664MPD2    H5 9886   4.541   0.657   0.147  1.9282 -2.2144  0.2404
  664MPD2    N1 9887   0.027   0.612  17.471  0.2191  0.1997  0.1216
  664MPD2    H7 9888   0.088   0.655  17.539  0.0131 -0.0055  0.4348
  665TMC3    C1 9889   4.371   0.607   0.304 -0.3500  0.8399  0.1072
  665TMC3    C2 9890   4.253   0.626   0.371  0.5176  0.6371 -0.2154
  665TMC3    C3 9891   4.255   0.646   0.507  0.1884  0.2624  0.3443
  665TMC3    C4 9892   4.495   0.602   0.371 -0.2769 -1.2928  0.0353
  665TMC3    C5 9893   4.495   0.634   0.505  0.6283 -0.2027 -0.1859
  665TMC3    C6 9894   4.373   0.660   0.575  0.2788  0.1598  0.0190
  665TMC3     C 9895   4.364   0.557   0.178  0.0676 -0.0705  0.5933
  665TMC3     O 9896   4.265   0.489   0.150  0.1313  0.6677  0.2186
  665TMC3     H 9897   4.167   0.631   0.305  1.7772 -1.2273 -2.0025
  665TMC3    H1 9898   4.591   0.597   0.320 -1.3570 -0.0681 -2.1108
  665TMC3    H2 9899   4.379   0.687   0.679  3.2276 -0.5528  0.0487
  665TMC3    C7 9900   4.623   0.661   0.558 -0.0890  0.2031  0.0091
  665TMC3    C8 9901   4.134   0.613   0.589  0.9931 -0.3980 -1.0014
  665TMC3    O1 9902   4.717   0.597   0.504 -0.4324  0.0740  0.9331
  665TMC3    O2 9903   4.146   0.622   0.709 -0.3152 -0.2223  0.1993
  666TMC3    C1 9904   4.280   4.704  10.083  0.8455  0.0442 -0.4699
  666TMC3    C2 9905   4.413   4.663  10.075 -0.2903 -0.0671  0.1788
  666TMC3    C3 9906   4.504   0.031  10.075  0.3159  0.2180  0.1433
  666TMC3    C4 9907   4.240   0.096  10.100  0.1207 -0.7754  0.6347
  666TMC3    C5 9908   4.339   0.197  10.098 -0.0406 -0.3663  0.3447
  666TMC3    C6 9909   4.473   0.160  10.079  1.0176 -0.2684  0.3384
  666TMC3     C 9910   4.184   4.600  10.124  0.5633 -0.8155 -0.4341
  666TMC3     O 9911   4.102   4.635  10.206  0.2993  0.4234 -0.0928
  666TMC3     H 9912   4.444   4.559  10.074  2.1547  0.6711  1.5085
  666TMC3    H1 9913   4.136   0.122  10.113 -0.5904 -1.8203 -2.8883
  666TMC3    H2 9914   4.550   0.235  10.089  1.8926 -1.2237  0.6936
  666TMC3    C7 9915   4.284   0.327  10.092 -0.8505 -0.4176 -0.2265
  666TMC3    C8 9916   4.641   4.733  10.089 -0.3739 -0.4109  0.1080
  666TMC3    O1 9917   4.164   0.343  10.124 -0.2267  1.2255 -0.4099
  666TMC3    O2 9918   4.667   4.622  10.145 -0.0420 -0.0800 -0.3152
  667MPD2     C 9919   0.192   0.193  14.742  0.2058 -0.2856 -0.5245
  667MPD2    C1 9920   0.210   0.077  14.813 -0.6424 -0.1222 -0.6105
  667MPD2    C2 9921   0.124   4.705  14.794  0.8109  0.3611  0.2208
  667MPD2    C3 9922   0.008   4.718  14.719  0.7967 -0.2431 -0.1289
  667MPD2    C4 9923   4.729   0.091  14.644 -0.6224 -0.0952 -0.1491
  667MPD2    C5 9924   0.078   0.195  14.660  0.0936 -0.6072 -0.1428
  667MPD2     H 9925   0.136   4.622  14.862 -2.1196  1.0611  1.5844
  667MPD2    H1 9926   4.640   0.112  14.586 -1.6291  1.3427  1.9123
  667MPD2    H2 9927   0.251   0.283  14.753  1.0985 -1.0816  1.2627
  667MPD2    H3 9928   0.061   0.287  14.605  0.9561  2.1102  4.1025
  667MPD2     N 9929   4.650   4.613  14.703  0.1976 -0.0910 -0.0804
  667MPD2    H5 9930   4.571   4.626  14.641 -0.8060 -2.0935  0.7808
  667MPD2    N1 9931   0.322   0.063  14.899 -0.3692 -0.5755  0.3908
  667MPD2    H7 9932   0.345   4.709  14.934  1.5971 -0.3750 -0.3505
  668TMC3    C1 9933   0.512   0.115  15.028 -0.1891  0.0935  0.2923
  668TMC3    C2 9934   0.639   0.178  15.034  0.0801 -0.0761  0.3938
  668TMC3    C3 9935   0.710   0.149  15.149  0.6429 -0.0322  0.1161
  668TMC3    C4 9936   0.466   0.033  15.125  0.5364 -0.6543  0.2946
  668TMC3    C5 9937   0.553   0.002  15.229 -0.7974  0.5579  0.3108
  668TMC3    C6 9938   0.676   0.060  15.247  0.3104  0.9165 -0.0772
  668TMC3     C 9939   0.428   0.154  14.921  0.4023 -0.1787  0.3363
  668TMC3     O 9940   0.434   0.273  14.894  0.7061  0.2044 -0.0870
  668TMC3     H 9941   0.658   0.272  14.984 -0.9305 -0.4927 -0.7427
  668TMC3    H1 9942   0.367   4.728  15.112  0.2320 -0.1895  1.0851
  668TMC3    H2 9943   0.735   0.037  15.335 -1.1937 -0.4963  0.5713
  668TMC3    C7 9944   0.491   4.686  15.345 -0.3784 -0.6757 -0.0046
  668TMC3    C8 9945   0.816   0.240  15.185  0.1317 -0.1442 -1.4281
  668TMC3    O1 9946   0.555   4.683  15.449 -0.2428  0.3390  0.0992
  668TMC3    O2 9947   0.847   0.239  15.304 -0.2192 -1.0758  0.0418
  669TMC3    C1 9948   3.428   4.508  14.885 -0.3191 -0.6667  0.0492
  669TMC3    C2 9949   3.332   4.434  14.823  0.2266  1.0736 -0.4474
  669TMC3    C3 9950   3.307   4.448  14.689 -0.7786 -0.3612 -1.1263
  669TMC3    C4 9951   3.511   4.593  14.815  0.1736 -0.6779 -0.1471
  669TMC3    C5 9952   3.479   4.606  14.680  0.7278 -0.1553 -0.3126
  669TMC3    C6 9953   3.381   4.540  14.613  0.0938 -0.3788  0.6316
  669TMC3     C 9954   3.482   4.465  15.007  0.1513 -0.5897 -0.2847
  669TMC3     O 9955   3.596   4.500  15.032  0.1167 -0.0251 -0.5462
  669TMC3     H 9956   3.281   4.355  14.877  0.1018  1.9848  0.7631
  669TMC3    H1 9957   3.594   4.654  14.848 -0.9761  1.2344 -0.7928
  669TMC3    H2 9958   3.361   4.570  14.511  0.1448 -1.4215  0.3086
  669TMC3    C7 9959   3.587   4.651  14.598  0.3798  0.2003  0.3764
  669TMC3    C8 9960   3.200   4.381  14.620 -0.4477 -0.0813  0.4441
  669TMC3    O1 9961   3.653   0.008  14.629  0.3060 -0.2775  0.1790
  669TMC3    O2 9962   3.206   4.373  14.497 -0.0031 -0.7004  0.0586
  670MPD2     C 9963   1.313   2.087  13.798  0.1220 -0.0713  0.2398
  670MPD2    C1 9964   1.440   2.107  13.752 -0.4817  0.1613 -0.0869
  670MPD2    C2 9965   1.520   2.186  13.830 -0.0660 -0.2429  0.3136
  670MPD2    C3 9966   1.486   2.241  13.952 -0.0303 -0.2384 -0.1238
  670MPD2    C4 9967   1.363   2.211  14.000 -0.0739  0.7261 -0.2640
  670MPD2    C5 9968   1.278   2.136  13.923  0.6170 -1.2383 -0.4307
  670MPD2     H 9969   1.620   2.203  13.791  1.0880 -2.4326  2.2596
  670MPD2    H1 9970   1.329   2.242  14.098 -0.7611 -1.8531  0.3209
  670MPD2    H2 9971   1.237   2.032  13.743  1.4790 -0.1834 -1.5255
  670MPD2    H3 9972   1.177   2.115  13.955 -0.0300 -0.1076 -1.7200
  670MPD2     N 9973   1.577   2.323  14.018 -0.7965  0.0700  0.5187
  670MPD2    H5 9974   1.676   2.303  14.004 -1.0542 -0.6631 -0.2494
  670MPD2    N1 9975   1.489   2.047  13.635 -0.2336  0.6734 -0.1903
  670MPD2    H7 9976   1.580   2.082  13.606 -0.3651  1.1695 -0.0003
  671TMC3    C1 9977   1.647   2.402  14.217 -0.1087  0.2366  0.2203
  671TMC3    C2 9978   1.769   2.368  14.149  0.0073  0.4324 -0.2122
  671TMC3    C3 9979   1.838   2.261  14.198  0.2229  0.0672  0.0266
  671TMC3    C4 9980   1.607   2.331  14.323 -0.7903 -0.5534  0.1011
  671TMC3    C5 9981   1.669   2.215  14.354  0.1038 -0.4165  0.0449
  671TMC3    C6 9982   1.786   2.176  14.294  0.4825  0.1310  0.5601
  671TMC3     C 9983   1.543   2.411  14.119  0.2290 -0.6227 -0.0287
  671TMC3     O 9984   1.433   2.445  14.157  0.2438  0.5902  0.3717
  671TMC3     H 9985   1.814   2.438  14.079 -1.2024 -0.4225 -1.8393
  671TMC3    H1 9986   1.505   2.345  14.356 -1.0870 -0.9063 -0.6817
  671TMC3    H2 9987   1.839   2.089  14.330  1.0388 -0.2439 -1.1402
  671TMC3    C7 9988   1.590   2.099  14.376  0.3455 -0.1064  0.6914
  671TMC3    C8 9989   1.949   2.202  14.126  0.5146 -0.1169 -0.1201
  671TMC3    O1 9990   1.622   2.006  14.301 -0.1096 -0.5869 -0.6357
  671TMC3    O2 9991   1.995   2.097  14.176 -0.0750 -0.2867  0.3629
  672MPD2     C 9992   1.768   2.962   1.010  0.1913 -0.6949  0.1023
  672MPD2    C1 9993   1.883   2.942   0.947 -1.0316  0.3197  0.6879
  672MPD2    C2 9994   1.983   3.033   0.967  0.3436  0.3021 -0.0305
  672MPD2    C3 9995   1.959   3.152   1.036 -0.5443  0.1526 -0.0817
  672MPD2    C4 9996   1.841   3.170   1.090 -0.6783  0.1340 -0.4893
  672MPD2    C5 9997   1.745   3.078   1.083  0.1360  0.0882 -0.6002
  672MPD2     H 9998   2.075   3.032   0.910 -0.5723  0.5072 -1.5063
  672MPD2    H1 9999   1.818   3.256   1.152  0.6962  0.3325 -0.2688
  672MPD2    H210000   1.685   2.892   1.011 -0.9752  0.6630 -0.7091
  672MPD2    H310001   1.646   3.099   1.124  0.2573 -0.5708  0.0460
  672MPD2     N10002   2.037   3.261   1.018 -0.1848 -0.0527  0.5837
  672MPD2    H510003   2.003   3.345   1.065  0.9004  0.0855  1.1005
  672MPD2    N110004   1.906   2.845   0.846 -0.5276 -0.1561 -0.9772
  672MPD2    H710005   1.995   2.844   0.798 -0.0527  1.0409 -0.1244
  673TMC3    C110006   1.865   2.689   0.682 -0.2899 -0.2722  0.0099
  673TMC3    C210007   1.981   2.616   0.697 -0.0443  0.3886 -0.1677
  673TMC3    C310008   2.004   2.541   0.586  0.0146 -0.3001  0.1819
  673TMC3    C410009   1.785   2.691   0.577  0.0937 -0.3622 -0.4572
  673TMC3    C510010   1.836   2.643   0.461  0.4194  0.0951 -0.2797
  673TMC3    C610011   1.941   2.560   0.469  0.7534  0.0318 -0.5991
  673TMC3     C10012   1.812   2.756   0.797  0.6499  0.2163 -0.5623
  673TMC3     O10013   1.693   2.768   0.810 -0.8492 -0.0047 -0.4239
  673TMC3     H10014   2.050   2.617   0.781 -1.8111 -0.2244  1.2883
  673TMC3    H110015   1.694   2.750   0.580  0.2115  0.0580 -5.7283
  673TMC3    H210016   1.985   2.514   0.381  0.2039  0.8575 -1.2991
  673TMC3    C710017   1.767   2.676   0.336 -0.1460  0.3822  0.3691
  673TMC3    C810018   2.133   2.480   0.581  0.6765  0.7492  0.5084
  673TMC3    O110019   1.781   2.589   0.251  0.1918 -0.2708 -0.1648
  673TMC3    O210020   2.134   2.360   0.567 -0.8630 -0.0529  0.5899
  674MPD2     C10021   1.990   1.811  17.314  0.3010 -0.8508  0.2818
  674MPD2    C110022   1.926   1.772  17.429 -0.1116 -0.1760  0.5336
  674MPD2    C210023   1.832   1.857  17.495 -0.0866  0.0517  0.1042
  674MPD2    C310024   1.823   1.984  17.454 -0.5036  0.0983  0.3318
  674MPD2    C410025   1.891   2.020  17.344 -0.1926  0.2580  0.4392
  674MPD2    C510026   1.976   1.939  17.274 -0.3931 -0.3920 -0.3790
  674MPD2     H10027   1.768   1.821  17.575 -0.5803  1.0079  0.1378
  674MPD2    H110028   1.893   2.126  17.320  0.9468  0.1139 -0.1067
  674MPD2    H210029   2.064   1.750  17.264  2.5443  1.6468  0.5231
  674MPD2    H310030   2.037   1.982  17.195 -0.5781  2.0990  0.8385
  674MPD2     N10031   1.747   2.072  17.533  0.2087  0.1037 -0.5039
  674MPD2    H510032   1.708   2.029  17.616  2.0632  1.6668  1.1819
  674MPD2    N110033   1.945   1.631  17.458  0.9199  0.0833 -0.3792
  674MPD2    H710034   1.994   1.577  17.387  2.0646  2.0730 -1.1131
  675TMC3    C110035   1.844   1.623  17.679  0.2223 -0.0479  0.7740
  675TMC3    C210036   1.737   1.569  17.728 -0.3452  0.7014 -0.4893
  675TMC3    C310037   1.684   1.610   0.095  0.3032 -0.0169 -0.1818
  675TMC3    C410038   1.921   1.706   0.001 -0.3500  0.0948 -1.0120
  675TMC3    C510039   1.872   1.740   0.119  0.6230 -0.3664 -0.2774
  675TMC3    C610040   1.753   1.699   0.174  0.1977 -0.2384 -0.0685
  675TMC3     C10041   1.910   1.560  17.571  0.5147  0.0007 -0.0023
  675TMC3     O10042   1.920   1.438  17.587  0.4028 -0.2137  0.5468
  675TMC3     H10043   1.696   1.495  17.660 -0.0844 -0.5230  0.6713
  675TMC3    H110044   2.020   1.738  17.724  0.3024  0.2781  1.4838
  675TMC3    H210045   1.710   1.737   0.265  0.2458  0.9243 -0.5302
  675TMC3    C710046   1.958   1.821   0.205  0.5465  0.7491 -0.2882
  675TMC3    C810047   1.553   1.559   0.136  0.0918 -0.0935 -0.6422
  675TMC3    O110048   2.045   1.891   0.151 -0.8251  0.3160 -0.5134
  675TMC3    O210049   1.475   1.532   0.046  0.0701 -0.0343 -0.1435
  676MPD2     C10050   4.676   0.979  11.309  0.3439 -0.1072  0.4063
  676MPD2    C110051   4.635   0.881  11.398  0.1237  0.1847 -0.0814
  676MPD2    C210052   4.631   0.752  11.355  0.5540 -0.2349  0.0935
  676MPD2    C310053   4.664   0.713  11.229  0.0968  0.1493  0.0336
  676MPD2    C410054   4.706   0.813  11.142 -0.0293  0.5860  0.3945
  676MPD2    C510055   4.718   0.940  11.183  0.1651  0.2326  0.1181
  676MPD2     H10056   4.588   0.683  11.427  0.9493  1.8157  2.3175
  676MPD2    H110057   4.734   0.797  11.038 -2.0518 -1.3790  0.1543
  676MPD2    H210058   4.687   1.083  11.339 -2.4305  0.3148  0.0323
  676MPD2    H310059   0.015   1.013  11.112 -0.0464 -0.6632 -0.9059
  676MPD2     N10060   4.656   0.582  11.172 -0.4650  0.6783 -0.0162
  676MPD2    H510061   4.680   0.567  11.075 -2.6939 -0.1612 -0.4275
  676MPD2    N110062   4.589   0.909  11.530 -0.0002 -0.4956 -0.4956
  676MPD2    H710063   4.582   0.824  11.586  0.9803  0.2837  0.7995
  677TMC3    C110064   4.513   1.051  11.711 -0.8325 -0.5606  0.0142
  677TMC3    C210065   4.495   0.948  11.801 -0.2892 -0.0938 -1.1709
  677TMC3    C310066   4.460   0.976  11.931  0.2215  0.7963  0.3178
  677TMC3    C410067   4.521   1.175  11.756  0.0680 -0.4386 -0.6768
  677TMC3    C510068   4.500   1.201  11.893 -0.1270 -0.3006 -0.0711
  677TMC3    C610069   4.462   1.105  11.987  0.4195 -0.2503 -0.0874
  677TMC3     C10070   4.551   1.038  11.572  0.4461 -0.3554 -0.0055
  677TMC3     O10071   4.527   1.140  11.504 -0.4420 -0.0835 -0.3740
  677TMC3     H10072   4.509   0.848  11.760  1.9231 -0.8974  1.5358
  677TMC3    H110073   4.557   1.253  11.689  0.1907 -1.8566 -2.2692
  677TMC3    H210074   4.440   1.130  12.090 -1.6822 -2.7524  0.0651
  677TMC3    C710075   4.522   1.338  11.938  0.0895  0.1933 -0.3845
  677TMC3    C810076   4.465   0.868  12.028  0.8200  0.0697 -0.0138
  677TMC3    O110077   4.449   1.399  12.014  0.3839  0.0355  0.6956
  677TMC3    O210078   4.551   0.781  12.008  0.4040  0.5463  0.2364
  678MPD2     C10079   1.375   1.340   1.204  0.1691  0.3469 -0.4063
  678MPD2    C110080   1.346   1.276   1.091 -0.3017 -0.8043 -0.2869
  678MPD2    C210081   1.211   1.280   1.052  0.7041 -0.0293  0.1005
  678MPD2    C310082   1.113   1.347   1.130 -0.0566  0.3377  0.8223
  678MPD2    C410083   1.145   1.406   1.244  0.2842  0.3360  0.5343
  678MPD2    C510084   1.279   1.403   1.279  0.1429 -0.4605  0.6698
  678MPD2     H10085   1.176   1.229   0.964  0.2174  1.3395 -0.4951
  678MPD2    H110086   1.081   1.456   1.316  0.5604  1.4994 -0.0266
  678MPD2    H210087   1.472   1.331   1.252 -0.6421  0.4879  1.2890
  678MPD2    H310088   1.311   1.436   1.377 -0.0949  2.7089 -0.3220
  678MPD2     N10089   0.975   1.350   1.084 -0.2286 -0.2231  0.1282
  678MPD2    H510090   0.952   1.298   1.000 -0.0062  0.3730 -0.2984
  678MPD2    N110091   1.435   1.207   1.006 -0.7445  0.2499 -0.1283
  678MPD2    H710092   1.392   1.167   0.923 -1.5684 -0.6505  0.7325
  679TMC3    C110093   1.801   0.930   0.915 -0.3728 -0.0726 -0.0046
  679TMC3    C210094   1.704   0.985   0.995  0.1504  0.1031 -0.5670
  679TMC3    C310095   1.615   1.071   0.940  0.0386 -0.4202 -0.6993
  679TMC3    C410096   1.816   0.960   0.780  0.1355 -0.4313  0.5270
  679TMC3    C510097   1.728   1.056   0.728  0.0550 -0.1756  0.5034
  679TMC3    C610098   1.626   1.104   0.809  0.8623  0.3607  0.2590
  679TMC3     C10099   1.878   0.818   0.975  0.5181 -0.2060 -0.0201
  679TMC3     O10100   1.835   0.764   1.076 -0.2258 -0.2079  0.0327
  679TMC3     H10101   1.712   0.966   1.101  2.0992 -1.2049 -0.9477
  679TMC3    H110102   1.889   0.909   0.718  0.8472 -1.0366  1.8468
  679TMC3    H210103   1.552   1.175   0.774 -0.7206 -1.0524  0.7500
  679TMC3    C710104   1.731   1.115   0.600  0.3150 -0.5628  0.8052
  679TMC3    C810105   1.565   1.173   1.036 -0.0387  0.8110  0.0480
  679TMC3    O110106   1.641   1.186   0.551  0.2483  0.2595 -0.2928
  679TMC3    O210107   1.627   1.195   1.141 -0.4461 -0.7458 -0.3838
  680MPD2     C10108   1.004   4.404  14.102 -0.0049  0.2074 -0.5981
  680MPD2    C110109   1.133   4.357  14.130 -0.0639  0.5914  0.1400
  680MPD2    C210110   1.233   4.435  14.176 -0.0514 -0.4640 -0.7762
  680MPD2    C310111   1.211   4.563  14.200 -0.1938  0.0198  0.0570
  680MPD2    C410112   1.089   4.617  14.176  0.2122  0.3061 -0.1555
  680MPD2    C510113   0.987   4.536  14.129 -0.5663 -0.4860 -0.5675
  680MPD2     H10114   1.327   4.386  14.198  0.6623  1.0134 -0.5281
  680MPD2    H110115   1.076   4.725  14.178  2.7790  0.6064  0.5247
  680MPD2    H210116   0.916   4.349  14.071  0.8455 -1.5484  0.1241
  680MPD2    H310117   0.892   4.581  14.103  0.3948  2.5529  1.2076
  680MPD2     N10118   1.317   4.647  14.236 -0.1594 -0.3234  0.4146
  680MPD2    H510119   1.305   0.009  14.227 -1.2146 -0.3444  1.6071
  680MPD2    N110120   1.164   4.217  14.121  0.0852 -0.9059  0.2778
  680MPD2    H710121   1.259   4.194  14.148  0.5081 -0.2064 -0.6202
  681TMC3    C110122   1.153   3.988  14.077 -0.0897 -0.0055 -0.4528
  681TMC3    C210123   1.273   3.976  14.149 -0.8364  0.1941 -0.0980
  681TMC3    C310124   1.358   3.875  14.113 -0.0385 -0.6780 -0.8386
  681TMC3    C410125   1.106   3.896  13.993  0.2325  0.8145 -0.4897
  681TMC3    C510126   1.191   3.793  13.967 -0.6114 -0.1455 -0.1625
  681TMC3    C610127   1.318   3.785  14.015  0.7873 -0.1640 -0.0229
  681TMC3     C10128   1.082   4.115  14.067  0.2138 -0.2266  0.2562
  681TMC3     O10129   0.982   4.115  13.997  0.1732 -0.5440 -0.0977
  681TMC3     H10130   1.312   4.047  14.221  1.0732 -1.3144  0.3619
  681TMC3    H110131   1.013   3.906  13.938 -0.4575  0.5110  0.6154
  681TMC3    H210132   1.374   3.692  14.010 -1.1683 -1.3959  1.0047
  681TMC3    C710133   1.164   3.740  13.837  0.3998  0.4182  0.3889
  681TMC3    C810134   1.467   3.842  14.199 -0.5367  0.1591  0.0045
  681TMC3    O110135   1.046   3.714  13.810  0.3164 -0.0808 -0.1227
  681TMC3    O210136   1.497   3.724  14.211 -0.3885  0.5838  0.3578
  682MPD2     C10137   4.064   1.394  10.826  0.0031  0.9569 -0.8214
  682MPD2    C110138   3.998   1.272  10.837  0.4066 -0.2383 -0.2709
  682MPD2    C210139   3.925   1.245  10.957 -0.1100  0.2792 -0.8870
  682MPD2    C310140   3.934   1.337  11.065 -0.3852  0.3061 -0.5329
  682MPD2    C410141   4.003   1.455  11.050 -0.1805 -0.4726  0.2611
  682MPD2    C510142   4.070   1.479  10.929  0.5874 -0.4468  0.2546
  682MPD2     H10143   3.877   1.149  10.976 -1.7214  1.3878  0.6403
  682MPD2    H110144   4.009   1.530  11.127  1.7035  0.3927 -0.7305
  682MPD2    H210145   4.119   1.429  10.740 -2.1989 -2.6355 -3.6996
  682MPD2    H310146   4.128   1.569  10.915 -2.4605  1.8640  2.4630
  682MPD2     N10147   3.891   1.307  11.192 -0.2915 -0.2116 -0.3014
  682MPD2    H510148   3.911   1.378  11.262  2.1536  0.4549 -1.7028
  682MPD2    N110149   3.998   1.169  10.738  0.1777  0.3258 -0.9080
  682MPD2    H710150   3.951   1.083  10.764 -0.5728  1.6376  2.0695
  683TMC3    C110151   3.693   1.303  11.569 -0.1470  0.3090 -0.0422
  683TMC3    C210152   3.663   1.185  11.625 -0.9340 -0.5241  0.4704
  683TMC3    C310153   3.677   1.073  11.545  0.2204 -0.2863  0.5464
  683TMC3    C410154   3.769   1.310  11.452 -0.5273 -0.9625  0.4874
  683TMC3    C510155   3.782   1.196  11.378 -0.5971  0.5933 -0.5094
  683TMC3    C610156   3.743   1.077  11.422 -0.0932  0.0792 -0.7149
  683TMC3     C10157   3.714   1.400  11.672  0.3863  0.3050 -0.0857
  683TMC3     O10158   3.619   1.432  11.743  0.4308 -0.6625 -0.2702
  683TMC3     H10159   3.602   1.183  11.715 -0.6595  0.3079  0.6785
  683TMC3    H110160   3.801   1.406  11.412  0.3797 -0.8030  1.5966
  683TMC3    H210161   3.747   0.981  11.372  2.1549 -1.7000  2.9233
  683TMC3    C710162   3.833   1.192  11.242 -0.4458  0.5099  0.5602
  683TMC3    C810163   3.672   0.946  11.619  0.5049 -0.3743  0.1894
  683TMC3    O110164   3.795   1.093  11.182 -0.7754 -0.0063  0.1317
  683TMC3    O210165   3.607   0.953  11.719 -0.1921  0.1416  0.6563
  684MPD2     C10166   1.485   0.208  16.342  0.4464 -0.2852  0.2581
  684MPD2    C110167   1.616   0.237  16.330 -0.0859 -0.0793  0.5430
  684MPD2    C210168   1.649   0.369  16.313  0.0488 -0.3525 -0.2723
  684MPD2    C310169   1.563   0.476  16.304  0.0101 -0.0824  0.3657
  684MPD2    C410170   1.427   0.445  16.312 -0.1631 -0.0361 -0.5462
  684MPD2    C510171   1.394   0.313  16.325  0.0767  0.1998 -0.5897
  684MPD2     H10172   1.755   0.391  16.312  0.1218 -0.7492 -1.2976
  684MPD2    H110173   1.349   0.520  16.311  0.5320  0.7018  0.8710
  684MPD2    H210174   1.442   0.109  16.352  1.1020 -0.6144 -0.1794
  684MPD2    H310175   1.289   0.288  16.332  0.2462 -0.5148 -0.6687
  684MPD2     N10176   1.602   0.611  16.293 -0.3032  0.7791  0.2599
  684MPD2    H510177   1.530   0.681  16.276  0.3626  0.6828 -3.0265
  684MPD2    N110178   1.719   0.140  16.314  0.0874  0.6649  0.1873
  684MPD2    H710179   1.814   0.166  16.290  0.4479 -0.7265  0.1277
  685TMC3    C110180   1.818   4.665  16.281 -0.5774  0.3778 -0.2606
  685TMC3    C210181   1.778   4.570  16.191  0.0362  0.2373 -0.5681
  685TMC3    C310182   1.867   4.535  16.094  0.6560  0.0787  0.2921
  685TMC3    C410183   1.937   4.721  16.295  0.1412 -0.5894 -0.7343
  685TMC3    C510184   2.025   4.689  16.195  0.0719 -0.2255 -0.2907
  685TMC3    C610185   1.992   4.599  16.095 -0.2001 -0.4864 -0.0200
  685TMC3     C10186   1.703   0.006  16.330 -0.4346 -0.4266 -0.2047
  685TMC3     O10187   1.605   4.682  16.366  0.2880  0.6784 -0.2806
  685TMC3     H10188   1.677   4.531  16.196 -0.4486  1.3129 -1.9690
  685TMC3    H110189   1.964   0.054  16.371 -2.4257  0.2395 -0.6143
  685TMC3    H210190   2.061   4.573  16.015 -0.2040  2.4274 -0.9735
  685TMC3    C710191   2.156   0.017  16.181  0.1454 -0.2945 -0.2190
  685TMC3    C810192   1.807   4.485  15.980 -0.0347  0.3641 -0.0225
  685TMC3    O110193   2.213   0.005  16.073 -0.2604 -0.2640  0.3649
  685TMC3    O210194   1.845   4.384  15.926 -0.1604 -0.0680  0.4700
  686MPD2     C10195   2.931   0.567  15.825 -0.6328 -0.0546  1.0566
  686MPD2    C110196   2.988   0.465  15.894 -0.0344  0.6762 -0.0509
  686MPD2    C210197   3.122   0.473  15.926 -1.4671  0.3356  0.7186
  686MPD2    C310198   3.201   0.565  15.855 -0.4152  0.0254  0.3398
  686MPD2    C410199   3.139   0.659  15.775  0.3585  0.3529  0.2274
  686MPD2    C510200   2.999   0.668  15.771  0.2440  0.1306  0.5460
  686MPD2     H10201   3.172   0.402  15.991 -0.7971  0.8000  0.6990
  686MPD2    H110202   3.197   0.736  15.725 -0.9746  1.1756 -0.0410
  686MPD2    H210203   2.825   0.550  15.810  0.1688 -1.5398 -2.7000
  686MPD2    H310204   2.942   0.744  15.717 -0.2763 -1.8181 -1.6286
  686MPD2     N10205   3.342   0.562  15.861  0.0411 -0.3585  0.4129
  686MPD2    H510206   3.387   0.616  15.788 -0.0180  0.2480  0.8219
  686MPD2    N110207   2.906   0.356  15.946 -0.5263  0.0375 -0.5522
  686MPD2    H710208   2.807   0.367  15.927 -0.4639  0.0308 -0.8793
  687TMC3    C110209   3.535   0.426  15.897 -0.1428 -0.2193  0.5449
  687TMC3    C210210   3.526   0.399  15.761  0.0904  0.0654 -0.2489
  687TMC3    C310211   3.556   0.271  15.721 -0.5431  0.1475  0.0162
  687TMC3    C410212   3.596   0.338  15.974  0.6738  0.8387  0.4554
  687TMC3    C510213   3.654   0.227  15.932 -0.1523 -0.4043  0.4603
  687TMC3    C610214   3.630   0.193  15.801 -0.7138 -0.3677 -0.3752
  687TMC3     C10215   3.419   0.492  15.957 -0.7892 -0.7347 -0.6674
  687TMC3     O10216   3.380   0.441  16.062 -0.3633  0.5639 -0.1207
  687TMC3     H10217   3.472   0.462  15.693  2.0781  2.1073  0.0558
  687TMC3    H110218   3.605   0.366  16.079 -0.9363  0.7756  0.6228
  687TMC3    H210219   3.646   0.094  15.760  0.4809 -0.5847  0.6387
  687TMC3    C710220   3.655   0.120  16.032  0.5756 -0.3867 -0.2004
  687TMC3    C810221   3.435   0.194  15.697 -0.1695  0.4792 -0.4579
  687TMC3    O110222   3.736   0.140  16.119  0.0587  0.3911 -0.6755
  687TMC3    O210223   3.425   0.089  15.761  0.7400 -0.6032  0.8769
  688MPD2     C10224   2.086   3.902  17.168  0.3884 -0.8173  0.4827
  688MPD2    C110225   2.116   3.779  17.221  0.4610 -0.0769  0.1856
  688MPD2    C210226   2.206   3.699  17.153 -0.0331 -0.5483 -0.1561
  688MPD2    C310227   2.272   3.740  17.040 -0.4366 -0.0635  0.5243
  688MPD2    C410228   2.246   3.869  16.996  0.3288  0.4636 -0.8690
  688MPD2    C510229   2.153   3.951  17.059  0.9844  0.0550  0.2496
  688MPD2     H10230   2.226   3.602  17.197  2.7783  0.4502  0.7677
  688MPD2    H110231   2.291   3.905  16.905  0.7959  0.1308 -0.7696
  688MPD2    H210232   2.008   3.969  17.202  2.4725  0.7539  2.1086
  688MPD2    H310233   2.143   4.053  17.023  0.3034 -0.6298 -1.5147
  688MPD2     N10234   2.372   3.663  16.968  0.2175 -0.0688  0.3804
  688MPD2    H510235   2.418   3.714  16.893  0.2065 -1.1037 -0.3222
  688MPD2    N110236   2.062   3.739  17.343  0.1835  0.0619 -0.4877
  688MPD2    H710237   2.073   3.643  17.376 -1.7627 -0.4560 -1.3754
  689TMC3    C110238   1.925   3.745  17.536  0.4744 -0.0192  0.3936
  689TMC3    C210239   1.842   3.819  17.614 -0.1120  0.1348  0.0525
  689TMC3    C310240   1.805   3.780  17.741  0.1901  0.1014 -0.0154
  689TMC3    C410241   1.975   3.624  17.581  0.1164  0.0032  1.3177
  689TMC3    C510242   1.949   3.596  17.712 -0.6313  0.1234  0.3692
  689TMC3    C610243   1.854   3.662   0.039 -0.1242 -0.2772 -0.4132
  689TMC3     C10244   2.001   3.819  17.433  0.7082 -0.1248 -0.3082
  689TMC3     O10245   1.997   3.941  17.433 -0.3621 -0.6483  0.2725
  689TMC3     H10246   1.812   3.913  17.569  0.2818 -0.0778 -0.6527
  689TMC3    H110247   2.042   3.564  17.521 -1.2505  0.1272 -0.3637
  689TMC3    H210248   1.834   3.618   0.135 -0.5693  1.2669  0.1996
  689TMC3    C710249   1.986   3.467   0.013  0.2337 -1.2698 -0.0300
  689TMC3    C810250   1.702   3.837   0.070  0.5641  0.6534  0.6897
  689TMC3    O110251   2.039   3.475   0.125 -0.1300 -0.6339  0.0193
  689TMC3    O210252   1.692   3.790   0.184  0.2666  0.4323 -0.0668
  690MPD2     C10253   0.076   1.049  15.375 -0.2052 -0.3947  0.3043
  690MPD2    C110254   0.026   0.976  15.266  1.4204 -0.0562 -0.3502
  690MPD2    C210255   0.097   0.972  15.147 -0.5028 -1.0528  0.6623
  690MPD2    C310256   0.222   1.030  15.140 -0.6496 -0.7097 -0.6532
  690MPD2    C410257   0.272   1.092  15.251  0.9339 -0.3177  0.2365
  690MPD2    C510258   0.196   1.114  15.360 -0.5607  0.2434  0.0131
  690MPD2     H10259   0.053   0.920  15.063  2.7721 -1.3409 -0.8707
  690MPD2    H110260   0.370   1.138  15.256  1.3486 -1.2214  0.4454
  690MPD2    H210261   0.015   1.076  15.461 -1.2878  1.2175 -0.9645
  690MPD2    H310262   0.238   1.175  15.439  0.6507  0.7085 -0.9761
  690MPD2     N10263   0.290   1.007  15.020  0.0204 -0.3304  0.0240
  690MPD2    H510264   0.243   0.955  14.947 -0.1910  0.9473 -0.7420
  690MPD2    N110265   4.633   0.925  15.267 -0.0993  0.9798  0.0468
  690MPD2    H710266   4.612   0.882  15.178  0.3524  2.0308 -0.5729
  691TMC3    C110267   4.453   0.807  15.359 -0.0724 -1.3401  0.0667
  691TMC3    C210268   4.392   0.796  15.242 -0.3807 -0.0721 -0.2119
  691TMC3    C310269   4.294   0.699  15.234  0.4182  0.0289  0.4011
  691TMC3    C410270   4.433   0.726  15.471 -0.4709 -0.6338  0.5599
  691TMC3    C510271   4.347   0.627  15.451 -0.2181  0.7456 -0.1671
  691TMC3    C610272   4.273   0.615  15.337  0.0469 -0.1735  0.1659
  691TMC3     C10273   4.550   0.917  15.376  0.2180  0.4587  0.3689
  691TMC3     O10274   4.554   0.965  15.485  0.5856  0.4071 -0.5904
  691TMC3     H10275   4.400   0.865  15.159 -0.1578 -1.1897 -1.1097
  691TMC3    H110276   4.487   0.735  15.564  1.9806  1.6549 -1.0427
  691TMC3    H210277   4.197   0.539  15.323  0.8952 -0.9226 -0.3608
  691TMC3    C710278   4.313   0.559  15.570  0.0254 -0.2944  0.0082
  691TMC3    C810279   4.188   0.713  15.143 -0.4537 -0.5883 -0.3385
  691TMC3    O110280   4.358   0.608  15.674 -0.1353  0.2526 -0.2607
  691TMC3    O210281   4.215   0.728  15.023  0.2968  0.4472  0.2432
  692TMC3    C110282   1.225   1.796  15.645 -0.7824  0.4950 -0.0010
  692TMC3    C210283   1.303   1.880  15.718 -0.9879 -0.1880  0.3396
  692TMC3    C310284   1.413   1.825  15.781  0.7307  0.9196 -0.1317
  692TMC3    C410285   1.218   1.665  15.666 -1.0255 -0.3474 -0.1160
  692TMC3    C510286   1.327   1.611  15.730 -0.2976 -0.7661  0.2235
  692TMC3    C610287   1.421   1.689  15.794  0.3401  0.4464 -0.6423
  692TMC3     C10288   1.097   1.849  15.595  0.4662 -0.5702  0.5442
  692TMC3     O10289   1.072   1.961  15.637  0.1493  0.5881 -0.3922
  692TMC3     H10290   1.305   1.983  15.685  0.5225 -0.0784  0.7781
  692TMC3    H110291   1.143   1.598  15.624  0.4733 -2.3153  0.3471
  692TMC3    H210292   1.504   1.635  15.837 -1.1125 -1.1243  0.2006
  692TMC3    C710293   1.369   1.481  15.671  0.1847  0.3845  0.2432
  692TMC3    C810294   1.448   1.896  15.900 -0.0501 -1.1126 -0.0730
  692TMC3    O110295   1.331   1.458  15.559  0.3688 -0.5690 -0.1985
  692TMC3    O210296   1.556   1.877  15.949  0.1378 -0.8434  0.6157
  693MPD2     C10297   1.369   0.266  10.932  0.3779  0.2421  0.6997
  693MPD2    C110298   1.279   0.169  10.959 -0.6397 -0.0756 -0.2394
  693MPD2    C210299   1.313   0.050  11.015  1.1017 -0.3135 -0.4829
  693MPD2    C310300   1.449   0.028  11.047  0.3463  0.0507 -0.1022
  693MPD2    C410301   1.541   0.124  11.013 -0.8387  1.1746  0.2958
  693MPD2    C510302   1.498   0.235  10.943  0.0706  0.1835 -0.2057
  693MPD2     H10303   1.234   4.714  11.017  0.3756  0.4888  0.7511
  693MPD2    H110304   1.641   0.103  11.048 -0.7161  0.5408 -0.4364
  693MPD2    H210305   1.365   0.368  10.895  0.9313  0.8135  2.2029
  693MPD2    H310306   1.567   0.313  10.917  0.4277  0.3414  1.2048
  693MPD2     N10307   1.499   4.642  11.106  0.9166  0.3677 -0.3353
  693MPD2    H510308   1.600   4.632  11.111  0.7957 -0.1004  1.1644
  693MPD2    N110309   1.143   0.186  10.942 -0.4969  0.0773  1.2626
  693MPD2    H710310   1.080   0.111  10.970 -0.7834  0.6426  2.1387
  694TMC3    C110311   0.950   0.273  10.859  0.6921 -0.1698  0.0638
  694TMC3    C210312   0.886   0.296  10.740 -0.4187 -0.3637 -0.5574
  694TMC3    C310313   0.749   0.272  10.731  0.4744 -1.2408  0.2790
  694TMC3    C410314   0.878   0.249  10.979  0.3624  0.2302  0.1039
  694TMC3    C510315   0.741   0.244  10.969 -0.9404 -0.1453 -0.3522
  694TMC3    C610316   0.676   0.248  10.844 -0.7923 -0.1359 -0.2459
  694TMC3     C10317   1.091   0.277  10.858  0.0382  0.5273  0.0344
  694TMC3     O10318   1.151   0.356  10.786  0.1285 -0.1690  0.4850
  694TMC3     H10319   0.955   0.287  10.657 -0.4895  0.7837 -0.7401
  694TMC3    H110320   0.924   0.243  11.077  0.6167  1.1448  0.0413
  694TMC3    H210321   0.570   0.233  10.833 -0.6431 -1.7017  0.4422
  694TMC3    C710322   0.660   0.219  11.076 -0.1825  0.2414 -0.0256
  694TMC3    C810323   0.686   0.245  10.604 -0.0976  0.9101 -0.4901
  694TMC3    O110324   0.550   0.277  11.073 -0.0918 -0.3124 -0.3011
  694TMC3    O210325   0.589   0.170  10.605 -0.0732 -0.2063  0.2605
  695MPD2     C10326   1.730   1.264  13.656 -0.6138  0.0687  0.0874
  695MPD2    C110327   1.743   1.393  13.705  0.6329  0.4028 -0.4886
  695MPD2    C210328   1.637   1.450  13.768  0.1804  0.5715  0.5259
  695MPD2    C310329   1.510   1.394  13.767 -0.4331  0.7715  0.0994
  695MPD2    C410330   1.499   1.263  13.718  0.8785  0.9168 -0.5295
  695MPD2    C510331   1.607   1.199  13.663  0.1717 -0.3612 -0.0433
  695MPD2     H10332   1.651   1.547  13.813  0.2995  0.3307  1.0081
  695MPD2    H110333   1.409   1.204  13.724 -0.1225  2.4595 -0.5172
  695MPD2    H210334   1.815   1.203  13.626 -2.4894 -2.0190 -1.0226
  695MPD2    H310335   1.596   1.096  13.631  1.2989 -0.2779 -0.6963
  695MPD2     N10336   1.409   1.457  13.837 -0.0109 -0.2536 -0.3863
  695MPD2    H510337   1.442   1.532  13.896  2.3885 -1.3750 -0.2803
  695MPD2    N110338   1.865   1.461  13.704 -0.3825 -0.1238 -0.1037
  695MPD2    H710339   1.869   1.548  13.756  0.2504  1.2545 -2.4633
  696TMC3    C110340   1.195   1.505  13.925 -0.0591 -0.0861  0.1361
  696TMC3    C210341   1.255   1.565  14.037  0.3458  0.3647  0.0010
  696TMC3    C310342   1.174   1.629  14.126  0.1311 -0.0765 -0.1033
  696TMC3    C410343   1.067   1.534  13.895  0.4998  0.2302  0.0334
  696TMC3    C510344   0.992   1.597  13.989  0.5059  0.0556 -0.2275
  696TMC3    C610345   1.042   1.641  14.111  0.2291 -0.8049 -0.4143
  696TMC3     C10346   1.279   1.411  13.846 -0.2364  0.7320  0.0309
  696TMC3     O10347   1.222   1.337  13.771 -0.7484  0.0961 -0.4061
  696TMC3     H10348   1.361   1.556  14.061  0.2567  0.8652  0.5887
  696TMC3    H110349   1.021   1.504  13.801  1.7555 -0.7407 -0.2723
  696TMC3    H210350   0.977   1.688  14.183  0.8475 -3.1245  1.6501
  696TMC3    C710351   0.870   1.670  13.949  0.2493  0.1094  0.3645
  696TMC3    C810352   1.234   1.730  14.214  0.2294 -0.2316 -0.0842
  696TMC3    O110353   0.771   1.644  14.017  0.2052 -0.5437  0.6244
  696TMC3    O210354   1.347   1.699  14.254  0.1028 -0.0413 -0.7049
  697MPD2     C10355   0.728   3.596  15.733 -0.4057  0.4228  0.8015
  697MPD2    C110356   0.776   3.548  15.615 -0.2856 -0.1653  0.2061
  697MPD2    C210357   0.802   3.637  15.514 -0.5461  0.1269 -0.9958
  697MPD2    C310358   0.786   3.774  15.527 -1.0107  0.6714  0.1909
  697MPD2    C410359   0.720   3.815  15.646 -0.3205 -0.5364  0.5248
  697MPD2    C510360   0.688   3.727  15.739  0.1573 -0.3462 -0.0797
  697MPD2     H10361   0.856   3.596  15.429 -1.2407 -1.8360 -0.4961
  697MPD2    H110362   0.692   3.919  15.660 -0.0064 -0.6093  1.7013
  697MPD2    H210363   0.691   3.541  15.818  0.2250  0.5131  1.1370
  697MPD2    H310364   0.632   3.757  15.827  2.0132  1.3368  0.5207
  697MPD2     N10365   0.843   3.860  15.424 -0.9400 -0.2386  0.0959
  697MPD2    H510366   0.887   3.817  15.344 -1.7112  0.8851 -0.9376
  697MPD2    N110367   0.795   3.412  15.598  0.5993 -0.4680 -0.7407
  697MPD2    H710368   0.802   3.384  15.500  0.1435  0.3982 -1.0291
  698TMC3    C110369   0.920   4.065  15.331  0.0852 -0.5156 -0.0769
  698TMC3    C210370   1.014   4.145  15.380  0.1876 -0.2269 -0.4405
  698TMC3    C310371   1.128   4.174  15.312  0.1722  0.1311 -0.4405
  698TMC3    C410372   0.958   3.987  15.222 -0.1005  0.6131  0.4712
  698TMC3    C510373   1.077   4.018  15.159 -0.1663  0.4788 -0.5037
  698TMC3    C610374   1.164   4.109  15.198  0.3960  0.2049  0.7136
  698TMC3     C10375   0.850   3.997  15.440  1.3591 -0.4179  0.0191
  698TMC3     O10376   0.813   4.067  15.532 -0.4655 -0.4294  0.0902
  698TMC3     H10377   1.001   4.195  15.475  0.1767 -0.8787 -0.1025
  698TMC3    H110378   0.885   3.925  15.172  1.4260  0.7258 -1.9160
  698TMC3    H210379   1.248   4.133  15.133 -0.6192  0.3683 -0.5397
  698TMC3    C710380   1.105   3.954  15.039 -0.0759 -0.6181 -0.2529
  698TMC3    C810381   1.221   4.269  15.371 -0.2339  0.3373 -0.7876
  698TMC3    O110382   1.005   3.921  14.975  0.8282  0.1089  0.7900
  698TMC3    O210383   1.178   4.330  15.469  0.3423 -0.1159  0.2652
  699TMC3    C110384   0.983   1.902  13.472  0.6637 -0.3071  0.0860
  699TMC3    C210385   0.991   1.765  13.485 -0.1553 -0.2663  0.3130
  699TMC3    C310386   0.882   1.698  13.520  0.5204 -0.7523  0.3237
  699TMC3    C410387   0.861   1.963  13.475  0.3265 -0.0560 -0.2517
  699TMC3    C510388   0.752   1.891  13.501  0.2037 -0.3976  0.5263
  699TMC3    C610389   0.760   1.759  13.536 -0.4701 -0.1782  0.4867
  699TMC3     C10390   1.068   1.963  13.375 -0.4916 -0.5556 -0.0407
  699TMC3     O10391   1.120   1.890  13.288  0.1300 -0.0587 -0.3759
  699TMC3     H10392   1.090   1.722  13.475 -0.2309 -0.0932 -1.3262
  699TMC3    H110393   0.846   2.068  13.451  0.4636 -0.2158 -1.0456
  699TMC3    H210394   0.664   1.710  13.546 -0.8562  0.3844 -0.4165
  699TMC3    C710395   0.622   1.957  13.478 -0.2119 -0.1942  0.4833
  699TMC3    C810396   0.896   1.555  13.545  0.0666  0.2527  0.1889
  699TMC3    O110397   0.525   1.925  13.542  0.1061  0.1863 -0.3054
  699TMC3    O210398   0.995   1.502  13.498  0.6561 -0.1870  0.1573
  700TMC3    C110399   0.279   4.029  17.084  0.5939  0.0798  1.1495
  700TMC3    C210400   0.338   3.920  17.136 -0.0980  0.4616 -0.2028
  700TMC3    C310401   0.408   3.931  17.254  0.0780  0.1752  0.3928
  700TMC3    C410402   0.288   4.143  17.156 -0.5852 -0.1438  0.7253
  700TMC3    C510403   0.346   4.154  17.276 -0.0976 -1.2753  0.2087
  700TMC3    C610404   0.420   4.048  17.327 -0.0550  0.0453  0.1580
  700TMC3     C10405   0.275   4.033  16.934 -0.6934 -0.3698 -0.8889
  700TMC3     O10406   0.246   3.930  16.875  0.2612 -0.2230  0.2510
  700TMC3     H10407   0.334   3.828  17.078  0.6440 -0.1242  0.6785
  700TMC3    H110408   0.242   4.232  17.115 -0.4702 -0.0886  0.7162
  700TMC3    H210409   0.485   4.054  17.413  0.1273  0.6107 -0.0167
  700TMC3    C710410   0.353   4.283  17.346 -0.1637 -0.2146 -0.7797
  700TMC3    C810411   0.528   3.854  17.235 -0.3247 -0.1379  0.0719
  700TMC3    O110412   0.449   4.310  17.420 -0.3252 -0.3413 -0.0686
  700TMC3    O210413   0.553   3.813  17.122  0.0453 -0.4258 -0.2561
  701TMC3    C110414   0.203   2.802  15.528  0.4369 -1.1043  0.1990
  701TMC3    C210415   0.211   2.790  15.392  0.1614 -0.3310  0.0585
  701TMC3    C310416   0.312   2.849  15.326 -0.4333 -0.2438  0.4761
  701TMC3    C410417   0.301   2.869  15.596 -0.3765 -0.0849  0.5327
  701TMC3    C510418   0.412   2.912  15.529 -0.3837 -0.0580 -0.6180
  701TMC3    C610419   0.418   2.906  15.396 -0.2642  0.2541 -0.5323
  701TMC3     C10420   0.073   2.807  15.587 -0.0546 -0.1148  0.0993
  701TMC3     O10421   0.050   2.910  15.649 -0.5111 -0.6622  0.1677
  701TMC3     H10422   0.137   2.728  15.343 -0.4550 -0.8841  1.7340
  701TMC3    H110423   0.283   2.898  15.698  0.1439 -2.2642  1.2468
  701TMC3    H210424   0.498   2.949  15.338  0.0008 -1.1616 -1.2273
  701TMC3    C710425   0.491   3.017  15.589  0.2018  0.4426 -0.3530
  701TMC3    C810426   0.318   2.861  15.182  0.4347 -0.3771 -0.0620
  701TMC3    O110427   0.557   3.093  15.520  0.0412 -0.0442 -0.0035
  701TMC3    O210428   0.405   2.929  15.132 -0.1462 -0.1435 -0.1589
  702MPD2     C10429   0.219   0.217  10.672 -0.0778  0.2707  0.4484
  702MPD2    C110430   0.134   0.308  10.728  0.5252  0.0123 -0.1826
  702MPD2    C210431   0.131   0.433  10.667 -0.1069  0.1283 -0.3384
  702MPD2    C310432   0.206   0.474  10.560  0.7128  0.7970  0.1602
  702MPD2    C410433   0.283   0.377  10.500  0.3498  0.1926  0.0779
  702MPD2    C510434   0.296   0.253  10.557  0.0150  0.1854  0.5217
  702MPD2     H10435   0.064   0.510  10.706 -1.2572 -0.2519 -1.5504
  702MPD2    H110436   0.332   0.403  10.407  1.1270 -0.8514  0.1853
  702MPD2    H210437   0.223   0.116  10.709 -3.2807 -0.0074 -0.0040
  702MPD2    H310438   0.367   0.182  10.517  0.5772  0.8449  0.3578
  702MPD2     N10439   0.197   0.607  10.519  0.1419  0.4236 -0.1624
  702MPD2    H510440   0.139   0.662  10.581 -1.2740 -1.1601 -0.0909
  702MPD2    N110441   0.061   0.284  10.847 -0.4746 -0.3642 -0.3072
  702MPD2    H710442   0.009   0.363  10.885  0.9546  0.6835 -0.5428
  703TMC3    C110443   0.183   0.796  10.391 -0.3487 -0.0384 -0.0253
  703TMC3    C210444   0.070   0.815  10.462  0.1074 -0.1302  0.1225
  703TMC3    C310445   0.053   0.930  10.538 -0.7643  0.2710  0.0122
  703TMC3    C410446   0.267   0.895  10.374  0.3222  0.9501  0.1806
  703TMC3    C510447   0.251   1.011  10.455 -0.0201  0.7144  0.2467
  703TMC3    C610448   0.140   1.035  10.535  0.5585  0.3380 -0.3166
  703TMC3     C10449   0.240   0.659  10.399 -0.4374 -0.2351 -0.1247
  703TMC3     O10450   0.315   0.626  10.307  0.5919  0.2474 -0.1060
  703TMC3     H10451   4.731   0.739  10.460 -0.5439  0.5726 -1.5633
  703TMC3    H110452   0.364   0.884  10.325  1.2852 -1.4251  2.6595
  703TMC3    H210453   0.123   1.132  10.582  4.1102  1.7041 -1.8466
  703TMC3    C710454   0.367   1.093  10.461  0.6297  0.0036  0.3498
  703TMC3    C810455   0.001   0.879  10.664 -0.0807  0.7826 -0.4391
  703TMC3    O110456   0.436   1.090  10.361  0.3445 -0.7243  0.0973
  703TMC3    O210457   0.028   0.761  10.684  0.2496  0.8632  0.0050
  704TMC3    C110458   3.118   3.412  12.472 -0.3916  0.6602  0.2811
  704TMC3    C210459   3.230   3.402  12.385  0.8170  0.3816  0.3153
  704TMC3    C310460   3.331   3.318  12.424  0.2039  0.2948  0.2692
  704TMC3    C410461   3.125   3.364  12.600  0.3519 -0.4132  0.6488
  704TMC3    C510462   3.220   3.278  12.630 -0.0888  0.3270  0.5696
  704TMC3    C610463   3.327   3.256  12.543  0.1133 -0.0739  0.0206
  704TMC3     C10464   2.993   3.457  12.418 -0.7178  0.6304 -0.2324
  704TMC3     O10465   2.894   3.422  12.476  0.1570 -0.3120  0.5478
  704TMC3     H10466   3.220   3.436  12.283 -1.5057  1.6569  0.9721
  704TMC3    H110467   3.048   3.402  12.668  0.7000  1.9039 -0.2421
  704TMC3    H210468   3.397   3.175  12.560  1.1127  0.3883 -1.9457
  704TMC3    C710469   3.160   3.159  12.666 -0.7690 -0.3006  0.4654
  704TMC3    C810470   3.397   3.247  12.317  0.0033 -0.1438  0.1657
  704TMC3    O110471   3.192   3.060  12.604 -0.4399 -0.1075 -0.6398
  704TMC3    O210472   3.351   3.274  12.210 -0.4731  0.0190 -0.1539
  705MPD2     C10473   1.427   1.721  16.707  0.0038 -0.1033 -0.3628
  705MPD2    C110474   1.424   1.670  16.581 -0.8517  0.4761 -0.1851
  705MPD2    C210475   1.300   1.627  16.531 -0.0283  0.5118  1.4720
  705MPD2    C310476   1.180   1.651  16.599  0.4486 -0.0738 -0.3378
  705MPD2    C410477   1.189   1.706  16.723  0.3882  0.2460 -0.1245
  705MPD2    C510478   1.313   1.734  16.775 -0.2537  0.8363  0.5717
  705MPD2     H10479   1.315   1.602  16.427  0.3222  1.0571  1.3950
  705MPD2    H110480   1.104   1.706  16.791 -0.2443  1.7439 -0.9138
  705MPD2    H210481   1.519   1.755  16.751 -0.5051  3.7528 -2.2783
  705MPD2    H310482   1.327   1.762  16.878 -0.3053  0.3124  0.7213
  705MPD2     N10483   1.056   1.620  16.541 -0.5400 -0.0318 -0.5786
  705MPD2    H510484   0.979   1.676  16.576 -1.2340 -1.4908  0.1948
  705MPD2    N110485   1.531   1.668  16.497  0.4278  0.4082 -0.2256
  705MPD2    H710486   1.531   1.607  16.416 -1.9720 -0.3137  0.3285
  706TMC3    C110487   1.833   1.636  16.228 -0.3558  0.0037  0.4541
  706TMC3    C210488   1.878   1.749  16.173 -0.3527  0.3211 -0.1383
  706TMC3    C310489   1.841   1.864  16.236 -0.5483  0.2558  0.0613
  706TMC3    C410490   1.754   1.625  16.339  0.6522 -0.6723  0.0152
  706TMC3    C510491   1.726   1.741  16.406 -0.5124 -0.2598 -0.2622
  706TMC3    C610492   1.764   1.865  16.354 -0.2290  0.2867  0.0356
  706TMC3     C10493   1.888   1.505  16.181 -0.4274  0.2151  0.0751
  706TMC3     O10494   1.909   1.423  16.268  0.3004 -0.0738  0.1557
  706TMC3     H10495   1.960   1.743  16.102  2.7985 -1.3701  3.6125
  706TMC3    H110496   1.743   1.529  16.387  0.7899 -0.2508  0.8933
  706TMC3    H210497   1.718   1.955  16.391 -1.4908 -1.2173  2.1287
  706TMC3    C710498   1.644   1.740  16.518  0.0832  0.4204 -0.0443
  706TMC3    C810499   1.887   1.992  16.183  0.5305 -0.1849 -0.1433
  706TMC3    O110500   1.663   1.831  16.601 -0.1698 -0.2474 -0.2532
  706TMC3    O210501   1.938   1.989  16.069  0.7992  0.2043  0.2359
  707TMC3    C110502   2.659   0.907   1.396 -0.0470  0.2384  0.4187
  707TMC3    C210503   2.723   0.793   1.355 -0.4532  0.4958 -0.0687
  707TMC3    C310504   2.686   0.730   1.240  0.0631 -0.2071  0.7280
  707TMC3    C410505   2.562   0.963   1.322  0.4010 -0.1564 -0.2547
  707TMC3    C510506   2.526   0.901   1.205  0.8054  0.1860 -0.0649
  707TMC3    C610507   2.585   0.788   1.162 -0.2863 -0.3134  0.0231
  707TMC3     C10508   2.714   0.983   1.507 -0.5686  0.2779 -0.1344
  707TMC3     O10509   2.641   1.020   1.597 -0.3871 -0.3467  0.3263
  707TMC3     H10510   2.791   0.745   1.424 -2.8133 -1.5434  0.8333
  707TMC3    H110511   2.532   1.064   1.351 -2.2890 -0.0347 -3.5422
  707TMC3    H210512   2.554   0.730   1.076  0.4615 -1.6795  0.6675
  707TMC3    C710513   2.440   0.963   1.105 -0.0086  0.4682  0.0939
  707TMC3    C810514   2.753   0.608   1.194  0.3265 -0.1852  0.1751
  707TMC3    O110515   2.465   0.943   0.986  0.6375 -0.1838  0.2303
  707TMC3    O210516   2.686   0.546   1.115  0.0728  0.1606  0.0445
  708MPD2     C10517   4.683   4.466  14.215  0.2162 -0.0896  0.1545
  708MPD2    C110518   4.737   4.344  14.232  0.0947  0.2206 -0.0867
  708MPD2    C210519   0.077   4.308  14.353 -0.4860  0.2370  0.2740
  708MPD2    C310520   0.103   4.408  14.444  0.1959 -0.3144  0.1670
  708MPD2    C410521   0.065   4.537  14.415  0.3963 -0.1363 -0.7397
  708MPD2    C510522   4.722   4.561  14.307 -0.5259 -0.4189 -0.2346
  708MPD2     H10523   0.111   4.206  14.358 -0.6336  0.1254 -1.1434
  708MPD2    H110524   0.088   4.611  14.492 -2.5336 -0.0253  0.0147
  708MPD2    H210525   4.632   4.500  14.126  0.2163  0.2347  0.2765
  708MPD2    H310526   4.697   4.665  14.294 -0.6275 -0.5521 -1.0584
  708MPD2     N10527   0.160   4.384  14.572 -0.4660 -0.7416  0.2345
  708MPD2    H510528   0.181   4.460  14.636 -2.2739 -1.4563  1.7120
  708MPD2    N110529   4.719   4.238  14.142 -0.0060 -0.0010  0.8160
  708MPD2    H710530   0.010   4.147  14.177 -0.1603 -0.4924 -0.3040
  709TMC3    C110531   4.695   4.112  13.958  0.3201 -0.0727  0.2160
  709TMC3    C210532   0.045   4.137  13.857  0.0504 -0.2023  0.3567
  709TMC3    C310533   0.155   4.052  13.840  0.1512 -0.8775 -0.0045
  709TMC3    C410534   4.728   4.016  14.052 -0.1962  0.4016 -0.1107
  709TMC3    C510535   0.108   3.947  14.044 -0.4060 -0.0392  0.5282
  709TMC3    C610536   0.196   3.962  13.939 -0.5070 -1.1228 -0.7901
  709TMC3     C10537   4.661   4.240  14.020 -0.1260 -0.1437  0.9693
  709TMC3     O10538   4.651   4.342  13.954  0.1891 -0.5388  0.0956
  709TMC3     H10539   0.033   4.226  13.797  0.7563 -0.2411  0.1569
  709TMC3    H110540   4.654   3.997  14.129  0.5151 -1.8378  0.0310
  709TMC3    H210541   0.283   3.901  13.920  1.0021 -0.0926  2.7504
  709TMC3    C710542   0.169   3.913  14.172  1.4121  0.4092 -0.1005
  709TMC3    C810543   0.181   4.010  13.698 -0.3415  0.1671  0.2818
  709TMC3    O110544   0.103   3.967  14.262  0.5404 -0.5032  0.0211
  709TMC3    O210545   0.250   3.906  13.700 -0.4947 -0.1910 -0.2522
  710TMC3    C110546   1.459   1.289  17.551 -0.3771 -0.8777 -0.5141
  710TMC3    C210547   1.537   1.282  17.443 -0.5957  0.5736  0.0182
  710TMC3    C310548   1.661   1.232  17.458  0.3529  0.2035 -0.6139
  710TMC3    C410549   1.507   1.266  17.671  0.0193  0.6941  0.0967
  710TMC3    C510550   1.635   1.220  17.679 -0.4669  0.5012 -0.3384
  710TMC3    C610551   1.718   1.199  17.575 -0.1228 -0.6192  0.2712
  710TMC3     C10552   1.325   1.345  17.531 -0.3858 -0.7904 -1.0998
  710TMC3     O10553   1.268   1.327  17.422 -0.0111 -0.1922 -0.4536
  710TMC3     H10554   1.495   1.319  17.350  2.3439  0.5670 -1.2939
  710TMC3    H110555   1.454   1.286   0.012 -3.2983 -0.2998 -1.6280
  710TMC3    H210556   1.816   1.154  17.588 -0.3370 -0.6141  1.9226
  710TMC3    C710557   1.675   1.201   0.069  0.4851 -0.0093  0.1003
  710TMC3    C810558   1.748   1.243  17.339 -0.5391 -0.4693  0.0238
  710TMC3    O110559   1.588   1.205   0.151  0.3943 -0.2960 -0.6258
  710TMC3    O210560   1.692   1.254  17.230 -0.4417  0.5295 -0.0742
  711TMC3    C110561   0.640   2.732  15.125 -0.5941 -0.3102  1.2448
  711TMC3    C210562   0.720   2.737  15.239 -0.5527 -0.4920  0.5877
  711TMC3    C310563   0.851   2.773  15.226 -0.9113 -0.0404  0.1075
  711TMC3    C410564   0.699   2.759  15.004  0.0199  0.0186  0.4917
  711TMC3    C510565   0.837   2.783  14.994  0.2309  0.8447  0.1645
  711TMC3    C610566   0.912   2.806  15.109 -0.1389 -0.5633 -0.3796
  711TMC3     C10567   0.555   2.613  15.121 -0.2059 -0.1697 -0.0911
  711TMC3     O10568   0.478   2.591  15.031 -0.1445  0.2607 -0.1766
  711TMC3     H10569   0.682   2.705  15.335 -1.1865  0.5031  0.6693
  711TMC3    H110570   0.624   2.756  14.926  0.3064  0.1498  0.2101
  711TMC3    H210571   1.020   2.815  15.113 -0.0517 -0.9907 -1.7210
  711TMC3    C710572   0.903   2.685  14.907 -0.0924 -0.1353  0.0706
  711TMC3    C810573   0.928   2.669  15.294 -0.3437  0.3707  0.3096
  711TMC3    O110574   1.009   2.647  14.954  0.1630 -0.4768 -0.5149
  711TMC3    O210575   0.855   2.579  15.331 -0.3345  0.1044  0.3151
  712MPD2     C10576   1.996   3.348  13.958 -0.7496  0.3793  0.2664
  712MPD2    C110577   2.051   3.326  13.828  0.2468  0.4452  0.3053
  712MPD2    C210578   2.137   3.420  13.778 -0.8779 -0.4765  0.1342
  712MPD2    C310579   2.167   3.537  13.841 -0.0202  0.0051  0.0752
  712MPD2    C410580   2.121   3.551  13.971  0.1204  0.0810  0.2522
  712MPD2    C510581   2.039   3.458  14.028  0.2478  0.0288  0.2249
  712MPD2     H10582   2.186   3.395  13.684  0.4536  4.4398 -0.4861
  712MPD2    H110583   2.149   3.640  14.025 -0.2443  0.0635  0.4694
  712MPD2    H210584   1.933   3.275  14.006  0.0503  0.1184  0.9187
  712MPD2    H310585   1.997   3.449  14.127  2.2820 -1.7820  0.9109
  712MPD2     N10586   2.249   3.644  13.801  0.6796  0.3371 -0.2892
  712MPD2    H510587   2.233   3.731  13.851 -1.9003 -0.5986  0.5361
  712MPD2    N110588   2.013   3.213  13.757  0.1779  0.2519 -0.1940
  712MPD2    H710589   2.072   3.201  13.676  0.0485 -0.3028 -0.2067
  713TMC3    C110590   2.384   3.772  13.664  0.0569  0.0965 -0.2810
  713TMC3    C210591   2.522   3.776  13.635  0.3399 -0.0910 -0.1064
  713TMC3    C310592   2.578   3.899  13.605 -0.0618 -0.3938  0.7100
  713TMC3    C410593   2.312   3.888  13.678  0.5183 -0.4309  0.9738
  713TMC3    C510594   2.376   4.005  13.649 -0.2728 -0.2541 -0.1457
  713TMC3    C610595   2.505   4.017  13.611  0.5214 -0.0331 -0.1024
  713TMC3     C10596   2.339   3.638  13.698  0.0739  0.4175  0.0038
  713TMC3     O10597   2.399   3.542  13.652 -0.1148 -0.9838  0.2235
  713TMC3     H10598   2.586   3.690  13.620  0.9174  0.0495  1.6156
  713TMC3    H110599   2.210   3.884  13.713  0.2063 -0.2144  0.0834
  713TMC3    H210600   2.554   4.113  13.602 -0.5430  0.5117 -0.0921
  713TMC3    C710601   2.321   4.121  13.714 -0.3196 -0.0056  0.2508
  713TMC3    C810602   2.720   3.912  13.553 -0.4633  0.1351 -0.0183
  713TMC3    O110603   2.402   4.211  13.743 -0.1782 -0.2908  0.4173
  713TMC3    O210604   2.744   4.022  13.501 -0.2816 -0.2220 -0.0656
  714MPD2     C10605   4.518   2.189   1.473  0.2975  0.0697 -0.7940
  714MPD2    C110606   4.491   2.130   1.352  0.0462  0.0956 -0.7965
  714MPD2    C210607   4.368   2.156   1.292 -0.1447  0.2781  0.0937
  714MPD2    C310608   4.272   2.242   1.348  0.1679  0.1494  0.0270
  714MPD2    C410609   4.293   2.292   1.480  0.3845  0.4202 -0.4119
  714MPD2    C510610   4.421   2.274   1.530 -0.2916  0.5652  0.2391
  714MPD2     H10611   4.340   2.115   1.196 -0.5123  1.9004 -0.4863
  714MPD2    H110612   4.226   2.365   1.524 -0.5635 -0.1479 -0.9314
  714MPD2    H210613   4.613   2.168   1.522  0.8140 -1.2721 -2.3979
  714MPD2    H310614   4.442   2.322   1.624  2.0064 -0.6394  0.3517
  714MPD2     N10615   4.154   2.253   1.274  0.8059  0.4142  0.1167
  714MPD2    H510616   4.152   2.220   1.178 -2.2203 -0.0008  0.3217
  714MPD2    N110617   4.593   2.050   1.294  0.2427  0.1731  0.3021
  714MPD2    H710618   4.673   2.039   1.356  0.6617 -1.8297 -0.5900
  715TMC3    C110619   4.724   1.943   1.133 -0.2461 -0.1911 -0.5461
  715TMC3    C210620   4.731   1.861   1.024  0.3440 -0.6518  0.4118
  715TMC3    C310621   0.114   1.836   0.966 -0.0628 -0.2361 -0.4376
  715TMC3    C410622   0.099   2.007   1.181  0.4806  0.0207 -0.4482
  715TMC3    C510623   0.226   1.964   1.134  0.1184 -0.0312 -0.4294
  715TMC3    C610624   0.234   1.889   1.016 -0.7143  0.3178  0.0946
  715TMC3     C10625   4.590   1.976   1.182 -1.0090 -0.3560  0.1033
  715TMC3     O10626   4.499   1.962   1.101  0.8123 -0.0587 -0.0478
  715TMC3     H10627   4.643   1.807   0.991 -0.7582  0.1120  2.0985
  715TMC3    H110628   0.099   2.079   1.262  0.6023 -1.8043  1.1860
  715TMC3    H210629   0.334   1.854   0.995 -0.8443 -0.8402  1.3284
  715TMC3    C710630   0.348   2.023   1.181  0.1475 -0.3503 -0.3077
  715TMC3    C810631   0.118   1.737   0.862  0.4123 -0.1335  0.6351
  715TMC3    O110632   0.458   2.002   1.126 -0.3710  0.2585 -0.2685
  715TMC3    O210633   0.016   1.692   0.822 -0.0538  0.2641  0.6393
  716MPD2     C10634   0.500   0.711  10.077 -0.1140 -0.1169 -0.3740
  716MPD2    C110635   0.472   0.789   9.973 -0.2099  0.9136 -0.2011
  716MPD2    C210636   0.494   0.737   9.849  0.3598  0.1357  0.3678
  716MPD2    C310637   0.549   0.613   9.824  0.0202  0.1829  0.3301
  716MPD2    C410638   0.594   0.545   9.937  0.7863 -0.0988  0.1049
  716MPD2    C510639   0.564   0.587  10.062 -0.0905  0.3449  0.6000
  716MPD2     H10640   0.462   0.790   9.760 -0.9805 -0.3421  0.5557
  716MPD2    H110641   0.632   0.445   9.917  2.1475  0.5988 -0.7533
  716MPD2    H210642   0.475   0.748  10.176 -0.6375  1.6527 -1.1662
  716MPD2    H310643   0.592   0.522  10.144  1.7281  0.0073 -0.2950
  716MPD2     N10644   0.570   0.573   9.688  0.7888  0.1952 -0.5106
  716MPD2    H510645   0.524   0.626   9.615 -0.3893  0.2133  0.2318
  716MPD2    N110646   0.405   0.911   9.998 -0.1139  0.5654  0.2366
  716MPD2    H710647   0.399   0.939  10.095  1.6917  0.2988  0.4153
  717TMC3    C110648   0.654   0.456   9.498  0.2901  0.3751 -0.2034
  717TMC3    C210649   0.637   0.573   9.424 -0.8819  1.0711 -0.1585
  717TMC3    C310650   0.612   0.564   9.285 -0.0956  0.4479  0.4528
  717TMC3    C410651   0.666   0.335   9.436 -0.4216  0.1712 -0.0248
  717TMC3    C510652   0.633   0.330   9.303  0.4132 -0.2093 -0.5648
  717TMC3    C610653   0.597   0.435   9.223  0.7764  0.5610 -0.2059
  717TMC3     C10654   0.641   0.457   9.646 -0.0734 -0.5459 -0.5929
  717TMC3     O10655   0.678   0.369   9.717 -0.1837  0.2410  0.2793
  717TMC3     H10656   0.656   0.669   9.469  1.8444  0.5921 -0.2959
  717TMC3    H110657   0.679   0.244   9.494 -0.1414  1.5201  2.0540
  717TMC3    H210658   0.583   0.421   9.116 -0.8570  0.0648  0.0781
  717TMC3    C710659   0.614   0.192   9.243 -0.5676 -0.3001 -0.1893
  717TMC3    C810660   0.549   0.679   9.220 -0.5687  0.5478  0.4415
  717TMC3    O110661   0.548   0.184   9.143 -0.5546  0.3719  0.4443
  717TMC3    O210662   0.503   0.761   9.296  0.7110 -0.2782  0.1423
  718MPD2     C10663   4.470   3.287  13.048 -0.2989  0.2221 -0.5642
  718MPD2    C110664   4.409   3.373  12.961  0.1188  1.1018  0.0763
  718MPD2    C210665   4.269   3.366  12.952 -0.0627 -0.1812  0.3779
  718MPD2    C310666   4.200   3.269  13.023  0.7417  0.0982 -0.6707
  718MPD2    C410667   4.265   3.182  13.108  0.3084 -0.2735  0.5283
  718MPD2    C510668   4.404   3.184  13.117 -0.2306 -0.1943 -0.2658
  718MPD2     H10669   4.205   3.430  12.893 -1.4171 -1.6651  0.2249
  718MPD2    H110670   4.214   3.110  13.171  0.7695 -0.4027  0.7509
  718MPD2    H210671   4.577   3.294  13.057 -0.1948 -0.6606 -1.0279
  718MPD2    H310672   4.453   3.130  13.197  0.7725  0.4078 -0.4805
  718MPD2     N10673   4.058   3.270  12.998  0.2756 -0.1547 -0.4309
  718MPD2    H510674   4.019   3.338  12.933  0.0268 -0.2554 -0.3879
  718MPD2    N110675   4.472   3.480  12.886  0.0024 -0.0162 -0.0646
  718MPD2    H710676   4.404   3.540  12.839 -0.8412 -1.4693 -0.7097
  719TMC3    C110677   4.624   3.616  12.785 -0.0247  0.1680 -0.0814
  719TMC3    C210678   4.505   3.676  12.757  0.0328 -0.1321  0.4811
  719TMC3    C310679   4.458   3.683  12.626 -0.1635  0.2817  0.3719
  719TMC3    C410680   4.707   3.583  12.691 -0.1740  0.0208  0.2036
  719TMC3    C510681   4.676   3.610  12.561  0.1680 -0.3180  0.2822
  719TMC3    C610682   4.545   3.653  12.531  0.1318  0.1939  0.6127
  719TMC3     C10683   4.605   3.509  12.881  0.0337  0.8477  0.6637
  719TMC3     O10684   4.699   3.457  12.934 -0.7995  0.4926  0.2119
  719TMC3     H10685   4.447   3.711  12.842 -2.6666 -1.1442 -0.9332
  719TMC3    H110686   0.064   3.535  12.714 -0.1683  0.1853  0.5237
  719TMC3    H210687   4.522   3.669  12.426 -1.5985  0.4627  1.0318
  719TMC3    C710688   0.034   3.667  12.469  0.3661  0.2133  0.3627
  719TMC3    C810689   4.320   3.634  12.625 -0.3197 -0.2885 -0.7993
  719TMC3    O110690   4.735   3.738  12.376  0.1993 -0.2440  0.0174
  719TMC3    O210691   4.278   3.605  12.735 -0.0935  0.0843  0.0480
  720MPD2     C10692   2.476   4.633  13.849 -0.4792 -0.9774  0.1383
  720MPD2    C110693   2.510   0.030  13.821  0.8269  0.7453 -0.3473
  720MPD2    C210694   2.616   0.087  13.881  0.4145  0.1096 -0.8566
  720MPD2    C310695   2.697   0.011  13.961 -0.6058  0.0581 -0.3621
  720MPD2    C410696   2.664   4.614  13.988  0.0928 -0.1614 -0.0934
  720MPD2    C510697   2.555   4.561  13.927 -0.2105  0.3989 -0.1922
  720MPD2     H10698   2.645   0.190  13.863 -0.3374  0.2882 -1.0492
  720MPD2    H110699   2.729   4.544  14.039 -0.7856 -1.1942 -0.3836
  720MPD2    H210700   2.384   4.591  13.809 -0.5689  0.6762 -1.4127
  720MPD2    H310701   2.523   4.458  13.938  1.2653 -0.0762 -0.2671
  720MPD2     N10702   2.807   0.066  14.024 -0.2358  0.4832 -0.3969
  720MPD2    H510703   2.816   0.167  14.013  1.2235  0.2043 -1.7716
  720MPD2    N110704   2.435   0.109  13.731  0.5714 -0.4637 -0.3604
  720MPD2    H710705   2.469   0.204  13.724  1.2289 -0.6085  0.8995
  721TMC3    C110706   2.997   0.084  14.161 -0.5148 -0.8020 -0.3004
  721TMC3    C210707   2.950   0.183  14.246  0.2920 -0.3867 -0.3055
  721TMC3    C310708   3.026   0.226  14.346  0.0834 -0.0982 -0.5858
  721TMC3    C410709   3.132   0.040  14.177  0.2139  0.0599 -0.2666
  721TMC3    C510710   3.207   0.099  14.271 -0.1928 -0.5077  0.7972
  721TMC3    C610711   3.157   0.191  14.355 -0.1194  0.0135  0.2904
  721TMC3     C10712   2.904   4.736  14.099 -0.0274 -0.0378 -1.0054
  721TMC3     O10713   2.935   4.619  14.094 -0.4011 -0.5017 -0.1719
  721TMC3     H10714   2.850   0.223  14.241  0.4760  0.0264 -0.6209
  721TMC3    H110715   3.169   4.706  14.106  0.9624  1.2943 -1.1332
  721TMC3    H210716   3.231   0.243  14.415 -0.5351  0.3589  0.5048
  721TMC3    C710717   3.346   0.102  14.247  0.1774  0.0764 -0.5565
  721TMC3    C810718   3.007   0.359  14.381 -0.7727  0.4157 -0.0592
  721TMC3    O110719   3.419   0.194  14.277  0.2462  0.0461 -0.0998
  721TMC3    O210720   2.991   0.438  14.287 -0.0398 -0.2265  0.4517
  722MPD2     C10721   1.098   4.046  13.597  0.1996  0.1536  0.9808
  722MPD2    C110722   1.093   4.115  13.478  0.3006  0.0192 -0.5251
  722MPD2    C210723   1.000   4.091  13.380  0.2537  0.5417 -0.4130
  722MPD2    C310724   0.898   4.006  13.418 -0.5811  0.0728 -0.6179
  722MPD2    C410725   0.889   3.963  13.548  0.1209 -0.1200 -0.5481
  722MPD2    C510726   0.991   3.980  13.636 -0.3537 -0.2534 -0.6195
  722MPD2     H10727   1.009   4.127  13.278  0.2072  1.0228 -0.2443
  722MPD2    H110728   0.801   3.909  13.580  0.5471 -1.7178 -2.1006
  722MPD2    H210729   1.178   4.065  13.667  0.2560  0.8800  0.7198
  722MPD2    H310730   0.986   3.945  13.739  0.6021 -0.9521 -0.8075
  722MPD2     N10731   0.805   3.969  13.317 -0.5198  0.4305  1.1374
  722MPD2    H510732   0.816   4.020  13.230  1.0216  1.3220  1.8393
  722MPD2    N110733   1.200   4.202  13.437  0.1853  0.5761  0.3462
  722MPD2    H710734   1.186   4.250  13.348  2.7387  3.1714  1.3409
  723TMC3    C110735   0.630   3.867  13.192 -0.1819 -0.2163 -0.0399
  723TMC3    C210736   0.599   3.745  13.138 -0.3582  0.2463 -0.4553
  723TMC3    C310737   0.577   3.740  13.005 -0.4472 -0.3228 -0.2253
  723TMC3    C410738   0.627   3.983  13.121 -0.2780 -0.6252  0.6400
  723TMC3    C510739   0.595   3.973  12.988 -0.1547 -0.3145 -0.0112
  723TMC3    C610740   0.573   3.851  12.926 -0.2058  0.2243  0.1927
  723TMC3     C10741   0.719   3.864  13.313  0.4824  0.5416  0.2061
  723TMC3     O10742   0.709   3.770  13.387 -0.2689 -0.2411 -0.1413
  723TMC3     H10743   0.613   3.655  13.197 -0.4431 -0.8069 -2.0435
  723TMC3    H110744   0.644   4.075  13.177  1.0852 -1.2311  1.2095
  723TMC3    H210745   0.546   3.838  12.822  1.2304  1.6518 -0.3428
  723TMC3    C710746   0.535   4.092  12.927  0.2685  0.3167  0.2452
  723TMC3    C810747   0.636   3.620  12.964 -0.4133 -0.4532  0.4611
  723TMC3    O110748   0.530   4.093  12.806  0.4131 -0.0093 -0.2026
  723TMC3    O210749   0.614   3.524  13.033 -0.3942  0.4039  0.3999
  724TMC3    C110750   2.322   2.593  10.865  0.2169 -0.1850  0.6502
  724TMC3    C210751   2.324   2.609  10.735 -0.1728 -0.1503 -0.4045
  724TMC3    C310752   2.413   2.698  10.674  0.5144 -0.5927  0.4025
  724TMC3    C410753   2.391   2.689  10.945  0.0836  0.3666  0.2077
  724TMC3    C510754   2.474   2.778  10.892 -0.3790  0.1250  0.3224
  724TMC3    C610755   2.496   2.777  10.752  0.6130 -0.2284 -0.5016
  724TMC3     C10756   2.204   2.535  10.927 -0.0959 -0.6418 -0.0362
  724TMC3     O10757   2.099   2.541  10.861 -0.0252 -0.2597  0.7439
  724TMC3     H10758   2.288   2.529  10.672 -1.1590 -0.0705  0.0529
  724TMC3    H110759   2.368   2.690  11.051 -2.6732  1.4537 -0.4045
  724TMC3    H210760   2.577   2.834  10.710  2.0931 -0.3470  2.1470
  724TMC3    C710761   2.495   2.915  10.953  0.9521  0.4498  0.1723
  724TMC3    C810762   2.394   2.747  10.542 -0.0507  0.6564 -0.2734
  724TMC3    O110763   2.545   2.993  10.873 -0.2592 -0.1622  0.1044
  724TMC3    O210764   2.305   2.689  10.481  0.1385  0.4941  0.4918
  725TMC3    C110765   3.515   0.880  13.066  0.0197  0.4781  0.5634
  725TMC3    C210766   3.405   0.910  12.994 -0.0654  0.3579 -0.1625
  725TMC3    C310767   3.346   0.809  12.924  0.1664 -0.0980  0.9706
  725TMC3    C410768   3.578   0.753  13.053  0.6323  0.1815  0.2037
  725TMC3    C510769   3.513   0.657  12.983  0.2738  0.3834  0.2873
  725TMC3    C610770   3.403   0.683  12.914 -0.7772  0.7144  0.5654
  725TMC3     C10771   3.540   0.970  13.175 -0.6940  0.6241 -0.3455
  725TMC3     O10772   3.507   1.084  13.150 -0.9241  0.1800  0.3565
  725TMC3     H10773   3.355   1.006  13.000 -0.7242  0.1096 -1.6095
  725TMC3    H110774   3.672   0.742  13.106  0.0898 -0.1644  1.1066
  725TMC3    H210775   3.358   0.610  12.847 -0.4401  2.3560 -1.4402
  725TMC3    C710776   3.584   0.534  12.952 -0.2867  1.0061 -0.0768
  725TMC3    C810777   3.267   0.852  12.805  0.8716  0.1792  0.7246
  725TMC3    O110778   3.541   0.460  12.865 -0.0860 -0.1786  0.2395
  725TMC3    O210779   3.305   0.829  12.692  0.3452 -0.4486  0.2166
  726MPD2     C10780   1.441   2.413  10.764 -0.4101 -0.6008  0.5004
  726MPD2    C110781   1.337   2.425  10.667 -0.6984 -0.3693 -0.0284
  726MPD2    C210782   1.229   2.345  10.672 -0.2848 -0.0827 -0.4725
  726MPD2    C310783   1.210   2.249  10.772  0.1083  0.1881  0.0283
  726MPD2    C410784   1.311   2.226  10.865 -0.2594 -0.2397  0.1855
  726MPD2    C510785   1.428   2.304  10.862  0.5353  0.0864  0.1735
  726MPD2     H10786   1.159   2.347  10.590 -0.1009 -0.7173 -0.6429
  726MPD2    H110787   1.297   2.148  10.939 -3.4482 -0.5296 -0.7261
  726MPD2    H210788   1.529   2.476  10.768 -0.9391  0.1610  0.1154
  726MPD2    H310789   1.511   2.290  10.930  0.9266  1.3844 -0.0432
  726MPD2     N10790   1.091   2.174  10.786  0.3130 -0.6061  0.7366
  726MPD2    H510791   1.097   2.102  10.858 -1.8407  0.8658  2.4039
  726MPD2    N110792   1.338   2.522  10.567  0.5242  0.6543 -0.3009
  726MPD2    H710793   1.254   2.527  10.509  0.8357 -0.9478 -0.8651
  727TMC3    C110794   1.416   2.713  10.449 -0.0576  0.4309 -0.6017
  727TMC3    C210795   1.493   2.830  10.447  0.2867  0.6192  0.1200
  727TMC3    C310796   1.451   2.930  10.362  0.0939 -0.1188  0.3830
  727TMC3    C410797   1.297   2.702  10.377 -0.0554 -0.1708  1.3081
  727TMC3    C510798   1.254   2.810  10.304 -0.5773 -0.4288 -0.0836
  727TMC3    C610799   1.332   2.922  10.290 -0.1461 -0.8542 -0.1331
  727TMC3     C10800   1.443   2.610  10.545 -0.4088  0.0298 -0.1650
  727TMC3     O10801   1.541   2.628  10.608 -0.0296  0.0286 -0.5002
  727TMC3     H10802   1.590   2.831  10.495 -0.6282  0.4160  1.9610
  727TMC3    H110803   1.237   2.611  10.383  2.9512 -2.2259  0.1473
  727TMC3    H210804   1.309   2.999  10.218  1.0573  1.2679  1.7644
  727TMC3    C710805   1.126   2.801  10.233 -0.5792  0.3891  0.7130
  727TMC3    C810806   1.526   3.055  10.376  0.1103 -0.2534 -0.3600
  727TMC3    O110807   1.059   2.697  10.235  0.5014  0.4682 -0.0393
  727TMC3    O210808   1.636   3.050  10.422 -0.1947  0.3206  0.4612
  728TMC3    C110809   0.466   0.990  14.877  0.0132 -0.6926  0.4245
  728TMC3    C210810   0.602   0.974  14.875 -0.0382  0.2488 -0.3174
  728TMC3    C310811   0.678   1.024  14.780  0.5185 -0.3238  0.5298
  728TMC3    C410812   0.404   1.047  14.771  0.2582 -0.2162 -0.8070
  728TMC3    C510813   0.483   1.093  14.667  0.5049 -0.3818  0.1541
  728TMC3    C610814   0.622   1.089  14.674 -0.2970 -0.7097 -0.1530
  728TMC3     C10815   0.422   1.029  15.008  1.0575  0.7822  0.5202
  728TMC3     O10816   0.502   1.068  15.091 -0.2051 -0.2315 -0.4122
  728TMC3     H10817   0.646   0.930  14.963 -2.2551  2.3263  1.8214
  728TMC3    H110818   0.296   1.057  14.775  0.0241 -3.4867  0.7451
  728TMC3    H210819   0.682   1.140  14.600 -1.7853 -0.1444 -0.9746
  728TMC3    C710820   0.418   1.156  14.555 -0.3723  0.4607 -0.3347
  728TMC3    C810821   0.819   1.002  14.788 -0.8797 -0.3063  0.7100
  728TMC3    O110822   0.473   1.158  14.447 -0.3834 -0.3859 -0.0385
  728TMC3    O210823   0.852   0.886  14.790  0.4771 -0.3362 -0.2955
  729MPD2     C10824   2.981   1.810  17.141 -0.3919 -0.4560  0.8118
  729MPD2    C110825   2.968   1.941  17.090 -0.3722 -0.2600 -0.1918
  729MPD2    C210826   2.923   2.031  17.191  0.0429  0.0663 -0.1046
  729MPD2    C310827   2.882   1.990  17.318  0.6289  0.5412  0.9158
  729MPD2    C410828   2.884   1.858  17.349 -0.1925  1.0639 -0.2546
  729MPD2    C510829   2.931   1.770  17.264  0.5883 -0.3106 -0.1054
  729MPD2     H10830   2.928   2.137  17.170 -0.4235  0.2172  0.5348
  729MPD2    H110831   2.841   1.824  17.443  0.7988  0.6816  0.0635
  729MPD2    H210832   3.007   1.731  17.072 -1.8031 -1.6748  1.6703
  729MPD2    H310833   2.930   1.666  17.293  1.9029 -0.7169 -1.5450
  729MPD2     N10834   2.829   2.078  17.409 -0.2440  0.4312  0.2257
  729MPD2    H510835   2.778   2.038  17.487  2.9692 -2.0295  1.0996
  729MPD2    N110836   2.995   1.968  16.960 -0.3675  0.7086 -0.0723
  729MPD2    H710837   3.027   1.895  16.897 -1.2793 -0.7482  1.1636
  730TMC3    C110838   2.765   2.280  17.497 -0.7869  0.4025  0.4551
  730TMC3    C210839   2.818   2.370  17.586 -0.5475 -0.4238  0.1563
  730TMC3    C310840   2.731   2.440  17.661 -0.2283  0.4881  0.0638
  730TMC3    C410841   2.630   2.246  17.481  0.5379  0.2781 -0.0272
  730TMC3    C510842   2.545   2.316  17.559  0.6452  0.2381 -0.6403
  730TMC3    C610843   2.595   2.410  17.652  0.6500  0.3113 -0.7926
  730TMC3     C10844   2.855   2.210  17.406  0.7705 -0.5321 -0.4657
  730TMC3     O10845   2.952   2.262  17.355 -0.0309 -0.0726 -0.1520
  730TMC3     H10846   2.923   2.396  17.579 -1.1177  0.9487 -3.4885
  730TMC3    H110847   2.607   2.180  17.398  2.8323 -1.1202  0.4555
  730TMC3    H210848   2.524   2.461  17.717  0.4311 -2.6373  1.2766
  730TMC3    C710849   2.452   2.380  17.473  0.3558 -0.0286  0.3442
  730TMC3    C810850   2.757   2.577  17.645  0.4422 -0.5926 -0.3186
  730TMC3    O110851   2.495   2.387  17.357  0.2300 -0.0782 -0.3297
  730TMC3    O210852   2.832   2.612  17.549 -0.0710  0.7247  0.5831
  731MPD2     C10853   2.503   0.585  12.416  0.6513  0.2726 -0.0660
  731MPD2    C110854   2.611   0.500  12.439 -0.5126 -0.0515 -0.5285
  731MPD2    C210855   2.655   0.506  12.571  0.1232 -0.3031 -0.5072
  731MPD2    C310856   2.596   0.584  12.672  0.1915 -0.6967 -0.0345
  731MPD2    C410857   2.490   0.659  12.636 -0.8869 -0.1233 -0.5190
  731MPD2    C510858   2.451   0.668  12.510 -0.1585  0.0437  0.2443
  731MPD2     H10859   2.735   0.441  12.605 -1.6282 -2.3546 -0.2890
  731MPD2    H110860   2.445   0.717  12.716 -2.4693  0.7620 -2.0532
  731MPD2    H210861   2.458   0.590  12.318 -0.8595 -2.1098  0.5100
  731MPD2    H310862   2.364   0.729  12.488 -0.3838 -0.0113  0.9959
  731MPD2     N10863   2.660   0.589  12.795  0.3517  0.9883 -0.2364
  731MPD2    H510864   2.723   0.511  12.809 -0.9324 -0.2970 -1.7319
  731MPD2    N110865   2.662   0.411  12.343 -0.1108  1.0009 -0.2709
  731MPD2    H710866   2.597   0.401  12.265  0.7785 -0.9490 -0.7645
  732TMC3    C110867   2.786   0.255  12.238  0.3048 -0.1471 -0.4089
  732TMC3    C210868   2.667   0.220  12.170  0.2129  0.4608 -0.3350
  732TMC3    C310869   2.683   0.162  12.048  0.1622 -0.2287  0.4090
  732TMC3    C410870   2.916   0.231  12.193  0.4170  0.3668 -0.5255
  732TMC3    C510871   2.921   0.178  12.066 -0.4469  0.1778  0.4521
  732TMC3    C610872   2.805   0.139  11.998 -0.1750 -0.6912 -0.0886
  732TMC3     C10873   2.776   0.339  12.351  0.6956 -0.0483 -0.0931
  732TMC3     O10874   2.868   0.353  12.432  0.1191 -0.3457  0.0400
  732TMC3     H10875   2.573   0.204  12.222  1.5373 -0.9117  1.5974
  732TMC3    H110876   3.002   0.278  12.238 -0.1718 -0.1443  1.1399
  732TMC3    H210877   2.816   0.104  11.896  2.1874 -0.5758  0.1187
  732TMC3    C710878   3.048   0.178  12.003  1.2998 -0.4479 -0.4963
  732TMC3    C810879   2.571   0.109  11.975 -0.3537  0.0029 -0.8326
  732TMC3    O110880   3.041   0.153  11.886 -0.0623  0.2869 -0.0647
  732TMC3    O210881   2.593   0.046  11.877 -0.0954 -0.8206  0.2087
  733TMC3    C110882   3.600   3.194  12.961 -0.0896  0.3978 -0.1032
  733TMC3    C210883   3.710   3.176  13.041 -0.1913 -0.0986  0.1994
  733TMC3    C310884   3.834   3.199  12.982 -0.2149 -0.4147 -0.2460
  733TMC3    C410885   3.612   3.232  12.828 -0.1183  0.1710 -0.2147
  733TMC3    C510886   3.736   3.237  12.772 -0.2597  0.0248  0.4100
  733TMC3    C610887   3.848   3.223  12.849 -0.0405  0.1924  0.5750
  733TMC3     C10888   3.464   3.201  13.011  0.7211  0.2558 -0.7649
  733TMC3     O10889   3.404   3.287  12.953 -0.7471 -0.5067 -0.6989
  733TMC3     H10890   3.706   3.143  13.144  2.6666 -1.3992 -0.1287
  733TMC3    H110891   3.531   3.250  12.759  0.9973  0.1393 -1.5370
  733TMC3    H210892   3.946   3.219  12.803  0.1212  3.2412  0.6749
  733TMC3    C710893   3.761   3.294  12.643  0.2074 -1.0836  0.1579
  733TMC3    C810894   3.960   3.184  13.054  0.4677  0.3737  0.1030
  733TMC3    O110895   3.672   3.278  12.560 -0.0396 -0.4028  0.0405
  733TMC3    O210896   3.974   3.106  13.149  0.3932 -0.1515 -0.4003
  734MPD2     C10897   0.887   1.441  12.539 -0.1674 -0.0973  0.1695
  734MPD2    C110898   0.851   1.328  12.472 -0.2033  0.5100 -0.5480
  734MPD2    C210899   0.923   1.292  12.359  0.3174 -0.2652 -0.3308
  734MPD2    C310900   1.040   1.365  12.326  0.5834  0.2745  0.0651
  734MPD2    C410901   1.077   1.472  12.400 -0.5297 -0.1747  0.4938
  734MPD2    C510902   0.999   1.514  12.510  0.4689 -0.4215 -0.4345
  734MPD2     H10903   0.892   1.212  12.292 -0.5202 -2.1881  2.3124
  734MPD2    H110904   1.169   1.523  12.374 -0.4299 -1.0784 -0.8701
  734MPD2    H210905   0.840   1.473  12.631  0.7220  0.1483  0.5404
  734MPD2    H310906   1.017   1.604  12.567  1.2290 -0.7596 -0.1307
  734MPD2     N10907   1.114   1.308  12.222 -0.6012 -0.5855 -0.1814
  734MPD2    H510908   1.081   1.214  12.201  1.3424 -1.4189  0.4220
  734MPD2    N110909   0.738   1.251  12.520  0.4075  0.1661  0.4598
  734MPD2    H710910   0.694   1.285  12.605 -2.1579  1.1139 -1.2319
  735TMC3    C110911   0.606   1.062  12.531  0.0355  0.1962 -0.4162
  735TMC3    C210912   0.533   0.979  12.463 -0.4793 -0.7449  0.5835
  735TMC3    C310913   0.528   0.848  12.485 -1.8700 -0.4525  0.1777
  735TMC3    C410914   0.673   1.014  12.640 -0.3472  0.3475  0.5526
  735TMC3    C510915   0.665   0.882  12.667 -0.2016  0.3262  0.2868
  735TMC3    C610916   0.589   0.796  12.592  0.7552  0.1507 -0.0054
  735TMC3     C10917   0.687   1.146  12.446  0.5283 -0.0220  0.4641
  735TMC3     O10918   0.723   1.087  12.342 -0.4668 -0.4163 -0.4716
  735TMC3     H10919   0.496   1.027  12.373  0.7631  0.0190  0.4816
  735TMC3    H110920   0.746   1.073  12.695  1.0357 -1.2079  0.3876
  735TMC3    H210921   0.593   0.688  12.599  1.3543  0.1532 -0.3334
  735TMC3    C710922   0.798   0.820  12.692  0.0076  0.7259 -1.1778
  735TMC3    C810923   0.560   0.766  12.368  0.2848  0.2156  0.4898
  735TMC3    O110924   0.899   0.886  12.665 -0.0662 -0.1357 -0.0600
  735TMC3    O210925   0.532   0.648  12.370  0.7611 -0.4955 -0.2435
  736MPD2     C10926   0.885   0.478  12.786 -0.1488  0.0445 -0.3287
  736MPD2    C110927   0.894   0.598  12.720 -0.0801 -0.6092 -0.4543
  736MPD2    C210928   1.005   0.618  12.640  0.3784 -0.3044 -0.3171
  736MPD2    C310929   1.098   0.518  12.614 -0.0012 -0.0052  0.1979
  736MPD2    C410930   1.082   0.398  12.676 -0.2021  0.0981  1.0190
  736MPD2    C510931   0.977   0.378  12.755  0.0320  0.5795  0.3169
  736MPD2     H10932   1.001   0.703  12.572 -1.7508 -0.8846 -0.8996
  736MPD2    H110933   1.150   0.314  12.669  0.9246  1.0049  1.0786
  736MPD2    H210934   0.810   0.451  12.859 -1.2073  1.7302 -0.7973
  736MPD2    H310935   0.982   0.286  12.812  2.4142 -0.4151 -1.4933
  736MPD2     N10936   1.202   0.531  12.522  0.1938 -0.1640  0.7840
  736MPD2    H510937   1.242   0.447  12.481  0.6715  0.5299 -0.1575
  736MPD2    N110938   0.792   0.688  12.728 -0.1862 -0.6706 -0.2661
  736MPD2    H710939   0.708   0.648  12.768 -1.5265  1.7301 -0.6717
  737TMC3    C110940   1.325   0.640  12.358 -0.4483 -0.2977  0.3011
  737TMC3    C210941   1.338   0.755  12.276 -0.0268  0.3640  0.6695
  737TMC3    C310942   1.395   0.744  12.152  0.0699  0.2644  0.3808
  737TMC3    C410943   1.375   0.522  12.323  0.6097 -0.6253  0.3630
  737TMC3    C510944   1.444   0.522  12.204  0.4448  0.5860 -0.4458
  737TMC3    C610945   1.452   0.623  12.118 -0.0624 -0.6857 -0.0286
  737TMC3     C10946   1.241   0.649  12.473  1.1092  0.3326  0.2114
  737TMC3     O10947   1.230   0.764  12.518  0.2620  0.0339 -0.2792
  737TMC3     H10948   1.282   0.843  12.307 -1.8099 -0.6689  0.2910
  737TMC3    H110949   1.376   0.438  12.392  2.8616  0.0059  1.0851
  737TMC3    H210950   1.515   0.623  12.030 -0.0528  1.7619 -0.0214
  737TMC3    C710951   1.498   0.394  12.161 -0.0089 -0.3904  0.3095
  737TMC3    C810952   1.468   0.858  12.105  0.1072 -0.0030  0.2688
  737TMC3    O110953   1.437   0.299  12.211 -0.1052 -0.1363 -0.6548
  737TMC3    O210954   1.534   0.929  12.177 -0.7474 -0.4117 -0.5057
  738MPD2     C10955   1.408   4.481  15.390  0.3499 -0.0492 -0.4523
  738MPD2    C110956   1.442   4.365  15.328 -0.5958 -0.2537 -0.1956
  738MPD2    C210957   1.574   4.346  15.295 -0.7958 -0.6037 -0.0871
  738MPD2    C310958   1.672   4.433  15.335  0.2943  0.4351 -0.6761
  738MPD2    C410959   1.632   4.547  15.403 -0.6930 -0.3403 -0.4719
  738MPD2    C510960   1.500   4.573  15.427  0.6749 -0.0947  0.6497
  738MPD2     H10961   1.592   4.263  15.227 -2.9288 -1.5404  0.4651
  738MPD2    H110962   1.702   4.624  15.435 -0.1936 -0.0393 -2.2930
  738MPD2    H210963   1.303   4.499  15.407  0.1801 -1.1805 -0.3073
  738MPD2    H310964   1.462   4.665  15.471 -0.2784 -0.5807  0.8491
  738MPD2     N10965   1.802   4.418  15.305 -0.1982 -0.7774  0.2739
  738MPD2    H510966   1.861   4.497  15.329 -2.2565  0.4009  1.4427
  738MPD2    N110967   1.337   4.269  15.306 -0.0485 -0.7822 -0.3947
  738MPD2    H710968   1.361   4.191  15.246 -1.1892 -0.9320 -0.6538
  739TMC3    C110969   1.987   4.370  15.194 -0.3797  0.0643  0.5640
  739TMC3    C210970   1.991   4.418  15.070  0.2431  0.3954  0.1990
  739TMC3    C310971   2.087   4.512  15.041  0.4086 -0.5208 -0.8420
  739TMC3    C410972   2.076   4.417  15.291 -0.2477  0.5814 -0.1401
  739TMC3    C510973   2.171   4.505  15.258  0.6468 -0.2666 -0.1198
  739TMC3    C610974   2.186   4.548  15.130  0.7562 -1.6769  0.1320
  739TMC3     C10975   1.859   4.319  15.238  0.0345 -0.0933  0.6889
  739TMC3     O10976   1.810   4.225  15.177  0.0495 -0.1552  0.8579
  739TMC3     H10977   1.916   4.380  15.001  0.7227  0.2398 -0.2383
  739TMC3    H110978   2.060   4.386  15.393 -0.4642  1.2202  0.0194
  739TMC3    H210979   2.264   4.617  15.102  1.0087 -1.6876  0.7979
  739TMC3    C710980   2.293   4.468  15.323 -0.8195 -0.5262  0.3344
  739TMC3    C810981   2.069   4.580  14.918 -1.0500 -0.0786  0.7242
  739TMC3    O110982   2.305   4.352  15.362 -0.4559  0.1369  0.1928
  739TMC3    O210983   1.951   4.578  14.881 -0.5359 -0.9193 -0.3107
  740TMC3    C110984   2.288   1.034  14.842  0.3374  0.3543 -0.2408
  740TMC3    C210985   2.339   1.080  14.953  0.6316 -0.6666 -0.3918
  740TMC3    C310986   2.475   1.091  14.959  0.5393 -0.4800 -0.2834
  740TMC3    C410987   2.360   1.003  14.729  0.7810 -0.3724 -0.6088
  740TMC3    C510988   2.497   1.006  14.744 -0.5730  0.4939 -0.0593
  740TMC3    C610989   2.556   1.057  14.856  0.5098  0.1701 -0.0054
  740TMC3     C10990   2.145   1.044  14.815 -1.1633 -0.0308  0.1099
  740TMC3     O10991   2.120   1.092  14.704  0.3646 -0.2959  0.3958
  740TMC3     H10992   2.276   1.120  15.033  1.0915 -0.5216 -0.1047
  740TMC3    H110993   2.320   0.962  14.638  0.0596 -0.8294 -0.0842
  740TMC3    H210994   2.661   1.041  14.878  0.3045 -0.1163  0.7626
  740TMC3    C710995   2.551   0.880  14.712  0.7319  0.3057 -0.4701
  740TMC3    C810996   2.540   1.097  15.093 -0.1303 -0.2469  0.3772
  740TMC3    O110997   2.554   0.801  14.808 -0.7167  0.0647 -0.2478
  740TMC3    O210998   2.660   1.108  15.089  0.7535  0.3200 -0.0720
  741TMC3    C110999   1.889   0.363  14.563 -0.0576  1.2340  0.1689
  741TMC3    C211000   1.756   0.348  14.570  0.1653 -0.6472  0.1973
  741TMC3    C311001   1.700   0.300  14.684 -0.5308  0.1131  0.5399
  741TMC3    C411002   1.964   0.312  14.670 -0.0039 -0.0929 -0.0188
  741TMC3    C511003   1.905   0.284  14.785  0.5042  0.3518 -0.1577
  741TMC3    C611004   1.773   0.271  14.794 -0.7279 -0.3676 -0.4311
  741TMC3     C11005   1.937   0.410  14.436 -0.3075  0.1148 -0.8275
  741TMC3     O11006   1.854   0.427  14.351  1.0957 -0.2137  0.4460
  741TMC3     H11007   1.689   0.378  14.490 -1.6439 -0.5536  1.7417
  741TMC3    H111008   2.072   0.321  14.668 -0.0346  0.4988  1.4654
  741TMC3    H211009   1.714   0.237  14.878  0.1531 -2.3568 -0.6133
  741TMC3    C711010   1.990   0.251  14.901 -0.2148  0.8975 -0.1401
  741TMC3    C811011   1.568   0.244  14.657 -1.1598  0.5319  0.3561
  741TMC3    O111012   2.110   0.282  14.897  0.0393 -0.3324  0.2246
  741TMC3    O211013   1.496   0.292  14.567  0.2666 -0.6234 -0.5622
  742TMC3    C111014   1.306   3.332  15.326  0.0772 -0.0951  0.2255
  742TMC3    C211015   1.292   3.386  15.200  0.5268  0.9641 -0.4503
  742TMC3    C311016   1.400   3.384  15.121 -0.4813  0.0748  0.7855
  742TMC3    C411017   1.425   3.276  15.364 -0.4629 -0.9196 -0.5595
  742TMC3    C511018   1.529   3.286  15.283  0.1267  0.3686 -0.2266
  742TMC3    C611019   1.522   3.345  15.158  0.3144 -0.2507  0.0216
  742TMC3     C11020   1.236   3.398  15.431 -0.4255  0.0917  0.0950
  742TMC3     O11021   1.224   3.338  15.535 -0.4171 -0.0779  0.2084
  742TMC3     H11022   1.190   3.399  15.167 -0.2021 -0.1931  1.3190
  742TMC3    H111023   1.448   3.266  15.470 -0.1356 -1.0140 -0.6407
  742TMC3    H211024   1.612   3.358  15.099  0.2493  3.2142  0.6779
  742TMC3    C711025   1.629   3.181  15.302 -0.3815  0.2062 -0.3634
  742TMC3    C811026   1.394   3.409  14.974 -0.4288 -0.0051  0.6131
  742TMC3    O111027   1.737   3.186  15.247  0.6508 -0.2309 -0.4528
  742TMC3    O211028   1.500   3.383  14.905  0.2525  0.0111 -0.2228
  743MPD2     C11029   3.646   0.672   1.757 -0.2399  0.0182  0.0653
  743MPD2    C111030   3.719   0.680   1.639  0.5586 -0.1894  0.0088
  743MPD2    C211031   3.793   0.798   1.614  0.3608 -0.0385 -0.0068
  743MPD2    C311032   3.819   0.892   1.712  0.1028 -0.0880 -0.3056
  743MPD2    C411033   3.758   0.874   1.830 -0.3280  0.6718  0.5107
  743MPD2    C511034   3.671   0.770   1.857  0.8768 -0.0316 -0.0261
  743MPD2     H11035   3.829   0.815   1.513  0.0093 -0.7956 -0.2555
  743MPD2    H111036   3.788   0.934   1.914 -0.7501  0.8320  0.5477
  743MPD2    H211037   3.585   0.586   1.780 -1.9294  1.1240 -0.2647
  743MPD2    H311038   3.623   0.777   1.955  2.0565  3.5476  0.3270
  743MPD2     N11039   3.908   0.995   1.686  0.0573 -0.0030  0.0694
  743MPD2    H511040   3.936   1.005   1.588 -2.9043 -1.1804 -0.9052
  743MPD2    N111041   3.708   0.576   1.543 -0.2353  0.1492 -0.6965
  743MPD2    H711042   3.635   0.506   1.554 -1.3821  1.1816 -1.8469
  744TMC3    C111043   3.734   0.474   1.338 -0.5612 -0.5237  0.4819
  744TMC3    C211044   3.598   0.441   1.349  0.0461 -0.8095  0.0124
  744TMC3    C311045   3.529   0.413   1.231 -0.0041 -1.0264  0.5369
  744TMC3    C411046   3.795   0.488   1.218 -0.1372 -0.5802  0.4681
  744TMC3    C511047   3.725   0.463   1.103  0.1941 -1.0338  0.5558
  744TMC3    C611048   3.589   0.433   1.107 -0.1148  0.2405  0.1766
  744TMC3     C11049   3.791   0.558   1.437 -0.5261 -0.9376  0.2020
  744TMC3     O11050   3.903   0.595   1.424 -0.0713  0.4319  0.0825
  744TMC3     H11051   3.554   0.441   1.449 -1.5641  1.2743 -0.6962
  744TMC3    H111052   3.899   0.518   1.205 -0.4662 -0.3150 -1.5505
  744TMC3    H211053   3.533   0.416   1.016  0.7886 -0.4776 -0.2548
  744TMC3    C711054   3.794   0.478   0.973 -0.2980 -0.5183 -0.5095
  744TMC3    C811055   3.383   0.428   1.247  0.7915  0.0623 -0.3740
  744TMC3    O111056   3.912   0.510   0.969  0.6338 -0.2061 -0.0440
  744TMC3    O211057   3.343   0.494   1.340  0.1300  0.3859 -0.4621
  745TMC3    C111058   1.895   3.044  13.666 -0.7979 -0.3352  0.5513
  745TMC3    C211059   1.765   3.008  13.671 -0.4215 -0.6570 -0.6186
  745TMC3    C311060   1.684   3.065  13.578 -0.4156  0.4242  0.6700
  745TMC3    C411061   1.955   3.097  13.554  0.5888 -0.0989  0.0597
  745TMC3    C511062   1.872   3.154  13.461  0.3063 -0.6436  0.1942
  745TMC3    C611063   1.736   3.140  13.476 -0.2452  0.0581  0.5107
  745TMC3     C11064   1.926   3.114  13.787 -0.2669 -0.1122 -0.6048
  745TMC3     O11065   1.845   3.109  13.882 -0.0258  0.1336 -0.1762
  745TMC3     H11066   1.730   2.970  13.766 -1.7728 -1.1472 -1.3144
  745TMC3    H111067   2.063   3.094  13.547  0.7903  0.0556  3.1133
  745TMC3    H211068   1.676   3.209  13.419  0.1236 -1.3600 -1.5573
  745TMC3    C711069   1.923   3.282  13.414  0.2804 -0.2624  0.5978
  745TMC3    C811070   1.562   3.126  13.635  0.2648  0.7887 -0.3959
  745TMC3    O111071   1.837   3.364  13.378  0.0123 -0.2200  0.0538
  745TMC3    O211072   1.476   3.163  13.555 -0.4908  0.2680 -0.4620
  746TMC3    C111073   4.596   0.351  11.171 -0.0895  0.0048  0.2223
  746TMC3    C211074   4.694   0.327  11.086  0.3210  0.2463 -0.3685
  746TMC3    C311075   4.707   0.198  11.040  0.5002 -0.4703 -0.5893
  746TMC3    C411076   4.518   0.246  11.222  0.8912  0.2075  0.4442
  746TMC3    C511077   4.529   0.121  11.171  0.5604 -0.2574 -0.2250
  746TMC3    C611078   4.634   0.095  11.085 -0.3195 -0.6490 -0.0456
  746TMC3     C11079   4.575   0.482  11.228 -0.3266 -0.3477  0.5933
  746TMC3     O11080   4.502   0.488  11.325 -0.0002  0.1946 -0.0601
  746TMC3     H11081   0.022   0.406  11.053  1.1257 -0.5419 -0.6126
  746TMC3    H111082   4.438   0.267  11.292  1.0117  3.9796 -0.5440
  746TMC3    H211083   4.635   0.001  11.031 -1.7047 -0.7318  0.0809
  746TMC3    C711084   4.401   0.066  11.130  0.5719  0.2105  0.0986
  746TMC3    C811085   0.051   0.171  10.923 -0.0458 -0.0611 -0.0808
  746TMC3    O111086   4.321   0.146  11.086 -0.7011 -0.4195  0.3477
  746TMC3    O211087   0.093   0.061  10.908  0.4340  0.4280  0.8912
  747TMC3    C111088   2.201   0.443  11.462  0.4055 -1.1465  0.0800
  747TMC3    C211089   2.110   0.335  11.470  0.5273  0.6463 -0.5033
  747TMC3    C311090   2.099   0.274  11.592 -0.1445  0.2691 -0.6299
  747TMC3    C411091   2.283   0.483  11.559 -1.6172  0.7304 -0.5733
  747TMC3    C511092   2.264   0.414  11.673 -0.2333  0.7071  0.2754
  747TMC3    C611093   2.171   0.320  11.698  0.4713 -0.8115 -0.1979
  747TMC3     C11094   2.223   0.515  11.340 -1.2321  0.5365 -0.2208
  747TMC3     O11095   2.290   0.618  11.346 -0.6680 -0.1447  0.0493
  747TMC3     H11096   2.036   0.325  11.393  0.1623 -0.2311 -0.0322
  747TMC3    H111097   2.368   0.550  11.556 -1.6589  0.7356 -2.0466
  747TMC3    H211098   2.178   0.264  11.790 -1.7350  1.0896  1.1392
  747TMC3    C711099   2.364   0.436  11.775 -0.2126  0.3275  0.3919
  747TMC3    C811100   1.961   0.242  11.630 -1.0367  0.1253  0.0055
  747TMC3    O111101   2.323   0.452  11.889 -0.1339  0.5366  0.1754
  747TMC3    O211102   1.889   0.190  11.547 -0.1504 -0.3856 -0.0815
  748MPD2     C11103   3.087   1.822   1.478 -0.2072 -0.0213 -0.9154
  748MPD2    C111104   3.123   1.761   1.364 -0.4120 -0.2338 -0.5940
  748MPD2    C211105   3.254   1.775   1.321  0.8275 -0.0452 -0.3721
  748MPD2    C311106   3.345   1.856   1.388 -0.6167  0.0805 -0.2180
  748MPD2    C411107   3.298   1.925   1.501  0.3109  0.0716 -0.0498
  748MPD2    C511108   3.171   1.910   1.543 -0.9352 -0.0114  0.0948
  748MPD2     H11109   3.291   1.734   1.228 -0.0407  0.6503 -1.0330
  748MPD2    H111110   3.363   2.001   1.544 -0.8866  0.8623  0.3631
  748MPD2    H211111   2.983   1.813   1.507  0.1401 -0.8146  0.0726
  748MPD2    H311112   3.131   1.988   1.607  1.5518  1.3649 -0.0447
  748MPD2     N11113   3.481   1.868   1.337 -0.7174 -0.0331 -0.0583
  748MPD2    H511114   3.497   1.812   1.253  0.1387 -0.1561  0.1930
  748MPD2    N111115   3.023   1.675   1.306 -0.0894 -0.2665  0.9933
  748MPD2    H711116   2.930   1.664   1.345 -0.8898 -0.4560 -0.9306
  749TMC3    C111117   3.699   1.965   1.318  0.1781  0.3827 -1.0420
  749TMC3    C211118   3.813   1.960   1.397 -0.1180  0.7287 -0.3250
  749TMC3    C311119   3.928   1.934   1.329  0.2812  0.2627  0.2665
  749TMC3    C411120   3.699   1.931   1.181  0.7757  0.1984  0.2602
  749TMC3    C511121   3.820   1.903   1.119  0.1728 -0.4702  0.4211
  749TMC3    C611122   3.937   1.906   1.191  0.5931  0.4599 -0.0267
  749TMC3     C11123   3.583   1.941   1.396  0.5123 -0.1227  0.7671
  749TMC3     O11124   3.583   1.987   1.511 -0.1454  0.0014  0.5751
  749TMC3     H11125   3.815   1.997   1.498 -1.9766 -2.6435  0.9555
  749TMC3    H111126   3.608   1.920   1.123  2.7334 -2.1450 -2.3821
  749TMC3    H211127   4.032   1.894   1.141 -0.3485 -3.9567 -0.7943
  749TMC3    C711128   3.823   1.922   0.979  0.2016 -0.0314  0.9567
  749TMC3    C811129   4.043   1.902   1.416 -0.4378 -0.0558  0.3211
  749TMC3    O111130   3.915   1.863   0.921 -0.0442  0.2863 -0.1664
  749TMC3    O211131   4.031   1.895   1.536 -0.0583  0.3608  0.2879
  750MPD2     C11132   0.363   2.615  11.471 -0.0115  1.0939  0.5379
  750MPD2    C111133   0.285   2.547  11.557 -0.3173 -0.1845 -0.0137
  750MPD2    C211134   0.305   2.412  11.572  0.2257  0.1935 -0.1370
  750MPD2    C311135   0.394   2.341  11.494  0.4971  0.2224 -0.3805
  750MPD2    C411136   0.486   2.413  11.418 -0.1679  0.3263 -0.4447
  750MPD2    C511137   0.457   2.546  11.396 -0.5085 -0.0870 -0.6553
  750MPD2     H11138   0.227   2.353  11.619  2.0685 -1.3254  1.0299
  750MPD2    H111139   0.579   2.367  11.387 -0.5922  0.1421 -1.4235
  750MPD2    H211140   0.337   2.717  11.447  0.1036  0.2405 -3.1134
  750MPD2    H311141   0.521   2.603  11.329 -1.4445 -0.3096 -1.7362
  750MPD2     N11142   0.402   2.200  11.506 -0.3816 -0.2526 -0.2477
  750MPD2    H511143   0.485   2.160  11.463 -0.4122 -0.8443  0.2513
  750MPD2    N111144   0.177   2.614  11.619 -0.5022  0.2194  0.1237
  750MPD2    H711145   0.141   2.699  11.578  0.1877 -0.1664 -1.3118
  751TMC3    C111146   0.345   1.980  11.527  0.0734  1.0210 -0.5590
  751TMC3    C211147   0.308   1.886  11.617 -0.9562 -0.4046 -0.2306
  751TMC3    C311148   0.295   1.755  11.577 -0.1257  0.0240  0.2689
  751TMC3    C411149   0.379   1.950  11.393 -0.2604 -0.8115 -0.3194
  751TMC3    C511150   0.356   1.818  11.354  0.6461 -0.5990 -0.3079
  751TMC3    C611151   0.326   1.723  11.448 -0.3400 -0.1871  0.3431
  751TMC3     C11152   0.315   2.120  11.558 -0.1788 -0.4435  0.6432
  751TMC3     O11153   0.235   2.147  11.646  0.0834  0.2349  0.3313
  751TMC3     H11154   0.287   1.917  11.719  0.2788  1.5229 -0.5818
  751TMC3    H111155   0.400   2.023  11.316 -0.5075 -1.8877 -1.4214
  751TMC3    H211156   0.312   1.620  11.416  1.4442  0.0126 -1.0655
  751TMC3    C711157   0.301   1.799  11.221 -0.3835  0.0514 -0.2441
  751TMC3    C811158   0.184   1.679  11.641 -0.0433  0.3879  0.4024
  751TMC3    O111159   0.323   1.879  11.129  0.1780  0.2904 -0.0005
  751TMC3    O211160   0.163   1.570  11.594 -0.5527 -0.2780  0.1217
  752TMC3    C111161   3.387   1.102  16.822  0.6498  0.9565  0.4537
  752TMC3    C211162   3.496   1.025  16.848 -0.4174  0.0051  0.0782
  752TMC3    C311163   3.535   0.996  16.976  0.4072 -0.4353 -0.5773
  752TMC3    C411164   3.305   1.146  16.924  0.1627 -0.4647 -0.3113
  752TMC3    C511165   3.335   1.116  17.051 -0.5409 -0.2333  0.0637
  752TMC3    C611166   3.451   1.043  17.075 -0.2262  0.3233 -0.5471
  752TMC3     C11167   3.378   1.185  16.698  0.3568  0.1432  0.3460
  752TMC3     O11168   3.429   1.135  16.600 -0.2266 -0.4280 -0.1239
  752TMC3     H11169   3.562   1.003  16.764 -0.2006 -2.4200  0.8857
  752TMC3    H111170   3.203   1.180  16.908  0.4612  0.3909 -0.3712
  752TMC3    H211171   3.477   1.019  17.178  1.0429 -0.2759 -0.9990
  752TMC3    C711172   3.237   1.141  17.153  0.6336 -0.5125 -0.4562
  752TMC3    C811173   3.603   0.869  16.987  0.4286 -0.3512 -0.6253
  752TMC3    O111174   3.164   1.237  17.128  0.0768 -0.0564  0.1344
  752TMC3    O211175   3.667   0.834  16.890 -0.0123  0.2115  0.0031
  753TMC3    C111176   0.871   3.169  13.259  0.3773  0.8638  0.0600
  753TMC3    C211177   0.826   3.207  13.382  1.1902 -0.5611  0.0722
  753TMC3    C311178   0.790   3.108  13.471  0.3428 -0.0394 -0.4998
  753TMC3    C411179   0.880   3.034  13.222 -0.2067 -0.4074  0.4955
  753TMC3    C511180   0.840   2.942  13.318  0.0853  0.0431  0.0572
  753TMC3    C611181   0.799   2.972  13.441 -0.7985 -0.8437  0.4999
  753TMC3     C11182   0.923   3.261  13.161 -0.5554 -0.0110  0.4601
  753TMC3     O11183   0.985   3.218  13.066  0.7517 -0.9197 -0.7275
  753TMC3     H11184   0.834   3.309  13.420 -0.4249 -0.3914 -0.0477
  753TMC3    H111185   0.925   2.998  13.130  0.1923  0.9386  0.1531
  753TMC3    H211186   0.758   2.902  13.513 -2.5188  0.1399  0.4965
  753TMC3    C711187   0.853   2.806  13.277  0.0273 -0.3460  0.6601
  753TMC3    C811188   0.693   3.141  13.576  0.3059 -0.4050  0.3148
  753TMC3    O111189   0.805   2.739  13.367 -0.5788  0.6009  0.9128
  753TMC3    O211190   0.575   3.102  13.574  0.0175 -0.1088 -0.2267
  754MPD2     C11191   4.478   1.679  13.157  0.4173 -0.2933 -0.0680
  754MPD2    C111192   4.406   1.565  13.177 -0.8463  0.1204 -0.4407
  754MPD2    C211193   4.269   1.564  13.170  0.1328 -0.2986  0.1280
  754MPD2    C311194   4.203   1.684  13.175  0.1917  0.0349  0.4566
  754MPD2    C411195   4.269   1.806  13.163 -0.9410 -0.0967 -0.7191
  754MPD2    C511196   4.411   1.798  13.149  0.4769 -0.1977 -0.4790
  754MPD2     H11197   4.217   1.469  13.170 -1.0865  0.3644 -1.2180
  754MPD2    H111198   4.216   1.901  13.162 -0.3191  0.2906  3.1021
  754MPD2    H211199   4.587   1.678  13.150  0.6097  0.2337  2.7672
  754MPD2    H311200   4.454   1.898  13.142  0.3177 -0.3273 -3.3178
  754MPD2     N11201   4.067   1.686  13.204  0.0002  0.2721  0.6046
  754MPD2    H511202   4.023   1.776  13.218 -2.1164 -0.6315 -0.2440
  754MPD2    N111203   4.484   1.451  13.201 -0.1354 -0.4430 -0.6255
  754MPD2    H711204   4.584   1.462  13.187  0.1064 -0.6312  0.9184
  755MPD2     C11205   3.218   2.013  12.957  0.6183 -0.3045  0.1377
  755MPD2    C111206   3.185   1.890  13.006  0.0269  0.0090 -0.1192
  755MPD2    C211207   3.271   1.829  13.096  0.2079  0.3718 -0.2871
  755MPD2    C311208   3.391   1.883  13.129  0.1542 -0.1108 -0.6772
  755MPD2    C411209   3.427   2.000  13.073 -0.1279 -0.1475  0.0161
  755MPD2    C511210   3.343   2.065  12.988  0.1889 -0.2481 -0.4392
  755MPD2     H11211   3.257   1.728  13.134  0.0444 -0.2891 -2.1291
  755MPD2    H111212   3.519   2.050  13.102  0.5121 -0.9272 -0.6900
  755MPD2    H211213   3.157   2.073  12.890  0.4461  0.5764  1.0979
  755MPD2    H311214   3.378   2.162  12.956  0.0973 -0.3636 -0.8895
  755MPD2     N11215   3.478   1.809  13.215  0.1558 -0.2227  0.8167
  755MPD2    H511216   3.437   1.717  13.232  0.1188 -0.7003 -1.9477
  755MPD2    N111217   3.068   1.829  12.968 -0.1147 -0.5128  0.4704
  755MPD2    H711218   3.058   1.736  13.008  0.1002 -0.4256  0.7248
  756MPD2     C11219   0.151   3.119   9.926 -0.3186  0.4674 -0.0287
  756MPD2    C111220   0.035   3.102   9.997 -0.1467 -0.2111 -0.1518
  756MPD2    C211221   4.650   3.122   9.938 -0.2467 -0.5112  0.1201
  756MPD2    C311222   4.640   3.148   9.803  0.3647  0.3311 -0.3064
  756MPD2    C411223   0.028   3.144   9.733  0.1717  0.5092 -0.2849
  756MPD2    C511224   0.145   3.147   9.794 -0.3712  0.2877  0.2170
  756MPD2     H11225   4.561   3.107   9.998  0.1275 -3.0996  0.0559
  756MPD2    H111226   0.031   3.149   9.625 -1.1822  2.1064 -0.2472
  756MPD2    H211227   0.252   3.117   9.964 -1.5243 -0.6704  3.0347
  756MPD2    H311228   0.235   3.167   9.736 -0.8142 -1.7782 -1.2059
  756MPD2     N11229   4.516   3.163   9.735  0.2332  0.4363 -0.0492
  756MPD2    H511230   4.432   3.133   9.783 -0.4047  0.1159 -1.3810
  756MPD2    N111231   0.034   3.055  10.130 -0.2475 -0.4404  0.0610
  756MPD2    H711232   4.687   3.058  10.185 -0.7425  0.0323 -0.7492
  757MPD2     C11233   3.821   2.762   9.937  0.1378 -0.3746 -0.3180
  757MPD2    C111234   3.956   2.733   9.933  0.0122  1.4020 -0.6811
  757MPD2    C211235   4.033   2.789   9.836 -0.7474  0.3895 -0.7907
  757MPD2    C311236   3.983   2.886   9.747 -0.1449  0.2430  0.0268
  757MPD2    C411237   3.851   2.927   9.761  0.7498  0.1456 -0.0214
  757MPD2    C511238   3.774   2.863   9.861 -0.1975  0.2041  0.3933
  757MPD2     H11239   4.137   2.757   9.833 -1.0792 -0.6013 -1.8182
  757MPD2    H111240   3.805   3.011   9.711 -1.6011 -0.6011  0.8810
  757MPD2    H211241   3.757   2.711  10.009  0.9707  0.5266  1.0551
  757MPD2    H311242   3.668   2.886   9.870 -0.7576 -2.3064  0.2071
  757MPD2     N11243   4.077   2.954   9.659  0.0122 -0.0856 -0.4116
  757MPD2    H511244   4.175   2.942   9.682 -0.6197 -3.3160  0.5883
  757MPD2    N111245   3.990   2.619  10.016  0.1233  0.2444  0.3228
  757MPD2    H711246   3.918   2.574  10.071  0.6301 -1.5197 -0.4512
  758MPD2     C11247   3.774   1.473  15.573 -0.0348  0.3081  0.0510
  758MPD2    C111248   3.815   1.368  15.654  0.2288  0.0095  0.4463
  758MPD2    C211249   3.775   1.360  15.785 -0.0219  0.8704 -0.7024
  758MPD2    C311250   3.696   1.471  15.827 -0.2416 -0.8855  0.1855
  758MPD2    C411251   3.656   1.574  15.752  1.0350  0.3181 -0.0456
  758MPD2    C511252   3.690   1.566  15.621  0.5562 -0.3809  0.3161
  758MPD2     H11253   3.799   1.273  15.844 -1.2548 -0.1785 -1.7360
  758MPD2    H111254   3.596   1.653  15.798  0.0474 -1.6959  2.1287
  758MPD2    H211255   3.793   1.477  15.466  3.8779 -1.1113  0.6927
  758MPD2    H311256   3.652   1.642  15.554  1.0311  0.1049  0.6051
  758MPD2     N11257   3.681   1.489  15.969  0.4085  0.1331 -0.7397
  758MPD2    H511258   3.643   1.572  16.012  0.2072  0.3964 -1.4227
  758MPD2    N111259   3.889   1.262  15.592 -0.1141 -0.4399 -0.1713
  758MPD2    H711260   3.924   1.284  15.499 -0.0502  0.6721  0.1166
  759MPD2     C11261   4.090   4.714   9.722  0.0017 -0.2688  0.2302
  759MPD2    C111262   4.027   0.015   9.834 -0.0735  0.0494 -0.1022
  759MPD2    C211263   4.026   0.148   9.875 -0.1556  0.0783  0.5509
  759MPD2    C311264   4.084   0.241   9.797  0.0081  0.1550 -0.5717
  759MPD2    C411265   4.147   0.207   9.684  0.1174 -0.2601  0.1439
  759MPD2    C511266   4.154   0.070   9.648  0.0679  0.0988  0.5766
  759MPD2     H11267   3.968   0.179   9.961  0.9541 -0.3773  1.4670
  759MPD2    H111268   4.193   0.289   9.630  0.2474 -0.8533 -0.6449
  759MPD2    H211269   4.079   4.616   9.676 -2.4562 -0.2098  0.7229
  759MPD2    H311270   4.204   0.047   9.554 -1.0059  0.5546 -0.1151
  759MPD2     N11271   4.068   0.378   9.840  0.3679  0.0180 -0.0189
  759MPD2    H511272   4.025   0.387   9.931 -0.6578  0.2742 -0.5211
  759MPD2    N111273   3.943   4.671   9.911 -0.0193  1.2255  0.5148
  759MPD2    H711274   3.893   4.714   9.988 -2.1112 -0.8693  0.3188
  760MPD2     C11275   2.454   1.499  11.636 -0.1882 -0.2481 -0.1645
  760MPD2    C111276   2.568   1.564  11.678  0.7059 -0.4041  0.7017
  760MPD2    C211277   2.659   1.485  11.743 -0.1729 -0.5382 -0.4746
  760MPD2    C311278   2.649   1.353  11.768  0.1072 -0.2535 -0.3439
  760MPD2    C411279   2.536   1.288  11.723  0.2213 -0.3838 -0.7019
  760MPD2    C511280   2.436   1.365  11.669  0.3035 -0.0942  0.0785
  760MPD2     H11281   2.752   1.529  11.777 -0.0804 -3.4477  3.0073
  760MPD2    H111282   2.519   1.182  11.739 -2.6896  0.5721  2.3739
  760MPD2    H211283   2.366   1.549  11.596  0.0628  0.4058  0.0988
  760MPD2    H311284   2.351   1.310  11.630  0.6918  0.1347 -1.1104
  760MPD2     N11285   2.756   1.278  11.827 -0.5928  0.3595 -0.2314
  760MPD2    H511286   2.743   1.178  11.844  0.9271  0.0761 -0.6893
  760MPD2    N111287   2.603   1.697  11.639  0.2953 -0.1566  0.4630
  760MPD2    H711288   2.695   1.723  11.673  0.3731 -0.7208  0.6952
  761MPD2     C11289   4.410   1.740  11.712  0.3092  0.4410  0.1513
  761MPD2    C111290   4.481   1.654  11.629  0.7419  0.0341 -0.0445
  761MPD2    C211291   4.621   1.659  11.626 -0.2107 -0.3589  0.1908
  761MPD2    C311292   4.688   1.745  11.705 -0.0594  0.2109 -0.6732
  761MPD2    C411293   4.619   1.835  11.784  0.0039 -0.0276  0.7419
  761MPD2    C511294   4.481   1.823  11.798  0.6979  0.1770 -0.0622
  761MPD2     H11295   4.670   1.590  11.558 -0.2769  0.2876 -0.5111
  761MPD2    H111296   4.675   1.902  11.848 -0.6684 -0.1540  1.4612
  761MPD2    H211297   4.302   1.732  11.714  0.5025 -2.3099 -0.2992
  761MPD2    H311298   4.436   1.883  11.876  2.2556  1.7740 -0.4002
  761MPD2     N11299   0.091   1.767  11.699  0.4448 -0.0668  0.4149
  761MPD2    H511300   0.131   1.840  11.757 -0.5720  0.0906  0.9207
  761MPD2    N111301   4.401   1.576  11.547  0.1501  0.0509  0.0357
  761MPD2    H711302   4.304   1.600  11.566  0.7617  1.5360  1.2668
  762MPD2     C11303   4.346   0.857  10.971 -0.3795  0.3885  0.0184
  762MPD2    C111304   4.401   0.982  10.985 -0.2659 -0.2474  0.0100
  762MPD2    C211305   4.498   1.012  10.895 -0.7121 -0.2144  0.6225
  762MPD2    C311306   4.551   0.914  10.813  0.1385 -0.5133  0.2905
  762MPD2    C411307   4.503   0.788  10.807 -0.2908  0.1145 -0.5627
  762MPD2    C511308   4.392   0.764  10.880  0.2832 -0.6246  0.6585
  762MPD2     H11309   4.545   1.108  10.911 -0.0926 -0.0753 -2.1026
  762MPD2    H111310   4.536   0.720  10.730 -0.3413  0.7140 -1.1148
  762MPD2    H211311   4.261   0.821  11.028  2.3760 -3.1834  1.8761
  762MPD2    H311312   4.367   0.659  10.884  0.4939 -0.6108  2.3184
  762MPD2     N11313   4.653   0.965  10.729 -0.1402  0.1868 -0.5737
  762MPD2    H511314   4.643   1.064  10.709  1.5211  0.5584  0.4021
  762MPD2    N111315   4.343   1.069  11.074 -0.4528 -0.4542  0.2326
  762MPD2    H711316   4.272   1.028  11.135 -1.6178  0.6751 -0.3598
  763MPD2     C11317   1.107   1.885  16.288  0.0625  0.2932 -0.3636
  763MPD2    C111318   1.027   1.908  16.177 -0.3980 -0.2072  0.3370
  763MPD2    C211319   0.933   2.005  16.181 -0.4488 -0.3254  0.6146
  763MPD2    C311320   0.942   2.103  16.275  0.4397 -0.1056 -0.0465
  763MPD2    C411321   1.022   2.087  16.385 -0.4430 -0.0874 -0.3301
  763MPD2    C511322   1.097   1.973  16.394  0.6441  0.2831 -0.0257
  763MPD2     H11323   0.863   2.010  16.099 -0.7147  1.9897  1.0041
  763MPD2    H111324   1.019   2.162  16.464 -1.9690  1.2658 -1.6804
  763MPD2    H211325   1.182   1.808  16.304  0.7606  0.8503 -0.9174
  763MPD2    H311326   1.162   1.957  16.479 -1.1405 -1.3539  1.0131
  763MPD2     N11327   0.859   2.224  16.269 -0.0626 -0.2306 -0.1714
  763MPD2    H511328   0.903   2.296  16.325  1.5210 -0.7717 -0.7107
  763MPD2    N111329   1.018   1.813  16.064 -0.6187 -0.2446 -0.4512
  763MPD2    H711330   0.941   1.812  15.998  0.0401  1.0266 -1.2285
  764MPD2     C11331   3.554   2.660  17.122  0.3237  0.0228  0.4955
  764MPD2    C111332   3.470   2.759  17.166 -0.5589 -0.5366 -0.2128
  764MPD2    C211333   3.446   2.775  17.300 -0.3486 -0.3492 -0.0205
  764MPD2    C311334   3.514   2.703  17.397  0.0299 -0.0062  1.0736
  764MPD2    C411335   3.605   2.609  17.344  0.0503 -0.1878  0.2332
  764MPD2    C511336   3.622   2.577  17.211  0.9902  1.0539  0.3518
  764MPD2     H11337   3.362   2.832  17.339  0.5900  1.1634 -0.2301
  764MPD2    H111338   3.663   2.548  17.413 -2.4356  0.0917  2.5571
  764MPD2    H211339   3.598   2.648  17.024 -1.0942 -1.2769  0.0290
  764MPD2    H311340   3.695   2.505  17.176  1.4912  2.1664 -0.8693
  764MPD2     N11341   3.494   2.730  17.530  0.4629 -0.1914 -0.2043
  764MPD2    H511342   3.428   2.802  17.555 -0.6433 -1.3363  0.1797
  764MPD2    N111343   3.404   2.831  17.071  0.3165  0.2323 -0.6298
  764MPD2    H711344   3.447   2.816  16.981  1.8031 -1.2633  0.3234
  765MPD2     C11345   3.694   0.830  15.043  0.0504  0.0683  0.0700
  765MPD2    C111346   3.721   0.868  15.177  0.3892  0.1508 -0.1371
  765MPD2    C211347   3.843   0.840  15.235 -0.5217 -0.2292 -0.1137
  765MPD2    C311348   3.941   0.774  15.159  0.3194  0.1522  0.1807
  765MPD2    C411349   3.913   0.737  15.026  0.0420  0.5864 -0.1397
  765MPD2    C511350   3.787   0.766  14.969 -0.1821  0.4450 -0.3899
  765MPD2     H11351   3.868   0.870  15.336 -0.8045 -4.3470  1.1920
  765MPD2    H111352   3.990   0.683  14.972 -1.6376 -1.4567 -0.4917
  765MPD2    H211353   3.598   0.857  15.000  0.6326  2.9731  0.6320
  765MPD2    H311354   3.765   0.736  14.867  2.0171  0.4212 -0.8610
  765MPD2     N11355   4.066   0.735  15.212  0.7396  0.0774 -0.9586
  765MPD2    H511356   4.080   0.744  15.312  1.5910  0.3020 -1.0968
  765MPD2    N111357   3.616   0.934  15.259 -0.3043 -0.6170  0.1792
  765MPD2    H711358   3.523   0.928  15.219  0.2929  0.8855 -1.4211
  766MPD2     C11359   3.193   0.781  15.036  0.3314 -0.0922 -0.1072
  766MPD2    C111360   3.254   0.906  15.028 -0.4535 -0.7356 -0.6916
  766MPD2    C211361   3.334   0.929  14.919 -0.5616 -0.2183  0.2625
  766MPD2    C311362   3.345   0.836  14.816  0.3973 -0.0953 -0.1632
  766MPD2    C411363   3.266   0.725  14.814  0.7698 -0.0848  1.4055
  766MPD2    C511364   3.197   0.691  14.929 -0.4241  0.7242  0.1333
  766MPD2     H11365   3.399   1.015  14.910  2.1168 -2.3034 -0.3925
  766MPD2    H111366   3.249   0.665  14.725 -3.2082  2.3493  0.4987
  766MPD2    H211367   3.136   0.752  15.124  2.0764 -0.2261  0.9942
  766MPD2    H311368   3.132   0.606  14.947 -0.2437  0.3487 -1.0249
  766MPD2     N11369   3.415   0.875  14.699 -0.3490 -0.3134  0.5764
  766MPD2    H511370   3.384   0.830  14.613  0.0532 -0.8705  0.7243
  766MPD2    N111371   3.258   0.984  15.146  0.0155  0.3022  0.0970
  766MPD2    H711372   3.211   0.943  15.226  2.3313  2.5161  2.5551
  767MPD2     C11373   3.076   1.160  14.832  0.1091  0.2784  0.3284
  767MPD2    C111374   3.185   1.185  14.747 -0.5071 -0.1214 -0.0206
  767MPD2    C211375   3.169   1.149  14.617  0.4388  0.5070  0.3689
  767MPD2    C311376   3.052   1.099  14.560  0.1293 -0.0413  0.1551
  767MPD2    C411377   2.941   1.086  14.646 -0.3561  0.6358 -0.1463
  767MPD2    C511378   2.950   1.114  14.786 -0.6411  0.9333 -0.5314
  767MPD2     H11379   3.259   1.150  14.557  1.5468 -0.9615  2.0351
  767MPD2    H111380   2.847   1.044  14.613  0.3456 -0.4252 -0.7996
  767MPD2    H211381   3.071   1.183  14.938  0.6673  1.2127  0.1555
  767MPD2    H311382   2.870   1.109  14.859  0.0618  0.3608  0.2075
  767MPD2     N11383   3.059   1.068  14.425 -0.0612 -0.3897 -0.8031
  767MPD2    H511384   3.150   1.082  14.382  0.2901  0.4199  0.1959
  767MPD2    N111385   3.299   1.244  14.804  0.0727 -0.2362 -0.6907
  767MPD2    H711386   3.318   1.250  14.903  0.2331 -2.9938 -0.5628
  768MPD2     C11387   4.555   0.033  10.498 -0.5008 -0.1715 -0.3309
  768MPD2    C111388   4.472   4.694  10.578 -0.1583  0.3412 -1.3182
  768MPD2    C211389   4.525   4.609  10.677 -1.4450 -0.1696 -0.2785
  768MPD2    C311390   4.656   4.617  10.702  0.0275  0.4921  0.3041
  768MPD2    C411391   4.738   4.688  10.620  0.5560  0.5848  0.1105
  768MPD2    C511392   4.689   0.030  10.525  0.1691  0.2092 -0.2069
  768MPD2     H11393   4.454   4.549  10.733  0.2111 -1.3416  0.5440
  768MPD2    H111394   0.105   4.689  10.644  0.5974 -1.7822  0.0633
  768MPD2    H211395   4.508   0.075  10.410 -1.5496 -0.8909 -0.1172
  768MPD2    H311396   0.018   0.087  10.464  0.6001  0.6458  0.6840
  768MPD2     N11397   4.712   4.548  10.818 -0.6992  0.6746 -0.6146
  768MPD2    H511398   0.054   4.581  10.870 -0.1544  0.0751 -1.0682
  768MPD2    N111399   4.331   4.686  10.562  0.1687 -0.0327 -0.3310
  768MPD2    H711400   4.282   4.614  10.614 -0.0658  0.1586 -0.2814
  769MPD2     C11401   0.168   2.707  14.704 -0.0969 -0.2337  0.4416
  769MPD2    C111402   0.100   2.642  14.804 -0.2379  0.2254  0.7571
  769MPD2    C211403   0.131   2.668  14.936  0.5935 -0.2248  0.2260
  769MPD2    C311404   0.217   2.768  14.976  0.5905 -0.3761 -0.4761
  769MPD2    C411405   0.270   2.850  14.878 -0.0942 -0.0528 -0.2517
  769MPD2    C511406   0.251   2.811  14.749  0.5991  0.1549  0.5544
  769MPD2     H11407   0.074   2.619  15.015 -0.1556 -0.3307 -0.3755
  769MPD2    H111408   0.343   2.928  14.892  0.8425 -0.7306 -1.4211
  769MPD2    H211409   0.144   2.693  14.600  2.8755  0.1558 -0.2929
  769MPD2    H311410   0.301   2.876  14.677  0.1681  0.0591  0.1663
  769MPD2     N11411   0.230   2.779  15.118 -0.7208 -0.8971  0.5433
  769MPD2    H511412   0.175   2.715  15.174 -0.1722 -1.2054  0.7312
  769MPD2    N111413   4.730   2.554  14.764 -0.4180  0.1291 -0.3284
  769MPD2    H711414   4.695   2.549  14.669  1.3980 -1.5010 -0.9118
  770MPD2     C11415   4.519   1.548  14.924  0.8306  0.3082 -0.2839
  770MPD2    C111416   4.513   1.587  14.792 -0.0074  0.2342 -0.6966
  770MPD2    C211417   4.476   1.715  14.752  0.5342 -0.6375 -0.5432
  770MPD2    C311418   4.455   1.810  14.846  0.4769 -0.2926  0.0414
  770MPD2    C411419   4.457   1.776  14.980 -0.5615 -0.1640  0.3470
  770MPD2    C511420   4.494   1.648  15.017 -0.6561 -0.4075 -0.0213
  770MPD2     H11421   4.485   1.739  14.647 -2.8683  2.2940 -0.1569
  770MPD2    H111422   4.431   1.843  15.061  1.4742 -0.7450  1.4806
  770MPD2    H211423   4.538   1.446  14.955 -2.1598 -0.4374 -0.9618
  770MPD2    H311424   4.517   1.621  15.120  1.4611 -0.3674 -0.4927
  770MPD2     N11425   4.432   1.947  14.798  0.3236 -0.0866 -0.1798
  770MPD2    H511426   4.425   1.962  14.698  2.2998  1.2512 -0.1271
  770MPD2    N111427   4.521   1.477  14.701  0.2407 -0.4167  0.1775
  770MPD2    H711428   4.519   1.383  14.739  1.6701 -0.7771 -0.6409
  771MPD2     C11429   0.971   0.313  13.987 -0.1182  0.4218 -0.2664
  771MPD2    C111430   0.925   0.410  13.895 -0.1103  0.2521 -0.1132
  771MPD2    C211431   0.820   0.377  13.811  0.3375  0.3659  0.0604
  771MPD2    C311432   0.770   0.253  13.824 -0.0248  0.7929 -0.2451
  771MPD2    C411433   0.810   0.157  13.916  0.5569 -0.3889  0.2228
  771MPD2    C511434   0.911   0.190  14.000  0.3189 -0.5434 -0.4894
  771MPD2     H11435   0.798   0.439  13.725 -0.7862 -0.6110 -0.3577
  771MPD2    H111436   0.767   0.058  13.926 -0.1767 -0.1134 -0.1972
  771MPD2    H211437   1.062   0.334  14.042 -0.5803 -0.0275  0.6526
  771MPD2    H311438   0.942   0.128  14.083  0.5829 -1.0690 -0.9735
  771MPD2     N11439   0.670   0.215  13.733  0.4167 -0.0550 -0.2397
  771MPD2    H511440   0.613   0.291  13.697  1.8939 -0.1147 -2.6644
  771MPD2    N111441   0.992   0.530  13.879  0.1871  0.3584 -0.2056
  771MPD2    H711442   0.953   0.596  13.813 -1.3515 -2.5378 -2.1880
  772MPD2     C11443   0.955   1.214  14.105 -0.2444 -0.2262 -0.0894
  772MPD2    C111444   0.940   1.080  14.086 -0.1616  0.5116  0.1083
  772MPD2    C211445   0.813   1.026  14.082  0.2072  0.8323  0.3603
  772MPD2    C311446   0.701   1.100  14.103 -0.4326  0.3871 -0.3098
  772MPD2    C411447   0.718   1.236  14.112  0.2352  0.2295 -0.0542
  772MPD2    C511448   0.844   1.291  14.115 -0.6746 -0.5293 -0.2375
  772MPD2     H11449   0.808   0.918  14.072  0.7481  0.8912 -0.5490
  772MPD2    H111450   0.633   1.303  14.116  1.5862  2.0831 -2.8296
  772MPD2    H211451   1.047   1.267  14.125 -0.3062  0.4084 -1.5345
  772MPD2    H311452   0.848   1.399  14.128 -1.4193 -0.5038 -0.2221
  772MPD2     N11453   0.573   1.047  14.094  0.4552  0.3287 -0.2784
  772MPD2    H511454   0.492   1.097  14.128 -0.8840  0.1957 -3.2955
  772MPD2    N111455   1.049   0.991  14.056 -0.4970  0.1966  0.2357
  772MPD2    H711456   1.021   0.895  14.042  2.3145 -0.4498 -1.0133
  773MPD2     C11457   4.327   1.729  17.653 -0.3261 -0.2115  0.2419
  773MPD2    C111458   4.275   1.639  17.562  0.4262 -0.2825 -0.0087
  773MPD2    C211459   4.271   1.504  17.593 -0.5150 -0.2329  0.2992
  773MPD2    C311460   4.322   1.449  17.708 -0.3977  0.4541  0.5295
  773MPD2    C411461   4.359   1.542   0.051 -0.6990 -0.6224 -0.0994
  773MPD2    C511462   4.365   1.676   0.028  0.2943 -0.0347  0.2774
  773MPD2     H11463   4.245   1.448  17.504  0.0520  0.4358 -0.2823
  773MPD2    H111464   4.392   1.507   0.148  0.3528  1.6391  0.3489
  773MPD2    H211465   4.337   1.836  17.644 -0.7308 -0.2885 -1.1773
  773MPD2    H311466   4.395   1.745   0.107  0.7360  3.3580 -2.8491
  773MPD2     N11467   4.321   1.312  17.729 -0.4980 -0.1317  0.8032
  773MPD2    H511468   4.310   1.254  17.646  1.0067 -0.9646  1.1855
  773MPD2    N111469   4.223   1.683  17.435 -0.5812  0.4764  0.3239
  773MPD2    H711470   4.149   1.625  17.396  0.2625 -2.2299  2.7032
  774MPD2     C11471   3.998   0.498  13.487  0.0327  0.8828 -0.4418
  774MPD2    C111472   3.985   0.580  13.590  0.1871  0.4927  0.2899
  774MPD2    C211473   4.010   0.712  13.566  0.4194  0.3348  0.1442
  774MPD2    C311474   4.060   0.764  13.450 -0.3727 -0.1288  0.2010
  774MPD2    C411475   4.065   0.682  13.338  0.3437 -0.3048 -0.0522
  774MPD2    C511476   4.041   0.547  13.368  0.7232  0.5522 -0.2202
  774MPD2     H11477   4.011   0.782  13.649 -4.6665  0.4499  0.0580
  774MPD2    H111478   4.099   0.708  13.239  1.4056  0.1948  0.4337
  774MPD2    H211479   3.982   0.392  13.504  1.0011  0.7695 -0.2614
  774MPD2    H311480   4.059   0.470  13.294 -2.0674 -0.2966 -0.0277
  774MPD2     N11481   4.106   0.894  13.444  0.3018 -0.2724 -0.4225
  774MPD2    H511482   4.101   0.940  13.534 -2.2271 -1.0122 -0.1761
  774MPD2    N111483   3.964   0.516  13.711 -0.6322 -0.4886  0.0629
  774MPD2    H711484   3.964   0.414  13.713  0.8978 -0.4342  2.2098
  775MPD2     C11485   0.584   2.420  15.669 -0.4063  0.2145  0.6037
  775MPD2    C111486   0.538   2.546  15.721 -0.7148 -0.3651 -0.1240
  775MPD2    C211487   0.635   2.644  15.739  0.6558 -0.0003 -0.3322
  775MPD2    C311488   0.766   2.624  15.693  0.3569  0.6216  0.5058
  775MPD2    C411489   0.810   2.500  15.650  0.4458 -0.1131 -0.6563
  775MPD2    C511490   0.718   2.395  15.651  0.6532  1.1314 -0.4099
  775MPD2     H11491   0.602   2.739  15.780 -1.2602 -1.8773  2.4190
  775MPD2    H111492   0.915   2.479  15.637  0.3466 -1.7484  1.0918
  775MPD2    H211493   0.513   2.340  15.656 -2.3252  1.6908  2.1742
  775MPD2    H311494   0.751   2.296  15.622 -1.5401  0.3330 -0.1558
  775MPD2     N11495   0.865   2.726  15.701 -0.2050  0.3804 -0.6379
  775MPD2    H511496   0.950   2.715  15.648 -0.5419  0.9690 -1.2982
  775MPD2    N111497   0.403   2.550  15.758 -0.2793 -0.3465  0.4026
  775MPD2    H711498   0.344   2.475  15.726 -0.7103  0.9560 -1.8938
  776MPD2     C11499   4.520   3.294  11.834  0.4014  0.2348 -0.1139
  776MPD2    C111500   4.641   3.245  11.804  0.5074  0.0041  0.8335
  776MPD2    C211501   4.738   3.327  11.746 -0.5978  0.0624 -0.0140
  776MPD2    C311502   4.710   3.459  11.716 -0.3427  0.3224  0.2795
  776MPD2    C411503   4.586   3.506  11.749  0.0462  0.6241  0.3040
  776MPD2    C511504   4.491   3.422  11.799 -0.9916 -0.1404 -0.0548
  776MPD2     H11505   0.099   3.290  11.720 -1.3200 -1.7999 -0.1094
  776MPD2    H111506   4.558   3.611  11.752 -0.6727  0.4558 -0.4291
  776MPD2    H211507   4.437   3.233  11.868 -0.1665  0.7100 -0.6575
  776MPD2    H311508   4.394   3.455  11.835 -0.5584 -0.4170  1.3582
  776MPD2     N11509   0.054   3.542  11.638  0.7757  0.6879  0.4582
  776MPD2    H511510   0.012   3.632  11.618  2.4187  1.3539 -0.0324
  776MPD2    N111511   4.657   3.107  11.834 -0.3834 -0.2104 -0.0129
  776MPD2    H711512   4.578   3.073  11.888 -1.5097  1.4972 -0.5825
  777MPD2     C11513   0.233   0.973   0.761 -0.5426 -0.5635  0.1243
  777MPD2    C111514   0.112   1.038   0.784  0.3503  0.1378  0.0509
  777MPD2    C211515   4.736   0.977   0.732  0.0994 -0.3968 -0.1567
  777MPD2    C311516   0.006   0.853   0.663 -0.2128 -0.4181 -0.5198
  777MPD2    C411517   0.131   0.797   0.636 -0.3599 -0.1270  0.3594
  777MPD2    C511518   0.243   0.863   0.684  0.8398  0.5809 -0.5328
  777MPD2     H11519   4.638   1.021   0.745 -0.0518 -1.5817  2.8942
  777MPD2    H111520   0.148   0.707   0.579 -0.3900  0.3890 -0.4539
  777MPD2    H211521   0.329   1.008   0.796 -0.4715  0.9633 -1.5882
  777MPD2    H311522   0.338   0.811   0.678 -0.5666 -2.0195 -0.3424
  777MPD2     N11523   4.631   0.784   0.629  0.0123  0.1848 -0.8891
  777MPD2    H511524   4.547   0.830   0.662 -1.1388 -3.7035  1.5604
  777MPD2    N111525   0.114   1.155   0.860  0.9566 -0.2270 -0.0696
  777MPD2    H711526   0.201   1.172   0.908  0.7408  0.5425  0.0372
  778MPD2     C11527   0.971   0.482  15.232 -0.1377 -0.4135 -0.2258
  778MPD2    C111528   0.964   0.419  15.110 -0.3164 -0.2975  0.7466
  778MPD2    C211529   1.062   0.436  15.017  0.0717 -0.3873  0.2401
  778MPD2    C311530   1.163   0.531  15.034 -0.2109  0.3002  0.5096
  778MPD2    C411531   1.172   0.596  15.157  0.1136  0.5117  0.1800
  778MPD2    C511532   1.070   0.575  15.250 -0.1698  0.0986 -0.2944
  778MPD2     H11533   1.056   0.381  14.923 -0.3070 -0.1384  0.1189
  778MPD2    H111534   1.251   0.667  15.179  0.6322 -0.9555  3.0606
  778MPD2    H211535   0.895   0.469  15.307  0.3815  1.9236  0.7132
  778MPD2    H311536   1.072   0.632  15.343 -0.3155 -1.1419  0.4606
  778MPD2     N11537   1.250   0.552  14.923  0.0135  0.2907 -0.1437
  778MPD2    H511538   1.237   0.488  14.844 -3.1830  0.5090  0.2182
  778MPD2    N111539   0.872   0.313  15.084 -0.0166  0.0707 -0.0962
  778MPD2    H711540   0.863   0.284  14.987 -1.9093 -0.5820  0.2690
  779MPD2     C11541   0.572   4.148  14.296  0.6553 -0.0721 -0.0059
  779MPD2    C111542   0.709   4.158  14.312 -0.5362  0.0231 -0.1295
  779MPD2    C211543   0.755   4.279  14.355 -0.1313  0.8701 -0.2601
  779MPD2    C311544   0.673   4.389  14.364  0.6241  0.1040  0.1180
  779MPD2    C411545   0.535   4.368  14.364  0.5098  0.5985  0.2843
  779MPD2    C511546   0.485   4.245  14.328 -0.3075  0.7713 -0.9184
  779MPD2     H11547   0.862   4.282  14.368 -0.0758 -0.7914 -0.2872
  779MPD2    H111548   0.469   4.444  14.403 -2.2124 -1.3680 -0.5436
  779MPD2    H211549   0.544   4.047  14.270  2.5086 -0.9982  1.6097
  779MPD2    H311550   0.378   4.239  14.313 -0.4261  0.3959  0.0997
  779MPD2     N11551   0.730   4.510  14.398 -0.3130 -0.0395 -0.1726
  779MPD2    H511552   0.829   4.506  14.415 -0.2459  0.8900 -0.3307
  779MPD2    N111553   0.803   4.056  14.291  0.3056 -0.2261  0.3626
  779MPD2    H711554   0.894   4.063  14.335  0.2618 -2.2391  0.7422
  780MPD2     C11555   0.249   4.133   0.834  0.3329 -0.3469  0.3078
  780MPD2    C111556   0.156   4.090   0.745  0.6119 -1.0340 -0.2531
  780MPD2    C211557   0.174   4.115   0.611  0.1280 -0.0824 -0.1504
  780MPD2    C311558   0.290   4.182   0.557  0.3198  0.8621 -0.0885
  780MPD2    C411559   0.378   4.227   0.652  0.6703 -0.0112 -0.7004
  780MPD2    C511560   0.355   4.199   0.783  0.1761 -0.9754  0.0689
  780MPD2     H11561   0.105   4.067   0.541 -0.1175  1.6301 -1.0882
  780MPD2    H111562   0.459   4.295   0.627 -0.8739  3.2437  3.2459
  780MPD2    H211563   0.243   4.130   0.943 -0.7973 -0.6182  0.2362
  780MPD2    H311564   0.432   4.231   0.853  0.6274 -1.3849 -0.2360
  780MPD2     N11565   0.308   4.205   0.416 -0.2168 -0.3078  0.2990
  780MPD2    H511566   0.239   4.163   0.356  0.3669 -0.3952 -0.3071
  780MPD2    N111567   0.046   4.021   0.795 -0.0700  0.6270  0.6651
  780MPD2    H711568   0.046   3.992   0.892 -1.2767 -0.4272  0.3491
  781MPD2     C11569   2.311   1.115  12.561 -0.1049  0.2946  0.0158
  781MPD2    C111570   2.368   1.042  12.658 -0.1323  0.2118 -0.5217
  781MPD2    C211571   2.499   1.004  12.639  0.2714  0.2282 -0.1687
  781MPD2    C311572   2.569   1.027  12.515  0.7617  0.3461 -0.0557
  781MPD2    C411573   2.511   1.106  12.422 -0.0440 -0.0269  0.4280
  781MPD2    C511574   2.390   1.156  12.450  0.7524  0.3715  0.5165
  781MPD2     H11575   2.547   0.938  12.710 -1.6651 -0.1076  0.8133
  781MPD2    H111576   2.557   1.143  12.330  0.0923 -2.7112 -0.5650
  781MPD2    H211577   2.209   1.149  12.577 -0.7416 -0.4798 -2.3200
  781MPD2    H311578   2.334   1.217  12.380  0.4777 -1.0817 -0.5218
  781MPD2     N11579   2.689   0.961  12.500 -0.1535  0.1522  0.6576
  781MPD2    H511580   2.724   0.899  12.572 -0.1223 -0.4746  0.0962
  781MPD2    N111581   2.299   0.995  12.774 -0.1788 -0.2368 -0.0153
  781MPD2    H711582   2.362   0.942  12.832 -0.0448 -0.1160 -0.0500
  782MPD2     C11583   0.074   1.837  10.453 -0.2424  0.1170  0.9630
  782MPD2    C111584   0.196   1.831  10.396 -0.1430  0.4879  0.0157
  782MPD2    C211585   0.301   1.899  10.451  0.1355  0.5087  1.1333
  782MPD2    C311586   0.291   1.950  10.577 -0.1812  0.3756  0.2608
  782MPD2    C411587   0.177   1.951  10.644 -0.3781 -0.4392 -0.5920
  782MPD2    C511588   0.070   1.898  10.577  0.0214 -0.1891 -0.4394
  782MPD2     H11589   0.392   1.892  10.393 -0.1132 -2.0329  1.0484
  782MPD2    H111590   0.165   1.987  10.746  2.0643 -0.3165 -0.3501
  782MPD2    H211591   4.735   1.771  10.416 -1.0174  1.5497  0.0281
  782MPD2    H311592   4.714   1.881  10.629 -0.7274 -0.1232 -1.7745
  782MPD2     N11593   0.398   1.990  10.655  0.5199  0.3733 -0.5147
  782MPD2    H511594   0.378   2.025  10.748  0.9758  1.4070 -0.8054
  782MPD2    N111595   0.206   1.748  10.281 -0.1696 -0.1102  0.1593
  782MPD2    H711596   0.121   1.752  10.226 -0.3066  0.4915  0.4190
  783MPD2     C11597   0.068   1.535  11.143 -0.5310  0.4359  0.3311
  783MPD2    C111598   0.153   1.642  11.115  0.2140  0.4337 -0.0131
  783MPD2    C211599   0.204   1.658  10.986 -0.0049 -0.0178 -0.1090
  783MPD2    C311600   0.168   1.558  10.895  0.3671 -0.1751 -0.0809
  783MPD2    C411601   0.083   1.453  10.924  0.3070  0.6779 -0.4192
  783MPD2    C511602   0.033   1.441  11.046 -0.2926 -0.0759  0.3912
  783MPD2     H11603   0.263   1.746  10.966 -1.3952  0.2911 -2.9137
  783MPD2    H111604   0.066   1.366  10.863  1.1689  0.4140 -0.2741
  783MPD2    H211605   0.024   1.530  11.242 -0.2194 -1.2727  0.3843
  783MPD2    H311606   4.702   1.362  11.070 -2.1774  2.3080  2.7105
  783MPD2     N11607   0.241   1.557  10.772 -0.7499 -0.5148  0.4413
  783MPD2    H511608   0.311   1.629  10.762  0.9658 -2.0521  1.2442
  783MPD2    N111609   0.198   1.708  11.229  0.3605  0.2216 -0.0111
  783MPD2    H711610   0.166   1.670  11.318  0.0943 -1.3275 -0.7641
  784MPD2     C11611   2.641   2.419   0.642  0.1202  0.0426 -0.3669
  784MPD2    C111612   2.602   2.546   0.681  0.5620 -0.0087  0.0119
  784MPD2    C211613   2.470   2.582   0.671 -0.2885  0.7250  0.0716
  784MPD2    C311614   2.377   2.504   0.617 -0.8323  0.8212  0.0654
  784MPD2    C411615   2.414   2.385   0.564 -0.2614 -0.1751  0.0764
  784MPD2    C511616   2.543   2.344   0.579  0.5982  0.5366 -0.0228
  784MPD2     H11617   2.435   2.680   0.703  1.6522  1.2222  0.6843
  784MPD2    H111618   2.349   2.323   0.503 -1.2379  0.6591  0.2700
  784MPD2    H211619   2.741   2.380   0.659  0.3311  0.2820 -1.0791
  784MPD2    H311620   2.559   2.246   0.537  0.9450  0.9937 -0.9462
  784MPD2     N11621   2.243   2.557   0.610 -0.5610 -0.0246  0.3315
  784MPD2    H511622   2.231   2.646   0.658 -1.6487 -0.9704  1.8129
  784MPD2    N111623   2.694   2.646   0.729  0.2364  0.5915 -0.5833
  784MPD2    H711624   2.654   2.735   0.756 -0.4774 -0.0254  0.3861
  785MPD2     C11625   3.416   0.724  11.456 -0.5275 -0.3768  1.1430
  785MPD2    C111626   3.299   0.777  11.414 -0.1480 -0.3205  0.4038
  785MPD2    C211627   3.244   0.722  11.295  0.2773 -0.6002  0.3013
  785MPD2    C311628   3.294   0.619  11.223  0.0341 -0.0535  0.6181
  785MPD2    C411629   3.411   0.566  11.274  0.2951  0.1126 -0.0001
  785MPD2    C511630   3.473   0.618  11.388 -0.1896  0.2166 -0.6862
  785MPD2     H11631   3.146   0.757  11.267  0.8073  1.2396  0.7343
  785MPD2    H111632   3.461   0.483  11.226  1.5466  1.3029 -0.7523
  785MPD2    H211633   3.460   0.741  11.554  0.4748  1.5039  0.3531
  785MPD2    H311634   3.566   0.567  11.411 -1.8981 -2.0723  1.1461
  785MPD2     N11635   3.216   0.571  11.110  0.0573  0.1360 -0.2111
  785MPD2    H511636   3.126   0.616  11.095  0.9576  2.2379  0.7674
  785MPD2    N111637   3.236   0.878  11.497  0.3470  0.1692 -0.9720
  785MPD2    H711638   3.269   0.896  11.591  1.7866 -0.1423 -1.4107
  786MPD2     C11639   1.095   3.421  14.556 -0.2001 -0.2800  0.0509
  786MPD2    C111640   1.221   3.371  14.583  0.6110  0.0173 -0.2891
  786MPD2    C211641   1.273   3.379  14.708 -0.1948  0.4000  0.4685
  786MPD2    C311642   1.217   3.454  14.807 -0.4994  0.4271  0.2122
  786MPD2    C411643   1.100   3.518  14.781  0.2399 -0.9819  0.3738
  786MPD2    C511644   1.039   3.493  14.661 -0.4690 -0.2144  0.9263
  786MPD2     H11645   1.357   3.318  14.740  2.9158  4.1736 -0.6187
  786MPD2    H111646   1.057   3.583  14.856  1.6958 -0.6904  0.9595
  786MPD2    H211647   1.039   3.412  14.464 -0.1811  0.9458 -0.0822
  786MPD2    H311648   0.940   3.538  14.650 -0.4221  0.1887  2.2269
  786MPD2     N11649   1.270   3.459  14.940 -0.4320  0.1557 -0.3714
  786MPD2    H511650   1.212   3.499  15.013 -0.5236 -0.6008 -0.0288
  786MPD2    N111651   1.284   3.290  14.494  0.2127  0.3316  0.2664
  786MPD2    H711652   1.372   3.246  14.520 -0.7074 -1.9960 -0.5908
  787MPD2     C11653   1.316   2.770  14.828 -0.6453  0.3294 -0.4551
  787MPD2    C111654   1.410   2.778  14.728  0.3146 -0.3225  0.0232
  787MPD2    C211655   1.529   2.710  14.745  0.6388 -0.6851  0.1280
  787MPD2    C311656   1.555   2.630  14.857  0.0234 -0.1461 -0.0649
  787MPD2    C411657   1.465   2.629  14.961  0.5557 -0.1636 -0.8075
  787MPD2    C511658   1.348   2.701  14.948  0.2011 -0.0641 -0.1958
  787MPD2     H11659   1.609   2.718  14.672  1.1086 -1.7037  0.5351
  787MPD2    H111660   1.480   2.584  15.059 -1.4636  2.0019  0.4901
  787MPD2    H211661   1.217   2.806  14.803 -2.4812 -3.3434  1.5214
  787MPD2    H311662   1.282   2.709  15.033 -2.0687  0.1149 -1.9753
  787MPD2     N11663   1.680   2.560  14.861 -0.1421  0.2707 -0.4911
  787MPD2    H511664   1.742   2.578  14.782  0.8355 -0.5440  0.0874
  787MPD2    N111665   1.386   2.852  14.610 -0.0737  0.6177  0.8026
  787MPD2    H711666   1.304   2.911  14.621 -0.5308  0.4426 -1.5209
  788MPD2     C11667   3.239   2.139   0.920 -0.0487  0.7533 -0.7492
  788MPD2    C111668   3.286   2.118   0.791  0.1414 -0.4470 -0.1282
  788MPD2    C211669   3.263   2.213   0.699 -0.0686 -0.0078 -0.3805
  788MPD2    C311670   3.186   2.319   0.737  0.1817  0.4337 -0.6496
  788MPD2    C411671   3.144   2.348   0.863  0.3459  0.5001 -0.0990
  788MPD2    C511672   3.173   2.254   0.960  0.4031 -0.1020  0.6760
  788MPD2     H11673   3.295   2.192   0.598  2.0273  0.5925  0.1776
  788MPD2    H111674   3.070   2.425   0.883  0.9237  0.9391  0.3609
  788MPD2    H211675   3.252   2.078   1.009  1.5973  1.3078 -0.6153
  788MPD2    H311676   3.140   2.277   1.061 -0.7771 -0.3051  0.3403
  788MPD2     N11677   3.142   2.406   0.636 -0.5860  0.2992  0.1540
  788MPD2    H511678   3.059   2.460   0.659  1.5020  2.8645  1.6307
  788MPD2    N111679   3.348   1.991   0.770 -0.0782  0.3794  0.6564
  788MPD2    H711680   3.359   1.977   0.670 -2.7118  0.1032  0.4054
  789MPD2     C11681   3.290   1.393  15.849  0.4426  0.2994 -0.0246
  789MPD2    C111682   3.294   1.326  15.975 -0.3665  0.1278  0.0995
  789MPD2    C211683   3.224   1.372  16.078 -0.1766 -0.2403 -0.1691
  789MPD2    C311684   3.139   1.482  16.068 -0.2658  0.0778  0.0942
  789MPD2    C411685   3.132   1.550  15.947  0.4381  0.2130 -0.8744
  789MPD2    C511686   3.210   1.504  15.843 -0.4605  0.0552 -0.0181
  789MPD2     H11687   3.239   1.318  16.170  3.0452 -1.5467 -1.4557
  789MPD2    H111688   3.071   1.639  15.938 -1.0200 -0.6306  0.6671
  789MPD2    H211689   3.341   1.377  15.755  1.6058  1.7455  0.3550
  789MPD2    H311690   3.207   1.558  15.749 -0.8177  3.4324  1.8985
  789MPD2     N11691   3.050   1.508  16.174 -0.5469 -0.0964  0.0381
  789MPD2    H511692   3.005   1.599  16.164 -0.8181 -0.1819  0.4842
  789MPD2    N111693   3.383   1.219  16.001  0.4118  0.4575  0.3002
  789MPD2    H711694   3.382   1.177  16.093  1.9910 -1.5586 -0.5901
  790MPD2     C11695   0.516   2.680  13.145 -0.3614  0.2081 -0.5146
  790MPD2    C111696   0.414   2.760  13.168  0.1692 -0.0698  0.7591
  790MPD2    C211697   0.342   2.808  13.058  0.0930  0.6124  0.1197
  790MPD2    C311698   0.379   2.782  12.926  0.8686 -0.9161  1.2470
  790MPD2    C411699   0.492   2.702  12.899 -0.0534  0.4540  0.0854
  790MPD2    C511700   0.553   2.647  13.013 -0.4697 -0.2747 -0.6785
  790MPD2     H11701   0.258   2.874  13.078 -0.4248  0.1136 -0.4051
  790MPD2    H111702   0.516   2.666  12.800  0.5101 -0.0647  0.4097
  790MPD2    H211703   0.586   2.639  13.216 -0.9308  2.3854  1.2993
  790MPD2    H311704   0.633   2.576  12.997  0.0099 -0.0175  0.5603
  790MPD2     N11705   0.289   2.821  12.818 -0.0431  0.5431  0.0317
  790MPD2    H511706   0.194   2.850  12.838  0.0574  0.3960  0.7099
  790MPD2    N111707   0.378   2.783  13.310  0.3437  0.0415 -0.4214
  790MPD2    H711708   0.438   2.740  13.379  0.4728 -1.6722 -1.6092
  791MPD2     C11709   4.323   2.999  12.367 -0.2748  0.0053 -0.1554
  791MPD2    C111710   4.387   2.905  12.446  0.0023  0.2506 -0.3447
  791MPD2    C211711   4.314   2.809  12.511 -0.1951 -0.1614  0.6265
  791MPD2    C311712   4.176   2.807  12.489 -0.6368  0.7853 -0.2221
  791MPD2    C411713   4.113   2.910  12.417  0.7690 -0.0736  0.7787
  791MPD2    C511714   4.190   2.999  12.351 -0.6376 -0.5673 -0.1444
  791MPD2     H11715   4.369   2.732  12.564 -0.5754 -1.7571 -1.3342
  791MPD2    H111716   4.007   2.905  12.400  1.1752  0.8220 -2.0224
  791MPD2    H211717   4.381   3.080  12.324 -1.3321  0.5588 -0.5351
  791MPD2    H311718   4.146   3.078  12.292 -1.0781 -0.3320  0.4936
  791MPD2     N11719   4.094   2.716  12.556  0.5702  0.1499 -0.1223
  791MPD2    H511720   4.126   2.646  12.623 -1.2301  1.5072  2.1695
  791MPD2    N111721   4.530   2.919  12.462  0.4688 -0.4188  0.0649
  791MPD2    H711722   4.565   3.002  12.415 -3.5131  0.8702 -0.6318
  792MPD2     C11723   0.544   3.007  11.362  1.1110 -1.1982  0.0365
  792MPD2    C111724   0.466   3.067  11.260  0.1661  0.1045  0.3977
  792MPD2    C211725   0.337   3.105  11.289 -0.4331 -0.3810 -0.3568
  792MPD2    C311726   0.286   3.097  11.421  0.9180 -0.2604  0.0750
  792MPD2    C411727   0.370   3.049  11.518  0.3829 -0.1334 -0.6059
  792MPD2    C511728   0.493   2.993  11.491 -0.3577  0.4334  0.1270
  792MPD2     H11729   0.276   3.147  11.209  1.8585  2.0777 -0.8141
  792MPD2    H111730   0.334   3.027  11.618 -0.4753  1.4006 -0.5856
  792MPD2    H211731   0.643   2.968  11.345  1.3842 -0.6395  0.3527
  792MPD2    H311732   0.553   2.946  11.568  1.8193  0.3339 -1.6597
  792MPD2     N11733   0.165   3.147  11.459 -0.3224  0.0964 -0.2749
  792MPD2    H511734   0.141   3.132  11.557 -0.5011  1.6821 -0.0629
  792MPD2    N111735   0.521   3.084  11.138  0.1912 -0.0790  0.1053
  792MPD2    H711736   0.619   3.059  11.132  0.4356  0.8826  0.1656
  793MPD2     C11737   4.428   3.251  10.755  0.5491  0.6928 -0.0657
  793MPD2    C111738   4.557   3.241  10.804  0.6155 -0.6790  0.6616
  793MPD2    C211739   4.578   3.274  10.937  0.3552 -0.2542 -0.2749
  793MPD2    C311740   4.475   3.306  11.022 -0.2824 -0.0329 -0.1025
  793MPD2    C411741   4.350   3.310  10.971  0.3329 -0.2068  0.3009
  793MPD2    C511742   4.329   3.295  10.837  0.0140  0.4318 -1.1097
  793MPD2     H11743   4.681   3.281  10.969  0.1994 -0.1685  0.2079
  793MPD2    H111744   4.264   3.342  11.029  0.8619  0.0296  0.9515
  793MPD2    H211745   4.396   3.220  10.656 -1.1565 -0.8628  0.9673
  793MPD2    H311746   4.228   3.311  10.800  0.1164  3.1153 -0.2265
  793MPD2     N11747   4.502   3.319  11.162  0.4505 -0.0132  0.4907
  793MPD2    H511748   4.596   3.300  11.195  0.6452  1.1266  0.5852
  793MPD2    N111749   4.664   3.190  10.731  0.0225 -0.0053  0.9103
  793MPD2    H711750   0.019   3.184  10.769  0.2584  0.9401  0.4693
  794MPD2     C11751   4.214   2.079  16.693  0.2944 -0.0335 -0.0202
  794MPD2    C111752   4.085   2.083  16.743  0.1440  0.2278 -0.5894
  794MPD2    C211753   3.984   2.133  16.655  0.0108  0.0579  1.0004
  794MPD2    C311754   4.031   2.193  16.532  0.8937  0.2949 -0.9133
  794MPD2    C411755   4.166   2.200  16.493  0.2518 -0.0729 -0.1284
  794MPD2    C511756   4.258   2.133  16.573 -0.4290 -0.1185  0.1406
  794MPD2     H11757   3.881   2.137  16.689  0.5514 -0.6639  2.7519
  794MPD2    H111758   4.190   2.233  16.393 -2.8096 -1.3309 -1.2825
  794MPD2    H211759   4.298   2.030  16.741 -1.4660 -0.5724  2.5134
  794MPD2    H311760   4.363   2.130  16.545 -0.4533 -1.0839  0.1307
  794MPD2     N11761   3.933   2.242  16.436 -0.2814  0.0322 -0.2840
  794MPD2    H511762   3.967   2.258  16.342 -0.8613  0.4406 -0.4249
  794MPD2    N111763   4.047   2.048  16.877  0.0035 -0.4171  0.6117
  794MPD2    H711764   3.952   2.015  16.886  0.1803 -0.4089  2.6825
  795MPD2     C11765   1.960   4.482  13.705  0.6971 -0.3721 -0.2255
  795MPD2    C111766   1.909   4.373  13.640  0.2723  0.3261 -0.1341
  795MPD2    C211767   1.992   4.264  13.646 -0.3764 -0.4265  0.3198
  795MPD2    C311768   2.113   4.253  13.709  0.2812 -0.0262 -0.0148
  795MPD2    C411769   2.156   4.362  13.775  0.0433  0.1104 -0.2045
  795MPD2    C511770   2.085   4.476  13.759 -0.0207 -0.2763  0.8192
  795MPD2     H11771   1.969   4.173  13.593  1.7803 -0.5905 -0.3001
  795MPD2    H111772   2.258   4.367  13.812 -0.9652  0.2228  2.5778
  795MPD2    H211773   1.906   4.575  13.698  0.4674 -0.3068  2.5322
  795MPD2    H311774   2.139   4.564  13.790 -0.1911  0.1219 -0.0204
  795MPD2     N11775   2.192   4.136  13.689 -0.1553 -0.1268 -0.3830
  795MPD2    H511776   2.152   4.062  13.632 -0.6295  0.1362 -0.3928
  795MPD2    N111777   1.785   4.368  13.579  0.9053 -0.1864 -0.0271
  795MPD2    H711778   1.754   4.280  13.541 -0.6667 -0.1610  1.2111
  796MPD2     C11779   1.594   1.024  15.729  0.3810 -0.4398  0.6566
  796MPD2    C111780   1.606   1.090  15.850  0.7906  0.5931  1.2455
  796MPD2    C211781   1.558   1.223  15.852 -0.4508 -0.3508  0.3055
  796MPD2    C311782   1.495   1.280  15.745 -0.3721  0.1109  0.6309
  796MPD2    C411783   1.486   1.211  15.621  0.6625  0.6602  0.4305
  796MPD2    C511784   1.542   1.083  15.616 -0.8329 -0.1212 -0.5304
  796MPD2     H11785   1.559   1.282  15.942  1.8279 -0.3701  0.2995
  796MPD2    H111786   1.450   1.250  15.526 -2.9069 -1.0642  1.0621
  796MPD2    H211787   1.641   0.927  15.715  1.0700  0.0557 -0.4853
  796MPD2    H311788   1.541   1.021  15.528 -0.5350  0.2464 -0.7922
  796MPD2     N11789   1.440   1.409  15.766  0.4015  0.2291 -0.0781
  796MPD2    H511790   1.442   1.438  15.863 -0.7146  1.4493 -0.4126
  796MPD2    N111791   1.652   1.027  15.965  0.1194 -0.2674 -0.0163
  796MPD2    H711792   1.679   0.930  15.952  0.7858 -0.0642 -0.1370
  797MPD2     C11793   3.232   0.656  17.109  0.1209  0.1540  0.0261
  797MPD2    C111794   3.119   0.680  17.184  0.8712  0.0967 -0.4047
  797MPD2    C211795   3.030   0.775  17.143  0.2093 -0.3688 -0.0649
  797MPD2    C311796   3.049   0.855  17.034 -0.0331 -0.3929  0.4134
  797MPD2    C411797   3.158   0.830  16.957 -0.0086 -0.2796 -0.4476
  797MPD2    C511798   3.246   0.723  16.989 -0.4768  1.4323  0.1449
  797MPD2     H11799   2.938   0.774  17.201 -1.4882 -1.4352 -2.7356
  797MPD2    H111800   3.186   0.882  16.867  0.2110  1.8026  0.8390
  797MPD2    H211801   3.303   0.581  17.140 -1.2597 -0.4156  1.7969
  797MPD2    H311802   3.339   0.712  16.935 -0.6336 -2.9356  0.7430
  797MPD2     N11803   2.971   0.972  16.999 -0.2196 -0.8420 -0.7923
  797MPD2    H511804   2.985   1.015  16.909  1.4744  0.4716  0.0972
  797MPD2    N111805   3.070   0.612  17.300  0.1608  0.0595 -0.8695
  797MPD2    H711806   2.983   0.647  17.338  1.0993  0.3058  1.0403
  798MPD2     C11807   2.418   0.894  17.429  0.3014 -0.2829  0.1883
  798MPD2    C111808   2.544   0.924  17.387  0.1696  0.2136  0.0177
  798MPD2    C211809   2.655   0.868  17.456  0.1714  0.1114 -0.4290
  798MPD2    C311810   2.633   0.781  17.560  0.6421  0.1085  0.7908
  798MPD2    C411811   2.505   0.738  17.591 -0.4345 -0.5627 -0.2111
  798MPD2    C511812   2.402   0.800  17.530  0.6816 -0.1063 -0.3164
  798MPD2     H11813   2.756   0.907  17.448  0.0033  0.9595  1.6359
  798MPD2    H111814   2.484   0.666  17.669  0.9615 -1.3468 -0.5446
  798MPD2    H211815   2.334   0.922  17.367  1.0116  0.7523 -0.2883
  798MPD2    H311816   2.305   0.768  17.565  1.4845 -2.1119  0.0739
  798MPD2     N11817   2.751   0.721  17.615  0.0096 -0.1302  0.6649
  798MPD2    H511818   2.832   0.753  17.561 -0.5051 -1.6174 -0.9613
  798MPD2    N111819   2.577   1.008  17.279 -0.2954 -0.2140  0.2147
  798MPD2    H711820   2.675   1.008  17.254 -0.3262 -2.6015  0.1671
  799MPD2     C11821   1.101   2.582  14.633 -0.4279 -0.2679  0.7295
  799MPD2    C111822   1.217   2.525  14.596  0.3971  0.1576 -0.9512
  799MPD2    C211823   1.253   2.527  14.464  0.2570 -0.2351 -0.6867
  799MPD2    C311824   1.156   2.564  14.366  0.2356  0.4498  0.9278
  799MPD2    C411825   1.048   2.638  14.406 -0.3463 -0.3152 -0.4998
  799MPD2    C511826   1.017   2.643  14.540  0.9694 -0.6948 -0.0339
  799MPD2     H11827   1.346   2.483  14.432  0.4220 -0.0557 -0.4596
  799MPD2    H111828   0.973   2.678  14.339 -0.9002 -1.7647 -0.7242
  799MPD2    H211829   1.078   2.578  14.739  1.0000  0.3027  1.0601
  799MPD2    H311830   0.929   2.692  14.580 -0.4030 -2.1270 -1.2950
  799MPD2     N11831   1.187   2.553  14.226  0.8268  0.0366  0.8071
  799MPD2    H511832   1.273   2.502  14.209 -1.1833 -3.2517  0.3492
  799MPD2    N111833   1.290   2.462  14.695  0.0197  0.7425  0.0898
  799MPD2    H711834   1.253   2.460  14.790 -2.1402 -0.3366 -0.7837
  800MPD2     C11835   1.376   3.396  14.027  0.8752  0.1539 -0.5894
  800MPD2    C111836   1.505   3.368  14.051 -0.0727  0.1832  0.4361
  800MPD2    C211837   1.573   3.297  13.955  0.7555  0.0035 -0.4702
  800MPD2    C311838   1.514   3.256  13.843 -0.4019 -0.8792  0.2327
  800MPD2    C411839   1.386   3.285  13.815 -0.0063 -0.6154  0.2437
  800MPD2    C511840   1.317   3.360  13.907 -0.1626  0.1193  0.3607
  800MPD2     H11841   1.678   3.277  13.972  1.4477  3.0370 -1.2375
  800MPD2    H111842   1.336   3.244  13.728  1.7488 -1.5879 -0.3095
  800MPD2    H211843   1.321   3.450  14.102 -0.8085 -0.4948 -1.3594
  800MPD2    H311844   1.211   3.379  13.893 -0.5350 -1.3831  1.1801
  800MPD2     N11845   1.592   3.168  13.757  0.2864  0.1682  0.1261
  800MPD2    H511846   1.688   3.147  13.782 -0.0055 -0.5138  0.7115
  800MPD2    N111847   1.575   3.432  14.159 -0.1394 -0.3993 -0.8893
  800MPD2    H711848   1.523   3.506  14.205  0.3964 -1.5778  1.6222
  801MPD2     C11849   1.733   4.017  13.949 -0.0197  0.2838 -0.4111
  801MPD2    C111850   1.824   3.973  14.047  0.0321  0.2566  0.5475
  801MPD2    C211851   1.918   4.068  14.089  0.0507 -0.0156  0.3229
  801MPD2    C311852   1.900   4.204  14.061  0.1860  0.4838 -0.5936
  801MPD2    C411853   1.799   4.247  13.981  0.2515 -0.2710 -0.2373
  801MPD2    C511854   1.730   4.151  13.915 -0.6029  0.0047 -0.1840
  801MPD2     H11855   2.007   4.046  14.147 -0.0209 -2.4209 -0.4692
  801MPD2    H111856   1.790   4.348  13.943  2.1685 -0.2492 -0.6328
  801MPD2    H211857   1.662   3.944  13.911 -2.2029  2.2790 -0.1781
  801MPD2    H311858   1.664   4.183  13.835  1.1843 -0.7577 -1.9596
  801MPD2     N11859   1.979   4.294  14.128  0.4421 -0.1132  1.0225
  801MPD2    H511860   2.044   4.250  14.193 -0.0216 -3.4761 -0.8188
  801MPD2    N111861   1.818   3.844  14.093  0.3790 -0.2160 -0.3154
  801MPD2    H711862   1.735   3.787  14.083 -0.6036  1.1583  0.0707
  802MPD2     C11863   1.177   0.620   0.172  0.3877  0.3497 -0.1028
  802MPD2    C111864   1.087   0.512   0.185 -0.6718  1.1846  0.3271
  802MPD2    C211865   1.130   0.383   0.167  0.3128 -0.9556  0.4065
  802MPD2    C311866   1.262   0.354   0.137 -0.7669 -1.2465 -0.2452
  802MPD2    C411867   1.350   0.463   0.135 -1.3478 -1.0118 -0.0851
  802MPD2    C511868   1.307   0.596   0.152  0.3575  0.0059  0.4655
  802MPD2     H11869   1.060   0.300   0.163  0.2305 -0.9488  1.7153
  802MPD2    H111870   1.457   0.451   0.144 -1.0420  0.0234 -2.3987
  802MPD2    H211871   1.151   0.722   0.195 -1.6595 -0.5673  1.6788
  802MPD2    H311872   1.381   0.675   0.165  1.3332 -0.8416  0.0843
  802MPD2     N11873   1.292   0.229   0.091 -0.0626  0.3444  0.0454
  802MPD2    H511874   1.227   0.152   0.109  3.0961 -1.6187  3.0404
  802MPD2    N111875   0.945   0.525   0.211 -0.4925  0.3724  0.6019
  802MPD2    H711876   0.890   0.444   0.238  3.0123 -1.9979  0.6623
  803MPD2     C11877   3.211   2.570  11.638 -0.0290  0.2616  0.0872
  803MPD2    C111878   3.222   2.679  11.721  1.1490 -0.0504  0.1269
  803MPD2    C211879   3.149   2.688  11.838 -0.3924  0.2278  0.6599
  803MPD2    C311880   3.077   2.577  11.886 -0.5974 -0.2059 -0.3550
  803MPD2    C411881   3.067   2.476  11.802  1.4336 -0.1584 -0.8695
  803MPD2    C511882   3.132   2.468  11.680 -0.2014 -0.1369 -0.2318
  803MPD2     H11883   3.169   2.769  11.907 -0.7321  0.4934  0.4489
  803MPD2    H111884   3.009   2.391  11.836  3.0433 -0.6400  0.6714
  803MPD2    H211885   3.261   2.562  11.542 -0.4881  2.6088 -0.3416
  803MPD2    H311886   3.119   2.380  11.618  5.3191 -0.6451 -0.7170
  803MPD2     N11887   3.030   2.558  12.016  0.3484 -0.1477 -0.0035
  803MPD2    H511888   2.991   2.466  12.035 -1.3620  0.6218  0.2090
  803MPD2    N111889   3.304   2.794  11.684  0.0888  0.4365 -0.6147
  803MPD2    H711890   3.312   2.862  11.759 -0.2586  1.3054 -1.3675
  804MPD2     C11891   1.814   3.909  16.682  0.3437  0.2825 -0.7603
  804MPD2    C111892   1.767   3.898  16.811 -0.7132  1.0698  0.6186
  804MPD2    C211893   1.810   3.991  16.902 -0.1995  0.4285 -0.6872
  804MPD2    C311894   1.880   4.105  16.871 -0.1321 -0.3107  0.1804
  804MPD2    C411895   1.911   4.129  16.742 -0.0153 -0.3032 -0.1883
  804MPD2    C511896   1.886   4.024  16.656  0.1981  0.1491  0.1623
  804MPD2     H11897   1.784   3.974  17.006  0.3094  0.0847 -0.6148
  804MPD2    H111898   1.966   4.216  16.707 -0.8095  0.9708  1.7105
  804MPD2    H211899   1.791   3.831  16.610  0.6868  0.0550 -0.6244
  804MPD2    H311900   1.919   4.035  16.553 -1.4696 -1.9958 -0.6083
  804MPD2     N11901   1.923   4.184  16.977  0.0408 -0.3680 -0.1557
  804MPD2    H511902   1.894   4.148  17.068 -0.8433 -2.5027 -1.2981
  804MPD2    N111903   1.694   3.783  16.854  0.4120  0.8261 -0.7580
  804MPD2    H711904   1.673   3.791  16.953 -0.2266  0.2630 -0.8465
  805MPD2     C11905   1.121   2.479  15.432 -0.1035  0.0661  0.0042
  805MPD2    C111906   1.148   2.615  15.411 -0.9141 -0.5137  0.0107
  805MPD2    C211907   1.260   2.666  15.475 -0.0396 -0.2123 -0.8527
  805MPD2    C311908   1.331   2.589  15.569 -0.7430  0.1943  0.0156
  805MPD2    C411909   1.295   2.461  15.600 -0.1736  0.1529  0.9111
  805MPD2    C511910   1.196   2.406  15.524  0.3202  0.5675 -0.2325
  805MPD2     H11911   1.284   2.771  15.461 -0.2088  0.2803  2.5531
  805MPD2    H111912   1.343   2.402  15.677 -0.3658 -1.7397 -0.4256
  805MPD2    H211913   1.041   2.434  15.375  1.6970 -2.8706 -0.2034
  805MPD2    H311914   1.179   2.301  15.546  1.0633  0.5227  0.1174
  805MPD2     N11915   1.432   2.662  15.643  0.4337 -0.3151 -0.3061
  805MPD2    H511916   1.435   2.763  15.631  1.6289 -0.4326 -0.9586
  805MPD2    N111917   1.065   2.696  15.326  0.3569  0.6657 -0.3632
  805MPD2    H711918   1.098   2.791  15.316  2.2823 -0.0940 -1.1873
  806MPD2     C11919   1.221   1.376   0.485 -0.1365 -0.0868 -0.7948
  806MPD2    C111920   1.319   1.445   0.555  0.1618  0.8330  0.6158
  806MPD2    C211921   1.428   1.496   0.481  0.2403  0.1474  0.6986
  806MPD2    C311922   1.430   1.488   0.344 -0.0736  0.1132 -0.0237
  806MPD2    C411923   1.336   1.415   0.275  1.0558  0.2718 -0.2688
  806MPD2    C511924   1.228   1.365   0.348 -0.4158  0.5002  0.3165
  806MPD2     H11925   1.499   1.565   0.527  0.6321 -1.2246  2.1605
  806MPD2    H111926   1.335   1.394   0.169  0.7012 -0.0605 -0.2003
  806MPD2    H211927   1.132   1.337   0.533  0.8643 -0.0392  1.0705
  806MPD2    H311928   1.150   1.304   0.304 -0.3307  0.0689  0.7734
  806MPD2     N11929   1.538   1.556   0.273  0.1688 -0.3756  0.0254
  806MPD2    H511930   1.616   1.593   0.327 -0.3569 -1.8652  1.8207
  806MPD2    N111931   1.316   1.461   0.696 -0.4437 -0.6835  0.2099
  806MPD2    H711932   1.226   1.435   0.735 -1.6034  1.6316 -0.9298
  807MPD2     C11933   0.939   1.907   1.242  0.1521 -0.2081 -0.0415
  807MPD2    C111934   1.061   1.874   1.301  1.0990  0.0122  0.1199
  807MPD2    C211935   1.083   1.906   1.430  0.1856 -0.1620 -0.1433
  807MPD2    C311936   0.991   1.968   1.513  0.3030 -0.2449 -0.1474
  807MPD2    C411937   0.869   2.003   1.453  0.4215 -0.0788 -0.2730
  807MPD2    C511938   0.849   1.975   1.320  0.4552 -0.7900  0.1251
  807MPD2     H11939   1.179   1.875   1.471 -0.1948 -0.9066  0.1996
  807MPD2    H111940   0.785   2.043   1.509 -0.2655  0.7975 -1.9245
  807MPD2    H211941   0.915   1.895   1.137  2.6321  0.8121 -0.7382
  807MPD2    H311942   0.752   2.006   1.283  0.9768  1.6822  0.8187
  807MPD2     N11943   1.035   1.988   1.639  0.1065 -0.3737  0.1279
  807MPD2    H511944   1.134   1.965   1.648 -0.2934 -2.5018 -0.8174
  807MPD2    N111945   1.165   1.804   1.228  0.1479 -0.0450 -0.0511
  807MPD2    H711946   1.243   1.771   1.285 -0.0181 -0.2962  0.0278
  808MPD2     C11947   2.859   3.888   9.964  0.7543 -0.0124  0.0497
  808MPD2    C111948   2.849   3.939  10.092 -0.0864  0.4997 -0.1818
  808MPD2    C211949   2.908   4.062  10.122  0.9009  0.1977  1.0869
  808MPD2    C311950   2.977   4.131  10.014 -0.1859  0.2009 -0.3175
  808MPD2    C411951   2.989   4.063   9.896  1.4323 -0.2824 -0.0830
  808MPD2    C511952   2.938   3.941   9.870 -0.7348 -0.2283 -0.4035
  808MPD2     H11953   2.900   4.104  10.221 -2.5403 -3.1106  2.2282
  808MPD2    H111954   3.047   4.113   9.819  0.6216  0.3587 -0.2789
  808MPD2    H211955   2.804   3.802   9.928 -1.0151  1.7337 -1.4632
  808MPD2    H311956   2.955   3.896   9.773  1.3348 -0.7173  0.2024
  808MPD2     N11957   3.037   4.255  10.031  0.1481  0.2329  1.6500
  808MPD2    H511958   3.078   4.302   9.951 -2.0687  0.3798  0.6032
  808MPD2    N111959   2.763   3.882  10.196  0.6588  0.5526  0.0478
  808MPD2    H711960   2.765   3.935  10.283 -1.0651 -1.8890  1.5579
  809MPD2     C11961   3.687   0.245   9.801  0.0293 -0.8676  0.1357
  809MPD2    C111962   3.647   0.129   9.741  0.5311  0.8737 -0.1429
  809MPD2    C211963   3.538   0.058   9.792 -0.0021  0.2375  0.4331
  809MPD2    C311964   3.477   0.104   9.902  0.4146  0.0772 -0.2540
  809MPD2    C411965   3.518   0.215   9.964  0.2414 -0.1151  0.1503
  809MPD2    C511966   3.620   0.291   9.913 -0.6828  0.1618  1.0266
  809MPD2     H11967   3.501   4.702   9.752  2.4753 -1.2050  1.5206
  809MPD2    H111968   3.457   0.252  10.047  0.0666  2.3752 -1.0878
  809MPD2    H211969   3.762   0.311   9.760  1.5632 -1.4642  2.0095
  809MPD2    H311970   3.645   0.383   9.965 -0.2624 -0.8056  2.5218
  809MPD2     N11971   3.358   0.042   9.955 -0.4619  0.1202 -0.2090
  809MPD2    H511972   3.329   0.086  10.041  0.3542 -2.8576  1.5772
  809MPD2    N111973   3.710   0.081   9.628  0.0715  0.0980 -0.4942
  809MPD2    H711974   3.690   4.724   9.598 -3.1457  0.4644  0.4703
  810MPD2     C11975   2.035   2.858  10.992  0.0957  0.0260 -0.7470
  810MPD2    C111976   2.028   2.889  10.860 -0.5765 -0.1419 -0.2026
  810MPD2    C211977   2.034   3.022  10.826 -0.7354  0.4924 -0.1888
  810MPD2    C311978   2.046   3.123  10.919 -0.1979 -0.0871 -0.2867
  810MPD2    C411979   2.078   3.089  11.052  0.0264 -0.0775 -0.5455
  810MPD2    C511980   2.064   2.954  11.083 -0.1870 -0.6707  0.0073
  810MPD2     H11981   2.028   3.050  10.721 -1.3109  0.0248 -0.2808
  810MPD2    H111982   2.093   3.167  11.126  1.7873 -0.4904 -0.4652
  810MPD2    H211983   2.024   2.758  11.033 -2.6423  0.6914  0.1928
  810MPD2    H311984   2.072   2.923  11.187  1.3344 -1.4441 -0.3327
  810MPD2     N11985   2.038   3.264  10.884 -0.2425 -0.0560  0.2883
  810MPD2    H511986   2.089   3.333  10.939 -1.1005  0.4028  0.5059
  810MPD2    N111987   2.015   2.779  10.764 -0.2129  0.4898  0.3822
  810MPD2    H711988   2.002   2.683  10.796 -0.8984  0.0242 -1.2847
  811MPD2     C11989   1.508   2.653  10.087  0.5682 -0.0713 -0.3732
  811MPD2    C111990   1.627   2.708  10.120  0.2764  0.4189  0.0837
  811MPD2    C211991   1.650   2.844  10.089 -0.2671 -0.5159  0.2503
  811MPD2    C311992   1.562   2.919  10.013 -0.4793  1.2160 -0.0962
  811MPD2    C411993   1.447   2.854   9.972 -0.7118 -0.6093  0.1627
  811MPD2    C511994   1.422   2.724  10.009 -0.4904  0.3744 -0.5060
  811MPD2     H11995   1.745   2.893  10.110  0.4959 -2.0103  0.2944
  811MPD2    H111996   1.375   2.909   9.912 -0.2347  0.3237  0.4491
  811MPD2    H211997   1.491   2.549  10.109  0.0290 -0.0417 -0.6441
  811MPD2    H311998   1.328   2.674   9.989  0.0565 -0.4189 -1.0851
  811MPD2     N11999   1.596   3.051   9.990  0.4927 -0.5120  0.1970
  811MPD2    H512000   1.680   3.092  10.029 -0.3752 -1.1611  2.7070
  811MPD2    N112001   1.716   2.631  10.195 -0.8713 -0.1172  0.0799
  811MPD2    H712002   1.680   2.542  10.228  0.5061 -1.1005 -1.0706
  812MPD2     C12003   1.175   2.612  11.517  0.6626  0.2233  0.3357
  812MPD2    C112004   1.150   2.717  11.606 -0.3848 -0.3449  0.2769
  812MPD2    C212005   1.161   2.697  11.742  0.4659 -0.7533  0.1856
  812MPD2    C312006   1.219   2.584  11.794 -0.6002 -0.3293 -0.6883
  812MPD2    C412007   1.255   2.487  11.701 -0.0803  0.2325 -0.1734
  812MPD2    C512008   1.226   2.501  11.570  0.8462  0.0179  0.2257
  812MPD2     H12009   1.121   2.771  11.811  0.9933 -0.4212  0.1368
  812MPD2    H112010   1.301   2.392  11.729  2.3810  1.3019 -0.5517
  812MPD2    H212011   1.155   2.617  11.410 -0.2203  0.7725  0.5237
  812MPD2    H312012   1.255   2.417  11.508 -2.1154  0.1142 -1.2582
  812MPD2     N12013   1.231   2.576  11.932  0.3207 -0.1012 -0.0369
  812MPD2    H512014   1.214   2.661  11.984  1.2833 -1.4905  2.5393
  812MPD2    N112015   1.101   2.839  11.554  1.1949 -0.4809  0.4401
  812MPD2    H712016   1.079   2.849  11.455 -0.2072  0.6323  0.8627
  813MPD2     C12017   4.265   4.281  12.824 -0.2789 -0.4384 -0.5074
  813MPD2    C112018   4.346   4.300  12.932  0.7289 -0.8482 -0.2139
  813MPD2    C212019   4.293   4.300  13.060  0.1676 -0.0718  0.1681
  813MPD2    C312020   4.157   4.278  13.081 -0.0989  0.0044  0.3802
  813MPD2    C412021   4.075   4.268  12.970 -0.2817 -0.1301  0.5722
  813MPD2    C512022   4.133   4.273  12.846  0.1222  0.2779  0.6270
  813MPD2     H12023   4.355   4.322  13.146 -0.1823  1.7483 -0.0586
  813MPD2    H112024   3.968   4.252  12.974 -0.1537 -0.9550  0.5694
  813MPD2    H212025   4.298   4.290  12.721 -0.7772 -0.6634 -0.6882
  813MPD2    H312026   4.063   4.264  12.763  0.7775  0.2559  0.0803
  813MPD2     N12027   4.119   4.305  13.210  0.1272 -0.5861  0.2069
  813MPD2    H512028   4.194   4.321  13.276 -1.2713  1.0723  1.4109
  813MPD2    N112029   4.480   4.344  12.931  0.2234  0.3024 -0.3874
  813MPD2    H712030   4.526   4.352  13.021 -0.4907 -1.2093  0.1099
  814MPD2     C12031   0.125   0.796  12.869  0.0353 -0.6202  0.1766
  814MPD2    C112032   0.194   0.816  12.756 -0.0175 -0.1576  0.5744
  814MPD2    C212033   0.235   0.946  12.729 -0.2006  0.1588 -0.2422
  814MPD2    C312034   0.196   1.054  12.809 -0.0745  0.3516  0.8203
  814MPD2    C412035   0.121   1.037  12.918  0.0620  0.6934  0.0022
  814MPD2    C512036   0.087   0.904  12.944  0.2146 -0.3373  0.1210
  814MPD2     H12037   0.294   0.962  12.639 -0.0326 -0.4784 -0.2512
  814MPD2    H112038   0.091   1.114  12.988  0.2639  2.5044 -1.9105
  814MPD2    H212039   0.080   0.705  12.909  1.0183  0.1037  2.9249
  814MPD2    H312040   0.028   0.882  13.032  1.1795 -1.4411  0.5006
  814MPD2     N12041   0.248   1.182  12.776  0.2107  1.1552 -0.0900
  814MPD2    H512042   0.324   1.182  12.709  0.3357 -0.1436  0.0427
  814MPD2    N112043   0.205   0.705  12.666 -0.1316 -0.0889 -0.4336
  814MPD2    H712044   0.228   0.736  12.572  1.5846  0.5016  0.1828
  815MPD2     C12045   0.851   4.574  11.583  0.1238 -0.5742 -0.1772
  815MPD2    C112046   0.862   4.447  11.629 -0.2443 -0.1906 -0.4448
  815MPD2    C212047   0.787   4.424  11.744 -0.1018  0.0517 -0.3290
  815MPD2    C312048   0.719   4.528  11.808  0.2015  0.1460  0.1668
  815MPD2    C412049   0.707   4.647  11.750  0.5648  0.4635  0.0364
  815MPD2    C512050   0.770   4.663  11.635  0.0585  0.4622  0.5448
  815MPD2     H12051   0.780   4.324  11.784 -0.5616  0.6796  1.1824
  815MPD2    H112052   0.624   4.711  11.777  1.8867  2.1203  0.1379
  815MPD2    H212053   0.905   4.603  11.493  0.0362 -0.3697 -0.1618
  815MPD2    H312054   0.779   0.027  11.600  0.6131  0.3219  0.2617
  815MPD2     N12055   0.641   4.509  11.925  0.0412  0.2157  0.1927
  815MPD2    H512056   0.585   4.590  11.950  2.9136  1.8805  1.3156
  815MPD2    N112057   0.933   4.343  11.562 -0.0245 -0.1645  0.3470
  815MPD2    H712058   0.974   4.365  11.472  0.5256  0.9907  0.8658
  816MPD2     C12059   0.769   3.726  17.482 -0.9359  0.9981  0.1716
  816MPD2    C112060   0.715   3.738  17.359  0.3624 -0.3374 -0.2152
  816MPD2    C212061   0.768   3.658  17.259 -0.3930  0.1005  0.4899
  816MPD2    C312062   0.866   3.566  17.278 -1.0293 -0.0714  0.6992
  816MPD2    C412063   0.928   3.563  17.402  0.9572 -0.0415  0.3107
  816MPD2    C512064   0.877   3.646  17.500  0.3553 -0.1486  0.9664
  816MPD2     H12065   0.723   3.661  17.160  0.3565 -1.2702  0.1132
  816MPD2    H112066   0.997   3.482  17.422  0.9866 -0.2829 -0.7644
  816MPD2    H212067   0.740   3.786  17.567  0.2584  0.4104  1.0013
  816MPD2    H312068   0.912   3.639  17.602 -2.3096 -0.0765  1.8764
  816MPD2     N12069   0.898   3.482  17.168 -0.0950  0.3445  0.3152
  816MPD2    H512070   0.840   3.491  17.086  2.6702  2.6788 -1.4039
  816MPD2    N112071   0.601   3.827  17.352 -0.0114  0.1464  0.1573
  816MPD2    H712072   0.578   3.879  17.436 -0.1359  1.7876 -0.8944
  817MPD2     C12073   0.612   1.170  10.104 -1.1762  0.0146  0.1319
  817MPD2    C112074   0.718   1.148  10.021  0.0941 -0.8440 -1.5530
  817MPD2    C212075   0.749   1.262   9.945  0.6032 -0.4833 -0.0893
  817MPD2    C312076   0.693   1.386   9.966 -0.5280  0.0193  0.5220
  817MPD2    C412077   0.606   1.408  10.061  0.7979  0.4887  0.0242
  817MPD2    C512078   0.553   1.296  10.123 -0.0050 -0.0876  0.0598
  817MPD2     H12079   0.832   1.258   9.876  0.3588  2.0895 -0.5360
  817MPD2    H112080   0.560   1.504  10.083 -0.6920 -0.4436  1.0017
  817MPD2    H212081   0.576   1.091  10.170  1.8990 -0.8468  0.7445
  817MPD2    H312082   0.475   1.315  10.196 -0.5472  0.9389 -0.7794
  817MPD2     N12083   0.748   1.491   9.893 -0.2427 -0.7059  0.1761
  817MPD2    H512084   0.818   1.470   9.822 -1.4319 -2.4708 -0.4884
  817MPD2    N112085   0.783   1.025  10.002  0.4957  0.0889  0.0845
  817MPD2    H712086   0.860   1.025   9.935  2.0771  0.2342  1.9006
  818MPD2     C12087   4.312   0.824   9.992 -0.0851  0.2693 -0.1912
  818MPD2    C112088   4.237   0.752  10.086  0.4442 -1.0694  0.1214
  818MPD2    C212089   4.261   0.620  10.101 -0.6041 -1.2339  0.0511
  818MPD2    C312090   4.348   0.552  10.015 -0.3234  0.1544 -0.8079
  818MPD2    C412091   4.427   0.624   9.931  0.5663  0.4788  1.3231
  818MPD2    C512092   4.403   0.758   9.916 -0.3265 -0.0466  0.0382
  818MPD2     H12093   4.209   0.563  10.177 -1.7868 -0.3465 -0.1043
  818MPD2    H112094   4.504   0.577   9.870 -0.3298 -1.2078  1.4897
  818MPD2    H212095   4.313   0.932   9.985  0.7757  0.3142  0.8324
  818MPD2    H312096   4.475   0.803   9.849  0.2089 -0.8498  0.0660
  818MPD2     N12097   4.364   0.412  10.022  0.1614  0.0047 -0.5657
  818MPD2    H512098   4.447   0.368   9.982 -0.7469 -2.5885  0.4295
  818MPD2    N112099   4.142   0.811  10.179 -0.2743  0.4556  0.1906
  818MPD2    H712100   4.083   0.746  10.231 -1.9405  1.1119 -0.8980
  819MPD2     C12101   1.579   2.296  15.440  0.5734 -0.1838 -0.0485
  819MPD2    C112102   1.544   2.164  15.437 -0.1709  0.4569 -0.2665
  819MPD2    C212103   1.626   2.072  15.510  0.7846  0.0212  0.5445
  819MPD2    C312104   1.749   2.107  15.558 -0.6184 -0.0981 -0.4036
  819MPD2    C412105   1.793   2.232  15.541 -0.2356 -0.3967  0.2598
  819MPD2    C512106   1.708   2.325  15.483 -0.6613  0.7779  0.0641
  819MPD2     H12107   1.583   1.975  15.530 -0.6384 -0.2137 -3.5566
  819MPD2    H112108   1.896   2.261  15.559 -0.0942 -1.4394  1.1687
  819MPD2    H212109   1.510   2.366  15.394  0.5850 -0.8133 -1.0235
  819MPD2    H312110   1.742   2.426  15.463  1.9507 -0.3369 -1.2103
  819MPD2     N12111   1.822   2.004  15.631  0.4660 -0.9890 -0.6045
  819MPD2    H512112   1.783   1.910  15.622 -1.2427 -0.5909  2.5558
  819MPD2    N112113   1.422   2.145  15.364  0.0321 -0.1012 -0.0648
  819MPD2    H712114   1.384   2.225  15.315 -0.7512 -1.4554 -1.6454
  820MPD2     C12115   0.723   2.424  14.730  0.0892 -0.1499 -0.4246
  820MPD2    C112116   0.803   2.479  14.827 -0.0178 -0.1266  0.5261
  820MPD2    C212117   0.859   2.398  14.925 -0.3277  0.1806  0.1097
  820MPD2    C312118   0.851   2.261  14.907 -0.1377 -0.6074 -0.9240
  820MPD2    C412119   0.794   2.214  14.790 -0.5949 -0.0070 -0.2023
  820MPD2    C512120   0.722   2.292  14.711  0.5572 -0.3709 -0.0339
  820MPD2     H12121   0.901   2.442  15.015  2.4065 -0.3196 -0.9183
  820MPD2    H112122   0.775   2.109  14.771  1.1343 -0.2802 -0.4176
  820MPD2    H212123   0.674   2.493  14.662 -0.9160 -0.2202  0.2127
  820MPD2    H312124   0.664   2.239  14.637  1.0836 -0.6311 -0.2581
  820MPD2     N12125   0.919   2.174  14.990 -0.5229  0.0663  0.0975
  820MPD2    H512126   0.932   2.081  14.953  1.5345 -0.2170  1.5792
  820MPD2    N112127   0.814   2.617  14.833 -0.1339  0.5002 -0.4016
  820MPD2    H712128   0.735   2.668  14.795 -0.1752 -0.5151 -1.6757
  821MPD2     C12129   2.054   3.550  13.445 -0.0916 -0.2441  0.1054
  821MPD2    C112130   2.116   3.433  13.399 -0.3910 -0.7870 -0.4327
  821MPD2    C212131   2.240   3.430  13.343  0.4864 -0.1279  0.2139
  821MPD2    C312132   2.315   3.551  13.334 -0.3624  0.4697 -0.1375
  821MPD2    C412133   2.251   3.672  13.376 -0.0909  0.7171 -0.3336
  821MPD2    C512134   2.121   3.666  13.421 -0.2413  0.6172  0.4298
  821MPD2     H12135   2.284   3.335  13.315  1.2422 -0.1557  1.4935
  821MPD2    H112136   2.300   3.768  13.392  1.0399  0.0242  0.3546
  821MPD2    H212137   1.955   3.543  13.489 -0.4376 -0.5192 -0.7345
  821MPD2    H312138   2.071   3.754  13.459  0.1051  0.5638  1.0209
  821MPD2     N12139   2.446   3.563  13.281 -0.3798 -0.1029  0.0361
  821MPD2    H512140   2.479   3.659  13.286  1.8468 -0.7655 -2.0715
  821MPD2    N112141   2.055   3.305  13.420  1.0639 -0.4043  0.5311
  821MPD2    H712142   2.109   3.222  13.399 -2.2129 -1.9483 -1.8132
  822MPD2     C12143   2.773   3.344  15.749  0.3676 -0.1106  0.2592
  822MPD2    C112144   2.719   3.289  15.865  0.0987  0.7231  0.0740
  822MPD2    C212145   2.615   3.357  15.930  0.0548 -1.0082 -0.5765
  822MPD2    C312146   2.564   3.482  15.889 -0.2682  0.4276 -0.1477
  822MPD2    C412147   2.619   3.534  15.772  0.5750 -0.4195  0.5687
  822MPD2    C512148   2.722   3.464  15.705 -0.0332 -0.4423  0.5658
  822MPD2     H12149   2.557   3.315  16.011  0.7196  1.0646  0.9597
  822MPD2    H112150   2.584   3.623  15.720  2.6676 -0.1210 -0.3117
  822MPD2    H212151   2.851   3.309  15.682  2.6821  2.2731  1.7402
  822MPD2    H312152   2.759   3.505  15.612 -1.2555  0.8435  0.6397
  822MPD2     N12153   2.465   3.537  15.964  0.0386  0.0626 -0.5044
  822MPD2    H512154   2.418   3.465  16.019 -2.9650  1.1150 -1.6644
  822MPD2    N112155   2.755   3.164  15.918 -0.1318 -0.4873 -0.3169
  822MPD2    H712156   2.712   3.134  16.004  0.8149  1.5964  0.8764
  823MPD2     C12157   2.037   3.626  16.715  0.4776  0.0398 -0.1071
  823MPD2    C112158   2.113   3.571  16.614  0.2345  0.3128  0.4412
  823MPD2    C212159   2.176   3.448  16.638 -0.1794  0.5638  0.0672
  823MPD2    C312160   2.177   3.391  16.763 -0.3561  0.1145 -0.7432
  823MPD2    C412161   2.111   3.457  16.860 -0.3610 -0.3316  0.2515
  823MPD2    C512162   2.039   3.572  16.844  0.3496  0.0534  0.2023
  823MPD2     H12163   2.217   3.401  16.549 -0.1926  0.2962  0.2029
  823MPD2    H112164   2.124   3.424  16.963  1.5325 -1.2424 -0.2931
  823MPD2    H212165   1.988   3.720  16.693  1.6387  0.1826 -2.0676
  823MPD2    H312166   1.988   3.618  16.928  0.6958 -1.1792  1.0803
  823MPD2     N12167   2.245   3.276  16.811 -0.0348  0.2109  0.4865
  823MPD2    H512168   2.235   3.248  16.908 -0.1512 -0.0250  0.4065
  823MPD2    N112169   2.121   3.635  16.486  0.1925  0.4310 -0.3106
  823MPD2    H712170   2.085   3.730  16.484  1.2127  0.8081 -0.3878
  824MPD2     C12171   3.134   2.331  16.091  0.3880 -0.3091  0.3782
  824MPD2    C112172   3.160   2.441  16.017 -0.9668  0.3992  0.2176
  824MPD2    C212173   3.265   2.434  15.924 -0.5659  0.1374  0.5228
  824MPD2    C312174   3.330   2.314  15.899 -0.6408 -1.0086  0.2548
  824MPD2    C412175   3.300   2.201  15.969 -0.4414  0.0841 -0.3528
  824MPD2    C512176   3.202   2.220  16.066  0.2790 -0.5997  0.6111
  824MPD2     H12177   3.294   2.517  15.861 -0.0188 -1.4177 -1.2950
  824MPD2    H112178   3.351   2.105  15.971  2.3582  1.5654 -1.2053
  824MPD2    H212179   3.060   2.347  16.169  0.1339 -0.7632  0.2258
  824MPD2    H312180   3.183   2.136  16.132 -2.1164 -0.6329 -0.0966
  824MPD2     N12181   3.426   2.306  15.798  0.3659 -0.1740  0.8429
  824MPD2    H512182   3.448   2.390  15.747  0.5497  0.2359  1.6003
  824MPD2    N112183   3.083   2.559  16.040  0.4857 -0.2718  0.6317
  824MPD2    H712184   3.008   2.556  16.108  0.4319  1.2603  0.6434
  825MPD2     C12185   3.839   2.723  15.764  0.5628  0.1457 -0.2578
  825MPD2    C112186   3.805   2.698  15.638  0.3081 -0.9957 -0.0579
  825MPD2    C212187   3.800   2.801  15.554  0.0385  0.5625  0.5403
  825MPD2    C312188   3.806   2.930  15.594  0.4186 -0.3998 -0.1496
  825MPD2    C412189   3.841   2.953  15.728  1.1600 -1.0031 -0.8960
  825MPD2    C512190   3.864   2.849  15.810 -0.1351 -0.0942 -0.8127
  825MPD2     H12191   3.773   2.789  15.449 -1.6983  0.6907  0.9844
  825MPD2    H112192   3.854   3.057  15.758 -2.6212 -0.7839 -0.0467
  825MPD2    H212193   3.838   2.652  15.846 -2.0725  1.1906  0.6273
  825MPD2    H312194   3.887   2.865  15.915 -1.9086  0.5338 -0.5204
  825MPD2     N12195   3.769   3.049  15.523 -0.2567 -0.0655 -0.4958
  825MPD2    H512196   3.787   3.144  15.554 -1.3809 -0.7418  2.2220
  825MPD2    N112197   3.755   2.570  15.602 -0.1472 -0.0561 -0.4376
  825MPD2    H712198   3.743   2.516  15.688  2.2129 -2.5469 -1.6705
  826MPD2     C12199   3.441   2.216  13.356  0.2501  0.2394 -0.1292
  826MPD2    C112200   3.530   2.324  13.335 -0.0077 -0.6006  0.8154
  826MPD2    C212201   3.473   2.450  13.345 -0.2122 -0.0148 -0.2332
  826MPD2    C312202   3.330   2.467  13.349 -0.0773 -0.2470  0.2092
  826MPD2    C412203   3.249   2.362  13.348 -0.3579  0.0806 -0.6242
  826MPD2    C512204   3.303   2.233  13.354  0.0853  0.3817 -0.4836
  826MPD2     H12205   3.535   2.535  13.370 -0.3042 -0.1036  0.2969
  826MPD2    H112206   3.143   2.381  13.340 -0.4566 -1.2235 -2.4267
  826MPD2    H212207   3.474   2.113  13.351 -4.4480 -1.1982 -1.3841
  826MPD2    H312208   3.236   2.148  13.362 -0.5772  0.6899 -2.8246
  826MPD2     N12209   3.282   2.601  13.370  0.3867  0.1416 -0.6563
  826MPD2    H512210   3.181   2.610  13.379  0.3095 -1.4833  0.1117
  826MPD2    N112211   3.666   2.295  13.334  0.1995  0.1788  0.1276
  826MPD2    H712212   3.693   2.199  13.351  0.6515  0.1245 -0.8552
  827MPD2     C12213   0.170   4.683   9.810 -0.1452  0.0484 -0.2748
  827MPD2    C112214   0.193   4.550   9.834  0.5289  0.7749 -0.3793
  827MPD2    C212215   0.117   4.462   9.758  0.9479  0.4505  0.1046
  827MPD2    C312216   0.007   4.503   9.679 -0.0535 -0.3195  0.1428
  827MPD2    C412217   4.721   4.640   9.667 -0.1497 -0.3681 -0.6251
  827MPD2    C512218   0.064   4.727   9.734  0.1234  0.2274 -0.0576
  827MPD2     H12219   0.131   4.354   9.765  0.6251  0.3327 -0.9791
  827MPD2    H112220   4.632   4.680   9.620 -0.0318  0.2864 -0.2830
  827MPD2    H212221   0.234   0.017   9.859 -0.4138  0.2633 -0.2429
  827MPD2    H312222   0.031   0.092   9.737  1.0064  0.5110 -0.0389
  827MPD2     N12223   4.670   4.403   9.611  0.2366  0.5977  0.3282
  827MPD2    H512224   4.682   4.305   9.633 -1.5899  0.9169  2.7097
  827MPD2    N112225   0.295   4.510   9.930 -0.2399  0.0815 -0.4977
  827MPD2    H712226   0.344   4.584   9.978  0.1819 -2.1824  2.5566
  828MPD2     C12227   3.483   3.616  12.784 -0.5462  0.4590  0.1618
  828MPD2    C112228   3.436   3.662  12.660 -0.3124  0.1552  0.5876
  828MPD2    C212229   3.522   3.684  12.554 -0.5387 -0.0161 -0.0409
  828MPD2    C312230   3.656   3.683  12.569  0.0656 -0.4180 -0.4546
  828MPD2    C412231   3.704   3.633  12.691  0.0385 -0.0864  0.1688
  828MPD2    C512232   3.617   3.592  12.792  0.1858 -0.3862 -0.2446
  828MPD2     H12233   3.479   3.721  12.461 -1.2992 -1.7116 -0.3751
  828MPD2    H112234   3.810   3.617  12.703  0.1201  0.1578 -0.2553
  828MPD2    H212235   3.412   3.587  12.860 -0.9268 -0.8644 -0.7097
  828MPD2    H312236   3.663   3.550  12.881  2.3826  1.8674 -0.3254
  828MPD2     N12237   3.750   3.719  12.470 -0.3030  0.5245  0.0737
  828MPD2    H512238   3.848   3.722  12.495  0.0620 -0.2456 -1.2705
  828MPD2    N112239   3.303   3.693  12.635 -0.6512 -0.3407  0.3156
  828MPD2    H712240   3.285   3.758  12.560 -0.0214 -0.7308 -0.1661
  829MPD2     C12241   2.507   4.053  12.071 -0.7508  0.6221 -0.3334
  829MPD2    C112242   2.452   3.981  12.174 -0.2619  0.1041 -0.4863
  829MPD2    C212243   2.535   3.924  12.272  0.4740  0.1506 -0.2805
  829MPD2    C312244   2.672   3.939  12.269  0.2527  0.0553  0.3748
  829MPD2    C412245   2.724   4.013  12.161  0.1608 -0.0269  0.1799
  829MPD2    C512246   2.641   4.067  12.062  0.1143  0.9889 -0.0356
  829MPD2     H12247   2.498   3.853  12.345  2.4521 -0.0297  0.5471
  829MPD2    H112248   2.832   4.018  12.155  0.1736 -0.6301 -0.1542
  829MPD2    H212249   2.459   4.102  11.987  1.0643 -0.0079 -1.7561
  829MPD2    H312250   2.695   4.111  11.978 -0.8444  2.1322 -0.0435
  829MPD2     N12251   2.748   3.888  12.378  0.1016 -0.3535  0.5415
  829MPD2    H512252   2.693   3.834  12.445 -1.6757  1.0506  0.2398
  829MPD2    N112253   2.314   3.957  12.163  0.0336 -0.5166 -0.1736
  829MPD2    H712254   2.271   3.994  12.079 -2.0566 -1.5911  0.4328
  830MPD2     C12255   2.323   1.300  15.645  0.4566 -0.4359  0.1616
  830MPD2    C112256   2.295   1.420  15.586 -0.3124  0.1702 -1.0990
  830MPD2    C212257   2.385   1.484  15.500  1.1403 -0.0052 -0.1157
  830MPD2    C312258   2.508   1.427  15.484 -0.4576 -0.1343 -0.2344
  830MPD2    C412259   2.544   1.308  15.554 -0.0461 -0.2484 -0.6431
  830MPD2    C512260   2.452   1.248  15.632  0.5453 -0.5497 -0.0744
  830MPD2     H12261   2.351   1.568  15.440  1.9703 -0.4648 -1.2367
  830MPD2    H112262   2.641   1.260  15.551 -0.2875 -0.8674  1.6923
  830MPD2    H212263   2.250   1.250  15.708 -1.4495  0.1021 -1.6060
  830MPD2    H312264   2.470   1.158  15.689  0.7240  1.3318  2.8636
  830MPD2     N12265   2.614   1.480  15.407  0.1181  0.7447  0.1851
  830MPD2    H512266   2.703   1.442  15.434 -0.5010 -0.4149  0.5698
  830MPD2    N112267   2.170   1.480  15.625 -0.0788  0.3368  0.0426
  830MPD2    H712268   2.102   1.423  15.674 -1.2636  0.2186 -1.7526
  831MPD2     C12269   2.640   3.602  16.277  0.4830 -0.3992  0.0066
  831MPD2    C112270   2.708   3.499  16.225 -0.4498  0.0699  0.1620
  831MPD2    C212271   2.662   3.370  16.238  0.8765  0.6784  0.2466
  831MPD2    C312272   2.548   3.349  16.313 -0.4373 -0.1195 -0.2082
  831MPD2    C412273   2.495   3.456  16.383  0.0828  0.4130 -0.1640
  831MPD2    C512274   2.536   3.585  16.362 -0.0925  0.8699 -0.2466
  831MPD2     H12275   2.717   3.296  16.181  4.3320  2.8558  0.7676
  831MPD2    H112276   2.421   3.448  16.462  1.1072 -0.7062  0.6842
  831MPD2    H212277   2.682   3.699  16.251  1.6736 -1.2640 -1.3179
  831MPD2    H312278   2.485   3.669  16.408 -0.6606 -0.8618  2.2522
  831MPD2     N12279   2.481   3.223  16.323  0.0562 -0.2115  0.4304
  831MPD2    H512280   2.403   3.222  16.388 -0.6367  0.0888 -0.3893
  831MPD2    N112281   2.828   3.526  16.150  0.0958  0.0813 -0.8935
  831MPD2    H712282   2.845   3.623  16.123  0.7873  0.4668  0.9220
  832MPD2     C12283   1.028   0.247  17.228  0.2704  0.4157  0.2094
  832MPD2    C112284   1.059   0.308  17.115  0.2122  0.1816 -0.0772
  832MPD2    C212285   0.965   0.296  17.010 -0.0931 -0.5968 -0.5785
  832MPD2    C312286   0.850   0.214  17.030 -0.1408  0.5127  1.2863
  832MPD2    C412287   0.819   0.155  17.149  0.7644  0.1503  0.1410
  832MPD2    C512288   0.902   0.178  17.249 -1.0111 -0.2516  0.9633
  832MPD2     H12289   0.984   0.318  16.906 -0.9585 -1.4664 -0.9150
  832MPD2    H112290   0.730   0.095  17.162  0.0612  0.9178 -1.1100
  832MPD2    H212291   1.095   0.253  17.312  0.5484  4.3638 -0.2834
  832MPD2    H312292   0.874   0.141  17.347  0.4667 -1.7682  0.8165
  832MPD2     N12293   0.775   0.176  16.914 -0.1734  0.1442 -0.0814
  832MPD2    H512294   0.704   0.106  16.933  0.0807 -0.0923  0.0138
  832MPD2    N112295   1.187   0.361  17.102 -0.2379  0.2504  0.6555
  832MPD2    H712296   1.246   0.372  17.185  0.8628  1.2852 -0.2577
  833MPD2     C12297   3.344   1.549  12.743  1.2815 -0.1448 -0.2586
  833MPD2    C112298   3.268   1.637  12.664  0.2232 -0.2447  0.2580
  833MPD2    C212299   3.325   1.735  12.590 -0.3430 -0.6490  0.2512
  833MPD2    C312300   3.467   1.747  12.585  0.1167 -0.4724 -0.0133
  833MPD2    C412301   3.539   1.663  12.666  0.2190 -0.0311  0.5462
  833MPD2    C512302   3.481   1.562  12.743  0.0713  0.3204  0.1880
  833MPD2     H12303   3.264   1.790  12.520 -1.4377 -0.6232  1.2308
  833MPD2    H112304   3.647   1.672  12.671  0.1262  1.1313  0.4860
  833MPD2    H212305   3.313   1.461  12.798  2.4568 -0.9312 -0.8512
  833MPD2    H312306   3.543   1.501  12.808 -0.2714  1.0385  1.1951
  833MPD2     N12307   3.535   1.840  12.503  0.2165  0.1750  0.1499
  833MPD2    H512308   3.634   1.859  12.515  0.2388  1.1841 -1.5884
  833MPD2    N112309   3.126   1.625  12.656 -0.0197  0.1957 -0.4197
  833MPD2    H712310   3.083   1.695  12.596  0.6400  0.5867 -0.4390
  834MPD2     C12311   4.030   1.429  11.862 -0.9246 -0.9783  0.1156
  834MPD2    C112312   3.905   1.457  11.813  0.5108  0.2178  0.3343
  834MPD2    C212313   3.837   1.557  11.882 -0.7362  0.3461  0.2058
  834MPD2    C312314   3.887   1.634  11.988  0.9173  0.4203 -0.7477
  834MPD2    C412315   4.014   1.606  12.028 -0.0931 -0.8909 -0.7769
  834MPD2    C512316   4.081   1.503  11.974 -0.6933  0.9020 -0.7507
  834MPD2     H12317   3.748   1.602  11.839 -0.7827 -0.5467 -0.6107
  834MPD2    H112318   4.071   1.669  12.096  2.6332 -2.4146 -1.6306
  834MPD2    H212319   4.088   1.347  11.821  1.5127  1.0788 -0.6054
  834MPD2    H312320   4.177   1.475  12.015 -0.5006  2.8108  0.1070
  834MPD2     N12321   3.806   1.737  12.032 -0.2806 -0.3093 -0.1361
  834MPD2    H512322   3.711   1.732  11.997  0.4304 -0.3699 -2.0478
  834MPD2    N112323   3.847   1.390  11.704 -0.1962  0.4811  0.0131
  834MPD2    H712324   3.903   1.330  11.645 -1.2090 -1.7637  1.3218
  835MPD2     C12325   4.123   4.256  11.356 -0.0319  0.0562  0.1445
  835MPD2    C112326   4.032   4.349  11.392 -0.1744  0.1157  0.2983
  835MPD2    C212327   4.023   4.397  11.522  0.4071 -0.2458  0.1296
  835MPD2    C312328   4.086   4.330  11.622  0.3223 -0.1392 -0.1944
  835MPD2    C412329   4.183   4.239  11.582 -0.1782 -0.0787 -1.1006
  835MPD2    C512330   4.208   4.214  11.450  0.5491 -0.0077  0.2942
  835MPD2     H12331   3.956   4.482  11.534  1.0335  0.5195 -1.8584
  835MPD2    H112332   4.232   4.172  11.651 -0.4212 -1.6318 -2.4407
  835MPD2    H212333   4.147   4.220  11.257 -0.0313  0.0432  0.1495
  835MPD2    H312334   4.282   4.141  11.417 -0.0252  0.5700 -2.2093
  835MPD2     N12335   4.066   4.353  11.754  0.0843  0.0062 -0.0770
  835MPD2    H512336   4.115   4.301  11.825 -0.3291  0.2477  0.3886
  835MPD2    N112337   3.941   4.405  11.295 -0.3196 -0.3988 -0.1217
  835MPD2    H712338   3.898   4.496  11.301 -0.4060 -0.4089 -0.5672
  836MPD2     C12339   3.376   4.226  11.890 -0.0425 -0.0138 -0.0893
  836MPD2    C112340   3.439   4.220  12.010  0.3170  0.6221  0.4401
  836MPD2    C212341   3.365   4.227  12.127 -0.1649  0.1407 -0.5197
  836MPD2    C312342   3.222   4.214  12.117  0.7649  0.3288 -0.2368
  836MPD2    C412343   3.163   4.213  11.992  0.5755  0.3898  0.5552
  836MPD2    C512344   3.240   4.232  11.880 -0.2803 -0.2319 -0.3087
  836MPD2     H12345   3.409   4.227  12.226 -0.1077 -2.0382 -0.5263
  836MPD2    H112346   3.056   4.201  11.982  0.5570  0.1919  0.9735
  836MPD2    H212347   3.429   4.229  11.796 -1.1904 -2.5791 -0.7952
  836MPD2    H312348   3.200   4.241  11.780  0.7198 -2.6357 -0.9214
  836MPD2     N12349   3.127   4.214  12.220  0.4442 -0.0615 -0.2976
  836MPD2    H512350   3.031   4.226  12.188  1.3298 -0.6453 -3.1938
  836MPD2    N112351   3.579   4.239  12.011  0.1339  0.0267 -0.0641
  836MPD2    H712352   3.624   4.273  11.926  0.9622 -0.1234  0.3156
  837MPD2     C12353   2.104   3.576  10.244  0.2484  0.1400 -0.2856
  837MPD2    C112354   1.978   3.625  10.215 -0.3093 -0.7803 -0.7359
  837MPD2    C212355   1.938   3.737  10.283 -0.1419  0.1806 -0.7879
  837MPD2    C312356   2.031   3.807  10.356 -0.1012  1.0223 -0.4823
  837MPD2    C412357   2.156   3.767  10.377 -0.6411  1.0668 -0.6720
  837MPD2    C512358   2.192   3.647  10.325  0.2798  0.5876  0.0282
  837MPD2     H12359   1.839   3.780  10.273 -1.0684 -1.3661  1.5877
  837MPD2    H112360   2.217   3.821  10.448  1.4203 -0.2533 -1.4464
  837MPD2    H212361   2.132   3.480  10.200  1.6695  0.5516 -0.2926
  837MPD2    H312362   2.290   3.604  10.345  0.1153  0.6449  0.9610
  837MPD2     N12363   1.983   3.929  10.408 -0.1870  0.6135  0.4127
  837MPD2    H512364   1.890   3.960  10.380 -1.2863 -1.9385  1.1379
  837MPD2    N112365   1.888   3.558  10.131  0.0907 -0.3854  0.0668
  837MPD2    H712366   1.798   3.606  10.125  0.2855 -0.2930 -2.1693
  838MPD2     C12367   0.706   2.163  12.024 -0.2222  1.0147  0.3073
  838MPD2    C112368   0.715   2.030  12.055 -0.2226  0.0463  0.4574
  838MPD2    C212369   0.618   1.983  12.145 -1.1310 -0.1340  0.5034
  838MPD2    C312370   0.530   2.064  12.204 -0.7830  0.6574  0.2298
  838MPD2    C412371   0.522   2.198  12.173  0.1887  0.0054 -0.1863
  838MPD2    C512372   0.606   2.241  12.073  0.1059 -0.0529 -0.2917
  838MPD2     H12373   0.622   1.881  12.182 -1.1654 -0.0038  0.8715
  838MPD2    H112374   0.442   2.261  12.210 -1.1273 -0.8371 -1.5932
  838MPD2    H212375   0.776   2.197  11.948  1.9411 -2.4309  0.7423
  838MPD2    H312376   0.601   2.343  12.037 -0.4509  0.5839  1.6142
  838MPD2     N12377   0.421   2.016  12.286 -0.4805 -0.4564  0.1217
  838MPD2    H512378   0.379   2.091  12.340 -0.4953 -0.2236 -0.2179
  838MPD2    N112379   0.806   1.939  11.987 -0.1076 -0.5020 -0.2723
  838MPD2    H712380   0.842   1.969  11.897 -0.2421  1.3742  0.2945
  839MPD2     C12381   4.658   1.597  12.023 -0.0715 -0.3116 -0.0846
  839MPD2    C112382   4.718   1.492  11.955 -0.7364  0.3083 -0.2420
  839MPD2    C212383   0.114   1.503  11.937 -0.0571  0.0854  0.0241
  839MPD2    C312384   0.184   1.618  11.971  0.4685  0.4047  0.0887
  839MPD2    C412385   0.126   1.728  12.027 -0.4756 -0.2546  0.7411
  839MPD2    C512386   4.729   1.712  12.052 -0.0260  0.1348 -0.1407
  839MPD2     H12387   0.170   1.416  11.905  1.7313  1.3558 -0.3190
  839MPD2    H112388   0.190   1.801  12.075  1.0049 -0.7907 -0.4164
  839MPD2    H212389   4.553   1.596  12.052  0.0467  0.7492  0.3675
  839MPD2    H312390   4.679   1.796  12.099 -2.9841 -2.0591  0.6666
  839MPD2     N12391   0.332   1.635  11.953 -0.4900 -0.5496  0.4977
  839MPD2    H512392   0.376   1.723  11.976  0.3696 -1.0162  0.6120
  839MPD2    N112393   4.650   1.381  11.898  0.3401  0.1165 -0.1038
  839MPD2    H712394   4.699   1.315  11.838  2.2060 -2.1883  3.9055
  840MPD2     C12395   0.756   0.110  10.112 -0.3213  0.5053 -0.2468
  840MPD2    C112396   0.726   0.030  10.220 -0.5029  0.0638  0.2526
  840MPD2    C212397   0.731   0.088  10.349  0.0376 -0.4747 -0.4260
  840MPD2    C312398   0.761   0.221  10.364  0.7338 -0.8305  0.4888
  840MPD2    C412399   0.804   0.291  10.256 -0.2429 -0.2540  0.2859
  840MPD2    C512400   0.798   0.235  10.132  0.3203  0.5937  0.3850
  840MPD2     H12401   0.695   0.031  10.433  0.1170 -1.5189 -1.1008
  840MPD2    H112402   0.831   0.396  10.265 -2.1733  0.2580  0.1246
  840MPD2    H212403   0.744   0.078  10.009 -1.7050  0.7243 -0.1552
  840MPD2    H312404   0.826   0.306  10.055 -2.1048  1.3486  0.1852
  840MPD2     N12405   0.761   0.285  10.491  0.3076 -0.0748  0.0795
  840MPD2    H512406   0.822   0.366  10.498  1.4206 -1.0274  1.5241
  840MPD2    N112407   0.673   4.640  10.201 -0.2486  0.4901 -0.0478
  840MPD2    H712408   0.645   4.628  10.104 -1.5667 -1.2156  0.5533
  841MPD2     C12409   3.694   4.283  14.707  0.2045 -0.2133  0.0243
  841MPD2    C112410   3.754   4.216  14.600  0.1488 -0.3019  0.2617
  841MPD2    C212411   3.891   4.244  14.574  0.2734 -0.0200 -0.4441
  841MPD2    C312412   3.965   4.345  14.640 -0.1751  0.3222 -0.5521
  841MPD2    C412413   3.900   4.410  14.747  0.2665 -0.0335  0.2271
  841MPD2    C512414   3.767   4.384  14.776  0.3732 -0.1089  0.2141
  841MPD2     H12415   3.946   4.188  14.499  3.1700  1.7603  0.3843
  841MPD2    H112416   3.957   4.485  14.801 -1.9958  0.6093  1.6894
  841MPD2    H212417   3.591   4.272  14.736 -0.5062  1.2945 -1.8913
  841MPD2    H312418   3.721   4.454  14.845  1.3454  0.6968  0.0497
  841MPD2     N12419   4.105   4.362  14.611  0.5427  0.1379 -0.8084
  841MPD2    H512420   4.141   4.291  14.548  1.2135 -2.3457  2.3875
  841MPD2    N112421   3.689   4.101  14.544 -0.3887 -0.4463 -0.0608
  841MPD2    H712422   3.755   4.042  14.494 -0.6419 -1.7181  1.0882
  842MPD2     C12423   0.326   0.120  16.873  0.7967  0.6900  0.5943
  842MPD2    C112424   0.330   0.250  16.825  0.7809  0.2076 -0.4572
  842MPD2    C212425   0.390   0.353  16.897  0.8049  0.0957 -0.0760
  842MPD2    C312426   0.443   0.325  17.025 -0.6072  0.1431 -0.2751
  842MPD2    C412427   0.429   0.196  17.066 -0.0110 -0.2626  0.2228
  842MPD2    C512428   0.379   0.087  16.991  0.6377  0.0266  0.2519
  842MPD2     H12429   0.372   0.455  16.863 -1.8617  0.0024  1.0425
  842MPD2    H112430   0.473   0.169  17.162  2.9970 -1.6306 -1.5298
  842MPD2    H212431   0.288   0.035  16.817 -2.7797  1.8198  1.3181
  842MPD2    H312432   0.397   4.725  17.026  0.2958 -1.0278 -2.6081
  842MPD2     N12433   0.480   0.429  17.102  0.1472 -0.0801  0.1979
  842MPD2    H512434   0.486   0.518  17.054  2.6688 -1.9616 -2.9867
  842MPD2    N112435   0.260   0.290  16.709  0.5485 -0.3604  0.1355
  842MPD2    H712436   0.275   0.386  16.681  0.8185 -1.0358 -2.1246
  843MPD2     C12437   2.394   0.897   0.151 -0.2342  0.3262 -0.7143
  843MPD2    C112438   2.476   0.906   0.258 -0.1886 -0.6445  0.3863
  843MPD2    C212439   2.515   1.033   0.299  0.1753  0.5165 -0.9733
  843MPD2    C312440   2.477   1.143   0.230 -0.1670 -0.1739  0.0128
  843MPD2    C412441   2.398   1.135   0.114 -0.5389 -0.3571 -0.1141
  843MPD2    C512442   2.356   1.008   0.080  0.2260 -0.8380 -0.0971
  843MPD2     H12443   2.586   1.043   0.381 -0.1838 -1.5794 -0.3965
  843MPD2    H112444   2.374   1.224   0.057 -0.6557 -0.3266 -0.0180
  843MPD2    H212445   2.359   0.802   0.111 -2.2920  0.2686  1.2856
  843MPD2    H312446   2.292   0.996  17.745  1.1484  1.7584 -1.1186
  843MPD2     N12447   2.532   1.269   0.256  0.4671  0.1760  0.2747
  843MPD2    H512448   2.502   1.346   0.197 -3.4353 -2.7577 -1.5687
  843MPD2    N112449   2.519   0.785   0.324 -0.4051 -0.7032 -0.4874
  843MPD2    H712450   2.494   0.697   0.280 -1.3783 -0.1280 -1.0804
  844MPD2     C12451   0.663   4.192  16.700  0.0293 -0.0527  0.7537
  844MPD2    C112452   0.700   4.238  16.574 -0.2968 -0.0086  0.5827
  844MPD2    C212453   0.756   4.364  16.553  0.6231 -0.4651  0.4774
  844MPD2    C312454   0.786   4.438  16.667  0.9834  0.1993  0.0753
  844MPD2    C412455   0.762   4.379  16.788  0.3588 -0.0326 -0.9748
  844MPD2    C512456   0.691   4.265  16.807 -0.1196  0.4823 -0.1550
  844MPD2     H12457   0.785   4.392  16.453 -0.1803  1.3685  0.7633
  844MPD2    H112458   0.787   4.434  16.878 -2.6543 -1.2437  0.6005
  844MPD2    H212459   0.615   4.095  16.704 -0.8592  0.2262 -3.0830
  844MPD2    H312460   0.671   4.226  16.905 -0.9161  2.8847  0.6440
  844MPD2     N12461   0.861   4.562  16.661  0.0213 -0.4295 -0.0933
  844MPD2    H512462   0.893   4.599  16.750 -1.2627 -0.1413  0.2468
  844MPD2    N112463   0.679   4.156  16.461  0.5832  0.3370 -0.4260
  844MPD2    H712464   0.695   4.201  16.371 -0.3642 -1.3160 -1.4127
  845MPD2     C12465   1.098   0.845  16.496  0.1267  0.1609 -0.3093
  845MPD2    C112466   1.150   0.803  16.615  0.0024 -0.7318 -0.0015
  845MPD2    C212467   1.168   0.663  16.633 -0.2679  0.0517 -0.0205
  845MPD2    C312468   1.111   0.577  16.538  0.5520 -0.7112  0.5451
  845MPD2    C412469   1.060   0.622  16.417  0.4639  0.2664 -0.7601
  845MPD2    C512470   1.060   0.754  16.397  0.5639 -0.6294  0.6637
  845MPD2     H12471   1.197   0.610  16.722 -0.5261 -2.0473 -1.1788
  845MPD2    H112472   1.022   0.553  16.342  0.1287 -1.1174  0.6734
  845MPD2    H212473   1.079   0.951  16.483  0.2549  0.4051  1.4105
  845MPD2    H312474   1.029   0.789  16.299 -0.3166  1.4683  1.6949
  845MPD2     N12475   1.117   0.435  16.565  0.5200 -0.2281  0.7613
  845MPD2    H512476   1.160   0.414  16.655  1.3589 -1.0450  0.1767
  845MPD2    N112477   1.176   0.897  16.719 -0.2350 -0.4059  0.3812
  845MPD2    H712478   1.150   0.989  16.685 -0.1047 -0.1835  0.8860
  846MPD2     C12479   2.657   0.512  14.360 -0.3914 -0.2260 -0.0279
  846MPD2    C112480   2.649   0.635  14.297 -0.1716 -0.7089  1.0646
  846MPD2    C212481   2.624   0.748  14.371  0.3638  0.3039 -0.3277
  846MPD2    C312482   2.599   0.741  14.509 -0.3024 -1.0486  0.7786
  846MPD2    C412483   2.620   0.620  14.570  0.1028 -0.2070 -0.8575
  846MPD2    C512484   2.640   0.502  14.494  0.2719  0.0532  0.0177
  846MPD2     H12485   2.613   0.844  14.322  1.3699  0.8926  0.5956
  846MPD2    H112486   2.620   0.608  14.678  2.2954 -0.1687 -0.8569
  846MPD2    H212487   2.675   0.419  14.308 -0.2791  0.3388 -1.0107
  846MPD2    H312488   2.652   0.403  14.536  0.4521  0.2145  0.3474
  846MPD2     N12489   2.560   0.860  14.578  0.3284  0.3333 -0.1654
  846MPD2    H512490   2.559   0.943  14.520 -1.0556  1.9293  2.1632
  846MPD2    N112491   2.647   0.656  14.160 -0.2573 -0.4141 -1.1173
  846MPD2    H712492   2.613   0.747  14.129  2.4860  0.9178 -0.1948
  847MPD2     C12493   2.705   1.805  14.046  0.0364  0.5805 -0.3524
  847MPD2    C112494   2.794   1.881  14.117 -0.0179  0.0412  1.1273
  847MPD2    C212495   2.885   1.808  14.195  0.4288 -0.2259  0.0971
  847MPD2    C312496   2.880   1.674  14.208  0.4821  0.3164  0.3733
  847MPD2    C412497   2.788   1.602  14.139  0.0730 -0.2156  1.1684
  847MPD2    C512498   2.706   1.664  14.048  0.5346 -0.8152  0.1695
  847MPD2     H12499   2.953   1.862  14.261  0.4094 -2.3573  1.8842
  847MPD2    H112500   2.777   1.495  14.152 -0.8669 -0.4544 -1.6084
  847MPD2    H212501   2.634   1.853  13.979  0.8426 -0.5862 -2.0482
  847MPD2    H312502   2.645   1.612  13.975  0.8397  0.0865 -0.7352
  847MPD2     N12503   2.964   1.613  14.308  0.4572  0.0735  0.0000
  847MPD2    H512504   3.024   1.676  14.361  2.1483 -0.2783 -1.5103
  847MPD2    N112505   2.798   2.021  14.117  0.1506  0.4379 -0.5558
  847MPD2    H712506   2.877   2.047  14.175 -0.3018  0.7069 -0.0584
  848MPD2     C12507   0.667   0.252  16.057  0.3710 -0.2994  0.2296
  848MPD2    C112508   0.672   0.333  16.168 -0.3016 -0.1911 -0.1286
  848MPD2    C212509   0.698   0.469  16.153  0.0196  0.0909 -0.3941
  848MPD2    C312510   0.730   0.522  16.028 -0.5523  0.3464  0.2622
  848MPD2    C412511   0.716   0.440  15.915  0.0184 -0.3238  0.3086
  848MPD2    C512512   0.700   0.304  15.934 -1.3249  0.2479 -0.5302
  848MPD2     H12513   0.707   0.528  16.244 -1.9256  1.2280 -0.9380
  848MPD2    H112514   0.744   0.471  15.815 -0.2068  1.6879  0.8666
  848MPD2    H212515   0.643   0.147  16.066 -1.1648 -0.0031 -0.4220
  848MPD2    H312516   0.709   0.243  15.845 -1.7498 -2.4217  1.2650
  848MPD2     N12517   0.743   0.664  16.012  0.2356  0.0536 -0.3534
  848MPD2    H512518   0.731   0.705  15.920  0.2866  0.8015 -0.0261
  848MPD2    N112519   0.637   0.289  16.299  0.0703  0.4587 -0.0306
  848MPD2    H712520   0.641   0.357  16.374 -2.8142  2.8649 -2.0722
  849MPD2     C12521   0.463   3.714  14.277  0.0467 -0.5926 -0.0696
  849MPD2    C112522   0.371   3.818  14.275 -0.0236  0.5141  0.1221
  849MPD2    C212523   0.372   3.903  14.384 -0.7961  0.9247 -0.4102
  849MPD2    C312524   0.462   3.890  14.481  0.5635 -0.1970  0.4598
  849MPD2    C412525   0.562   3.797  14.476  0.7305  0.0884  0.2915
  849MPD2    C512526   0.550   3.699  14.381 -0.1428  0.7088  0.0492
  849MPD2     H12527   0.290   3.974  14.394  1.4340  3.0390  2.6616
  849MPD2    H112528   0.619   3.782  14.567 -1.8727 -0.1313  1.8830
  849MPD2    H212529   0.466   3.643  14.195 -0.2054  0.0153 -0.6016
  849MPD2    H312530   0.628   3.624  14.382 -1.3647 -0.5690 -0.7020
  849MPD2     N12531   0.444   3.983  14.582 -0.0164 -0.3634 -0.1955
  849MPD2    H512532   0.357   4.034  14.578  2.4745  3.7761 -0.9682
  849MPD2    N112533   0.282   3.838  14.166 -0.3599  0.4645 -0.6752
  849MPD2    H712534   0.298   3.780  14.084  0.8611 -1.9031  1.2386
  850MPD2     C12535   2.343   3.183  15.058 -0.3275 -0.2409 -0.0952
  850MPD2    C112536   2.410   3.070  15.032 -0.1763 -0.1229  0.7614
  850MPD2    C212537   2.545   3.085  14.991  0.4847  0.2410 -1.3534
  850MPD2    C312538   2.608   3.209  14.985  0.2429 -0.0510  0.4810
  850MPD2    C412539   2.540   3.318  15.023 -0.3520 -0.0842 -0.1093
  850MPD2    C512540   2.411   3.303  15.064 -0.2667 -0.0059 -0.4184
  850MPD2     H12541   2.595   2.993  14.962 -0.0570 -0.7996  0.9823
  850MPD2    H112542   2.590   3.414  15.024 -1.7610  0.6638 -1.2776
  850MPD2    H212543   2.250   3.170  15.112  0.4480 -3.6000  0.4491
  850MPD2    H312544   2.361   3.384  15.117  1.3538  1.1195 -0.6336
  850MPD2     N12545   2.743   3.218  14.944  0.4545 -0.5629  0.1170
  850MPD2    H512546   2.790   3.305  14.961 -1.0369 -0.0297  1.4783
  850MPD2    N112547   2.345   2.948  15.074 -1.0719 -0.0534 -0.0298
  850MPD2    H712548   2.253   2.960  15.115 -0.4729  2.2179  0.6352
  851MPD2     C12549   2.536   2.299  15.661  0.5637 -1.0271  0.0104
  851MPD2    C112550   2.544   2.309  15.523  0.0318 -0.4724  0.5823
  851MPD2    C212551   2.621   2.208  15.465 -0.1391  0.2015 -0.1147
  851MPD2    C312552   2.685   2.105  15.532 -0.5438 -0.0559 -0.1229
  851MPD2    C412553   2.674   2.101  15.674  0.5869  0.2682  0.5534
  851MPD2    C512554   2.607   2.206  15.731  0.4457  0.1142 -0.1558
  851MPD2     H12555   2.631   2.219  15.357  0.6467  1.6954  0.1072
  851MPD2    H112556   2.724   2.034  15.742 -0.9418 -2.6661 -1.2103
  851MPD2    H212557   2.478   2.373  15.716 -2.3381 -1.6303 -2.2329
  851MPD2    H312558   2.603   2.213  15.839 -0.2581  1.8611 -0.3005
  851MPD2     N12559   2.757   2.013  15.458  0.1772  0.3274 -0.3289
  851MPD2    H512560   2.752   2.011  15.357  1.1692  1.3100 -0.4023
  851MPD2    N112561   2.471   2.406  15.457 -0.0733  0.4781  0.2573
  851MPD2    H712562   2.411   2.453  15.523  1.2283  1.4602  0.7403
  852MPD2     C12563   3.419   0.905  10.489 -0.7142  0.2887 -0.7308
  852MPD2    C112564   3.423   0.894  10.624 -0.3493  0.4243  0.1518
  852MPD2    C212565   3.501   0.984  10.696 -0.1241  0.1316 -0.6669
  852MPD2    C312566   3.545   1.099  10.639 -0.2215  0.0703 -0.1350
  852MPD2    C412567   3.536   1.113  10.503 -0.1950 -0.0546 -0.4365
  852MPD2    C512568   3.463   1.021  10.429  0.8594 -0.2793  0.0564
  852MPD2     H12569   3.529   0.954  10.796  0.1094 -0.1970 -0.8300
  852MPD2    H112570   3.560   1.199  10.442  0.4191  1.1116  1.4390
  852MPD2    H212571   3.360   0.841  10.424  1.0029 -1.5193 -0.5079
  852MPD2    H312572   3.451   1.043  10.324  0.2835 -0.5549  0.0654
  852MPD2     N12573   3.612   1.193  10.715 -0.6464  0.0543 -0.4345
  852MPD2    H512574   3.597   1.176  10.814  0.8928  2.7170  0.2376
  852MPD2    N112575   3.345   0.787  10.685  0.4885 -0.2280  0.0292
  852MPD2    H712576   3.353   0.776  10.785 -1.5790  0.2003  0.2400
  853MPD2     C12577   4.631   0.070  12.490  0.0249  0.4271  0.3911
  853MPD2    C112578   4.514   0.133  12.458  0.0502  0.3835 -0.8017
  853MPD2    C212579   4.485   0.171  12.326  0.3290  0.2429 -0.7406
  853MPD2    C312580   4.581   0.160  12.233 -0.2068 -0.7870 -0.2145
  853MPD2    C412581   4.695   0.089  12.261  0.3749  0.3881  0.6223
  853MPD2    C512582   4.717   0.044  12.388  0.1430  0.3948  0.0355
  853MPD2     H12583   4.391   0.220  12.302  1.3787  2.1009 -1.1041
  853MPD2    H112584   0.032   0.064  12.187 -2.5944 -0.2935 -2.1508
  853MPD2    H212585   4.651   0.044  12.593 -1.5334  0.2654  0.6519
  853MPD2    H312586   0.071   4.728  12.401  0.2584  0.9913  1.7500
  853MPD2     N12587   4.555   0.205  12.097 -0.2092 -0.3754 -0.1430
  853MPD2    H512588   4.643   0.191  12.048  0.2410 -1.1921  0.8703
  853MPD2    N112589   4.428   0.168  12.570 -0.5530 -0.5570  0.4901
  853MPD2    H712590   4.464   0.156  12.665 -0.4420  1.0307  0.6444
  854MPD2     C12591   1.020   0.426  13.119 -0.3491 -0.7555  0.1635
  854MPD2    C112592   1.121   0.515  13.124 -0.0956  1.3464 -0.3524
  854MPD2    C212593   1.242   0.462  13.176  0.5999 -0.3338 -0.6012
  854MPD2    C312594   1.257   0.329  13.219 -0.2376 -0.7020 -0.2419
  854MPD2    C412595   1.153   0.243  13.207  0.2713  0.2831 -0.2487
  854MPD2    C512596   1.037   0.299  13.150  0.5760 -0.0912 -0.2533
  854MPD2     H12597   1.333   0.521  13.184  0.4503 -0.4941  2.1624
  854MPD2    H112598   1.172   0.136  13.217  0.1298 -0.0232 -3.2511
  854MPD2    H212599   0.918   0.454  13.094  0.1684  1.6337  0.7201
  854MPD2    H312600   0.949   0.236  13.139  1.5491 -1.0632 -2.4760
  854MPD2     N12601   1.371   0.280  13.282  0.9737  0.0386  0.1615
  854MPD2    H512602   1.378   0.180  13.297 -1.1593  0.1484  1.8868
  854MPD2    N112603   1.109   0.651  13.071  0.1077 -0.1624  0.5952
  854MPD2    H712604   1.019   0.687  13.043  0.7469 -1.2355 -2.8519
  855MPD2     C12605   1.823   0.533  14.000 -0.4270  0.0385 -0.7212
  855MPD2    C112606   1.814   0.396  13.987 -0.7727 -0.3256 -0.0051
  855MPD2    C212607   1.830   0.345  13.861 -0.1512 -0.1560  0.5453
  855MPD2    C312608   1.863   0.430  13.758  0.0906  0.1306  0.5973
  855MPD2    C412609   1.858   0.566  13.766 -0.1976 -0.1501 -0.3140
  855MPD2    C512610   1.837   0.615  13.890 -0.4470  1.0141 -0.4814
  855MPD2     H12611   1.796   0.245  13.836 -2.4349  0.0610  2.9051
  855MPD2    H112612   1.865   0.633  13.681 -0.7245  1.2992  0.7740
  855MPD2    H212613   1.802   0.586  14.092  2.6849 -0.2299  0.1331
  855MPD2    H312614   1.828   0.721  13.910  0.1101  0.8650  0.5730
  855MPD2     N12615   1.858   0.379  13.625 -0.4278 -0.4460  0.3337
  855MPD2    H512616   1.834   0.443  13.550 -0.8410 -0.3235  0.5704
  855MPD2    N112617   1.766   0.320  14.096 -0.6149  0.3761 -0.5083
  855MPD2    H712618   1.779   0.356  14.190  1.1723 -3.7177  0.8175
  856MPD2     C12619   3.717   1.159  13.996 -0.3008  0.3777  0.0591
  856MPD2    C112620   3.747   1.275  13.924  0.4155  0.2130  0.4841
  856MPD2    C212621   3.645   1.352  13.881 -0.3754 -1.1442 -0.0772
  856MPD2    C312622   3.514   1.313  13.883  1.1472 -0.4611  0.0741
  856MPD2    C412623   3.485   1.196  13.945  1.5102 -0.3963 -0.9790
  856MPD2    C512624   3.588   1.118  13.991  0.5355  0.2521  0.0382
  856MPD2     H12625   3.670   1.436  13.817 -0.2128  0.3582  1.9619
  856MPD2    H112626   3.383   1.160  13.951  0.9641  1.2316 -0.5227
  856MPD2    H212627   3.794   1.112  14.055  0.7714  0.6802 -1.1074
  856MPD2    H312628   3.557   1.023  14.032 -1.0974  0.9743  0.4695
  856MPD2     N12629   3.419   1.380  13.805  0.6832  0.5907  0.6504
  856MPD2    H512630   3.333   1.325  13.802  1.2056 -0.1739 -0.5342
  856MPD2    N112631   3.875   1.333  13.933  0.2130  0.2441 -0.1927
  856MPD2    H712632   3.879   1.432  13.910 -3.4633  0.9492  2.2198
  857MPD2     C12633   0.931   3.358  12.651  0.3626 -0.0293  0.0050
  857MPD2    C112634   0.900   3.477  12.584  0.2403  0.2252 -0.5373
  857MPD2    C212635   0.825   3.560  12.659  0.4527 -0.3344 -0.8926
  857MPD2    C312636   0.773   3.531  12.783 -0.5178 -0.2108  0.1066
  857MPD2    C412637   0.800   3.408  12.840  0.8179  0.0419  0.8671
  857MPD2    C512638   0.883   3.328  12.777 -0.0326 -0.0395  0.5973
  857MPD2     H12639   0.820   3.664  12.626 -1.2093 -0.4946 -1.1529
  857MPD2    H112640   0.768   3.382  12.941  0.9250  0.3692  0.9841
  857MPD2    H212641   0.992   3.284  12.600 -0.2984 -1.7574  1.7488
  857MPD2    H312642   0.919   3.237  12.825  1.1237 -0.1252 -0.4204
  857MPD2     N12643   0.714   3.639  12.854 -0.2794  0.8348  0.5118
  857MPD2    H512644   0.725   3.730  12.811 -1.7482  0.4788 -0.6498
  857MPD2    N112645   0.954   3.497  12.459 -0.1091  0.3405 -0.6635
  857MPD2    H712646   1.025   3.431  12.427 -0.6870 -0.7244  0.2646
  858MPD2     C12647   1.425   2.565  16.375 -0.0272  0.8432 -0.1181
  858MPD2    C112648   1.297   2.606  16.408 -0.1595  0.1042  0.1430
  858MPD2    C212649   1.270   2.662  16.532  0.1518 -0.6403 -0.1632
  858MPD2    C312650   1.359   2.643  16.629 -0.3304 -0.3892 -0.0726
  858MPD2    C412651   1.475   2.578  16.598 -0.0539  0.4038 -0.5659
  858MPD2    C512652   1.511   2.526  16.475  0.1298  0.9771 -0.2868
  858MPD2     H12653   1.175   2.711  16.552 -0.1863 -1.7505  0.9002
  858MPD2    H112654   1.555   2.572  16.671  1.0265 -0.5241 -1.8302
  858MPD2    H212655   1.453   2.539  16.274  0.3752  2.4080 -0.4095
  858MPD2    H312656   1.607   2.482  16.450  0.1248  1.4879 -1.2312
  858MPD2     N12657   1.341   2.682  16.761 -0.0210  0.0736 -0.4084
  858MPD2    H512658   1.422   2.663  16.819  0.7357  1.4715 -1.0060
  858MPD2    N112659   1.203   2.602  16.302  0.5338  0.0479 -0.3678
  858MPD2    H712660   1.228   2.562  16.212  0.6531 -0.1791 -0.2332
  859MPD2     C12661   4.314   4.678  15.910  0.6088  0.6167  0.2010
  859MPD2    C112662   4.333   4.639  15.778 -0.6151  0.4658  0.6547
  859MPD2    C212663   4.310   4.510  15.730  0.0679 -0.2395 -0.3577
  859MPD2    C312664   4.293   4.410  15.835 -0.4875 -0.2835 -0.9078
  859MPD2    C412665   4.284   4.450  15.961 -0.5891 -0.8729  0.8064
  859MPD2    C512666   4.292   4.578  16.003 -0.6873 -0.0720  1.0886
  859MPD2     H12667   4.329   4.485  15.626 -1.3112 -2.8830  0.0216
  859MPD2    H112668   4.271   4.373  16.036 -0.1262  1.4159  3.2374
  859MPD2    H212669   4.315   0.045  15.936 -1.1773  0.7874 -0.4720
  859MPD2    H312670   4.290   4.616  16.104  0.2545  0.4262  0.9212
  859MPD2     N12671   4.279   4.274  15.803  0.3084  0.7151  0.1251
  859MPD2    H512672   4.284   4.212  15.883 -0.5040  0.7836  0.2265
  859MPD2    N112673   4.388   4.733  15.695  0.5911  0.0148  0.3779
  859MPD2    H712674   4.393   4.711  15.596  0.5438 -0.4971  0.4931
  860MPD2     C12675   2.314   0.029  11.860 -0.0647  1.6114  0.7731
  860MPD2    C112676   2.329   0.095  11.979 -0.3785 -0.0100 -0.5190
  860MPD2    C212677   2.222   0.106  12.065 -0.0521  0.4776 -0.7104
  860MPD2    C312678   2.101   0.054  12.033 -0.0436  0.1346 -0.0941
  860MPD2    C412679   2.084   4.731  11.908 -0.3855 -0.3761 -0.4307
  860MPD2    C512680   2.191   4.725  11.822 -0.6266  0.6356 -0.8095
  860MPD2     H12681   2.235   0.155  12.161 -1.6525 -1.8328  0.7111
  860MPD2    H112682   1.982   4.699  11.890 -0.2939 -0.2174 -1.2289
  860MPD2    H212683   2.388   0.021  11.781 -1.0754  0.8315 -0.0966
  860MPD2    H312684   2.169   4.686  11.723  1.4202  0.7377 -1.2988
  860MPD2     N12685   1.996   0.069  12.128 -0.3492  0.4034 -0.6306
  860MPD2    H512686   2.026   0.124  12.208 -0.3944  0.3042 -0.5455
  860MPD2    N112687   2.453   0.136  12.039  0.1896  0.1126  0.1036
  860MPD2    H712688   2.451   0.196  12.121 -2.2477 -1.1718  0.9992
  861MPD2     C12689   1.777   3.070  11.286 -0.0099  0.0607  0.1434
  861MPD2    C112690   1.789   3.210  11.284  0.3977  0.0010  0.5435
  861MPD2    C212691   1.740   3.282  11.180 -0.2641  0.0604  0.0236
  861MPD2    C312692   1.679   3.211  11.081  0.0151  0.1132 -0.1417
  861MPD2    C412693   1.688   3.077  11.075 -0.0788 -0.1440 -0.1966
  861MPD2    C512694   1.731   3.007  11.176 -0.6969 -0.2421  0.4505
  861MPD2     H12695   1.754   3.389  11.190  0.0617  0.1062 -0.9298
  861MPD2    H112696   1.640   3.019  10.996  1.7086 -1.3520 -0.3964
  861MPD2    H212697   1.806   3.009  11.371  1.2575 -0.2176 -0.4804
  861MPD2    H312698   1.719   2.899  11.171 -1.4611 -0.1563  0.3831
  861MPD2     N12699   1.617   3.281  10.977 -0.3047 -0.5105  0.0328
  861MPD2    H512700   1.570   3.223  10.908  2.2656  0.0569 -2.2135
  861MPD2    N112701   1.855   3.286  11.391 -0.7284  0.2461 -0.1004
  861MPD2    H712702   1.857   3.387  11.381  1.7425  0.3265  1.3603
  862MPD2     C12703   1.084   3.142  10.493  0.3482 -0.2153 -0.5958
  862MPD2    C112704   1.179   3.120  10.593  0.2080 -0.4991 -0.1245
  862MPD2    C212705   1.170   3.003  10.669 -0.1196  0.7805  0.0151
  862MPD2    C312706   1.075   2.912  10.630 -0.7188  0.6355 -0.3946
  862MPD2    C412707   0.976   2.938  10.535 -0.2247  0.1242  0.0973
  862MPD2    C512708   0.980   3.059  10.470 -0.2510  0.5228 -0.0508
  862MPD2     H12709   1.240   3.002  10.753  0.0571  0.6446 -0.1334
  862MPD2    H112710   0.908   2.859  10.504 -1.6286  1.3610  0.0203
  862MPD2    H212711   1.076   3.235  10.437  0.8395 -0.6277 -1.3446
  862MPD2    H312712   0.932   3.069  10.373 -0.1669 -1.4663 -0.3015
  862MPD2     N12713   1.057   2.799  10.704 -0.2518  0.3195  0.3976
  862MPD2    H512714   0.973   2.746  10.680 -2.4213  3.3923  1.1214
  862MPD2    N112715   1.286   3.203  10.633 -0.2348 -0.4426  0.0271
  862MPD2    H712716   1.359   3.155  10.685 -0.8479 -1.1036  0.2739
  863MPD2     C12717   4.239   1.390  16.408 -0.1182  0.7819 -0.0504
  863MPD2    C112718   4.131   1.402  16.490  0.0120  0.0943 -0.6103
  863MPD2    C212719   4.157   1.396  16.627 -0.7624  0.2110 -0.8410
  863MPD2    C312720   4.290   1.374  16.675  0.7536  0.4380  0.1190
  863MPD2    C412721   4.391   1.372  16.583 -0.0459 -0.0191  0.6953
  863MPD2    C512722   4.367   1.373  16.455 -0.1359 -0.2658 -0.0124
  863MPD2     H12723   4.074   1.404  16.696  1.0584 -2.4143  1.6679
  863MPD2    H112724   4.494   1.356  16.614  0.5999  1.0257 -0.9134
  863MPD2    H212725   4.227   1.386  16.300 -0.3432  1.2758 -0.0444
  863MPD2    H312726   4.444   1.369  16.379 -0.7680 -1.6127 -0.5723
  863MPD2     N12727   4.318   1.366  16.811  1.1917  0.3829 -0.5181
  863MPD2    H512728   4.418   1.364  16.825  1.1839 -1.1731 -0.6758
  863MPD2    N112729   4.004   1.412  16.426 -0.0026  0.5922 -0.2007
  863MPD2    H712730   4.004   1.427  16.325 -0.9986 -2.3072 -0.6710
  864MPD2     C12731   4.498   2.209  17.083 -0.5838  0.3832  0.3030
  864MPD2    C112732   4.571   2.182  16.967  0.1360 -0.0460 -0.0007
  864MPD2    C212733   4.625   2.287  16.894  0.4561  0.6044  0.7826
  864MPD2    C312734   4.614   2.417  16.944 -0.1487 -0.2137  0.1005
  864MPD2    C412735   4.552   2.437  17.061  0.3719  0.8075  0.6363
  864MPD2    C512736   4.490   2.339  17.129  0.1473  0.6621 -0.5513
  864MPD2     H12737   4.670   2.270  16.797 -1.2010 -0.4835  0.2106
  864MPD2    H112738   4.554   2.539  17.098  1.3350  0.3750  1.7674
  864MPD2    H212739   4.454   2.132  17.145 -0.5353 -1.1058 -1.4740
  864MPD2    H312740   4.432   2.359  17.218  1.6985 -0.6664  0.7733
  864MPD2     N12741   4.670   2.526  16.877  0.2110 -0.1035  0.0257
  864MPD2    H512742   4.652   2.616  16.920  1.0358 -0.2606  0.7161
  864MPD2    N112743   4.553   2.051  16.914  0.4460  0.1453 -0.1316
  864MPD2    H712744   4.472   2.002  16.950  0.9089 -1.1946 -0.9045
  865MPD2     C12745   0.168   3.122  16.230 -0.7418 -0.8629  0.1675
  865MPD2    C112746   0.112   3.002  16.268 -0.0857 -0.5684  0.0272
  865MPD2    C212747   0.052   2.988  16.394 -0.7275 -0.2081 -0.2097
  865MPD2    C312748   0.048   3.096  16.479 -0.1809 -0.1909  0.1388
  865MPD2    C412749   0.101   3.213  16.436  0.0772  0.0202 -0.4195
  865MPD2    C512750   0.156   3.232  16.313  0.5163 -0.0568 -1.3505
  865MPD2     H12751   0.016   2.894  16.432  0.0868 -0.3732  0.1696
  865MPD2    H112752   0.107   3.299  16.501  0.3773  0.0539 -0.4939
  865MPD2    H212753   0.203   3.125  16.127 -1.5143  0.1150 -0.0620
  865MPD2    H312754   0.210   3.319  16.277 -1.7727  1.6935 -0.5204
  865MPD2     N12755   4.733   3.099  16.613 -0.1677 -0.1697  0.0460
  865MPD2    H512756   4.703   3.190  16.648  1.3011 -0.5000  2.1379
  865MPD2    N112757   0.113   2.895  16.173 -0.1631 -0.0790  0.1516
  865MPD2    H712758   0.145   2.924  16.081 -0.0416 -1.1854 -0.1541
  866MPD2     C12759   2.145   3.948  11.663 -0.5583 -0.5112  0.7129
  866MPD2    C112760   2.166   3.818  11.611 -0.8774 -0.5333  0.0423
  866MPD2    C212761   2.057   3.777  11.532 -0.6144  0.1697  0.2528
  866MPD2    C312762   1.932   3.842  11.529  0.2562  0.0651 -0.5063
  866MPD2    C412763   1.916   3.960  11.591 -0.0499 -0.1508  0.1133
  866MPD2    C512764   2.026   4.014  11.650 -0.9723 -0.0581 -0.7564
  866MPD2     H12765   2.066   3.682  11.481 -0.4926  1.5078 -2.2159
  866MPD2    H112766   1.826   4.016  11.568 -0.3555 -1.5481 -2.1266
  866MPD2    H212767   2.215   3.990  11.735 -0.4789 -0.0943  0.3891
  866MPD2    H312768   2.011   4.108  11.702 -1.8918  0.5220 -2.0558
  866MPD2     N12769   1.827   3.808  11.442  0.1610 -0.2390  0.1064
  866MPD2    H512770   1.759   3.882  11.436 -1.2917 -1.7086 -1.4882
  866MPD2    N112771   2.292   3.750  11.619 -0.8287 -0.6976 -0.2349
  866MPD2    H712772   2.368   3.790  11.673 -0.3092 -1.9332 -0.0647
  867MPD2     C12773   3.327   2.838  16.119 -0.6422  0.6635 -0.5926
  867MPD2    C112774   3.336   2.749  16.221 -0.6004  0.6903  0.0020
  867MPD2    C212775   3.296   2.790  16.343 -0.5053  0.2618 -0.1653
  867MPD2    C312776   3.259   2.926  16.372 -0.0788 -0.1970 -0.3601
  867MPD2    C412777   3.255   3.012  16.264  0.2521 -0.0046  0.4159
  867MPD2    C512778   3.286   2.963  16.140 -0.5405  0.3467  0.3287
  867MPD2     H12779   3.286   2.721  16.426  3.3652  1.2381  1.1065
  867MPD2    H112780   3.219   3.114  16.261 -0.4650 -0.2394  0.9124
  867MPD2    H212781   3.346   2.819  16.013  0.4113  1.6501 -0.5776
  867MPD2    H312782   3.289   3.028  16.053  0.4178  0.9241  0.7940
  867MPD2     N12783   3.223   2.964  16.504 -0.2745 -0.1955  0.1660
  867MPD2    H512784   3.190   3.058  16.520 -0.0885 -0.2199  0.6895
  867MPD2    N112785   3.406   2.627  16.197 -0.1287 -0.3303  0.2633
  867MPD2    H712786   3.455   2.625  16.108  0.5842  1.0137  0.6200
  868MPD2     C12787   0.555   2.221  13.229  0.3816 -0.1344  0.2835
  868MPD2    C112788   0.537   2.154  13.342 -0.2691  0.2475  0.9057
  868MPD2    C212789   0.459   2.208  13.450 -0.1464 -0.4130  0.1927
  868MPD2    C312790   0.390   2.329  13.418 -0.1718 -0.1254  0.4343
  868MPD2    C412791   0.421   2.395  13.303  0.6853 -0.1209  0.5234
  868MPD2    C512792   0.501   2.344  13.207  0.1811  0.7933 -0.6077
  868MPD2     H12793   0.466   2.178  13.554 -1.3960 -0.3694  0.2836
  868MPD2    H112794   0.370   2.488  13.282  0.7978  0.0293  0.9012
  868MPD2    H212795   0.625   2.190  13.153 -0.7403 -3.1215  0.4667
  868MPD2    H312796   0.525   2.385  13.110  0.2698 -0.5828 -1.1735
  868MPD2     N12797   0.318   2.384  13.528 -0.2578  0.5504  0.0657
  868MPD2    H512798   0.336   2.338  13.617  2.9857 -0.9264 -1.3312
  868MPD2    N112799   0.627   2.046  13.370  0.0041 -0.2904  0.0002
  868MPD2    H712800   0.696   2.035  13.297 -1.0464 -1.0178 -0.8807
  869MPD2     C12801   1.640   0.542   0.313 -0.2731 -0.2273 -0.6854
  869MPD2    C112802   1.553   0.506   0.417  0.4248  0.6072 -0.7214
  869MPD2    C212803   1.578   0.398   0.494 -0.3788  0.0663  0.1896
  869MPD2    C312804   1.696   0.325   0.482  0.1470 -0.1113  0.1906
  869MPD2    C412805   1.780   0.361   0.378 -0.4404 -0.8804  1.0209
  869MPD2    C512806   1.743   0.462   0.291  0.6223  0.5011 -0.0369
  869MPD2     H12807   1.513   0.373   0.577 -3.0801 -0.1479 -1.9512
  869MPD2    H112808   1.865   0.299   0.354 -1.0184 -1.4002  0.3142
  869MPD2    H212809   1.626   0.632   0.253  2.3109  0.0273 -0.8983
  869MPD2    H312810   1.809   0.482   0.207 -1.6444 -0.2448 -1.9803
  869MPD2     N12811   1.728   0.217   0.560 -0.4852 -0.1072 -0.4371
  869MPD2    H512812   1.821   0.176   0.556 -0.7458 -0.7816  0.4889
  869MPD2    N112813   1.453   0.598   0.452 -0.1968  0.2122 -0.0966
  869MPD2    H712814   1.450   0.691   0.410 -0.8481  0.6586  0.9358
  870MPD2     C12815   1.466   2.956   1.537 -0.4309 -0.1540 -0.0717
  870MPD2    C112816   1.570   3.028   1.491 -0.2791 -0.3608 -0.2743
  870MPD2    C212817   1.547   3.162   1.471  0.0892 -0.3991  0.2378
  870MPD2    C312818   1.418   3.217   1.464  0.2848  0.5914 -0.4505
  870MPD2    C412819   1.310   3.138   1.507 -0.1634 -0.4535 -0.8152
  870MPD2    C512820   1.335   3.006   1.543 -0.4000 -0.1116  0.3115
  870MPD2     H12821   1.632   3.213   1.429  0.0601  0.3460  1.0773
  870MPD2    H112822   1.204   3.160   1.510  0.0939  0.8510 -1.2838
  870MPD2    H212823   1.476   2.850   1.554 -1.5757 -0.0426  1.2791
  870MPD2    H312824   1.257   2.944   1.585 -1.8415 -0.8515 -3.5574
  870MPD2     N12825   1.403   3.354   1.430 -0.5295  0.4927  0.1411
  870MPD2    H512826   1.487   3.392   1.387  1.6190 -1.8355  2.3401
  870MPD2    N112827   1.698   2.970   1.484 -0.3934  0.4364  0.3222
  870MPD2    H712828   1.694   2.868   1.487  1.3280  0.3704 -0.0936
  871MPD2     C12829   2.623   2.692  16.393  0.3161  0.5560 -0.7514
  871MPD2    C112830   2.622   2.673  16.529 -0.7803 -0.1780  0.0032
  871MPD2    C212831   2.691   2.562  16.578 -0.2876  0.0866  0.2511
  871MPD2    C312832   2.765   2.486  16.490 -0.6427  0.7389 -0.5663
  871MPD2    C412833   2.766   2.501  16.351 -0.0136 -0.5349 -0.3084
  871MPD2    C512834   2.691   2.613  16.303 -0.1133  0.6381 -0.0053
  871MPD2     H12835   2.696   2.542  16.684  1.8000 -0.8083 -0.0111
  871MPD2    H112836   2.826   2.440  16.284 -1.2119 -0.3496 -1.5501
  871MPD2    H212837   2.574   2.778  16.350  0.4842  0.2242 -1.6019
  871MPD2    H312838   2.688   2.625  16.196  0.6472  3.7877  0.3113
  871MPD2     N12839   2.837   2.371  16.542 -0.2824 -1.1364 -0.1008
  871MPD2    H512840   2.832   2.366  16.644  0.8713 -0.9214 -0.0388
  871MPD2    N112841   2.539   2.765  16.601  0.8289 -0.0179 -0.6279
  871MPD2    H712842   2.512   2.856  16.563  0.9689  0.3212  0.0722
  872MPD2     C12843   3.769   4.635  14.020 -1.1456 -0.0577 -0.1450
  872MPD2    C112844   3.744   0.026  14.072 -0.4642  0.0293  0.6430
  872MPD2    C212845   3.625   0.072  14.123 -0.1391  0.0901  0.2004
  872MPD2    C312846   3.524   4.711  14.127  0.5483  0.0527  0.1410
  872MPD2    C412847   3.546   4.584  14.084 -0.1907  0.1200 -0.0239
  872MPD2    C512848   3.666   4.545  14.028 -0.0084 -0.1199  0.1478
  872MPD2     H12849   3.609   0.174  14.157 -1.3565  0.3611 -1.1336
  872MPD2    H112850   3.471   4.508  14.103  0.7845 -1.1013 -1.0792
  872MPD2    H212851   3.867   4.602  13.986 -0.9754  0.9098 -0.5840
  872MPD2    H312852   3.675   4.443  13.992 -1.3338 -0.4559  0.7342
  872MPD2     N12853   3.387   4.732  14.175 -0.8031  0.4929 -0.7739
  872MPD2    H512854   3.327   4.650  14.162 -1.3256  0.8899 -0.8732
  872MPD2    N112855   3.841   0.130  14.063 -1.0957  0.3277  0.1088
  872MPD2    H712856   3.815   0.219  14.105  0.5546  0.5200  0.7462
  873MPD2     C12857   0.720   0.867   0.895 -0.4475  0.0608  0.2782
  873MPD2    C112858   0.601   0.931   0.921  0.1173 -0.2001 -0.5050
  873MPD2    C212859   0.485   0.859   0.928  0.3781  0.1605 -0.0142
  873MPD2    C312860   0.488   0.722   0.910 -0.0134 -0.0589 -0.2997
  873MPD2    C412861   0.610   0.659   0.881 -0.6069 -0.2975  0.0527
  873MPD2    C512862   0.727   0.733   0.868  0.8952 -0.2471  0.4845
  873MPD2     H12863   0.393   0.909   0.957  0.1667 -1.7115  2.4979
  873MPD2    H112864   0.616   0.551   0.884 -0.5722 -0.3508 -1.6468
  873MPD2    H212865   0.810   0.925   0.910  1.1725 -2.4174  0.2647
  873MPD2    H312866   0.822   0.684   0.852  0.5398 -0.5991 -0.5872
  873MPD2     N12867   0.373   0.646   0.914 -0.0433 -0.2403  0.9152
  873MPD2    H512868   0.379   0.552   0.875 -2.0740  0.1570 -0.3430
  873MPD2    N112869   0.610   1.077   0.937  0.6676  0.2845 -0.3916
  873MPD2    H712870   0.701   1.120   0.926  0.1984  1.2888 -0.3570
  874MPD2     C12871   4.573   0.813  16.159 -0.1577  0.3587  0.1215
  874MPD2    C112872   4.685   0.754  16.213  0.2280 -0.1514 -0.6061
  874MPD2    C212873   0.073   0.793  16.169 -0.4285 -0.1089  0.0878
  874MPD2    C312874   0.097   0.899  16.081  0.4214 -0.3423  0.4318
  874MPD2    C412875   4.726   0.966  16.040  0.6292 -0.0588 -0.5257
  874MPD2    C512876   4.600   0.915  16.076 -0.1340 -0.2025 -0.2481
  874MPD2     H12877   0.160   0.739  16.205  0.7639  0.8159 -1.3957
  874MPD2    H112878   4.732   1.038  15.960 -3.2893  0.0410 -0.7724
  874MPD2    H212879   4.472   0.783  16.185  0.7782 -3.0339 -0.0819
  874MPD2    H312880   4.517   0.966  16.029 -1.8121 -0.5620  2.2799
  874MPD2     N12881   0.222   0.937  16.037 -0.4595 -0.4937 -0.7113
  874MPD2    H512882   0.231   1.017  15.975  0.2602  0.0773  0.1257
  874MPD2    N112883   4.666   0.649  16.310  0.7380 -0.1701  0.2674
  874MPD2    H712884   4.578   0.599  16.314  1.4422 -1.2602  2.1865
  875MPD2     C12885   1.367   3.836  14.612 -0.2972  0.6557  0.0312
  875MPD2    C112886   1.227   3.852  14.632  0.2839  0.3309  0.7269
  875MPD2    C212887   1.192   3.889  14.760 -0.7845 -0.2185  0.5311
  875MPD2    C312888   1.279   3.919  14.861  0.5866 -0.7716  0.7170
  875MPD2    C412889   1.413   3.919  14.837 -0.3357  0.5824  0.9873
  875MPD2    C512890   1.452   3.880  14.709  0.2902 -0.2112  0.3672
  875MPD2     H12891   1.085   3.882  14.770 -1.0530  0.8154 -1.7441
  875MPD2    H112892   1.482   3.952  14.913 -0.5580  3.0293  0.1199
  875MPD2    H212893   1.416   3.796  14.524 -3.7668  0.3341 -1.7750
  875MPD2    H312894   1.558   3.860  14.691  0.2434  0.3701 -0.5637
  875MPD2     N12895   1.241   3.952  14.996 -0.4259 -0.2725 -0.9319
  875MPD2    H512896   1.315   3.974  15.062 -1.5554 -1.2131  0.6469
  875MPD2    N112897   1.127   3.808  14.544 -0.1582 -0.1278  0.5854
  875MPD2    H712898   1.035   3.810  14.585  0.4418  4.0631  1.6937
  876MPD2     C12899   4.548   0.392  16.043 -0.3696  0.1633  0.5593
  876MPD2    C112900   4.684   0.389  16.036  0.1582 -0.4374  0.4353
  876MPD2    C212901   0.011   0.300  16.115  0.3513  0.0557  0.0063
  876MPD2    C312902   4.673   0.217  16.202  0.8228 -0.4840 -0.7636
  876MPD2    C412903   4.537   0.241  16.218  0.0260  0.3174  0.5997
  876MPD2    C512904   4.479   0.315  16.128 -0.2583 -0.2658  0.4014
  876MPD2     H12905   0.120   0.301  16.115  0.3736 -1.0186  2.0943
  876MPD2    H112906   4.466   0.181  16.273  0.7718 -1.2388 -0.1207
  876MPD2    H212907   4.480   0.449  15.982  0.3759 -0.2460 -0.6591
  876MPD2    H312908   4.371   0.313  16.140 -0.3130 -1.2494 -0.2850
  876MPD2     N12909   0.008   0.115  16.278  0.4981  0.0793  0.3193
  876MPD2    H512910   0.104   0.095  16.250  0.5876 -0.5883  1.0935
  876MPD2    N112911   0.010   0.467  15.934 -0.1867  0.0093 -0.2013
  876MPD2    H712912   4.693   0.531  15.876 -1.4040 -1.0217 -0.1755
  877MPD2     C12913   4.704   0.611  15.176 -0.4361  0.1469 -0.4606
  877MPD2    C112914   0.100   0.624  15.217 -0.0121 -0.7257 -0.7789
  877MPD2    C212915   0.199   0.627  15.123  0.4622  0.6444 -0.5991
  877MPD2    C312916   0.168   0.625  14.988  0.1564  1.1259  0.1140
  877MPD2    C412917   0.034   0.609  14.949  0.6746 -0.8588 -0.1593
  877MPD2    C512918   4.671   0.601  15.041 -0.1251 -0.2958  0.3240
  877MPD2     H12919   0.297   0.658  15.156  0.2828  0.9268 -0.3285
  877MPD2    H112920   0.014   0.610  14.842 -2.3318 -0.1159  0.3824
  877MPD2    H212921   4.629   0.604  15.253  1.9947  1.7521  2.0326
  877MPD2    H312922   4.564   0.589  15.024  0.4170 -3.2388 -0.9828
  877MPD2     N12923   0.258   0.629  14.878 -0.5921  0.1427 -0.5707
  877MPD2    H512924   0.218   0.621  14.785 -2.4278  3.8249 -0.1093
  877MPD2    N112925   0.137   0.640  15.352 -0.3431 -0.0410  0.4769
  877MPD2    H712926   0.236   0.656  15.364 -0.5463  1.5133  0.0626
  878MPD2     C12927   0.218   4.063  13.206 -0.1282  0.3324 -0.0787
  878MPD2    C112928   0.171   4.182  13.250  0.2727  0.4989 -0.7431
  878MPD2    C212929   0.151   4.199  13.387  0.6474 -0.4118 -0.3654
  878MPD2    C312930   0.169   4.086  13.465  0.8468 -0.0723 -0.3791
  878MPD2    C412931   0.233   3.969  13.419 -0.5964 -0.1364 -0.0223
  878MPD2    C512932   0.256   3.953  13.287  0.3879 -0.3251  0.1910
  878MPD2     H12933   0.098   4.278  13.438  1.7186  0.2088 -0.2075
  878MPD2    H112934   0.231   3.875  13.474 -1.5269  0.6011  1.2023
  878MPD2    H212935   0.233   4.043  13.101 -2.4255 -1.1152 -0.1332
  878MPD2    H312936   0.301   3.861  13.252  2.7818  0.9218 -0.0217
  878MPD2     N12937   0.132   4.096  13.601  0.6432  0.8687 -0.3099
  878MPD2    H512938   0.081   4.179  13.630 -0.1164  0.3027 -0.0323
  878MPD2    N112939   0.136   4.277  13.157 -0.4508 -0.2849  0.4750
  878MPD2    H712940   0.144   4.244  13.062  1.5913  0.4134  0.4011
  879MPD2     C12941   0.296   1.772  16.736 -0.6899  0.3454  0.7844
  879MPD2    C112942   0.344   1.649  16.777 -0.1080  0.7457 -0.1419
  879MPD2    C212943   0.320   1.540  16.689 -0.6816 -0.0963  0.1773
  879MPD2    C312944   0.284   1.557  16.555 -0.2502 -0.1368 -0.3631
  879MPD2    C412945   0.263   1.683  16.512 -0.2694 -0.9312  0.5804
  879MPD2    C512946   0.263   1.791  16.601 -0.0185  0.0969  0.6090
  879MPD2     H12947   0.326   1.439  16.727 -0.0507  0.2278  0.9388
  879MPD2    H112948   0.236   1.700  16.408 -2.0560  0.6547  1.2917
  879MPD2    H212949   0.289   1.857  16.804 -0.3419  0.3307  0.8376
  879MPD2    H312950   0.244   1.893  16.569 -0.6089 -0.5040 -1.0047
  879MPD2     N12951   0.250   1.452  16.469 -0.6397 -0.2171  0.0474
  879MPD2    H512952   0.241   1.483  16.372 -0.4578  0.1653  0.1555
  879MPD2    N112953   0.389   1.636  16.911 -0.7105  0.1991 -0.2433
  879MPD2    H712954   0.377   1.719  16.968 -0.4518 -1.2628  1.9312
  880MPD2     C12955   1.485   2.967   0.050 -0.0094  0.5479  0.0038
  880MPD2    C112956   1.515   3.047   0.162 -1.0224  0.6629 -0.2894
  880MPD2    C212957   1.595   2.984   0.255  0.7494 -0.9458  0.4705
  880MPD2    C312958   1.618   2.847   0.241  0.0391 -0.5966  0.3814
  880MPD2    C412959   1.574   2.773   0.133  0.1292 -0.2979 -0.0124
  880MPD2    C512960   1.526   2.841   0.026  0.2140  0.3076 -0.3625
  880MPD2     H12961   1.645   3.040   0.333  1.6528 -2.9867  1.3646
  880MPD2    H112962   1.587   2.665   0.124  4.5478  0.1109  1.3651
  880MPD2    H212963   1.432   3.021  17.723  0.5336  0.4456 -0.4299
  880MPD2    H312964   1.502   2.781  17.690 -4.0216  2.3158 -0.5311
  880MPD2     N12965   1.696   2.793   0.342 -0.2734 -0.5010  0.0398
  880MPD2    H512966   1.720   2.854   0.420  0.5010 -0.4945 -0.2001
  880MPD2    N112967   1.494   3.192   0.163 -0.3069  0.3338  0.0416
  880MPD2    H712968   1.462   3.242   0.080 -0.9066  1.6018  1.0503
  881MPD2     C12969   1.202   3.728  17.280  0.5354  0.3347 -0.1701
  881MPD2    C112970   1.322   3.676  17.292 -0.2355 -0.2987  0.1661
  881MPD2    C212971   1.367   3.661  17.419 -0.0899 -0.0002 -0.2875
  881MPD2    C312972   1.305   3.704  17.534  0.0786  0.4650 -0.2035
  881MPD2    C412973   1.190   3.780  17.514  0.4045  0.6154  0.1305
  881MPD2    C512974   1.139   3.794  17.385  0.1390 -0.3724 -0.3606
  881MPD2     H12975   1.455   3.599  17.433 -1.4760 -2.6036 -2.9508
  881MPD2    H112976   1.135   3.818  17.600  0.4878 -2.6112  1.6535
  881MPD2    H212977   1.158   3.729  17.181 -1.7967  2.8961  0.8740
  881MPD2    H312978   1.039   3.836  17.379  0.4668  0.8463  2.4768
  881MPD2     N12979   1.336   3.678  17.671  0.4390 -0.4110  0.9009
  881MPD2    H512980   1.273   3.718  17.739  0.7494  0.4083  0.7014
  881MPD2    N112981   1.371   3.606  17.182  0.3293 -0.4286 -0.6481
  881MPD2    H712982   1.326   3.615  17.092  0.9258 -2.1731 -1.1072
  882MPD2     C12983   0.291   0.215  14.229  0.4979 -0.3569  0.2940
  882MPD2    C112984   0.241   0.300  14.322  0.1589 -0.9765  0.0661
  882MPD2    C212985   0.095   0.309  14.327  0.0064  0.0860 -0.0229
  882MPD2    C312986   0.018   0.218  14.254  0.6057 -0.3724 -0.3783
  882MPD2    C412987   0.077   0.137  14.160 -0.4242  0.1119  0.1710
  882MPD2    C512988   0.211   0.148  14.140  0.4854  0.1974  0.1018
  882MPD2     H12989   0.046   0.379  14.394 -1.2027  0.9872 -1.8262
  882MPD2    H112990   0.020   0.067  14.099  1.5548  0.1654 -1.7297
  882MPD2    H212991   0.394   0.207  14.197  0.9540 -1.5108  2.0877
  882MPD2    H312992   0.252   0.087  14.061  1.6767  0.6134  0.4076
  882MPD2     N12993   4.616   0.225  14.263 -0.2619 -0.1506 -0.1038
  882MPD2    H512994   4.559   0.171  14.199  0.4832  1.1672 -1.8581
  882MPD2    N112995   0.325   0.378  14.399  0.1580 -0.8444  0.6063
  882MPD2    H712996   0.421   0.346  14.394  0.4113 -0.0120  0.2094
  883MPD2     C12997   2.106   0.365  16.411  1.0289  0.5563  0.0731
  883MPD2    C112998   2.138   0.456  16.308 -0.8755 -0.1110  0.5440
  883MPD2    C212999   2.229   0.555  16.333 -0.2015 -0.3116 -0.3963
  883MPD2    C313000   2.283   0.562  16.463 -0.1940 -0.0176 -0.2792
  883MPD2    C413001   2.245   0.473  16.566 -0.3435 -0.5925 -0.1295
  883MPD2    C513002   2.165   0.370  16.535 -0.4520 -0.2538  0.2341
  883MPD2     H13003   2.259   0.627  16.258 -0.1788  0.6575  0.5538
  883MPD2    H113004   2.274   0.478  16.671  2.1155 -0.5719 -0.8142
  883MPD2    H213005   2.035   0.285  16.395  0.1945  1.8102 -2.5264
  883MPD2    H313006   2.125   0.308  16.615 -0.0681 -1.2782 -0.3645
  883MPD2     N13007   2.376   0.662  16.491 -0.4650 -0.3026 -0.1809
  883MPD2    H513008   2.395   0.729  16.417  1.2051 -0.2182  0.3301
  883MPD2    N113009   2.089   0.438  16.175  0.6197 -0.7070  0.0834
  883MPD2    H713010   2.151   0.489  16.114  2.3119 -0.4090  2.0473
  884MPD2     C13011   4.124   1.641  14.280 -0.0895  0.0810  0.0679
  884MPD2    C113012   4.111   1.526  14.351  0.4159  0.4511  0.9259
  884MPD2    C213013   4.013   1.513  14.448  0.8521 -0.7458 -0.1002
  884MPD2    C313014   3.908   1.608  14.455  0.0805 -0.0377  0.1633
  884MPD2    C413015   3.922   1.719  14.379 -0.5653 -0.4144  0.6475
  884MPD2    C513016   4.025   1.733  14.299  0.4392  0.1243 -0.4755
  884MPD2     H13017   4.011   1.424  14.511  0.3637  1.0339  2.3824
  884MPD2    H113018   3.842   1.792  14.385  0.8101  1.0630  0.9325
  884MPD2    H213019   4.207   1.665  14.214  0.9650 -0.0691  1.3285
  884MPD2    H313020   4.033   1.831  14.252  2.4714 -0.2421 -0.8811
  884MPD2     N13021   3.792   1.586  14.540  0.0187  0.3388  0.5438
  884MPD2    H513022   3.721   1.659  14.542 -0.0219  0.3748 -2.1213
  884MPD2    N113023   4.198   1.418  14.341 -0.6150 -1.1385 -0.1215
  884MPD2    H713024   4.178   1.343  14.407 -1.5125 -1.1354 -0.4008
  885MPD2     C13025   2.142   1.476   0.423 -0.1219 -0.6181 -0.5181
  885MPD2    C113026   2.257   1.547   0.429 -0.0441 -0.0750 -0.2072
  885MPD2    C213027   2.327   1.590   0.320 -0.3262 -0.2556 -0.1245
  885MPD2    C313028   2.263   1.576   0.200  0.1039  0.5583 -0.0674
  885MPD2    C413029   2.135   1.524   0.186 -0.4396  0.1362  0.4467
  885MPD2    C513030   2.078   1.472   0.300 -0.4060 -0.8293  0.5997
  885MPD2     H13031   2.424   1.637   0.330 -0.0170 -0.8592 -0.2564
  885MPD2    H113032   2.082   1.511   0.093  2.9915  0.9832 -1.6512
  885MPD2    H213033   2.090   1.436   0.510  1.4647 -0.0940  0.6641
  885MPD2    H313034   1.987   1.414   0.286 -0.4229 -0.5183 -0.5591
  885MPD2     N13035   2.324   1.621   0.080 -0.2785 -0.3637 -0.6837
  885MPD2    H513036   2.409   1.676   0.085 -0.2907 -0.3842 -0.2467
  885MPD2    N113037   2.317   1.563   0.558 -0.6769 -0.9990 -0.2364
  885MPD2    H713038   2.256   1.539   0.636  0.7881 -1.4615  0.7684
  886MPD2     C13039   3.399   0.152  15.316  0.0744 -0.0509 -0.0665
  886MPD2    C113040   3.530   0.118  15.280 -0.6932  0.0081  0.3302
  886MPD2    C213041   3.587   0.177  15.169 -0.0667  0.5226  0.5171
  886MPD2    C313042   3.512   0.271  15.092  0.3230 -0.1913  0.1567
  886MPD2    C413043   3.378   0.296  15.125  0.1008 -0.2310 -0.0463
  886MPD2    C513044   3.325   0.237  15.237 -0.3050  0.3049 -0.1605
  886MPD2     H13045   3.690   0.148  15.149 -0.7583 -1.1609 -0.6597
  886MPD2    H113046   3.315   0.364  15.069  0.0078 -0.7757 -0.5941
  886MPD2    H213047   3.346   0.098  15.394 -0.6825 -0.3366 -0.7812
  886MPD2    H313048   3.223   0.261  15.266  0.2308 -1.0405  2.8044
  886MPD2     N13049   3.566   0.330  14.974 -0.2484 -0.3331  0.0139
  886MPD2    H513050   3.503   0.349  14.897 -1.1152 -0.0558  0.8014
  886MPD2    N113051   3.608   0.018  15.339  0.0271  0.2906  0.2670
  886MPD2    H713052   3.707   0.014  15.318 -0.1949  0.9358 -0.9103
  887MPD2     C13053   4.056   0.193  15.817  0.3971  0.4488 -0.1185
  887MPD2    C113054   4.061   0.153  15.684  0.4767 -0.5536  0.0201
  887MPD2    C213055   4.127   0.242  15.593  0.1185  0.1506  0.0568
  887MPD2    C313056   4.183   0.362  15.635  0.5927 -0.0288 -0.3541
  887MPD2    C413057   4.183   0.388  15.772  0.2205  0.1531 -0.0204
  887MPD2    C513058   4.117   0.309  15.860 -0.3670  0.3596  0.1711
  887MPD2     H13059   4.130   0.213  15.488 -0.4721  0.9166 -0.1693
  887MPD2    H113060   4.224   0.478  15.817  2.2964 -1.2822  0.9538
  887MPD2    H213061   4.006   0.136  15.894  0.0070 -0.1614 -0.8226
  887MPD2    H313062   4.118   0.326  15.967  1.1658  0.1118  0.1962
  887MPD2     N13063   4.238   0.448  15.543  0.1751 -0.2245  0.5881
  887MPD2    H513064   4.231   0.417  15.446 -0.1297 -0.2961  0.6342
  887MPD2    N113065   3.995   0.039  15.637 -0.1005 -0.2743  0.0983
  887MPD2    H713066   3.986   0.029  15.536 -0.7177 -1.1716  0.2498
  888MPD2     C13067   1.216   4.661  15.053 -0.4107  1.4504 -0.0748
  888MPD2    C113068   1.189   4.702  15.183 -0.2557  0.7452  0.4590
  888MPD2    C213069   1.261   0.061  15.248  0.1373  0.2225 -0.0877
  888MPD2    C313070   1.344   0.143  15.180 -0.6194  0.2580  0.8035
  888MPD2    C413071   1.372   0.110  15.046 -0.1755  0.7494  0.2499
  888MPD2    C513072   1.303   0.005  14.989 -0.1759  0.1079 -0.7432
  888MPD2     H13073   1.232   0.079  15.351  0.3615  0.3977 -0.0556
  888MPD2    H113074   1.432   0.173  14.982 -1.8649 -0.6498 -2.6983
  888MPD2    H213075   1.163   4.593  14.987 -0.1895  0.3400  0.8971
  888MPD2    H313076   1.304   4.734  14.881 -0.4052 -0.1771 -0.7209
  888MPD2     N13077   1.400   0.252  15.248 -0.0458  0.3845  0.1331
  888MPD2    H513078   1.361   0.284  15.336  0.6121 -1.0601  0.9504
  888MPD2    N113079   1.079   4.646  15.257  0.0175  0.2781 -0.4305
  888MPD2    H713080   1.063   4.677  15.352  0.1561 -1.4197  0.1488
  889MPD2     C13081   0.414   4.344  12.863  0.6446 -0.6259  0.2911
  889MPD2    C113082   0.426   4.298  12.988 -0.1959  0.0742 -0.7518
  889MPD2    C213083   0.436   4.395  13.091 -0.2419 -0.4180 -0.3420
  889MPD2    C313084   0.417   4.530  13.077  0.1508  0.5516  0.3628
  889MPD2    C413085   0.391   4.570  12.952 -0.4413  0.0438 -0.7068
  889MPD2    C513086   0.405   4.480  12.846 -0.2270  0.3032  0.1349
  889MPD2     H13087   0.441   4.356  13.192 -0.5045  0.3023 -0.0514
  889MPD2    H113088   0.380   4.676  12.934  2.2494  0.2127 -1.2789
  889MPD2    H213089   0.404   4.283  12.774 -2.1208  2.5953 -1.5977
  889MPD2    H313090   0.397   4.526  12.748 -0.8823 -1.2936 -0.5605
  889MPD2     N13091   0.420   4.616  13.180  0.5557  0.8646  0.1297
  889MPD2    H513092   0.406   4.713  13.157  2.1078  0.8241 -1.0327
  889MPD2    N113093   0.484   4.176  13.021 -0.3308  0.6478 -0.1649
  889MPD2    H713094   0.490   4.140  13.115 -0.1017  0.4137 -0.2690
  890MPD2     C13095   0.101   1.530  14.421  0.2887  1.4266 -0.6784
  890MPD2    C113096   0.138   1.543  14.554 -0.4073  0.1911 -0.1122
  890MPD2    C213097   0.198   1.439  14.617 -0.6865  0.7813  0.3130
  890MPD2    C313098   0.250   1.341  14.537  0.3096 -0.5566  0.2957
  890MPD2    C413099   0.243   1.338  14.404 -0.1221 -0.0181 -0.0220
  890MPD2    C513100   0.159   1.431  14.343  0.2172  0.2420 -0.0324
  890MPD2     H13101   0.238   1.440  14.718 -0.5130 -1.0729  0.2633
  890MPD2    H113102   0.282   1.257  14.344  0.1658  0.1179 -0.0166
  890MPD2    H213103   0.045   1.606  14.368 -0.2799  1.3880 -0.1379
  890MPD2    H313104   0.151   1.430  14.235 -0.5634  1.2545  0.0153
  890MPD2     N13105   0.321   1.241  14.607 -0.2490 -0.4150  0.0054
  890MPD2    H513106   0.314   1.249  14.707 -3.1899 -1.7470 -0.1015
  890MPD2    N113107   0.097   1.660  14.616  0.5754 -0.9996  0.2268
  890MPD2    H713108   0.078   1.744  14.562  1.9100 -2.1328 -2.0399
  891MPD2     C13109   3.115   0.032  16.933 -0.1917 -0.4108  0.3605
  891MPD2    C113110   3.001   4.706  16.969  0.1154  0.1266 -0.1790
  891MPD2    C213111   2.999   4.580  17.028 -0.2238 -0.4399 -0.2288
  891MPD2    C313112   3.113   4.511  17.049 -0.2321 -0.3461 -0.3944
  891MPD2    C413113   3.237   4.581  17.022 -0.5776  0.3886  0.3762
  891MPD2    C513114   3.229   4.707  16.966  0.1131 -0.2849  0.2585
  891MPD2     H13115   2.906   4.539  17.067  0.8434 -2.2347  0.4145
  891MPD2    H113116   3.337   4.545  17.042 -1.3422 -2.3329 -0.6957
  891MPD2    H213117   3.115   0.130  16.885 -1.3763 -0.5644  0.0541
  891MPD2    H313118   3.319   0.029  16.962  0.0797 -0.1943  0.9764
  891MPD2     N13119   3.104   4.384  17.115 -0.3909 -0.2407  0.3600
  891MPD2    H513120   3.016   4.357  17.158 -0.1483  0.6420  1.3904
  891MPD2    N113121   2.888   0.056  16.949 -1.0354 -0.0335 -0.0542
  891MPD2    H713122   2.905   0.151  16.918 -2.9676  0.6404  1.0042
  892MPD2     C13123   4.072   0.983  14.186  0.9357  0.1830 -0.7419
  892MPD2    C113124   4.016   0.919  14.297  0.2546 -0.0017 -0.4918
  892MPD2    C213125   4.034   0.780  14.313  0.7831  0.1626  0.4431
  892MPD2    C313126   4.128   0.718  14.235  0.0014 -0.0136 -0.5817
  892MPD2    C413127   4.195   0.792  14.144  0.2105 -0.1146 -0.1134
  892MPD2    C513128   4.166   0.917  14.113  0.7420 -0.2631 -0.2967
  892MPD2     H13129   3.980   0.730  14.392  0.6631 -2.4334 -1.3067
  892MPD2    H113130   4.291   0.760  14.104  0.2410  2.4585 -2.0911
  892MPD2    H213131   4.067   1.088  14.160  1.3980  0.0031 -1.5465
  892MPD2    H313132   4.238   0.957  14.042 -2.3485  2.7009 -1.7678
  892MPD2     N13133   4.171   0.589  14.266 -0.3141 -0.3856  0.3939
  892MPD2    H513134   4.260   0.563  14.225 -0.4983 -0.8524  0.2878
  892MPD2    N113135   3.908   0.972  14.382  0.1479  0.0681  0.1635
  892MPD2    H713136   3.864   0.916  14.455 -1.2996 -1.3435 -1.7760
  893MPD2     C13137   0.270   0.531   1.244  0.4094 -0.3455 -0.0723
  893MPD2    C113138   0.204   0.412   1.202  0.3617  0.1559 -0.0492
  893MPD2    C213139   0.071   0.404   1.225  0.0934  0.1291 -0.3355
  893MPD2    C313140   0.002   0.504   1.303  0.1245  0.1886  0.0574
  893MPD2    C413141   0.070   0.613   1.349  0.0148 -0.0048 -0.2874
  893MPD2    C513142   0.205   0.625   1.325 -0.2265 -0.4162  0.6623
  893MPD2     H13143   0.018   0.320   1.181  0.3676 -2.0920  3.5770
  893MPD2    H113144   0.019   0.693   1.401 -1.1815  0.3129 -1.9572
  893MPD2    H213145   0.373   0.553   1.219  0.9070 -2.2422  0.3407
  893MPD2    H313146   0.253   0.710   1.372 -1.1644 -1.4384  3.4642
  893MPD2     N13147   4.601   0.502   1.330  0.9351 -0.4306 -0.2295
  893MPD2    H513148   4.575   0.567   1.403  0.0393 -0.8491 -0.1845
  893MPD2    N113149   0.280   0.335   1.114  0.1934 -0.8458  0.3065
  893MPD2    H713150   0.374   0.366   1.094  0.3502 -0.0130  2.4556
  894MPD2     C13151   3.153   2.221   1.401  0.6147 -0.0759  0.4121
  894MPD2    C113152   3.217   2.329   1.455  0.1797  0.2798  0.3303
  894MPD2    C213153   3.345   2.361   1.419 -0.0765 -0.4750  0.5548
  894MPD2    C313154   3.408   2.287   1.317 -0.4018 -0.0414  0.4984
  894MPD2    C413155   3.342   2.177   1.266 -0.1338 -0.1948 -0.2279
  894MPD2    C513156   3.219   2.154   1.302  0.1001  0.8178 -0.0910
  894MPD2     H13157   3.401   2.433   1.477  0.8454  2.1504 -3.5737
  894MPD2    H113158   3.373   2.110   1.187  1.0254  1.3538 -1.0882
  894MPD2    H213159   3.054   2.192   1.433 -1.0024  2.4985 -2.3268
  894MPD2    H313160   3.168   2.075   1.247 -1.1699  1.2829  0.4427
  894MPD2     N13161   3.537   2.327   1.279  0.3391 -0.3420  0.5947
  894MPD2    H513162   3.583   2.402   1.328 -0.4109 -1.5380  3.1352
  894MPD2    N113163   3.156   2.397   1.566 -0.7703 -0.0101  0.4537
  894MPD2    H713164   3.203   2.482   1.598 -0.4481 -1.4126  3.7788
  895MPD2     C13165   3.613   0.163  13.783 -0.1164  0.6361  0.1496
  895MPD2    C113166   3.474   0.152  13.789 -0.0492 -0.4475 -0.6755
  895MPD2    C213167   3.412   0.056  13.710 -0.0193  0.1216  0.1078
  895MPD2    C313168   3.485   4.689  13.662  0.3856 -0.2209 -0.4932
  895MPD2    C413169   3.624   4.690  13.670  0.2998  0.1249  0.6663
  895MPD2    C513170   3.686   0.057  13.733 -0.3088  0.0450  0.6498
  895MPD2     H13171   3.305   0.051  13.700 -0.0857 -1.4423  1.7160
  895MPD2    H113172   3.681   4.607  13.630 -1.9120 -0.1904 -1.7863
  895MPD2    H213173   3.670   0.240  13.835 -0.1894  0.2426  0.8200
  895MPD2    H313174   3.794   0.065  13.740 -0.1773 -1.5137  0.3915
  895MPD2     N13175   3.422   4.590  13.587  0.4737 -0.2323  0.7231
  895MPD2    H513176   3.321   4.589  13.595  0.5333 -0.4304  1.4162
  895MPD2    N113177   3.392   0.253  13.848 -0.2398 -0.3989  0.2030
  895MPD2    H713178   3.295   0.224  13.843 -1.0259  1.9367  1.4000
  896MPD2     C13179   0.776   2.752   1.234 -0.1247 -0.1126 -0.0883
  896MPD2    C113180   0.769   2.649   1.140 -0.3747  1.3596  0.1143
  896MPD2    C213181   0.649   2.576   1.135  0.3727  0.1945 -0.6760
  896MPD2    C313182   0.540   2.609   1.210 -0.2122  0.3031  0.3024
  896MPD2    C413183   0.549   2.727   1.285  0.3656  0.9072 -0.7608
  896MPD2    C513184   0.668   2.794   1.301  0.2550  0.6627  0.3510
  896MPD2     H13185   0.635   2.489   1.072  0.7267 -0.5945  0.3353
  896MPD2    H113186   0.466   2.777   1.333 -0.2553 -0.8395 -0.0303
  896MPD2    H213187   0.863   2.815   1.250  0.2791 -0.6273 -0.2355
  896MPD2    H313188   0.673   2.890   1.351  0.5951  0.4127  0.7916
  896MPD2     N13189   0.424   2.528   1.205  0.2022  0.4159 -0.5475
  896MPD2    H513190   0.428   2.461   1.129 -0.1438  1.1536 -1.2211
  896MPD2    N113191   0.880   2.617   1.054 -0.7101 -0.2768 -0.6429
  896MPD2    H713192   0.957   2.683   1.059  3.0238 -4.8276  1.5768
  897MPD2     C13193   2.143   4.241  10.859  0.5798  0.0077  0.7637
  897MPD2    C113194   2.106   4.373  10.852 -0.1055 -0.3296  0.0289
  897MPD2    C213195   2.017   4.413  10.952 -0.4094  0.8229  0.4366
  897MPD2    C313196   1.968   4.326  11.045  0.6768 -0.1656  0.2914
  897MPD2    C413197   2.005   4.193  11.035 -0.5787  0.2286  0.5137
  897MPD2    C513198   2.096   4.151  10.946 -0.6539  0.0059  0.4074
  897MPD2     H13199   1.994   4.514  10.982 -2.6590  0.9593 -1.7606
  897MPD2    H113200   1.966   4.116  11.101 -1.3528 -1.7393 -2.2450
  897MPD2    H213201   2.222   4.213  10.790 -0.0030  1.5907 -0.5539
  897MPD2    H313202   2.133   4.050  10.959  2.6277  1.0487 -0.7320
  897MPD2     N13203   1.869   4.356  11.142  0.5029  0.4596  0.4285
  897MPD2    H513204   1.833   4.451  11.141  0.4351  0.4272 -0.8302
  897MPD2    N113205   2.169   4.450  10.752 -0.0270 -0.0557  0.5261
  897MPD2    H713206   2.254   4.420  10.706  0.3638 -0.5816  1.5845
  898MPD2     C13207   2.941   0.685   0.231 -0.8771  0.3766  0.4892
  898MPD2    C113208   3.068   0.717   0.278  0.0600  0.1560  0.5373
  898MPD2    C213209   3.113   0.850   0.264  0.6919  0.2060  0.6462
  898MPD2    C313210   3.033   0.943   0.198 -0.7865  0.1133 -0.2845
  898MPD2    C413211   2.910   0.907   0.155 -0.4388  0.1189 -0.3223
  898MPD2    C513212   2.859   0.783   0.182 -0.5635 -0.4849  0.3299
  898MPD2     H13213   3.216   0.872   0.290  0.5655  1.1009  0.3787
  898MPD2    H113214   2.845   0.977   0.105  0.4402  1.8766  0.9923
  898MPD2    H213215   2.888   0.595   0.260 -0.5232  0.6004  1.7951
  898MPD2    H313216   2.755   0.758   0.169 -0.1471 -1.6750 -0.6760
  898MPD2     N13217   3.091   1.069   0.181  0.4591 -0.0095 -0.2983
  898MPD2    H513218   3.191   1.076   0.196  0.4783 -0.2678 -0.3131
  898MPD2    N113219   3.150   0.618   0.326  0.0567  0.5636  0.6660
  898MPD2    H713220   3.237   0.656   0.360 -0.0343 -0.1274  1.6646
  899MPD2     C13221   3.979   0.913  17.318 -0.3028  0.1722  0.1289
  899MPD2    C113222   4.057   1.006  17.391 -0.0614  0.3094 -0.0431
  899MPD2    C213223   4.014   1.045  17.515 -0.8459  0.3433 -0.1483
  899MPD2    C313224   3.888   0.992  17.565  0.3713  0.0496  0.5853
  899MPD2    C413225   3.823   0.896  17.494  0.3524 -0.5125  0.1067
  899MPD2    C513226   3.867   0.861  17.371 -0.0894 -0.0036  0.4300
  899MPD2     H13227   4.069   1.123  17.567  0.8846  1.2832 -3.3594
  899MPD2    H113228   3.737   0.851  17.543 -3.2439  3.1054 -2.8840
  899MPD2    H213229   4.023   0.878  17.226 -0.2731 -0.3450  0.3376
  899MPD2    H313230   3.814   0.787  17.312 -2.9598  2.8757 -0.5869
  899MPD2     N13231   3.823   1.031  17.687 -0.3224 -0.1358 -0.4855
  899MPD2    H513232   3.726   1.003  17.697  0.0807 -1.2529  0.2496
  899MPD2    N113233   4.166   1.066  17.320 -1.1383 -0.1292 -0.3049
  899MPD2    H713234   4.184   1.036  17.224  0.6553 -0.5510  0.1587
  900MPD2     C13235   4.114   2.287  12.457 -0.4072 -0.0967 -0.1922
  900MPD2    C113236   3.997   2.213  12.476  0.6754  0.5380  0.0321
  900MPD2    C213237   3.891   2.235  12.402  0.4489  0.6602 -0.2052
  900MPD2    C313238   3.899   2.333  12.302 -0.0609 -0.5288 -0.5505
  900MPD2    C413239   4.014   2.412  12.287 -0.5628 -0.4904  0.3093
  900MPD2    C513240   4.126   2.386  12.367 -0.0001 -0.5866  0.4025
  900MPD2     H13241   3.810   2.164  12.412  0.9136  0.1733  0.0693
  900MPD2    H113242   4.021   2.490  12.211 -2.7504 -0.0894  0.5235
  900MPD2    H213243   4.199   2.270  12.522 -1.1387  0.1320  0.8146
  900MPD2    H313244   4.221   2.435  12.348 -0.9281  1.5484  1.2699
  900MPD2     N13245   3.783   2.362  12.227 -0.4855  0.6156 -0.3283
  900MPD2    H513246   3.698   2.306  12.233 -1.3012  1.8141 -0.5105
  900MPD2    N113247   4.016   2.112  12.576  0.3200  0.1230 -0.0813
  900MPD2    H713248   4.115   2.101  12.598  0.0448 -2.7568 -0.3231
  901MPD2     C13249   3.993   1.127  13.032  0.3734 -0.3222 -0.7299
  901MPD2    C113250   4.084   1.165  12.940  0.5781  0.0435 -0.2209
  901MPD2    C213251   4.083   1.293  12.891 -0.2869  0.1345  0.0025
  901MPD2    C313252   3.981   1.376  12.930 -0.4143  0.3405  0.0051
  901MPD2    C413253   3.883   1.332  13.011  0.6393  0.2716 -0.2509
  901MPD2    C513254   3.891   1.212  13.064 -0.4004 -0.1666  0.0867
  901MPD2     H13255   4.147   1.335  12.814  0.0649  0.6298  0.5675
  901MPD2    H113256   3.801   1.397  13.037  0.3050  0.0100 -0.6577
  901MPD2    H213257   3.996   1.028  13.078 -0.6381 -0.6528 -1.3633
  901MPD2    H313258   3.804   1.196  13.127  0.6574  0.9517  1.8286
  901MPD2     N13259   3.997   1.507  12.898 -0.2308 -0.0945 -0.6555
  901MPD2    H513260   4.085   1.530  12.853 -0.3420 -0.9914 -1.3373
  901MPD2    N113261   4.169   1.069  12.884 -0.5168 -0.3603  0.2520
  901MPD2    H713262   4.171   0.978  12.931 -0.9928 -0.1909  0.5952
  902MPD2     C13263   3.849   0.370  13.145 -0.3735 -0.5741  0.0482
  902MPD2    C113264   3.779   0.409  13.029 -0.3977  0.3022  0.2280
  902MPD2    C213265   3.800   0.342  12.911  0.8181 -0.4868 -0.1341
  902MPD2    C313266   3.905   0.244  12.906  0.2287 -0.3589 -0.1127
  902MPD2    C413267   3.969   0.213  13.018 -0.5077  0.7508 -0.3147
  902MPD2    C513268   3.938   0.269  13.138 -0.3027 -0.3698  0.3263
  902MPD2     H13269   3.755   0.384  12.821  0.0768  1.2501  1.0594
  902MPD2    H113270   4.056   0.149  13.014  0.4643  2.0358  0.1532
  902MPD2    H213271   3.841   0.415  13.243  1.1373 -0.5098  0.1560
  902MPD2    H313272   4.002   0.236  13.219 -0.5336  1.7912  1.4110
  902MPD2     N13273   3.935   0.172  12.787  0.4245 -0.6519 -0.0729
  902MPD2    H513274   3.973   0.079  12.803  0.1246 -0.6903  0.4053
  902MPD2    N113275   3.690   0.518  13.042  0.4920 -0.4202  0.1821
  902MPD2    H713276   3.686   0.579  13.123 -1.9409  0.5314 -0.6346
  903MPD2     C13277   3.551   0.205  11.962  0.3093  1.0109  0.3815
  903MPD2    C113278   3.522   0.167  12.095 -1.4251 -0.5237  0.5203
  903MPD2    C213279   3.392   0.172  12.129 -0.2637 -0.2458  0.0513
  903MPD2    C313280   3.290   0.185  12.036 -0.0758 -0.2132 -0.3468
  903MPD2    C413281   3.317   0.222  11.907  0.3316  0.0820  0.5817
  903MPD2    C513282   3.454   0.236  11.873  0.4929 -0.4969 -0.0425
  903MPD2     H13283   3.361   0.143  12.228 -1.4226  0.9698  0.0421
  903MPD2    H113284   3.243   0.248  11.832 -1.6706 -1.7886  1.9262
  903MPD2    H213285   3.654   0.211  11.929  0.5212 -1.0069  0.6308
  903MPD2    H313286   3.475   0.268  11.772 -3.4543  1.7885 -0.1366
  903MPD2     N13287   3.157   0.174  12.089  0.2128  0.1663  0.2392
  903MPD2    H513288   3.134   0.136  12.180  1.2710  1.1767  0.9198
  903MPD2    N113289   3.630   0.134  12.182 -0.0456  0.2259  1.2805
  903MPD2    H713290   3.725   0.128  12.147 -1.0716 -1.1543 -1.3036
  904MPD2     C13291   2.715   3.600  13.883 -0.4018  0.5804  0.5246
  904MPD2    C113292   2.789   3.708  13.919  0.2706 -0.4564 -0.3053
  904MPD2    C213293   2.926   3.698  13.930 -0.4939 -1.1756  0.0672
  904MPD2    C313294   2.987   3.579  13.894  0.2932  0.0968 -0.4630
  904MPD2    C413295   2.914   3.463  13.878 -0.7781 -0.2249 -0.2827
  904MPD2    C513296   2.778   3.475  13.874 -0.4074 -0.1888 -0.2483
  904MPD2     H13297   2.983   3.786  13.957  2.2267 -2.7862 -0.4612
  904MPD2    H113298   2.968   3.374  13.849 -1.1515 -0.0240 -1.6021
  904MPD2    H213299   2.610   3.609  13.859  0.0253  0.6872 -1.2724
  904MPD2    H313300   2.719   3.388  13.846 -1.3141  0.1401  0.6598
  904MPD2     N13301   3.132   3.566  13.897  0.1223  0.5440 -1.1475
  904MPD2    H513302   3.170   3.479  13.860  0.6702 -0.4396  1.6657
  904MPD2    N113303   2.724   3.824  13.951 -0.3346  0.2170  0.0174
  904MPD2    H713304   2.794   3.893  13.975  1.0626 -0.1308 -3.1553
  905MPD2     C13305   2.625   4.401  13.577  0.0824 -0.3137 -0.0292
  905MPD2    C113306   2.726   4.366  13.655 -0.1665 -0.7304 -0.4481
  905MPD2    C213307   2.855   4.372  13.602  0.4834  0.1532  0.0539
  905MPD2    C313308   2.880   4.421  13.474  0.0563  0.4117  0.2509
  905MPD2    C413309   2.773   4.467  13.403  0.5295 -0.4370  0.4725
  905MPD2    C513310   2.648   4.449  13.454 -1.1989 -0.0155 -0.0524
  905MPD2     H13311   2.934   4.318  13.654  2.5197  1.3052 -1.8364
  905MPD2    H113312   2.782   4.495  13.299  1.8077 -2.5114  0.0202
  905MPD2    H213313   2.524   4.401  13.617  0.1990 -0.6314  0.2608
  905MPD2    H313314   2.560   4.486  13.402 -2.7386 -3.4228  0.1127
  905MPD2     N13315   3.014   4.410  13.437 -0.4639 -0.1225 -0.4680
  905MPD2    H513316   3.084   4.382  13.506 -0.9723 -0.5767 -0.1379
  905MPD2    N113317   2.692   4.309  13.784  0.5244 -0.5380  0.2670
  905MPD2    H713318   2.597   4.277  13.798 -0.5925  1.9770 -1.5669
  906MPD2     C13319   0.531   0.103  11.323  0.2236 -1.2881  0.0055
  906MPD2    C113320   0.622   0.032  11.238 -0.8054  1.2064  0.0929
  906MPD2    C213321   0.643   4.638  11.254 -0.6242  0.1911 -0.3774
  906MPD2    C313322   0.562   4.572  11.343  0.0773 -0.4897 -0.6021
  906MPD2    C413323   0.467   4.637  11.421  0.3957 -0.1476  0.1353
  906MPD2    C513324   0.467   0.032  11.418  0.4099  0.1737 -0.0594
  906MPD2     H13325   0.720   4.593  11.193 -0.5109 -0.7212  0.4408
  906MPD2    H113326   0.409   4.586  11.498 -0.3002  1.6078  0.7812
  906MPD2    H213327   0.509   0.209  11.320  1.1511 -1.1634 -2.2714
  906MPD2    H313328   0.419   0.094  11.492  1.4148  0.6912  0.1640
  906MPD2     N13329   0.554   4.426  11.351  0.1595 -0.8769  0.2148
  906MPD2    H513330   0.489   4.387  11.418 -0.6043 -2.3559 -1.4033
  906MPD2    N113331   0.693   0.091  11.126  0.4352  0.0749  0.8437
  906MPD2    H713332   0.768   0.040  11.079 -1.0874 -1.5602  0.2182
  907MPD2     C13333   3.514   3.676  15.744  0.0840 -0.3767 -0.6738
  907MPD2    C113334   3.615   3.578  15.728 -0.5711 -0.1131  0.6028
  907MPD2    C213335   3.713   3.551  15.818 -0.2908  0.3937 -0.6599
  907MPD2    C313336   3.714   3.617  15.942 -0.1671  0.1972 -0.1915
  907MPD2    C413337   3.619   3.717  15.957  0.4195 -0.5298  0.3062
  907MPD2    C513338   3.523   3.744  15.855 -0.2247  0.4429  0.2450
  907MPD2     H13339   3.780   3.466  15.807 -1.0069 -0.2038 -0.4089
  907MPD2    H113340   3.610   3.783  16.043 -1.3328 -0.3464 -0.0209
  907MPD2    H213341   3.427   3.693  15.682  0.8846 -0.1908 -1.7424
  907MPD2    H313342   3.435   3.805  15.871 -1.2986 -0.6072 -1.6730
  907MPD2     N13343   3.820   3.606  16.029  0.5020  0.1218  0.4614
  907MPD2    H513344   3.893   3.542  15.997 -1.3464 -2.5178  1.5527
  907MPD2    N113345   3.620   3.484  15.619  0.1667  0.5882  0.3537
  907MPD2    H713346   3.698   3.420  15.622  0.2775  0.8508  3.1975
  908MPD2     C13347   2.604   4.181  10.103 -0.0582 -0.2549 -0.1118
  908MPD2    C113348   2.470   4.168  10.134  0.2176 -0.6098  0.6664
  908MPD2    C213349   2.408   4.273  10.209  0.2398 -0.1139  0.4425
  908MPD2    C313350   2.481   4.388  10.244 -0.4985 -0.5575 -1.0586
  908MPD2    C413351   2.614   4.391  10.211  0.4088 -0.8280  0.5742
  908MPD2    C513352   2.668   4.298  10.128 -0.3162 -0.4140 -1.0515
  908MPD2     H13353   2.300   4.281  10.217  0.2673 -0.0222  0.7343
  908MPD2    H113354   2.665   4.482  10.239 -0.1276 -0.3546  0.0232
  908MPD2    H213355   2.646   4.097  10.047  1.0208  0.8545 -0.9579
  908MPD2    H313356   2.770   4.311  10.096  0.8837 -0.0947  2.9227
  908MPD2     N13357   2.417   4.486  10.323 -0.1085  0.0008  0.1535
  908MPD2    H513358   2.319   4.462  10.336  0.2456 -1.1880  0.6285
  908MPD2    N113359   2.407   4.052  10.090  0.0685  0.3410 -0.4668
  908MPD2    H713360   2.466   3.978  10.055 -2.8978 -1.0948 -2.4820
  909MPD2     C13361   2.677   2.466  11.933 -0.1426 -0.2907 -0.1663
  909MPD2    C113362   2.638   2.592  11.903 -0.2575  0.0053  0.1985
  909MPD2    C213363   2.575   2.666  11.999  0.8203 -0.1508 -0.3279
  909MPD2    C313364   2.534   2.613  12.119  0.1382 -0.6046  0.0527
  909MPD2    C413365   2.554   2.475  12.139  0.1930  0.6876  0.1222
  909MPD2    C513366   2.628   2.406  12.049  0.2467 -0.1005  0.7241
  909MPD2     H13367   2.556   2.773  11.990  2.0949  0.2735  1.9312
  909MPD2    H113368   2.511   2.417  12.220  0.6827  1.1294  0.6961
  909MPD2    H213369   2.737   2.414  11.859  0.0278  0.0629 -0.2822
  909MPD2    H313370   2.645   2.300  12.067  0.6678 -0.3368 -1.1075
  909MPD2     N13371   2.472   2.700  12.215 -0.0785 -0.3490  0.2246
  909MPD2    H513372   2.466   2.800  12.198  0.5524 -0.7630 -2.5259
  909MPD2    N113373   2.677   2.649  11.776 -0.2906  0.2688 -0.1575
  909MPD2    H713374   2.688   2.750  11.786  0.3804  0.0895  0.9955
  910MPD2     C13375   3.253   4.131  16.467  0.6403  1.0017  0.6068
  910MPD2    C113376   3.269   4.025  16.386 -0.0148 -0.2596 -0.4568
  910MPD2    C213377   3.214   4.041  16.261 -0.2819 -0.2298  0.4083
  910MPD2    C313378   3.144   4.157  16.222 -0.1879  0.2942  0.6148
  910MPD2    C413379   3.113   4.250  16.319  0.5002  0.0161 -0.2371
  910MPD2    C513380   3.174   4.238  16.438  0.4252 -0.0219  0.9079
  910MPD2     H13381   3.227   3.960  16.190 -0.9912  0.8021 -0.8789
  910MPD2    H113382   3.036   4.324  16.303  0.5741  0.3179  0.8125
  910MPD2    H213383   3.299   4.134  16.565  0.9353  1.0426  0.4690
  910MPD2    H313384   3.143   4.304  16.518  2.2685  1.0981  0.6895
  910MPD2     N13385   3.102   4.187  16.092 -0.0331  0.2466  0.2636
  910MPD2    H513386   3.069   4.283  16.086  0.1851  0.3161  0.1722
  910MPD2    N113387   3.346   3.900  16.415  0.0245  0.0220 -0.1002
  910MPD2    H713388   3.353   3.841  16.333  2.7904  0.2219 -0.0288
  911MPD2     C13389   1.194   4.210  16.456 -0.0979 -0.3351  0.1081
  911MPD2    C113390   1.235   4.331  16.495 -0.5545 -0.2253 -0.5291
  911MPD2    C213391   1.192   4.445  16.433 -0.5574 -0.2023  0.8042
  911MPD2    C313392   1.100   4.442  16.332  0.7147 -0.3321 -0.6516
  911MPD2    C413393   1.056   4.312  16.298 -0.1981  0.2300 -0.1717
  911MPD2    C513394   1.089   4.199  16.365 -0.0063 -0.4523 -0.6295
  911MPD2     H13395   1.248   4.536  16.448 -0.3366 -0.2293  0.1303
  911MPD2    H113396   0.991   4.302  16.212  0.7415  2.2663 -1.1388
  911MPD2    H213397   1.241   4.120  16.494  2.7775  0.9619 -0.3512
  911MPD2    H313398   1.054   4.103  16.327  0.3941 -1.0790  0.5944
  911MPD2     N13399   1.052   4.553  16.264 -0.2158 -0.2459 -0.3680
  911MPD2    H513400   0.961   4.549  16.220  0.1695  0.5534 -1.2438
  911MPD2    N113401   1.348   4.331  16.580  0.4583 -0.3106 -0.1155
  911MPD2    H713402   1.401   4.248  16.607  1.3391 -0.1783 -1.4564
  912MPD2     C13403   0.526   4.510  15.786  0.3797 -1.0214 -0.0163
  912MPD2    C113404   0.636   4.489  15.881 -0.6872  0.0687 -0.2379
  912MPD2    C213405   0.643   4.364  15.944 -0.7882  0.3106 -0.3174
  912MPD2    C313406   0.538   4.277  15.929  0.3386  0.2727  0.2536
  912MPD2    C413407   0.442   4.294  15.836  0.3996  0.0152  0.4241
  912MPD2    C513408   0.429   4.413  15.767  0.5386 -0.2136  0.5400
  912MPD2     H13409   0.728   4.338  16.005 -1.4260  1.5363  1.0759
  912MPD2    H113410   0.362   4.221  15.824  0.8368 -0.2002 -1.1383
  912MPD2    H213411   0.527   4.601  15.728 -0.0169 -1.0035  0.0028
  912MPD2    H313412   0.356   4.433  15.689  0.7114 -3.0474 -0.3525
  912MPD2     N13413   0.540   4.167  16.018 -0.4013 -0.2396 -0.3823
  912MPD2    H513414   0.611   4.172  16.090 -2.3734  0.2245  1.5382
  912MPD2    N113415   0.738   4.593  15.895 -0.4779  0.0140 -0.0004
  912MPD2    H713416   0.731   4.676  15.837  0.3999  0.8359  1.0688
  913MPD2     C13417   1.974   2.038  10.533 -0.2026 -0.7474  0.4181
  913MPD2    C113418   1.906   2.015  10.411  0.5755  0.4844 -0.9187
  913MPD2    C213419   1.927   2.108  10.307 -0.5391  0.7714 -0.7813
  913MPD2    C313420   2.017   2.216  10.320 -0.5880  0.6585 -0.1644
  913MPD2    C413421   2.093   2.229  10.436 -0.1877 -0.8383  0.4907
  913MPD2    C513422   2.074   2.135  10.541 -0.0594 -0.0547  0.3144
  913MPD2     H13423   1.863   2.115  10.220 -0.2149  0.2064 -1.0621
  913MPD2    H113424   2.166   2.307  10.453 -0.2495 -0.6182 -0.2397
  913MPD2    H213425   1.952   1.978  10.621 -1.2617 -0.9420  0.0145
  913MPD2    H313426   2.136   2.142  10.630 -0.0283 -0.2649  0.3088
  913MPD2     N13427   2.043   2.309  10.218  0.3027 -0.3831 -0.2392
  913MPD2    H513428   2.099   2.390  10.244 -1.1916  0.5991 -0.0634
  913MPD2    N113429   1.816   1.904  10.409  0.1186  0.1979 -0.3727
  913MPD2    H713430   1.820   1.853  10.497 -3.7044  1.9693  0.8282
  914MPD2     C13431   0.111   1.306  12.229  0.2819  0.0365  0.1201
  914MPD2    C113432   0.055   1.369  12.338 -0.1062  0.6141  0.0984
  914MPD2    C213433   4.729   1.293  12.432 -0.1720 -0.1306  0.5881
  914MPD2    C313434   4.700   1.161  12.408  0.3812  0.4488  0.3528
  914MPD2    C413435   4.734   1.099  12.290 -0.3737  0.1440 -0.1770
  914MPD2    C513436   0.076   1.171  12.204 -0.5600 -0.3065 -0.1534
  914MPD2     H13437   4.701   1.348  12.521  0.4086  0.6325  0.3027
  914MPD2    H113438   4.704   1.000  12.261 -0.2540 -0.6141  2.2553
  914MPD2    H213439   0.167   1.369  12.161 -0.6265  1.3284  0.5751
  914MPD2    H313440   0.099   1.122  12.109 -0.2486  1.5181 -1.0081
  914MPD2     N13441   4.633   1.082  12.507  0.2117  0.5779  0.9195
  914MPD2    H513442   4.595   1.129  12.588  0.6861  0.5649  1.1509
  914MPD2    N113443   0.083   1.506  12.350 -0.7266 -0.1319  0.0445
  914MPD2    H713444   0.140   1.540  12.273  2.7221 -0.0359  2.6445
  915MPD2     C13445   1.919   1.157  15.807  0.0704  0.0299 -0.4035
  915MPD2    C113446   1.891   1.281  15.751 -0.3733  0.5985 -0.8510
  915MPD2    C213447   1.891   1.394  15.830 -0.9723 -0.0588  0.1533
  915MPD2    C313448   1.918   1.385  15.964  0.0396 -1.0283  0.3420
  915MPD2    C413449   1.960   1.260  16.012 -0.6321 -0.5149 -0.9494
  915MPD2    C513450   1.966   1.148  15.934  0.2883 -0.0711 -1.2655
  915MPD2     H13451   1.855   1.490  15.795 -1.8654 -1.0897 -1.6730
  915MPD2    H113452   1.992   1.245  16.114 -2.8622  0.1891 -0.1317
  915MPD2    H213453   1.905   1.071  15.742 -1.0868  0.4664 -0.7343
  915MPD2    H313454   1.996   1.052  15.974 -3.4283 -0.4788  0.5685
  915MPD2     N13455   1.892   1.499  16.041 -0.4080  0.0580  0.3149
  915MPD2    H513456   1.851   1.575  15.988 -0.1146  1.3522  1.9425
  915MPD2    N113457   1.873   1.286  15.606  0.2570 -0.4168  0.6059
  915MPD2    H713458   1.876   1.205  15.544  1.5710 -0.4585  0.7233
  916MPD2     C13459   4.666   4.404  15.881  0.8413 -0.2823 -0.1927
  916MPD2    C113460   0.035   4.356  15.951 -0.5958 -0.7828  0.5410
  916MPD2    C213461   0.100   4.238  15.908 -0.1894  0.4083 -0.0996
  916MPD2    C313462   0.045   4.166  15.803  0.3401 -0.2489  0.1979
  916MPD2    C413463   4.666   4.221  15.731  0.6752  0.0281 -0.4320
  916MPD2    C513464   4.615   4.338  15.772  0.0720 -0.7111 -0.2809
  916MPD2     H13465   0.187   4.197  15.957 -0.7186 -0.4252  0.1425
  916MPD2    H113466   4.616   4.175  15.646 -0.8320  1.4997 -0.3387
  916MPD2    H213467   4.609   4.493  15.906  2.9527  0.8537  0.5889
  916MPD2    H313468   4.540   4.390  15.713  0.7601  0.4527 -0.1391
  916MPD2     N13469   0.101   4.042  15.771 -0.2433  0.2788 -0.0469
  916MPD2    H513470   0.168   4.002  15.836  0.3353 -1.1063 -1.4974
  916MPD2    N113471   0.069   4.425  16.068  1.2250  0.1553  0.1112
  916MPD2    H713472   0.035   4.520  16.078  0.6214 -0.2000  1.4429
  917MPD2     C13473   0.824   1.270  11.592 -0.0217 -0.3426 -0.6645
  917MPD2    C113474   0.865   1.332  11.705  0.0153  0.3810  0.2749
  917MPD2    C213475   0.955   1.438  11.687 -0.3415  0.2889 -0.7306
  917MPD2    C313476   1.008   1.466  11.563 -0.3476 -0.3594 -0.2949
  917MPD2    C413477   0.960   1.407  11.451 -0.0647  0.6845 -0.5465
  917MPD2    C513478   0.865   1.306  11.465 -0.3851 -0.5005 -0.0013
  917MPD2     H13479   0.999   1.488  11.773  2.3607 -1.2404 -1.2257
  917MPD2    H113480   0.997   1.425  11.351  0.4195  2.0742 -0.1210
  917MPD2    H213481   0.759   1.184  11.601 -2.1404  1.5437  1.9778
  917MPD2    H313482   0.835   1.249  11.378  0.2856  0.3031 -0.7570
  917MPD2     N13483   1.122   1.550  11.541 -0.1759  0.0039  0.2319
  917MPD2    H513484   1.140   1.563  11.442 -1.2927  0.7674  0.1278
  917MPD2    N113485   0.808   1.293  11.828 -0.3345  0.2441  0.1101
  917MPD2    H713486   0.744   1.215  11.842 -1.9022  1.5855  0.3993
  918MPD2     C13487   0.673   1.912  12.587 -0.2331 -0.0573  0.8262
  918MPD2    C113488   0.784   1.893  12.503  0.5873 -0.0414 -1.1695
  918MPD2    C213489   0.774   1.787  12.414 -0.0050  0.0281  1.0938
  918MPD2    C313490   0.668   1.697  12.418 -0.1627 -0.2147  0.2328
  918MPD2    C413491   0.564   1.719  12.506  0.1074 -0.3640  0.5065
  918MPD2    C513492   0.563   1.830  12.580 -0.3260 -0.5414 -0.4843
  918MPD2     H13493   0.851   1.763  12.341 -0.2246  3.2533 -0.2128
  918MPD2    H113494   0.472   1.663  12.516 -1.7254  2.8976  1.8907
  918MPD2    H213495   0.658   1.989  12.662  2.9431  0.9262  0.4465
  918MPD2    H313496   0.485   1.840  12.654  0.5342 -0.1301  0.3790
  918MPD2     N13497   0.673   1.596  12.314  0.2521 -0.1147  0.4832
  918MPD2    H513498   0.762   1.594  12.265  0.2933 -1.5852  0.6199
  918MPD2    N113499   0.905   1.951  12.511 -0.4431 -0.4283  0.3185
  918MPD2    H713500   0.978   1.898  12.464 -0.6726 -0.4511 -0.0059
  919MPD2     C13501   1.636   1.028  11.914  0.4618  0.3391  0.3880
  919MPD2    C113502   1.530   0.948  11.877  0.3089  0.8110 -0.3785
  919MPD2    C213503   1.505   0.934  11.745 -0.0787 -0.1230  0.0562
  919MPD2    C313504   1.569   1.012  11.651  0.1582  0.6159  0.6491
  919MPD2    C413505   1.682   1.088  11.695 -0.6645 -0.5240  0.0601
  919MPD2    C513506   1.713   1.096  11.826  0.0901 -0.4043 -0.4204
  919MPD2     H13507   1.423   0.866  11.725  0.2296 -0.6383  0.5291
  919MPD2    H113508   1.737   1.156  11.630  1.3642 -1.8040  0.4602
  919MPD2    H213509   1.659   1.039  12.019 -1.3581 -2.3271  1.0819
  919MPD2    H313510   1.800   1.152  11.857 -1.9390  1.7898  1.3898
  919MPD2     N13511   1.546   1.017  11.510  0.4038 -0.1338  0.0151
  919MPD2    H513512   1.598   1.080  11.449  0.7720 -1.0259 -0.5895
  919MPD2    N113513   1.460   0.862  11.967  0.1378  0.5229  0.6139
  919MPD2    H713514   1.395   0.798  11.923  1.1469  0.7757 -1.2867
  920MPD2     C13515   1.507   1.575  10.687  0.7574  0.2402  0.7470
  920MPD2    C113516   1.397   1.494  10.676  0.1224  0.3755 -1.0449
  920MPD2    C213517   1.384   1.388  10.768  0.0520  0.2743  0.7422
  920MPD2    C313518   1.469   1.368  10.877  0.5567 -0.2892  0.2419
  920MPD2    C413519   1.573   1.454  10.887  0.8561  0.2976  0.0654
  920MPD2    C513520   1.593   1.550  10.792  0.2914  0.0148 -0.2085
  920MPD2     H13521   1.299   1.322  10.754 -2.6570  3.2754  3.2449
  920MPD2    H113522   1.652   1.445  10.961  1.1896  0.1966 -0.3046
  920MPD2    H213523   1.530   1.634  10.600  1.9603 -0.9779  0.2322
  920MPD2    H313524   1.685   1.607  10.792 -0.3788  1.1032 -0.5090
  920MPD2     N13525   1.444   1.261  10.961 -0.1667 -0.4915  0.6660
  920MPD2    H513526   1.364   1.199  10.952 -1.9500  1.8623  0.4591
  920MPD2    N113527   1.300   1.498  10.571  0.0322 -0.2435 -0.1970
  920MPD2    H713528   1.230   1.425  10.576  2.8307 -2.8635  1.3137
  921MPD2     C13529   2.125   0.016  17.209  0.3624  0.3046  0.1868
  921MPD2    C113530   2.154   0.052  17.083 -0.1175 -0.1274 -0.1669
  921MPD2    C213531   2.059   0.014  16.985 -0.0168  0.4026 -1.2049
  921MPD2    C313532   1.947   4.678  17.024  0.1525  0.5674 -0.0806
  921MPD2    C413533   1.924   4.648  17.156  0.4165 -0.3589 -0.1016
  921MPD2    C513534   2.016   4.683  17.247  0.2824  0.2870  0.0291
  921MPD2     H13535   2.071   0.035  16.879  4.9657  0.2379 -0.6854
  921MPD2    H113536   1.841   4.581  17.179 -0.5257  0.7098 -0.3713
  921MPD2    H213537   2.194   0.031  17.291 -1.1587 -1.9255  1.8816
  921MPD2    H313538   2.001   4.649  17.349  1.0716  2.7023  0.9459
  921MPD2     N13539   1.875   4.617  16.925  0.4145  0.1795 -0.7418
  921MPD2    H513540   1.910   4.632  16.831 -2.4284  1.2524 -1.6157
  921MPD2    N113541   2.268   0.133  17.050 -0.0527  0.2567 -0.1432
  921MPD2    H713542   2.334   0.146  17.125 -0.1057 -0.5708  0.0519
  922MPD2     C13543   2.610   3.069  17.684 -0.5251  0.7883  0.5269
  922MPD2    C113544   2.583   3.006   0.052 -0.7044  0.3201  0.2121
  922MPD2    C213545   2.610   2.874   0.060  0.3180 -0.6547  0.2641
  922MPD2    C313546   2.671   2.799  17.710  0.0721 -0.3873  0.7070
  922MPD2    C413547   2.700   2.870  17.599 -0.0866 -0.3087 -0.0612
  922MPD2    C513548   2.672   3.003  17.585 -0.0155  0.3211  0.1631
  922MPD2     H13549   2.594   2.830   0.158  3.9542 -1.0057  0.6815
  922MPD2    H113550   2.740   2.820  17.512  0.1796  0.0827 -0.1675
  922MPD2    H213551   2.591   3.174  17.668  1.6062  1.1126  0.1964
  922MPD2    H313552   2.715   3.051  17.498  0.6601  1.2400  1.0066
  922MPD2     N13553   2.677   2.656  17.722 -0.8516 -0.3405 -0.4919
  922MPD2    H513554   2.639   2.602   0.048  0.8479  0.8415  1.1730
  922MPD2    N113555   2.557   3.077   0.175  0.2569 -0.5214 -0.3350
  922MPD2    H713556   2.564   3.027   0.263 -2.3307  2.1571  1.3870
  923MPD2     C13557   0.298   0.906   8.833  0.3381  0.6362 -0.0651
  923MPD2    C113558   0.283   0.912   8.968  0.4431 -0.3814 -0.9507
  923MPD2    C213559   0.350   0.832   9.055  0.4516  0.0347  0.0284
  923MPD2    C313560   0.461   0.758   9.004 -0.0267  0.0409  0.0610
  923MPD2    C413561   0.482   0.754   8.868  0.3005  0.2652 -0.7961
  923MPD2    C513562   0.393   0.819   8.788 -0.4581  0.7327  0.0793
  923MPD2     H13563   0.320   0.821   9.159  0.7930 -1.7904 -0.0742
  923MPD2    H113564   0.565   0.706   8.818 -1.2196 -0.4349 -2.6549
  923MPD2    H213565   0.240   0.960   8.760  1.0040 -0.8155 -1.6778
  923MPD2    H313566   0.411   0.800   8.683 -1.0763  1.1466 -0.0997
  923MPD2     N13567   0.542   0.677   9.088 -0.8412 -0.0479 -0.5813
  923MPD2    H513568   0.601   0.606   9.045 -0.0457  0.2404  0.0344
  923MPD2    N113569   0.169   0.983   8.999  0.3313 -0.2263 -0.7421
  923MPD2    H713570   0.117   1.027   8.924  0.9058 -0.7878 -1.4739
  924MPD2     C13571   4.244   2.918  15.914 -0.1585  0.0935 -0.9336
  924MPD2    C113572   4.189   2.937  16.040  0.0386 -0.0076  0.3995
  924MPD2    C213573   4.163   3.058  16.094 -0.2069 -0.5909  0.3404
  924MPD2    C313574   4.176   3.171  16.022 -0.4280 -0.0284  0.4392
  924MPD2    C413575   4.237   3.157  15.894 -0.4481  0.6577 -0.2330
  924MPD2    C513576   4.269   3.032  15.845  0.7337  0.5831 -0.5133
  924MPD2     H13577   4.145   3.065  16.201 -0.8047  2.4178  0.0422
  924MPD2    H113578   4.273   3.242  15.837  4.6004 -0.6408  1.0327
  924MPD2    H213579   4.265   2.822  15.869  0.4404  0.0560 -0.5825
  924MPD2    H313580   4.323   3.027  15.751  0.7395  0.5381 -0.5075
  924MPD2     N13581   4.149   3.305  16.072  0.6259 -0.4060 -0.2154
  924MPD2    H513582   4.153   3.384  16.010  0.2510  0.8554  1.3652
  924MPD2    N113583   4.144   2.831  16.120  0.3700  0.2541  0.2110
  924MPD2    H713584   4.109   2.858  16.211 -0.7475 -0.8194  0.1160
  925MPD2     C13585   2.958   0.617  14.515 -0.1948  0.1683  0.2797
  925MPD2    C113586   2.954   0.498  14.584  0.1632  0.2369  0.5046
  925MPD2    C213587   2.916   0.506  14.714 -0.1428 -0.8183 -0.5930
  925MPD2    C313588   2.894   0.628  14.781 -0.5594  0.1333 -0.1254
  925MPD2    C413589   2.925   0.741  14.712  0.2530  0.2101 -0.5222
  925MPD2    C513590   2.955   0.733  14.582 -0.1693 -0.3320  0.0775
  925MPD2     H13591   2.905   0.414  14.769 -2.9361  0.4771  0.9669
  925MPD2    H113592   2.927   0.838  14.762 -0.2821  0.2397 -0.5645
  925MPD2    H213593   2.957   0.627  14.407 -2.1798  0.3404  0.3000
  925MPD2    H313594   2.970   0.822  14.523 -1.2264 -0.5558 -0.5325
  925MPD2     N13595   2.850   0.628  14.911 -0.5998 -0.2041 -0.5896
  925MPD2    H513596   2.863   0.718  14.957 -0.3968  0.4016 -1.8362
  925MPD2    N113597   2.983   0.379  14.518 -0.5050 -0.5740 -0.6025
  925MPD2    H713598   2.972   0.299  14.580  1.2895 -0.1233  0.3116
  926MPD2     C13599   1.189   3.653  13.562  0.2368 -0.8313  0.6803
  926MPD2    C113600   1.287   3.714  13.628  0.6461 -0.6340  0.8392
  926MPD2    C213601   1.404   3.746  13.571 -0.3686 -0.0081 -0.0662
  926MPD2    C313602   1.425   3.734  13.431  0.4265 -0.1815  0.3183
  926MPD2    C413603   1.316   3.680  13.359  0.4058  0.9188 -0.3176
  926MPD2    C513604   1.210   3.627  13.430  0.3877  0.7235  0.0068
  926MPD2     H13605   1.484   3.796  13.625 -0.4525 -1.2581  1.2193
  926MPD2    H113606   1.330   3.653  13.255 -1.0321 -1.7209  0.1582
  926MPD2    H213607   1.109   3.606  13.618 -0.5345  0.1878  0.4367
  926MPD2    H313608   1.141   3.562  13.378  1.7713  1.0038 -2.1665
  926MPD2     N13609   1.547   3.769  13.372  0.1030  0.4932  0.6114
  926MPD2    H513610   1.548   3.763  13.271  3.4924  0.7082  0.6398
  926MPD2    N113611   1.275   3.748  13.764  0.2263  0.5266  0.2888
  926MPD2    H713612   1.355   3.787  13.813 -0.0327 -0.6521  1.6445
  927MPD2     C13613   2.101   1.315  17.342  0.4872 -0.0029 -0.0385
  927MPD2    C113614   1.980   1.281  17.284 -0.5763  0.4813 -0.8363
  927MPD2    C213615   1.968   1.265  17.146 -0.1962 -0.1465 -0.8521
  927MPD2    C313616   2.075   1.302  17.065 -0.3725 -0.8839 -0.2005
  927MPD2    C413617   2.194   1.339  17.124  0.3621  0.0156  0.9232
  927MPD2    C513618   2.206   1.348  17.261  0.4715  0.4150 -0.0889
  927MPD2     H13619   1.877   1.233  17.097 -1.7989 -0.7108  2.4910
  927MPD2    H113620   2.280   1.364  17.064 -2.8192 -1.0232 -4.0516
  927MPD2    H213621   2.104   1.316  17.451  1.5392  0.4269 -0.0689
  927MPD2    H313622   2.305   1.365  17.302 -0.3557  2.4934  1.0204
  927MPD2     N13623   2.065   1.305  16.926 -0.7417  0.3158 -0.0809
  927MPD2    H513624   1.988   1.252  16.887 -0.7058 -1.1841  1.8763
  927MPD2    N113625   1.876   1.270  17.374 -0.7188 -0.3680 -0.7984
  927MPD2    H713626   1.904   1.275  17.471 -2.1313 -1.6329 -0.3231
  928MPD2     C13627   3.680   0.391   0.633  0.3456 -0.1121  0.5845
  928MPD2    C113628   3.758   0.454   0.728 -0.4641  0.2434 -0.3879
  928MPD2    C213629   3.866   0.527   0.690  0.1387  0.0525 -0.4647
  928MPD2    C313630   3.902   0.529   0.564 -0.0671  0.0885 -0.2273
  928MPD2    C413631   3.820   0.477   0.471 -0.0919  0.7480 -0.0073
  928MPD2    C513632   3.711   0.410   0.501 -0.0942  0.0746  0.1064
  928MPD2     H13633   3.931   0.577   0.761  0.5038 -1.1205  0.0326
  928MPD2    H113634   3.837   0.473   0.364 -0.9091  2.9202 -0.2159
  928MPD2    H213635   3.600   0.319   0.644 -0.5172  0.8401  0.4180
  928MPD2    H313636   3.655   0.367   0.419  0.9032 -2.2512  0.6642
  928MPD2     N13637   4.023   0.586   0.515 -0.4616 -0.4584 -0.4570
  928MPD2    H513638   4.034   0.581   0.414 -0.2460 -1.3396 -0.3869
  928MPD2    N113639   3.711   0.457   0.863 -0.2087  0.3653  0.0064
  928MPD2    H713640   3.626   0.402   0.872  0.4419 -0.2485  2.3113
  929MPD2     C13641   0.370   0.166  10.224  0.1650 -0.1898  0.0100
  929MPD2    C113642   0.309   0.046  10.257  0.5708 -0.2854 -0.6751
  929MPD2    C213643   0.198   0.006  10.190 -0.0965  0.2704  0.2047
  929MPD2    C313644   0.130   0.098  10.105  0.3857 -0.1348  0.1600
  929MPD2    C413645   0.200   0.208  10.055 -0.3796  0.2791 -0.5814
  929MPD2    C513646   0.316   0.241  10.124 -0.0164  0.4301 -0.2515
  929MPD2     H13647   0.135   4.672  10.239 -2.3089  1.5867 -0.6867
  929MPD2    H113648   0.156   0.280   9.987 -1.3290  1.0071  0.7845
  929MPD2    H213649   0.466   0.199  10.261 -1.1557  3.4557  0.2843
  929MPD2    H313650   0.371   0.328  10.091  0.8166 -0.2447 -0.6544
  929MPD2     N13651   4.735   0.087  10.050 -1.1073  0.1837 -0.9136
  929MPD2    H513652   4.698   0.167  10.000  1.9837  1.5702 -0.9936
  929MPD2    N113653   0.373   4.702  10.357 -0.5116 -0.3732 -0.2785
  929MPD2    H713654   0.451   0.009  10.404  0.9335 -0.2740 -2.7569
  930MPD2     C13655   1.245   2.185  14.427 -0.4588  0.9731  0.3474
  930MPD2    C113656   1.346   2.099  14.401 -0.3770 -0.4387 -0.1232
  930MPD2    C213657   1.319   1.975  14.345 -0.3562  0.0331  0.7410
  930MPD2    C313658   1.189   1.945  14.312  0.4716 -0.0281 -0.5123
  930MPD2    C413659   1.088   2.032  14.336  0.1412 -0.1473 -0.1089
  930MPD2    C513660   1.115   2.151  14.398  0.8440 -0.5242 -0.2919
  930MPD2     H13661   1.399   1.913  14.307 -0.5093  0.1009  0.3109
  930MPD2    H113662   0.986   2.009  14.308 -0.5838 -0.5656  2.9137
  930MPD2    H213663   1.249   2.289  14.459 -0.6143  0.3975  2.2655
  930MPD2    H313664   1.041   2.227  14.418  0.0021 -0.4408 -3.6808
  930MPD2     N13665   1.159   1.839  14.228 -0.3654  0.3518 -0.3052
  930MPD2    H513666   1.066   1.829  14.189 -1.1228 -1.7074  2.0920
  930MPD2    N113667   1.478   2.136  14.444  0.5658 -0.5688  0.0937
  930MPD2    H713668   1.486   2.228  14.484 -2.0414  0.8425 -2.6484
  931MPD2     C13669   2.029   1.183   0.178  0.2888 -0.8353  0.0309
  931MPD2    C113670   1.888   1.186   0.191 -0.5932 -0.0848  0.8628
  931MPD2    C213671   1.827   1.165   0.319  0.3566  0.5133 -0.2981
  931MPD2    C313672   1.910   1.126   0.423 -0.5317 -1.0098  0.3116
  931MPD2    C413673   2.046   1.109   0.403  0.4407 -0.2476 -0.4342
  931MPD2    C513674   2.106   1.165   0.288  0.0909  0.0584 -0.5209
  931MPD2     H13675   1.722   1.150   0.338  0.6915  0.6336  1.6847
  931MPD2    H113676   2.111   1.085   0.486 -1.1480 -0.6376  0.7030
  931MPD2    H213677   2.075   1.197   0.081 -0.1474 -3.8212 -0.6246
  931MPD2    H313678   2.213   1.177   0.279  0.1516  0.8192  1.2260
  931MPD2     N13679   1.861   1.100   0.551  0.5540 -0.2981 -0.1022
  931MPD2    H513680   1.924   1.056   0.617  0.5180 -3.5333 -2.2372
  931MPD2    N113681   1.815   1.203   0.076 -0.1264 -0.1847 -0.3124
  931MPD2    H713682   1.867   1.212  17.741 -0.4251  0.9269 -0.3767
  932MPD2     C13683   3.706   0.660  11.728  0.4910 -0.4640  0.2481
  932MPD2    C113684   3.766   0.706  11.614  0.0751  0.5240  0.1208
  932MPD2    C213685   3.851   0.621  11.557 -0.3935  0.0762  0.3687
  932MPD2    C313686   3.867   0.488  11.587  0.5494 -0.2084 -0.0307
  932MPD2    C413687   3.790   0.440  11.687  0.2910 -0.3888  0.4200
  932MPD2    C513688   3.714   0.526  11.758 -0.4095 -0.0093 -0.8345
  932MPD2     H13689   3.920   0.673  11.490 -3.4260  0.5779 -2.3689
  932MPD2    H113690   3.818   0.342  11.723 -1.8096 -0.7579  1.0230
  932MPD2    H213691   3.643   0.722  11.791  0.3938  1.6735 -1.9598
  932MPD2    H313692   3.656   0.493  11.843 -1.7562 -0.4800 -1.9358
  932MPD2     N13693   3.970   0.413  11.528  0.2271 -0.8149 -0.2011
  932MPD2    H513694   3.989   0.319  11.562 -0.5351 -1.2497 -0.9442
  932MPD2    N113695   3.749   0.844  11.567  0.3996 -0.3455 -0.5529
  932MPD2    H713696   3.799   0.869  11.482  1.1103  1.7767  0.5097
  933MPD2     C13697   3.120   0.280   1.048 -0.7250  0.2057  0.2605
  933MPD2    C113698   3.173   0.378   1.130  0.7025 -0.5560 -0.2732
  933MPD2    C213699   3.093   0.474   1.189 -0.4008  0.5093  0.6450
  933MPD2    C313700   2.959   0.474   1.169 -0.3997 -0.2285 -1.4737
  933MPD2    C413701   2.908   0.373   1.089 -0.1261 -0.6474  0.3477
  933MPD2    C513702   2.986   0.280   1.029 -0.2487  0.3564  0.0199
  933MPD2     H13703   3.133   0.556   1.248 -0.3271  0.9653 -0.0395
  933MPD2    H113704   2.802   0.361   1.072 -0.0881  2.5302 -2.2138
  933MPD2    H213705   3.179   0.200   1.006 -0.1587  0.6568  0.2037
  933MPD2    H313706   2.954   0.191   0.976 -0.0200  0.4881 -0.3430
  933MPD2     N13707   2.885   0.587   1.226  0.1989 -0.1447  0.0231
  933MPD2    H513708   2.931   0.648   1.293  2.0770 -1.3731 -0.1213
  933MPD2    N113709   3.314   0.367   1.149  0.2672  0.0480 -0.1295
  933MPD2    H713710   3.366   0.300   1.092  1.8000  0.2705  1.0094
  934MPD2     C13711   0.602   2.317   1.515 -0.9666 -0.6164  0.1958
  934MPD2    C113712   0.642   2.274   1.393 -0.0928 -0.9350  0.0548
  934MPD2    C213713   0.551   2.203   1.323  1.0074 -0.0250  0.0506
  934MPD2    C313714   0.429   2.167   1.375  0.2401 -0.3172  0.1991
  934MPD2    C413715   0.401   2.202   1.508  0.9283 -0.7585 -0.1205
  934MPD2    C513716   0.492   2.272   1.581 -0.1531 -0.6379 -0.6278
  934MPD2     H13717   0.576   2.173   1.221  0.3046 -0.3507 -0.0219
  934MPD2    H113718   0.301   2.185   1.546  0.2322  0.9407 -1.2011
  934MPD2    H213719   0.667   2.360   1.590 -2.6090  1.0029  0.6855
  934MPD2    H313720   0.466   2.307   1.680  2.2900  1.4654 -0.7366
  934MPD2     N13721   0.333   2.096   1.302  0.2881 -0.4245  0.0679
  934MPD2    H513722   0.246   2.078   1.351 -0.1461  0.3050 -0.4471
  934MPD2    N113723   0.760   2.309   1.331 -0.0177 -0.2739  0.2326
  934MPD2    H713724   0.783   2.277   1.237 -0.7441  0.3659 -0.1579
  935MPD2     C13725   0.393   1.408   0.576  0.2918 -0.6507 -0.1537
  935MPD2    C113726   0.260   1.413   0.600  0.3726 -0.1420 -0.3484
  935MPD2    C213727   0.212   1.505   0.692  0.0833 -0.8570 -0.2261
  935MPD2    C313728   0.294   1.609   0.741  0.1353 -0.1037 -0.2104
  935MPD2    C413729   0.427   1.597   0.723 -0.2032  0.0806  0.3611
  935MPD2    C513730   0.478   1.495   0.641  0.0801 -0.1754  0.0179
  935MPD2     H13731   0.108   1.510   0.720 -0.0696 -0.8103 -0.7933
  935MPD2    H113732   0.503   1.665   0.759  0.0377  0.1517 -0.2963
  935MPD2    H213733   0.451   1.353   0.502 -0.2392 -0.6030 -0.6040
  935MPD2    H313734   0.584   1.491   0.617  0.0261  1.8315 -0.6120
  935MPD2     N13735   0.247   1.710   0.830 -0.2194  0.3160 -0.5008
  935MPD2    H513736   0.320   1.757   0.883 -0.3574  0.5879 -0.5481
  935MPD2    N113737   0.167   1.321   0.541 -0.2234  0.3452  0.6119
  935MPD2    H713738   0.070   1.325   0.568 -0.5293 -0.1279 -0.4133
  936MPD2     C13739   3.926   3.401  12.403 -0.3437  0.1260  0.0138
  936MPD2    C113740   3.958   3.414  12.533  0.2491 -0.0054  0.2683
  936MPD2    C213741   4.079   3.472  12.574  0.0612  0.8145  0.0549
  936MPD2    C313742   4.150   3.535  12.475 -0.5415  0.4336  0.0428
  936MPD2    C413743   4.111   3.528  12.342  0.0561 -0.4473 -0.0198
  936MPD2    C513744   3.989   3.472  12.308  0.2311  0.4390 -1.3432
  936MPD2     H13745   4.112   3.481  12.677 -1.4333  1.6411  0.4633
  936MPD2    H113746   4.170   3.576  12.265 -1.1891  1.5793  0.2731
  936MPD2    H213747   3.837   3.344  12.380 -1.3822  1.9625 -0.5453
  936MPD2    H313748   3.953   3.475  12.206 -2.6117 -0.2632 -0.3490
  936MPD2     N13749   4.268   3.609  12.502  0.2379 -0.0414  0.4156
  936MPD2    H513750   4.309   3.657  12.423 -0.7989  0.6066  0.2726
  936MPD2    N113751   3.886   3.357  12.638 -0.4052 -0.2604 -0.5254
  936MPD2    H713752   3.918   3.387  12.730 -0.9191 -0.1809 -0.3670
  937MPD2     C13753   1.599   0.170  11.980 -0.1734 -0.1906  0.6809
  937MPD2    C113754   1.662   0.299  12.001  0.2209  0.0637  0.5069
  937MPD2    C213755   1.768   0.331  11.920  0.0406 -0.9796 -0.4935
  937MPD2    C313756   1.828   0.241  11.833  0.6195 -0.0169  0.1686
  937MPD2    C413757   1.766   0.121  11.817 -0.3538 -0.5040  0.5905
  937MPD2    C513758   1.655   0.085  11.883 -0.1871 -0.4041 -0.5163
  937MPD2     H13759   1.805   0.433  11.931 -0.7609 -0.5548 -1.6603
  937MPD2    H113760   1.793   0.048  11.741  3.7805 -0.0437  1.6339
  937MPD2    H213761   1.512   0.138  12.036 -2.0340  1.1787 -1.4437
  937MPD2    H313762   1.603   4.732  11.861  1.6509 -1.4788 -0.4060
  937MPD2     N13763   1.939   0.281  11.760  0.0639 -0.0185  0.3198
  937MPD2    H513764   1.992   0.362  11.791 -0.2591  0.6708 -0.9315
  937MPD2    N113765   1.605   0.400  12.074 -0.5780 -0.4377 -0.1169
  937MPD2    H713766   1.649   0.490  12.064 -0.7597 -0.3666 -0.2652
  938MPD2     C13767   3.723   2.131   0.530  0.0739 -0.0006  0.0875
  938MPD2    C113768   3.822   2.056   0.568  0.4652  0.4102 -0.2290
  938MPD2    C213769   3.827   2.011   0.697  0.3373 -0.5013  0.1011
  938MPD2    C313770   3.737   2.054   0.792 -0.4603  0.0517  0.0930
  938MPD2    C413771   3.643   2.142   0.749 -0.4779 -0.5550  0.2082
  938MPD2    C513772   3.626   2.177   0.616 -0.4826 -0.4839  0.0260
  938MPD2     H13773   3.913   1.947   0.715  0.0119 -0.7090  0.8893
  938MPD2    H113774   3.559   2.172   0.809 -0.1510 -0.4109  0.5924
  938MPD2    H213775   3.710   2.168   0.429  0.8632  0.5187  0.1738
  938MPD2    H313776   3.543   2.245   0.597 -1.1578 -1.5889 -1.0173
  938MPD2     N13777   3.726   2.008   0.931  0.9717  0.0364 -0.4290
  938MPD2    H513778   3.669   2.064   0.993  0.6035 -0.7066 -0.0927
  938MPD2    N113779   3.921   2.009   0.484  0.3073  0.4093  0.0520
  938MPD2    H713780   3.992   1.954   0.530 -1.1762 -2.1292 -0.6235
  939MPD2     C13781   0.502   2.662   0.600 -0.0178  0.7411  0.4632
  939MPD2    C113782   0.433   2.654   0.484  0.0564 -0.1364 -0.1681
  939MPD2    C213783   0.477   2.570   0.383  0.1064  0.6173  0.5355
  939MPD2    C313784   0.592   2.492   0.401 -0.0208  0.3738 -0.1209
  939MPD2    C413785   0.670   2.511   0.508  0.2663  0.2048  0.0948
  939MPD2    C513786   0.624   2.593   0.609  1.4776 -0.5548 -0.3894
  939MPD2     H13787   0.421   2.543   0.294  0.5398 -1.2344  0.8296
  939MPD2    H113788   0.758   2.454   0.536 -1.3141 -1.7709  1.0949
  939MPD2    H213789   0.456   2.718   0.680  0.1507  0.0230  1.0681
  939MPD2    H313790   0.685   2.616   0.695 -0.5194 -0.4992  1.0013
  939MPD2     N13791   0.624   2.403   0.295  0.5789 -0.3668 -0.2834
  939MPD2    H513792   0.574   2.414   0.207  2.5201 -0.3633 -1.3997
  939MPD2    N113793   0.308   2.713   0.485 -0.6126  0.0663 -0.1217
  939MPD2    H713794   0.288   2.772   0.565  0.7952  0.5320 -0.1220
  940MPD2     C13795   0.143   3.282  13.737 -1.0253 -0.7651 -0.5437
  940MPD2    C113796   0.039   3.295  13.649  0.5410  1.1959 -0.3531
  940MPD2    C213797   0.060   3.279  13.509 -0.3403  0.0447  0.3219
  940MPD2    C313798   0.192   3.260  13.465 -0.1104  0.3526  0.0123
  940MPD2    C413799   0.291   3.261  13.555 -0.5022 -0.9146 -0.0775
  940MPD2    C513800   0.264   3.258  13.688  0.7779  0.1190 -0.4618
  940MPD2     H13801   4.722   3.305  13.437 -0.2524  2.6551  1.1851
  940MPD2    H113802   0.394   3.254  13.524 -0.4171  1.4113 -0.3200
  940MPD2    H213803   0.138   3.306  13.843 -0.3066 -2.7536 -0.0467
  940MPD2    H313804   0.346   3.273  13.757  1.3279 -2.1936 -0.5990
  940MPD2     N13805   0.229   3.245  13.327 -0.1548  0.8010  0.2335
  940MPD2    H513806   0.328   3.245  13.304 -0.1598 -0.9020  0.1860
  940MPD2    N113807   4.652   3.334  13.689 -0.3405 -0.5212  0.3934
  940MPD2    H713808   4.579   3.358  13.623 -0.2171 -0.9185  0.1086
  941MPD2     C13809   3.998   3.445   9.642  0.1451  0.0955 -0.1691
  941MPD2    C113810   4.066   3.414   9.754  0.2721 -0.4164  0.1913
  941MPD2    C213811   4.009   3.334   9.850  0.3301  0.4585 -0.2397
  941MPD2    C313812   3.880   3.295   9.847 -0.2912 -0.7482  0.1943
  941MPD2    C413813   3.809   3.326   9.731 -0.0575 -0.5375 -0.4246
  941MPD2    C513814   3.874   3.394   9.627 -0.3029  0.7440  0.7080
  941MPD2     H13815   4.073   3.314   9.936 -0.2622  2.3386  0.6311
  941MPD2    H113816   3.705   3.295   9.722 -0.0067 -0.9171  0.2726
  941MPD2    H213817   4.039   3.503   9.560  0.2085  0.3731  0.0564
  941MPD2    H313818   3.829   3.413   9.530  0.4212 -1.2098 -0.0014
  941MPD2     N13819   3.813   3.222   9.945  0.2055  0.1374  0.9056
  941MPD2    H513820   3.715   3.197   9.934  0.3212  0.7108 -1.6234
  941MPD2    N113821   4.206   3.438   9.769 -0.0662  0.5933  0.6859
  941MPD2    H713822   4.243   3.404   9.857  1.3476  1.8926  0.5896
  942MPD2     C13823   4.261   1.355   8.985 -0.5747 -0.2924  0.1031
  942MPD2    C113824   4.234   1.235   9.052  0.1888  0.2302 -0.6415
  942MPD2    C213825   4.298   1.121   9.008 -0.0779 -0.4573  0.2083
  942MPD2    C313826   4.403   1.121   8.918  0.3930 -0.7423 -0.6384
  942MPD2    C413827   4.425   1.245   8.849  0.0581 -0.2027 -0.1727
  942MPD2    C513828   4.354   1.355   8.883 -0.0345 -0.2670  0.0340
  942MPD2     H13829   4.289   1.031   9.067  3.4075 -1.1594 -0.3606
  942MPD2    H113830   4.494   1.248   8.766 -0.5328  1.7146 -0.5911
  942MPD2    H213831   4.210   1.451   8.991 -1.2657 -0.6965  0.6727
  942MPD2    H313832   4.388   1.446   8.835 -0.6177 -0.5596 -0.9560
  942MPD2     N13833   4.492   1.009   8.895  0.0515 -0.5847  0.3150
  942MPD2    H513834   4.568   1.024   8.830 -1.1197  2.6765 -0.2835
  942MPD2    N113835   4.141   1.217   9.159  0.3640  0.0674 -0.4406
  942MPD2    H713836   4.120   1.126   9.198 -1.2015  0.7636  0.3214
  943MPD2     C13837   3.107   3.697  10.333 -0.1619  0.1894 -0.5212
  943MPD2    C113838   3.021   3.589  10.370  0.5283 -0.3964  0.7245
  943MPD2    C213839   2.986   3.574  10.502  0.4880 -0.6563 -0.4995
  943MPD2    C313840   3.037   3.654  10.600  0.3923 -0.0640  0.5302
  943MPD2    C413841   3.125   3.746  10.568  0.4594 -0.4772  0.4927
  943MPD2    C513842   3.165   3.764  10.431  0.1553  0.1360  0.1265
  943MPD2     H13843   2.905   3.505  10.521 -0.1161  0.4789  1.0100
  943MPD2    H113844   3.159   3.805  10.652 -0.6626  1.2916 -0.2738
  943MPD2    H213845   3.140   3.706  10.230 -0.1146 -2.0051 -0.7081
  943MPD2    H313846   3.235   3.842  10.402  0.2919  0.4211  1.2087
  943MPD2     N13847   2.986   3.655  10.733  0.0276  0.1828  0.5892
  943MPD2    H513848   3.019   3.730  10.792 -1.1226 -0.2931  1.8638
  943MPD2    N113849   2.972   3.511  10.265  0.2365 -0.2391 -0.0090
  943MPD2    H713850   3.008   3.542  10.175  0.2062  0.1789  0.1210
  944MPD2     C13851   2.052   1.144  11.620 -0.0787  0.4642 -0.3507
  944MPD2    C113852   2.084   1.248  11.526  0.0671 -0.4762 -0.1181
  944MPD2    C213853   2.061   1.380  11.578  0.0895 -0.5408 -0.3403
  944MPD2    C313854   2.039   1.403  11.711  0.0867  0.2887 -0.4096
  944MPD2    C413855   2.037   1.297  11.797  1.0645 -0.3302  0.2195
  944MPD2    C513856   2.039   1.168  11.749 -0.3279  0.3760 -0.4569
  944MPD2     H13857   2.082   1.460  11.508  2.5804  0.8609  2.0163
  944MPD2    H113858   2.031   1.301  11.905  0.4113 -2.7437  0.2675
  944MPD2    H213859   2.068   1.041  11.592 -0.4156  0.7058 -1.4233
  944MPD2    H313860   2.022   1.084  11.815  2.8585 -0.0009 -0.1221
  944MPD2     N13861   2.023   1.532  11.760 -0.2510 -0.2821  0.1840
  944MPD2    H513862   2.035   1.604  11.689 -0.0274 -1.2320 -0.7511
  944MPD2    N113863   2.137   1.220  11.396 -0.3667  0.0214  0.4010
  944MPD2    H713864   2.142   1.122  11.372 -1.6505  0.1620 -0.4536
    1TMC1    C113865   4.240   2.796  15.047 -0.2672  0.2063 -0.5267
    1TMC1    C213866   4.247   2.696  15.138  0.2774  0.4635 -0.4028
    1TMC1    C313867   4.139   2.659  15.219  0.6597 -0.0668  0.5161
    1TMC1    C413868   4.129   2.870  15.039 -0.3890  0.4014  0.0700
    1TMC1    C513869   4.029   2.841  15.125 -0.1903  1.4877  0.4831
    1TMC1    C613870   4.026   2.735  15.207  0.1355  0.2783 -0.2995
    1TMC1     C13871   4.364   2.843  15.003  0.3031 -0.0312 -0.2847
    1TMC1     O13872   4.473   2.797  15.038 -0.8739 -0.5335 -0.7345
    1TMC1     H13873   4.334   2.632  15.142  0.6222  1.0038  0.7358
    1TMC1    H113874   4.115   2.965  14.988 -1.5070  0.9941  1.5035
    1TMC1    H213875   3.945   2.718  15.277 -0.5811 -0.3943 -1.2857
    1TMC1    C713876   3.909   2.922  15.114  0.0269 -0.3399  0.3185
    1TMC1    C813877   4.115   2.520  15.259 -0.1740 -0.4502 -0.2026
    1TMC1    O113878   3.904   3.044  15.117 -0.1466  0.1079 -0.6417
    1TMC1    O213879   4.058   2.442  15.183 -0.2214  0.2231  1.2166
    1TMC1    O313880   3.827   2.835  15.049  0.1678 -0.1879  0.3627
    1TMC1    H313881   3.850   2.740  15.061  1.9728  0.2373  0.3509
    1TMC1    O513882   4.145   2.512  15.389  0.7463  0.1597  0.1389
    1TMC1    H513883   4.209   2.583  15.412  1.4281 -0.1660 -0.7213
    2MPD2     C13884   4.637   3.158  14.712  0.4698 -0.2037  0.2250
    2MPD2    C113885   4.508   3.194  14.703  0.2704 -0.5828  0.0445
    2MPD2    C213886   4.417   3.116  14.767 -0.4253  0.1994  0.4045
    2MPD2    C313887   4.458   3.008  14.838  0.3626 -0.7312 -0.1896
    2MPD2    C413888   4.590   2.978  14.854  0.0322 -0.8113 -0.2368
    2MPD2    C513889   4.683   3.057  14.790 -0.1711  0.2794 -0.1396
    2MPD2     H13890   4.310   3.131  14.756 -0.3469 -0.7916 -1.6732
    2MPD2    H113891   4.630   2.892  14.906  0.3777 -0.2397  0.4395
    2MPD2    H213892   4.716   3.209  14.658  1.0730 -1.2539  0.1203
    2MPD2    H313893   0.051   3.034  14.794 -0.2596 -0.6303 -2.7976
    2MPD2     N13894   4.347   2.941  14.910  0.4475  0.0015  0.0587
    2MPD2    H513895   4.258   2.987  14.896 -0.5211 -1.4864  1.2720
    2MPD2    N113896   4.481   3.301  14.615 -0.6655  0.4013  0.7086
    2MPD2    H713897   4.566   3.332  14.569  0.1576 -1.5513  0.9117
    3TMC2    C113898   4.355   3.449  14.482  0.4454 -0.1388  0.2724
    3TMC2    C213899   4.248   3.531  14.473 -0.0045 -0.7991  0.1563
    3TMC2    C313900   4.253   3.636  14.386  0.5249 -0.1893 -0.1249
    3TMC2    C413901   4.462   3.462  14.391 -0.9560  0.5140 -0.0523
    3TMC2    C513902   4.459   3.564  14.303  0.1635  0.0264 -0.5868
    3TMC2    C613903   4.360   3.648  14.299 -0.1406 -0.7372  0.0988
    3TMC2     C13904   4.356   3.351  14.589  0.3396  0.0812  0.1812
    3TMC2     O13905   4.248   3.338  14.645 -0.2411 -0.2660  0.4691
    3TMC2     H13906   4.169   3.511  14.545 -1.4231  0.4724 -1.0527
    3TMC2    H113907   4.548   3.396  14.391 -2.4520 -1.4560  1.5353
    3TMC2    H213908   4.357   3.738  14.238 -2.0621 -0.5709  0.4407
    3TMC2    C713909   4.573   3.580  14.209 -0.5866  0.0784  0.6807
    3TMC2    C813910   4.148   3.739  14.387 -0.2137 -0.0289  0.3483
    3TMC2    O113911   4.674   3.510  14.229 -0.0616  0.3572 -0.3562
    3TMC2    O213912   4.159   3.831  14.304  0.3841 -0.0288 -0.1237
    3TMC2    O513913   4.123   3.765  14.512  0.2259 -0.5926  0.5355
    3TMC2    H513914   4.129   3.697  14.583  0.3404  0.3618  1.4430
    4TMC2    C113915   4.250   3.960  13.342  0.5602  0.3604  0.0045
    4TMC2    C213916   4.339   4.006  13.245 -0.2069  0.4669 -0.2941
    4TMC2    C313917   4.474   4.008  13.279 -0.3707  0.4385  0.2911
    4TMC2    C413918   4.283   3.935  13.471 -0.5393 -0.8081 -0.4880
    4TMC2    C513919   4.416   3.947  13.503 -0.5506  0.3756  0.1524
    4TMC2    C613920   4.512   3.970  13.406  0.0720  0.0655  0.3511
    4TMC2     C13921   4.108   3.954  13.316  0.6942 -0.2051 -0.0741
    4TMC2     O13922   4.041   3.950  13.413 -0.2099 -0.2291  0.0730
    4TMC2     H13923   4.308   4.038  13.146 -1.0110 -2.3690 -0.9452
    4TMC2    H113924   4.211   3.890  13.539 -1.8133 -0.7588 -1.8132
    4TMC2    H213925   4.618   3.975  13.430 -0.2887  2.0557  1.5198
    4TMC2    C713926   4.446   3.884  13.633  0.0070 -0.2840 -0.2369
    4TMC2    C813927   4.573   4.020  13.178 -0.0486  0.6156 -0.3885
    4TMC2    O113928   4.365   3.894  13.725 -0.5107  0.5466 -0.3133
    4TMC2    O213929   4.561   4.106  13.087 -0.0822 -0.2321  0.3449
    4TMC2    O513930   4.655   3.915  13.184  0.3011 -0.2823 -0.5091
    4TMC2    H513931   4.676   3.873  13.270 -0.9089  0.6107  0.2287
    5MPD2     C13932   3.686   3.914  13.042  0.2357  0.8795 -0.8446
    5MPD2    C113933   3.786   3.936  12.949 -0.0708  0.2391  0.5677
    5MPD2    C213934   3.918   3.928  13.004 -0.1009 -0.4944  0.7198
    5MPD2    C313935   3.939   3.917  13.140  0.3846 -0.2637  0.6042
    5MPD2    C413936   3.829   3.898  13.227 -0.1964 -0.7046 -0.1100
    5MPD2    C513937   3.707   3.903  13.176  0.0122  0.3869  0.2522
    5MPD2     H13938   4.013   3.932  12.952 -0.9541  2.0783 -0.5792
    5MPD2    H113939   3.844   3.900  13.334 -0.6075  0.7411 -0.0895
    5MPD2    H213940   3.582   3.914  13.009  0.0030 -0.2125 -0.1036
    5MPD2    H313941   3.625   3.889  13.244  0.0957 -3.5567 -0.4389
    5MPD2     N13942   4.070   3.937  13.186  0.5143 -0.0275  0.3618
    5MPD2    H513943   4.142   3.933  13.115 -0.7170 -2.8414 -0.7291
    5MPD2    N113944   3.752   3.966  12.814  0.0795 -0.0139  0.5976
    5MPD2    H713945   3.655   3.978  12.788  0.1193  0.0768  0.4934
    6MPD1     C13946   3.477   0.629  13.495 -0.0552  0.6690  0.2648
    6MPD1    C113947   3.575   0.559  13.570  1.1457  0.2410 -0.1150
    6MPD1    C213948   3.613   0.434  13.523  0.3655  0.1280  0.4974
    6MPD1    C313949   3.544   0.369  13.418  0.8746  0.8049 -0.0053
    6MPD1    C413950   3.432   0.431  13.364  0.3480  0.4784 -0.7820
    6MPD1    C513951   3.412   0.562  13.394  0.2706  0.0922 -0.2491
    6MPD1     H13952   3.701   0.385  13.563 -2.1501 -3.2982  1.7920
    6MPD1    H113953   3.382   0.389  13.278  1.8642 -0.0942 -1.3773
    6MPD1    H213954   3.449   0.732  13.510 -0.0181  0.4884  1.5107
    6MPD1    H313955   3.348   0.623  13.332  1.7212  1.2724 -0.5827
    6MPD1     N13956   3.579   0.237  13.386 -0.8215 -0.6821 -0.1558
    6MPD1    H513957   3.517   0.199  13.315  0.3134 -0.9545 -1.0059
    6MPD1    N113958   3.628   0.620  13.683  0.5311 -0.2311  0.0233
    6MPD1    H613959   3.605   0.718  13.693 -0.4873 -0.4440 -0.2305
    6MPD1    H713960   3.628   0.571  13.772 -1.8984 -0.5338 -0.1637
    7MPD2     C13961   3.238   4.514  12.944  0.1028  0.5104 -0.5339
    7MPD2    C113962   3.367   4.459  12.959 -0.1296  0.0587 -0.3574
    7MPD2    C213963   3.409   4.377  12.857 -0.4312 -0.5377  0.1279
    7MPD2    C313964   3.335   4.365  12.740  0.1919 -0.6709  0.4923
    7MPD2    C413965   3.219   4.438  12.720  0.7952  0.0032  0.8629
    7MPD2    C513966   3.169   4.502  12.829  0.5812 -0.3214 -0.1165
    7MPD2     H13967   3.510   4.342  12.874  0.2623  1.8808  1.0995
    7MPD2    H113968   3.162   4.457  12.630  1.0296  1.0884  0.9443
    7MPD2    H213969   3.196   4.578  13.021 -1.0707 -0.9483  0.0470
    7MPD2    H313970   3.071   4.550  12.831  1.1290  0.6679  2.8503
    7MPD2     N13971   3.380   4.286  12.633  0.1642 -0.1000  0.1074
    7MPD2    H513972   3.356   4.307  12.537  1.3653 -0.7283 -0.3404
    7MPD2    N113973   3.456   4.502  13.053 -0.2842 -0.4263 -0.1222
    7MPD2    H713974   3.549   4.460  13.051  0.0692  0.1479  4.5078
    8TMC3    C113975   3.569   4.153  12.566 -0.2408 -0.0017 -0.1025
    8TMC3    C213976   3.646   4.044  12.611 -0.1906  0.1523  0.2261
    8TMC3    C313977   3.787   4.059  12.601  0.1109  0.7468 -0.6984
    8TMC3    C413978   3.629   4.272  12.525 -0.6582 -0.7458  0.6866
    8TMC3    C513979   3.766   4.277  12.510  0.9115  0.2344 -0.1207
    8TMC3    C613980   3.843   4.173  12.549  0.2211  0.3795 -0.1177
    8TMC3     C13981   3.459   4.177  12.653 -0.0712  0.1043  0.1391
    8TMC3     O13982   3.466   4.114  12.760  0.2094 -0.3042 -0.4689
    8TMC3     H13983   3.602   3.947  12.634 -1.4424  0.3410 -1.3124
    8TMC3    H113984   3.573   4.357  12.487  1.9953 -0.2204 -2.0359
    8TMC3    H213985   3.949   4.193  12.566  0.2408 -0.4856  0.8035
    8TMC3    C713986   3.816   4.414  12.536 -0.8159 -0.5663 -0.4025
    8TMC3    C813987   3.849   4.013  12.722 -0.9626 -0.3570 -0.2936
    8TMC3    O113988   3.726   4.498  12.554 -0.1776  0.0796  0.1066
    8TMC3    O213989   3.972   3.999  12.731 -0.4548  0.3378  0.5840
    9TMC3    C113990   3.683   0.034  13.360  0.9007  1.0880 -0.0187
    9TMC3    C213991   3.800   4.712  13.319  0.3403 -0.5038 -0.2870
    9TMC3    C313992   3.798   4.622  13.219 -0.4380 -0.2250 -0.1581
    9TMC3    C413993   3.564   4.727  13.307  0.1389 -0.0161 -0.3236
    9TMC3    C513994   3.569   4.637  13.207  0.2729 -0.2185  0.3772
    9TMC3    C613995   3.684   4.575  13.165 -0.2962  0.0786  0.1200
    9TMC3     C13996   3.697   0.169  13.412  0.6468  0.1133 -0.2657
    9TMC3     O13997   3.806   0.205  13.457  0.4117 -0.3161 -0.0475
    9TMC3     H13998   3.893   0.021  13.350 -0.4553  0.1757  1.0480
    9TMC3    H113999   3.473   0.026  13.353  0.2565  1.1630 -1.0533
    9TMC3    H214000   3.695   4.500  13.089 -2.1558 -0.3263  0.2467
    9TMC3    C714001   3.445   4.610  13.140  0.0050  0.3302 -0.2342
    9TMC3    C814002   3.919   4.628  13.132 -0.0011  0.3825  0.7301
    9TMC3    O114003   3.351   4.683  13.176  0.0757 -0.8321  0.1592
    9TMC3    O214004   4.026   4.654  13.180  0.1078  0.1310  0.5292
   10MPD2     C14005   4.138   4.531  12.683  0.8063 -0.2543 -0.4660
   10MPD2    C114006   4.003   4.503  12.676  0.6559 -0.4347 -0.6725
   10MPD2    C214007   3.917   4.556  12.770  0.0087  0.4046 -0.5506
   10MPD2    C314008   3.970   4.611  12.889 -0.2125 -0.3457  0.2526
   10MPD2    C414009   4.108   4.634  12.898 -0.1096  0.1720  0.0188
   10MPD2    C514010   4.184   4.600  12.791 -0.0475  0.7578 -0.4719
   10MPD2     H14011   3.812   4.536  12.754 -0.0174  0.2402 -0.1560
   10MPD2    H114012   4.155   4.658  12.993 -0.3347 -1.6702  0.5982
   10MPD2    H214013   4.201   4.501  12.601 -0.4240  0.3817 -1.6387
   10MPD2    H314014   4.291   4.605  12.806 -0.0838  1.5286 -0.4892
   10MPD2     N14015   3.883   4.615  13.002 -0.7557  0.4426 -0.0509
   10MPD2    H514016   3.787   4.589  12.982 -0.5639 -1.0000  0.9488
   10MPD2    N114017   3.951   4.428  12.563  0.0827 -0.3988  0.3102
   10MPD2    H714018   4.012   4.358  12.522  2.1394  1.7977 -0.3204
   11MPD2     C14019   4.737   3.610  13.958  0.9329  0.5030 -0.2713
   11MPD2    C114020   4.620   3.684  13.985 -0.0815 -0.8576  0.5332
   11MPD2    C214021   4.561   3.747  13.878 -0.1828 -0.6547  0.1839
   11MPD2    C314022   4.625   3.756  13.752 -0.4409  0.0270 -0.9133
   11MPD2    C414023   0.010   3.697  13.734 -0.3250  0.2521  0.0760
   11MPD2    C514024   0.068   3.634  13.833  0.5094 -0.1796  0.4175
   11MPD2     H14025   4.473   3.804  13.906 -0.9219 -0.6813 -2.0979
   11MPD2    H114026   0.068   3.719  13.645 -1.7965  1.0232 -0.7071
   11MPD2    H214027   0.050   3.552  14.033  0.5760  0.9100  0.2841
   11MPD2    H314028   0.169   3.601  13.807 -0.2337  0.6258 -3.5460
   11MPD2     N14029   4.568   3.817  13.637  0.1144  0.1195 -0.0108
   11MPD2    H514030   4.623   3.815  13.551  1.5278 -0.5110  0.9153
   11MPD2    N114031   4.552   3.677  14.108 -0.0877  0.2575 -0.1695
   11MPD2    H714032   4.465   3.730  14.111  0.4786  1.2472 -1.1511
    1MPD1     C14033   2.645   0.636  17.176  0.5047 -0.5555  0.3885
    1MPD1    C114034   2.703   0.515  17.204  0.5340  0.3289  0.0166
    1MPD1    C214035   2.800   0.463  17.112 -0.1894  0.5222 -0.5097
    1MPD1    C314036   2.837   0.544  16.999 -0.3375  0.4886 -1.0062
    1MPD1    C414037   2.758   0.656  16.963  0.7594  0.1252 -0.3120
    1MPD1    C514038   2.666   0.695  17.051 -0.2617  0.1298 -0.3434
    1MPD1     H14039   2.870   0.384  17.137  0.8622  0.8690 -2.3671
    1MPD1    H114040   2.779   0.708  16.870  2.4792  1.1775  0.6794
    1MPD1    H214041   2.572   0.679  17.244 -1.9951 -0.4525 -2.3804
    1MPD1    H314042   2.617   0.787  17.024  0.6564  0.7004 -0.0819
    1MPD1     N14043   2.937   0.511  16.911 -0.1403 -0.3153 -0.0317
    1MPD1    H514044   2.949   0.580  16.838 -3.6308 -0.2734 -0.5994
    1MPD1    N114045   2.692   0.457  17.336 -0.7363 -0.5219 -0.1666
    1MPD1    H614046   2.600   0.472  17.378 -0.6830  0.9953 -0.6074
    1MPD1    H714047   2.710   0.357  17.328 -0.5107 -0.4982  0.0258
    2MPD1     C14048   3.922   0.528  16.605  0.1515 -0.3337 -0.5366
    2MPD1    C114049   3.820   0.616  16.565 -0.0967 -1.0307  0.5661
    2MPD1    C214050   3.690   0.571  16.577 -0.4103  0.0153  0.4419
    2MPD1    C314051   3.653   0.455  16.634 -0.5744  0.1784 -0.7158
    2MPD1    C414052   3.751   0.374  16.682  0.2909 -0.0009 -0.6048
    2MPD1    C514053   3.879   0.412  16.668  0.7471  0.2396 -0.2693
    2MPD1     H14054   3.612   0.637  16.540 -0.6701  0.0421  1.0410
    2MPD1    H114055   3.729   0.277  16.725  1.9147  0.4056  1.1317
    2MPD1    H214056   4.026   0.549  16.585  0.8966  0.1482  3.8504
    2MPD1    H314057   3.949   0.333  16.694  1.5939  1.4636  1.1689
    2MPD1     N14058   3.522   0.416  16.636 -0.0847  0.3220  0.2915
    2MPD1    H514059   3.458   0.479  16.589 -0.8130  0.9720  2.1273
    2MPD1    N114060   3.843   0.750  16.530  0.3295  0.6093 -0.7304
    2MPD1    H614061   3.932   0.757  16.482  0.9202  0.9407  0.4426
    2MPD1    H714062   3.772   0.782  16.464 -1.8398 -1.0088  0.8321
    3TMC3    C114063   3.319   0.346  16.701  0.4918 -0.2260  0.2850
    3TMC3    C214064   3.258   0.390  16.584 -0.0437  0.2894  0.6038
    3TMC3    C314065   3.126   0.421  16.584 -0.1299 -0.3220  0.3526
    3TMC3    C414066   3.243   0.351  16.817  0.1112  0.1851  0.0018
    3TMC3    C514067   3.108   0.397  16.807 -0.1875 -0.3313  0.4479
    3TMC3    C614068   3.044   0.427  16.690  0.6793 -0.0607  0.0607
    3TMC3     C14069   3.459   0.322  16.717  0.6390 -0.3100 -0.1667
    3TMC3     O14070   3.505   0.253  16.810  0.5602 -0.2779 -0.5189
    3TMC3     H14071   3.321   0.379  16.496 -1.5380 -1.1168 -0.2788
    3TMC3    H114072   3.288   0.334  16.914 -2.4033 -0.5727  1.0511
    3TMC3    H214073   2.946   0.473  16.679 -0.3395 -1.8545  1.6081
    3TMC3    C714074   3.030   0.411  16.926 -0.2486  0.3817 -0.4315
    3TMC3    C814075   3.086   0.483  16.456 -0.3833  0.7700 -0.1691
    3TMC3    O114076   3.044   0.325  17.009 -0.1935  0.5575  0.5650
    3TMC3    O214077   3.176   0.533  16.387 -0.0077  0.3267  0.5171
    4MPD1     C14078   2.730   0.683  16.144  0.3683  0.1778 -0.1880
    4MPD1    C114079   2.665   0.607  16.238 -0.1324  0.8030 -0.3172
    4MPD1    C214080   2.737   0.563  16.346  0.0210 -0.2700 -0.9831
    4MPD1    C314081   2.874   0.549  16.337  0.7765  0.6331  0.4766
    4MPD1    C414082   2.934   0.617  16.232  0.1093 -0.1964 -0.0709
    4MPD1    C514083   2.867   0.691  16.144  0.5108  0.7077 -0.2424
    4MPD1     H14084   2.676   0.523  16.427  1.1058 -1.2540 -0.6633
    4MPD1    H114085   3.042   0.620  16.222  0.3725 -2.1182  2.0578
    4MPD1    H214086   2.680   0.761  16.088  0.6463  0.0596 -0.6050
    4MPD1    H314087   2.924   0.753  16.076  0.8054 -2.2142 -2.6498
    4MPD1     N14088   2.951   0.483  16.439 -0.0151  0.6219 -0.4549
    4MPD1    H514089   2.891   0.443  16.510 -1.4797 -1.2015 -2.7200
    4MPD1    N114090   2.528   0.605  16.237 -1.2694  0.3101  0.3516
    4MPD1    H614091   2.484   0.529  16.288 -1.7871  0.1345 -0.3553
    4MPD1    H714092   2.487   0.605  16.143  1.0896 -1.4159 -0.6559
    1TCq1    O114093   4.083   0.628  11.067  0.2548 -0.1620 -0.0478
    1TCq1    C114094   3.973   0.661  10.996  0.3157  0.1251 -0.0706
    1TCq1    O214095   3.944   0.782  10.984  0.1267 -0.1834  0.1812
    1TCq1    C214096   3.983   0.566  10.890 -0.1448 -0.7014 -0.1731
    1TCq1    C314097   3.994   0.432  10.926  1.0063 -0.0173 -0.2443
    1TCq1    C414098   4.043   0.340  10.837 -0.6271 -0.2048 -0.7092
    1TCq1    C514099   4.107   0.389  10.727 -1.0156 -0.5401 -0.2279
    1TCq1    C614100   4.102   0.524  10.691  0.2090 -0.6323  0.0600
    1TCq1    C714101   4.041   0.615  10.773 -0.4713 -0.2475  0.0904
    1TCq1    C814102   4.180   0.581  10.587  0.7401  0.1861  0.2482
    1TCq1    O414103   4.139   0.679  10.521 -0.4207 -0.1644 -0.1507
    1TCq1    C914104   4.074   0.204  10.875  0.0858 -0.3990 -0.3486
    1TCq1    O514105   4.017   0.164  10.976  1.0048 -0.0813 -0.1241
    1TCq1    O614106   4.127   0.132  10.787 -0.3860  0.3672 -0.1360
    1TCq1    H114107   4.118   0.537  11.057 -2.2812 -1.1189 -0.2266
    1TCq1    H214108   3.943   0.393  11.013  0.3029  0.8759 -0.2605
    1TCq1    H314109   4.150   0.315  10.660 -0.8566  1.1180 -1.9521
    1TCq1    H414110   4.027   0.716  10.735 -1.3191 -0.9791 -1.5290
    2MPD1     C14111   4.606   0.569  10.286 -0.0708 -0.1928 -0.0277
    2MPD1    C114112   4.605   0.466  10.374  0.2099 -0.1706 -0.1017
    2MPD1    C214113   4.493   0.441  10.452  0.4888  0.6890  0.4083
    2MPD1    C314114   4.392   0.531  10.474 -0.0724  0.4094 -0.8019
    2MPD1    C414115   4.402   0.649  10.396 -0.2827  0.4422  0.5622
    2MPD1    C514116   4.503   0.656  10.297  0.0515 -0.1357  0.5097
    2MPD1     H14117   4.479   0.342  10.492 -2.1321  1.6768  1.9445
    2MPD1    H114118   4.322   0.722  10.399 -0.1356  0.6818 -1.8473
    2MPD1    H214119   4.686   0.578  10.214  0.2678 -0.0421  0.3688
    2MPD1    H314120   4.505   0.737  10.226  1.5431 -1.2199 -0.6819
    2MPD1     N14121   4.283   0.497  10.557  0.4378 -0.6070  0.2044
    2MPD1    H514122   4.291   0.404  10.598 -2.6857 -0.7928  0.3423
    2MPD1    N114123   4.705   0.371  10.357  0.1367  0.1462 -0.4558
    2MPD1    H614124   4.702   0.292  10.421 -2.0722 -0.6289 -1.4919
    2MPD1    H714125   0.062   0.399  10.336  0.2545  0.3175  0.3130
    1TMC1    C114126   4.213   0.991   0.824  0.1064  0.3302 -0.0353
    1TMC1    C214127   4.119   1.000   0.924 -0.2152 -0.1454  0.6786
    1TMC1    C314128   3.987   1.010   0.887  0.1142  0.1409 -0.4595
    1TMC1    C414129   4.181   0.954   0.696 -0.7715  0.7007 -1.0200
    1TMC1    C514130   4.049   0.957   0.664 -0.3647 -0.0768  0.3095
    1TMC1    C614131   3.948   0.992   0.758 -0.4937  0.1422  0.0779
    1TMC1     C14132   4.356   0.995   0.863 -0.7924  0.1738 -0.3434
    1TMC1     O14133   4.430   0.913   0.810 -0.3011 -0.2173  0.1010
    1TMC1     H14134   4.137   1.005   1.031  0.7754  2.4262  0.3850
    1TMC1    H114135   4.259   0.936   0.623  1.6677  0.5826  1.6122
    1TMC1    H214136   3.846   0.989   0.720 -0.5336  1.7731  0.0523
    1TMC1    C714137   4.003   0.950   0.525 -0.0115 -0.2821 -1.3672
    1TMC1    C814138   3.894   1.023   0.994 -0.3396 -0.1458  0.2165
    1TMC1    O114139   3.890   0.958   0.485 -0.4063  0.1436  0.0357
    1TMC1    O214140   3.920   1.004   1.111 -0.2410  0.6933  0.3926
    1TMC1    O314141   4.110   0.926   0.446  0.2549  0.0658 -0.0401
    1TMC1    H314142   4.197   0.954   0.483  0.8109  1.0333 -2.0932
    1TMC1    O514143   3.766   1.035   0.945  0.2270 -0.5048  0.2212
    1TMC1    H514144   3.749   1.083   0.861 -0.3618  0.8476  1.1043
    2MPD1     C14145   4.681   1.093   1.273 -0.2809  0.3837  0.1819
    2MPD1    C114146   4.568   1.171   1.274  0.3588  0.0950 -0.8335
    2MPD1    C214147   4.477   1.168   1.171 -0.0692 -0.4066 -0.1049
    2MPD1    C314148   4.482   1.076   1.063 -0.2452  0.3606  0.0717
    2MPD1    C414149   4.599   0.996   1.064 -0.1575 -0.1685  0.0787
    2MPD1    C514150   4.693   1.007   1.165  0.4694  0.3575  0.3690
    2MPD1     H14151   4.391   1.232   1.187  2.2442  2.6548  0.1073
    2MPD1    H114152   4.618   0.930   0.981 -2.4788  1.5699 -1.8240
    2MPD1    H214153   0.023   1.113   1.342  0.9199 -1.4189 -0.7025
    2MPD1    H314154   0.041   0.942   1.159 -0.0362 -0.4930  2.2701
    2MPD1     N14155   4.369   1.060   0.980  0.1293 -0.0686  0.4961
    2MPD1    H514156   4.294   1.123   1.007 -1.0427 -0.5948 -1.4974
    2MPD1    N114157   4.565   1.280   1.369  0.5496 -0.1693 -0.4517
    2MPD1    H614158   4.475   1.327   1.373  0.6248 -0.1652  1.2212
    2MPD1    H714159   4.596   1.252   1.462  0.1009  0.9298  0.0288
    1MPD1     C14160   0.090   4.248  12.524 -0.1872  0.8472 -0.3564
    1MPD1    C114161   0.208   4.171  12.538  0.0927 -0.0033 -0.2085
    1MPD1    C214162   0.327   4.240  12.530  0.5097 -0.3492  0.3254
    1MPD1    C314163   0.340   4.375  12.503 -0.0973  0.1353 -0.1265
    1MPD1    C414164   0.223   4.447  12.520 -0.1045  0.0360 -0.0217
    1MPD1    C514165   0.102   4.382  12.519  0.2393  0.1347  0.3676
    1MPD1     H14166   0.416   4.178  12.538 -1.4469 -2.9167  2.1799
    1MPD1    H114167   0.220   4.553  12.498 -0.8044 -0.4290 -2.2275
    1MPD1    H214168   4.733   4.196  12.521 -0.0591  0.4691  1.9164
    1MPD1    H314169   0.015   4.446  12.503  1.1471  1.4073  0.5332
    1MPD1     N14170   0.469   4.434  12.495  0.1383 -0.0078 -0.1814
    1MPD1    H514171   0.544   4.366  12.507 -0.4533 -0.7822 -0.8179
    1MPD1    N114172   0.198   4.036  12.539  0.2909  0.1028 -0.1851
    1MPD1    H614173   0.275   3.993  12.589  0.2654 -1.2640 -1.2873
    1MPD1    H714174   0.115   4.008  12.590  0.0481  1.5230  0.1681
    2MPD1     C14175   0.142   1.025  11.810  1.1233 -0.3794  0.5696
    2MPD1    C114176   0.144   1.095  11.684 -0.0694  0.3201  0.3785
    2MPD1    C214177   0.195   1.031  11.570 -0.0582 -0.5227 -0.1991
    2MPD1    C314178   0.240   0.899  11.584 -0.1296  0.7971 -0.4095
    2MPD1    C414179   0.216   0.836  11.702  0.5096  0.1133  0.6555
    2MPD1    C514180   0.167   0.894  11.815 -0.6212 -0.4483 -0.2538
    2MPD1     H14181   0.207   1.092  11.481  1.4905  1.7938  1.6046
    2MPD1    H114182   0.244   0.731  11.707 -0.1960  0.0013  2.3923
    2MPD1    H214183   0.113   1.074  11.901 -0.5651 -0.0215 -0.1507
    2MPD1    H314184   0.149   0.844  11.910  2.4497 -0.5985  0.2322
    2MPD1     N14185   0.303   0.822  11.481  0.1315 -0.6040  0.6449
    2MPD1    H514186   0.332   0.726  11.497  0.3014 -1.4655 -4.6101
    2MPD1    N114187   0.104   1.232  11.688 -0.0271 -0.0734 -0.2148
    2MPD1    H614188   0.182   1.293  11.709  1.5400 -1.4713 -1.9060
    2MPD1    H714189   0.074   1.272  11.599 -1.7670 -0.7130  0.0853
    3MPD1     C14190   0.616   0.718  10.434 -0.0498  0.0489  0.2266
    3MPD1    C114191   0.614   0.829  10.511 -0.3799  0.3320  0.7440
    3MPD1    C214192   0.578   0.809  10.646 -0.0481  0.2446 -0.0217
    3MPD1    C314193   0.529   0.685  10.687  0.2184  0.3903 -0.0648
    3MPD1    C414194   0.524   0.577  10.600  0.8758  0.7071  0.7332
    3MPD1    C514195   0.579   0.596  10.478 -0.1562  0.0009 -0.1940
    3MPD1     H14196   0.593   0.887  10.720 -0.1351  1.4027 -1.2400
    3MPD1    H114197   0.489   0.477  10.622 -1.3445  0.8829 -2.1031
    3MPD1    H214198   0.664   0.723  10.337  1.6507  1.2277  1.1394
    3MPD1    H314199   0.586   0.514  10.408  0.5674 -2.1327  2.3694
    3MPD1     N14200   0.487   0.668  10.816 -0.2566  0.2961 -0.2241
    3MPD1    H514201   0.471   0.572  10.847 -0.5111  0.2713 -0.4260
    3MPD1    N114202   0.682   0.945  10.472 -0.2701  0.4850  0.4201
    3MPD1    H614203   0.668   0.950  10.371  0.1504 -3.3474  0.1878
    3MPD1    H714204   0.642   1.027  10.516 -3.2773 -0.7109 -0.1123
    4MPD2     C14205   0.871   0.427  12.373 -0.5245 -0.0617 -0.4953
    4MPD2    C114206   0.939   0.305  12.359  0.1444 -0.4852  0.0859
    4MPD2    C214207   1.033   0.292  12.259  0.0309  0.5703  0.1104
    4MPD2    C314208   1.063   0.401  12.180  0.5457 -0.6700 -0.3610
    4MPD2    C414209   1.007   0.525  12.201 -0.2170 -0.4483  0.8107
    4MPD2    C514210   0.916   0.539  12.301 -0.0333 -0.5167  0.3887
    4MPD2     H14211   1.086   0.199  12.241 -0.8590  0.2089 -0.6081
    4MPD2    H114212   1.046   0.613  12.151  1.3985 -0.7414  1.5335
    4MPD2    H214213   0.796   0.443  12.448 -0.5647 -1.8205 -0.1628
    4MPD2    H314214   0.876   0.637  12.322  0.7293 -0.0508 -0.3465
    4MPD2     N14215   1.143   0.355  12.067  0.4366 -0.6316  0.1659
    4MPD2    H514216   1.179   0.260  12.070 -1.0006 -1.0983  2.5893
    4MPD2    N114217   0.901   0.197  12.450  0.1125  0.3460 -0.7095
    4MPD2    H714218   0.955   0.113  12.429  0.7338  0.7971 -0.9409
    5TMC3    C114219   0.770   0.055  12.570 -0.7773  0.6521  0.1025
    5TMC3    C214220   0.646   0.011  12.543  0.0209  0.1349  0.1411
    5TMC3    C314221   0.630   4.615  12.510 -0.5068  0.0580  0.1955
    5TMC3    C414222   0.872   4.698  12.575 -0.5700 -0.2169 -1.0946
    5TMC3    C514223   0.853   4.575  12.519  0.1951  0.0950  0.1698
    5TMC3    C614224   0.730   4.528  12.499  0.0266  0.1676  0.3366
    5TMC3     C14225   0.802   0.189  12.543 -1.2145 -0.2101  0.2437
    5TMC3     O14226   0.713   0.267  12.575 -0.9393 -0.1320 -0.3214
    5TMC3     H14227   0.564   0.081  12.538  0.3524  0.5153 -0.0564
    5TMC3    H114228   0.971   4.734  12.602 -0.6187 -1.0135  0.1428
    5TMC3    H214229   0.724   4.426  12.462  1.3917  0.2828 -0.1764
    5TMC3    C714230   0.945   4.565  12.406 -0.2366 -0.8928  0.2800
    5TMC3    C814231   0.495   4.572  12.482  0.0281  0.1242  0.1336
    5TMC3    O114232   1.005   4.666  12.377 -0.2829 -0.2541  0.7324
    5TMC3    O214233   0.419   4.664  12.459 -0.0706 -0.2015 -0.1606
    6TMC3    C114234   0.387   0.782  11.261  0.0316  0.3183 -0.2358
    6TMC3    C214235   0.378   0.803  11.129  1.4494 -0.3946  0.1481
    6TMC3    C314236   0.445   0.729  11.042  0.4672 -0.1850 -0.1040
    6TMC3    C414237   0.472   0.677  11.302 -0.5243  0.7722  1.0087
    6TMC3    C514238   0.545   0.614  11.208 -0.6683 -0.2098 -0.4908
    6TMC3    C614239   0.533   0.629  11.072  0.2075 -0.5916  0.4397
    6TMC3     C14240   0.335   0.881  11.356  0.4803 -0.5541  0.3215
    6TMC3     O14241   0.334   0.998  11.319  0.5421  0.2986  0.2252
    6TMC3     H14242   0.322   0.886  11.088 -0.1503 -0.4558  2.1969
    6TMC3    H114243   0.501   0.666  11.406  1.2103 -0.4279  0.4000
    6TMC3    H214244   0.594   0.573  11.002  0.4038  0.2464 -0.0641
    6TMC3    C714245   0.659   0.537  11.258  0.2270 -0.4007 -0.0940
    6TMC3    C814246   0.446   0.772  10.899  0.6175  0.0616  0.8054
    6TMC3    O114247   0.652   0.489  11.371  0.0868 -0.4904 -0.5696
    6TMC3    O214248   0.433   0.892  10.875 -0.1593 -0.9217  0.2855
    7MPD2     C14249   1.056   4.399  11.930  0.5725 -0.0910 -0.0945
    7MPD2    C114250   1.065   4.531  11.980 -0.0915  0.7649 -0.2158
    7MPD2    C214251   1.013   4.554  12.110 -0.2829  0.0104  0.0566
    7MPD2    C314252   0.968   4.449  12.191  0.3051  0.2082  0.2166
    7MPD2    C414253   0.977   4.322  12.141  0.1912  0.2003 -0.5363
    7MPD2    C514254   1.027   4.297  12.017  0.1558 -0.7297 -0.2354
    7MPD2     H14255   1.001   4.657  12.143  2.3671  1.4223 -3.4333
    7MPD2    H114256   0.964   4.236  12.205 -0.0593  0.2096 -0.5746
    7MPD2    H214257   1.099   4.378  11.832 -0.0679  1.9581 -0.8010
    7MPD2    H314258   1.038   4.193  11.990  0.5920 -1.0065  1.0008
    7MPD2     N14259   0.923   4.458  12.330  0.3956 -0.6036  0.0212
    7MPD2    H514260   0.891   4.370  12.369 -1.2281 -0.3920 -0.8513
    7MPD2    N114261   1.123   4.630  11.900  0.3774 -0.4017 -0.0419
    7MPD2    H714262   1.132   4.613  11.800 -1.1065 -0.8489 -0.1092
    8TMC3    C114263   1.200   0.108  11.849 -0.6330 -0.3847 -0.1881
    8TMC3    C214264   1.135   0.125  11.730 -0.6425  0.6043  0.5879
    8TMC3    C314265   1.148   0.243  11.660  0.1030  0.2623 -0.3216
    8TMC3    C414266   1.268   0.215  11.904  0.7612  0.3104  0.2760
    8TMC3    C514267   1.238   0.336  11.851  0.6867  0.4897 -0.0206
    8TMC3    C614268   1.194   0.354  11.726 -0.0061  0.1784  0.1196
    8TMC3     C14269   1.155   0.018  11.951  0.6666  0.2986  0.1424
    8TMC3     O14270   1.173   0.060  12.065 -0.5513  0.1932  0.0335
    8TMC3     H14271   1.066   0.050  11.693 -0.3940  0.4981  0.3478
    8TMC3    H114272   1.328   0.218  11.994  2.1622  0.6913 -0.6661
    8TMC3    H214273   1.167   0.456  11.699 -0.3054 -0.5559 -2.3268
    8TMC3    C714274   1.156   0.420  11.946 -0.0260  0.4527  0.0807
    8TMC3    C814275   1.063   0.270  11.545 -0.1919 -0.2463 -0.5902
    8TMC3    O114276   1.111   0.530  11.905 -0.5690 -0.4707 -0.8000
    8TMC3    O214277   0.948   0.231  11.543 -0.6270  0.4384 -0.7970
    9MPD2     C14278   1.171   0.466  11.250  0.6029  0.6711  0.0411
    9MPD2    C114279   1.077   0.408  11.338  0.3805  0.6593  0.4889
    9MPD2    C214280   0.940   0.424  11.313  0.3515  0.1445 -0.6508
    9MPD2    C314281   0.899   0.496  11.199  0.2038  0.4855 -0.4766
    9MPD2    C414282   0.989   0.536  11.110 -0.1347  0.3297  0.4893
    9MPD2    C514283   1.130   0.522  11.136  0.5876 -0.3321  0.2346
    9MPD2     H14284   0.870   0.386  11.387 -0.9503 -1.7440 -2.8302
    9MPD2    H114285   0.954   0.598  11.028 -0.6933 -0.5460  0.0677
    9MPD2    H214286   1.278   0.466  11.270  0.8024  0.3664 -0.9910
    9MPD2    H314287   1.210   0.570  11.081  0.2652  1.2360  1.1608
    9MPD2     N14288   0.766   0.538  11.169  0.3033  0.2652  0.1916
    9MPD2    H514289   0.750   0.576  11.077  0.5442  0.2030  0.1234
    9MPD2    N114290   1.132   0.348  11.450 -0.5016 -0.5279  0.8569
    9MPD2    H714291   1.232   0.354  11.466 -0.7443  2.6431  1.0547
    1MPD1     C14292   4.147   2.895  15.476 -0.1723  0.5279 -0.1247
    1MPD1    C114293   4.275   2.835  15.478  0.4712  0.5050  0.9807
    1MPD1    C214294   4.373   2.905  15.411  0.5774 -0.4085 -0.5595
    1MPD1    C314295   4.352   3.028  15.348  0.5238  0.2142 -0.3825
    1MPD1    C414296   4.233   3.090  15.374  0.2342 -0.2524 -0.3120
    1MPD1    C514297   4.130   3.023  15.432 -0.1030  0.4369 -0.2851
    1MPD1     H14298   4.474   2.866  15.412  0.1501 -1.4982 -0.2377
    1MPD1    H114299   4.218   3.191  15.337 -1.0548  0.6071  2.5916
    1MPD1    H214300   4.058   2.843  15.508  0.6807 -0.8239  0.0359
    1MPD1    H314301   4.031   3.067  15.435  0.1903  1.0316  0.5393
    1MPD1     N14302   4.446   3.105  15.283 -0.1089 -0.3170  0.2533
    1MPD1    H514303   4.416   3.201  15.266  1.5215  0.1000 -0.3602
    1MPD1    N114304   4.300   2.700  15.515  0.3018 -0.0563  0.5158
    1MPD1    H614305   4.397   2.693  15.548  1.0513 -0.0476 -1.7124
    1MPD1    H714306   4.237   2.670  15.589 -1.2447  1.9235 -0.0046
    2TMC2    C114307   4.654   3.325  14.999 -0.1083 -0.5930 -0.0429
    2TMC2    C214308   0.054   3.338  15.025  0.1298 -0.4224 -0.1934
    2TMC2    C314309   0.113   3.245  15.103 -0.6766 -0.9970  0.3937
    2TMC2    C414310   4.583   3.229  15.072  0.0589 -0.1979 -0.8938
    2TMC2    C514311   4.646   3.156  15.171 -0.0396 -0.0850  0.8970
    2TMC2    C614312   0.046   3.150  15.170  1.0068  0.1500  0.6313
    2TMC2     C14313   4.587   3.425  14.925 -0.2931  0.2706  0.2993
    2TMC2     O14314   4.471   3.440  14.945 -0.0349 -0.0433 -0.7624
    2TMC2     H14315   0.115   3.412  14.974 -0.5636 -0.4508 -1.0610
    2TMC2    H114316   4.475   3.231  15.068  0.1244 -0.4736 -3.1311
    2TMC2    H214317   0.107   3.091  15.238  1.1187  1.1538  1.3963
    2TMC2    C714318   4.573   3.060  15.251 -0.3204  0.6041 -0.1312
    2TMC2    C814319   0.256   3.252  15.116 -0.2204 -0.2168  0.0234
    2TMC2    O114320   4.639   2.974  15.299  0.1603  0.8155  0.2092
    2TMC2    O214321   0.335   3.264  15.020  0.0418 -0.7504 -0.7431
    2TMC2    O514322   0.294   3.233  15.244 -0.4383  1.1099  0.1020
    2TMC2    H514323   0.220   3.254  15.305 -0.2679 -0.6833  0.9370
    3MPD1     C14324   4.586   3.811  14.574  0.2601  0.1766 -0.0075
    3MPD1    C114325   4.705   3.746  14.573  0.8831  0.0662 -0.7206
    3MPD1    C214326   4.723   3.641  14.660 -0.5165 -0.1464  0.1967
    3MPD1    C314327   4.626   3.595  14.744  0.0533  0.6451 -0.6931
    3MPD1    C414328   4.506   3.656  14.740  0.2721 -0.4062 -0.0087
    3MPD1    C514329   4.492   3.764  14.661 -0.2852 -0.2593  0.8701
    3MPD1     H14330   0.084   3.600  14.672 -0.2937  1.3241  3.0892
    3MPD1    H114331   4.420   3.625  14.798 -0.0451  0.5483  0.0223
    3MPD1    H214332   4.559   3.881  14.496  0.2886  0.5026  0.2777
    3MPD1    H314333   4.392   3.805  14.651  0.8714  1.8516 -2.0824
    3MPD1     N14334   4.663   3.487  14.832  0.3383  0.5604 -0.5464
    3MPD1    H514335   0.024   3.466  14.833  0.6164  1.9000 -0.0495
    3MPD1    N114336   0.073   3.799  14.498  0.4280  0.3891  1.0242
    3MPD1    H614337   0.150   3.733  14.489 -2.0236 -2.1023 -1.9973
    3MPD1    H714338   0.057   3.836  14.405  1.0857  2.3091  1.6827
    1TMC1    C114339   3.445   2.811  12.724  0.0467  0.2755 -0.0994
    1TMC1    C214340   3.426   2.719  12.825 -0.0936 -0.3154 -0.5187
    1TMC1    C314341   3.325   2.627  12.811  0.5439  0.5017  1.0869
    1TMC1    C414342   3.370   2.813  12.616  0.2935  0.9810 -0.0375
    1TMC1    C514343   3.265   2.719  12.605 -0.4456 -0.7867  0.5003
    1TMC1    C614344   3.250   2.619  12.695  0.4158  0.4091 -0.8240
    1TMC1     C14345   3.571   2.879  12.714  0.5568 -0.6319  0.1696
    1TMC1     O14346   3.577   2.957  12.617  0.2671 -0.0723 -0.0759
    1TMC1     H14347   3.468   2.735  12.924 -0.4541 -0.5144 -0.3356
    1TMC1    H114348   3.393   2.872  12.528  0.6589  1.8728  0.6474
    1TMC1    H214349   3.170   2.547  12.680  0.4144  0.4102 -0.8215
    1TMC1    C714350   3.198   2.707  12.473  0.3929 -0.8149 -0.1294
    1TMC1    C814351   3.291   2.552  12.922  0.4657 -0.4124 -0.7008
    1TMC1    O114352   3.145   2.607  12.428 -0.1063  0.2925 -0.2760
    1TMC1    O214353   3.379   2.513  12.997  0.0903  0.1605  0.1453
    1TMC1    O314354   3.164   2.838  12.438 -0.3983  0.2873 -0.3417
    1TMC1    H314355   3.202   2.905  12.498  1.4512  1.5807 -2.9581
    1TMC1    O514356   3.166   2.579  12.950 -0.8465 -0.2395  0.2750
    1TMC1    H514357   3.127   2.639  12.883 -1.0388  0.3145  0.8840
    2MPD2     C14358   3.858   2.952  12.705  0.2124 -0.3778  0.9230
    2MPD2    C114359   3.800   2.876  12.806 -0.6838  0.4428  0.2704
    2MPD2    C214360   3.883   2.828  12.913  0.0137  0.2143  0.0001
    2MPD2    C314361   4.017   2.865  12.921 -0.0812 -0.0045 -0.1983
    2MPD2    C414362   4.073   2.929  12.812  0.0197 -0.1806 -0.1455
    2MPD2    C514363   3.992   2.973  12.713 -0.0710 -0.5219  0.1658
    2MPD2     H14364   3.820   2.785  12.990 -1.0195 -0.1609 -1.0398
    2MPD2    H114365   4.179   2.952  12.806  0.2752 -0.6243  2.6658
    2MPD2    H214366   3.803   3.002  12.626 -2.7501 -0.0927  3.1220
    2MPD2    H314367   4.035   3.033  12.634 -0.4039 -0.1800  0.2500
    2MPD2     N14368   4.085   2.823  13.032 -0.2990 -0.9291  0.0616
    2MPD2    H514369   4.028   2.791  13.110 -2.0885  1.2866 -0.3306
    2MPD2    N114370   3.665   2.837  12.805  0.7064 -0.7610  0.2235
    2MPD2    H714371   3.640   2.772  12.878 -0.5983 -0.6211 -0.1128
    3TCq1    O114372   4.595   2.750  13.372 -0.0531  0.6009  0.3510
    3TCq1    C114373   4.502   2.679  13.434 -0.0626 -0.2515 -0.0380
    3TCq1    O214374   4.515   2.597  13.523 -0.1089 -0.4065  0.1709
    3TCq1    C214375   4.373   2.709  13.376  0.7238  0.0037 -0.5492
    3TCq1    C314376   4.268   2.714  13.464 -0.1795 -0.3311  0.3526
    3TCq1    C414377   4.154   2.773  13.414  0.4653  0.2389 -0.4390
    3TCq1    C514378   4.146   2.833  13.292  0.9733  0.1037  0.8770
    3TCq1    C614379   4.248   2.819  13.203 -0.4630  0.1475  0.9619
    3TCq1    C714380   4.367   2.762  13.248 -0.3825  1.4080 -0.2316
    3TCq1    C814381   4.218   2.832  13.057  0.0727  0.6615 -0.5159
    3TCq1    O414382   4.317   2.847  12.981  0.2109  0.2040  0.4912
    3TCq1    C914383   4.042   2.782  13.510  0.3790 -0.3787  0.2257
    3TCq1    O514384   3.942   2.840  13.465 -0.1891 -0.4066  0.0436
    3TCq1    O614385   4.051   2.711  13.611 -0.8608 -0.8484  0.0665
    3TCq1    H114386   4.554   2.807  13.304 -0.2789 -1.9683 -1.6657
    3TCq1    H214387   4.277   2.683  13.567  2.3564 -0.6928  0.0242
    3TCq1    H314388   4.061   2.895  13.268  0.7371 -0.2340  0.8411
    3TCq1    H414389   4.447   2.749  13.176  1.7143  0.9051  2.1932
    1MPD2     C14390   2.759   3.715  15.340  0.3909  0.0919 -0.1125
    1MPD2    C114391   2.668   3.624  15.392  0.5050 -0.1262  0.8862
    1MPD2    C214392   2.696   3.493  15.379  0.2164 -0.4178  0.4323
    1MPD2    C314393   2.818   3.451  15.331  0.3079 -0.3226  1.1827
    1MPD2    C414394   2.913   3.542  15.285 -0.1782 -0.6771 -0.0881
    1MPD2    C514395   2.879   3.675  15.286  0.1969  0.2719 -0.3113
    1MPD2     H14396   2.623   3.425  15.419  0.1449  0.6741  2.1734
    1MPD2    H114397   3.013   3.517  15.251 -0.4569  1.9800 -2.9049
    1MPD2    H214398   2.745   3.822  15.342  2.5651  0.3604  0.4659
    1MPD2    H314399   2.959   3.747  15.271  2.0652 -2.2052 -2.2364
    1MPD2     N14400   2.846   3.317  15.329 -0.3003  0.3546 -0.1759
    1MPD2    H514401   2.938   3.290  15.297  0.1234  1.5878 -0.0087
    1MPD2    N114402   2.550   3.677  15.452 -0.1764  0.1160  0.1714
    1MPD2    H714403   2.531   3.776  15.439  0.8393  0.4484  1.2616
    2TMC3    C114404   2.311   3.675  15.500 -0.6649  0.1656  0.0077
    2TMC3    C214405   2.215   3.599  15.558  0.1042 -0.1557  0.4310
    2TMC3    C314406   2.095   3.594  15.490 -0.3801 -0.0045  0.2204
    2TMC3    C414407   2.282   3.764  15.401  0.1891 -0.2070  0.0063
    2TMC3    C514408   2.154   3.782  15.357 -0.3397 -0.0904 -0.0165
    2TMC3    C614409   2.061   3.682  15.392 -0.1857 -0.6480  0.0638
    2TMC3     C14410   2.438   3.604  15.498  0.1206  0.5254  0.0304
    2TMC3     O14411   2.433   3.484  15.517 -0.0343 -0.1146  0.7709
    2TMC3     H14412   2.239   3.531  15.638  0.1264 -0.3034  0.2987
    2TMC3    H114413   2.363   3.818  15.353 -0.0622  1.9627  2.0232
    2TMC3    H214414   1.962   3.674  15.347  0.3791 -1.0898 -1.1024
    2TMC3    C714415   2.130   3.870  15.242 -0.0374 -0.2096  1.0403
    2TMC3    C814416   2.066   3.458  15.460 -0.4373  0.5924 -0.5398
    2TMC3    O114417   2.019   3.854  15.183  0.1914  0.3895 -0.2511
    2TMC3    O214418   1.957   3.443  15.408 -0.5336  0.0529  0.0359
    3TCq1    O114419   2.897   0.136  15.025 -0.0360  0.3563  0.2840
    3TCq1    C114420   2.783   0.079  15.001  0.2429 -0.1433  0.1221
    3TCq1    O214421   2.707   0.131  14.920  0.3084 -0.2925  0.0387
    3TCq1    C214422   2.771   4.691  15.073 -0.9097 -0.6719 -0.6491
    3TCq1    C314423   2.875   4.610  15.093  0.0050 -0.2424  0.1807
    3TCq1    C414424   2.868   4.473  15.092  0.2880  0.2490 -0.4055
    3TCq1    C514425   2.753   4.408  15.062 -0.2121  0.2000 -0.4114
    3TCq1    C614426   2.641   4.492  15.046 -0.9383  0.4450 -0.7153
    3TCq1    C714427   2.647   4.629  15.047 -0.2122 -0.0006 -0.4598
    3TCq1    C814428   2.517   4.432  14.995 -0.3979 -0.0978 -0.7705
    3TCq1    O414429   2.457   4.501  14.916  0.3394 -0.2101 -0.0817
    3TCq1    C914430   2.992   4.400  15.092  0.1539 -0.0535  0.1042
    3TCq1    O514431   2.988   4.276  15.125  0.4365  0.7226 -0.1583
    3TCq1    O614432   3.082   4.460  15.031 -0.7109 -0.4670  0.0972
    3TCq1    H114433   2.930   0.098  15.110 -1.2098  1.6994  1.3272
    3TCq1    H214434   2.972   4.659  15.095  1.0540 -2.2347 -2.0300
    3TCq1    H314435   2.742   4.300  15.058  0.0287  0.1998 -0.9588
    3TCq1    H414436   2.554   4.680  15.030  0.3660  0.9465 -0.7872
    4MPD2     C14437   2.273   4.257  14.934  0.0001  0.4593  0.3296
    4MPD2    C114438   2.367   4.242  15.041  0.4342 -0.6606 -0.9047
    4MPD2    C214439   2.348   4.141  15.132 -0.4855  0.4059  0.4239
    4MPD2    C314440   2.248   4.044  15.115 -0.5706 -0.3254 -0.5311
    4MPD2    C414441   2.152   4.061  15.014 -0.0400 -0.5496 -0.0529
    4MPD2    C514442   2.170   4.167  14.926  0.7052 -0.1703 -0.0230
    4MPD2     H14443   2.417   4.123  15.213  0.4401 -1.8187 -0.8618
    4MPD2    H114444   2.068   3.993  15.012  0.4993 -1.2182 -0.1192
    4MPD2    H214445   2.288   4.331  14.856 -0.3573  0.8279  0.6091
    4MPD2    H314446   2.094   4.178  14.850 -1.0271 -0.8509  1.6089
    4MPD2     N14447   2.229   3.956  15.226  0.2673  0.7540 -0.1552
    4MPD2    H514448   2.293   3.969  15.303  1.5592  0.3042 -1.1419
    4MPD2    N114449   2.486   4.315  15.055  0.3316  0.6558  0.3035
    4MPD2    H714450   2.545   4.281  15.130 -0.8623  0.2387  1.0611
    5TMC2    C114451   2.664   2.897  15.392 -0.0737 -1.0247  0.2041
    5TMC2    C214452   2.763   2.848  15.480  0.0160 -0.5902  0.0548
    5TMC2    C314453   2.873   2.921  15.504 -0.3237 -0.2369 -0.6507
    5TMC2    C414454   2.690   2.999  15.310  0.3189 -0.0837  0.5204
    5TMC2    C514455   2.801   3.071  15.336  0.2077  0.1217  0.3678
    5TMC2    C614456   2.890   3.042  15.439  0.3245  0.1511 -0.0732
    5TMC2     C14457   2.526   2.895  15.442  0.3305 -0.0355  0.3195
    5TMC2     O14458   2.491   2.800  15.508  0.1526  0.0054  0.5294
    5TMC2     H14459   2.748   2.757  15.538  0.5799 -1.2633 -0.8423
    5TMC2    H114460   2.638   3.016  15.217  1.4461  1.6099  0.1869
    5TMC2    H214461   2.975   3.106  15.460 -0.7394  2.0000 -1.3316
    5TMC2    C714462   2.757   3.212  15.344  0.1935 -0.5747 -0.2387
    5TMC2    C814463   2.999   2.848  15.531  0.0297  0.4260  0.4012
    5TMC2    O114464   2.634   3.214  15.352  0.3167 -0.5391  0.1069
    5TMC2    O214465   3.019   2.726  15.521  0.0473  0.0984  0.4320
    5TMC2    O514466   3.084   2.931  15.596 -0.4438 -0.6915  0.1331
    5TMC2    H514467   3.039   3.014  15.623 -2.5017 -1.3766 -1.1738
    6MPD2     C14468   2.081   3.162  15.479 -0.2444  0.7146 -0.6275
    6MPD2    C114469   2.182   3.245  15.442  0.7374 -0.6202 -0.6562
    6MPD2    C214470   2.303   3.182  15.416 -0.1536  0.2741  0.1890
    6MPD2    C314471   2.328   3.051  15.432  0.0317 -0.1164 -0.4599
    6MPD2    C414472   2.225   2.968  15.474  0.1551 -0.7313 -0.5113
    6MPD2    C514473   2.105   3.026  15.506  0.2097 -0.1609  0.0665
    6MPD2     H14474   2.384   3.244  15.380  1.3362 -1.9014 -0.1749
    6MPD2    H114475   2.229   2.864  15.503  0.4070 -0.8264 -0.9017
    6MPD2    H214476   1.985   3.205  15.507 -1.9043 -1.7214 -2.5366
    6MPD2    H314477   2.024   2.969  15.549  0.0048 -1.3101 -1.8388
    6MPD2     N14478   2.464   3.011  15.418 -0.5948  0.0001 -0.2900
    6MPD2    H514479   2.528   3.083  15.386  0.2838 -0.4263  0.5149
    6MPD2    N114480   2.175   3.386  15.447 -0.1518 -0.1711  0.4690
    6MPD2    H714481   2.262   3.436  15.457 -0.8809  1.6744 -2.2709
  945NH3     N114482   3.979   2.644   3.650 -0.1154 -0.1553 -0.1220
  945NH3     H214483   3.959   2.576   3.576 -0.7368 -0.4091  0.2779
  945NH3     H314484   4.034   2.589   3.714  1.4427 -0.4318 -1.6843
  945NH3     H414485   3.890   2.637   3.698  0.7135  1.2438  1.5839
  946SOD     NA14486   3.717   0.879  12.170 -0.5456 -0.4061  0.1946
  947SOD     NA14487   1.600   2.125  12.177  0.3101  0.0478 -0.2865
  948SOD     NA14488   1.989   1.202   3.293  0.2402 -0.0466  0.1556
  949SOD     NA14489   3.434   4.262  16.876  0.6274  0.1774  0.2787
  950SOD     NA14490   4.258   0.702   9.119  0.0428  0.0712 -0.1661
  951SOD     NA14491   1.523   2.649   9.237  0.1721 -0.6479 -0.2700
  952SOD     NA14492   4.275   4.311   3.747  0.2556  0.1237 -0.1221
  953SOD     NA14493   2.653   3.121  14.254  0.6188 -0.0836  0.1150
  954SOL     OW14494   0.230   3.119   3.886 -0.1579 -0.0107 -0.8546
  954SOL    HW114495   0.223   3.027   3.859  0.1510  0.1365 -1.4375
  954SOL    HW214496   0.143   3.149   3.912  0.9985  0.4489  2.6003
  955SOL     OW14497   1.341   0.005   0.761 -0.3359 -0.2297 -0.2296
  955SOL    HW114498   1.269   0.068   0.760  0.0843  0.2525  0.6706
  955SOL    HW214499   1.417   0.062   0.753 -0.0993 -0.5314 -0.1362
  956SOL     OW14500   0.566   3.780   2.622  0.3925  0.0225  0.2763
  956SOL    HW114501   0.578   3.870   2.590  1.4403 -1.2459 -2.9487
  956SOL    HW214502   0.654   3.745   2.607  0.4066  0.6997 -1.3282
  957SOL     OW14503   1.914   1.487   2.407  0.0165  0.3743  0.7760
  957SOL    HW114504   1.875   1.573   2.391 -1.0666 -0.4078 -0.8231
  957SOL    HW214505   1.966   1.476   2.326  1.1837 -2.1588  1.8671
  958SOL     OW14506   1.948   3.446   1.225 -0.2293 -0.2538  0.5819
  958SOL    HW114507   1.941   3.379   1.292  0.1392  0.4741  1.3487
  958SOL    HW214508   2.032   3.489   1.243  0.9339 -1.9179 -0.8741
  959SOL     OW14509   1.828   3.381   4.661 -0.4209 -0.1078  0.2045
  959SOL    HW114510   1.805   3.345   4.575 -0.8321 -0.1709  0.3389
  959SOL    HW214511   1.778   3.462   4.662  0.4631  0.4283  0.5570
  960SOL     OW14512   2.879   3.956   9.454  0.2803 -0.3867  0.1590
  960SOL    HW114513   2.962   3.996   9.426 -0.5912  1.7219  0.5643
  960SOL    HW214514   2.868   4.009   9.533 -1.9383 -1.4466  0.5526
  961SOL     OW14515   2.149   0.340   8.611 -0.2279  0.1442 -0.8296
  961SOL    HW114516   2.086   0.283   8.655  0.9858 -0.2065  0.4541
  961SOL    HW214517   2.175   0.288   8.535  1.6299  1.2083 -0.9219
  962SOL     OW14518   1.467   4.031   9.203  0.1574 -0.0673 -0.7818
  962SOL    HW114519   1.404   3.969   9.240  0.6093  0.1282  0.3308
  962SOL    HW214520   1.456   4.098   9.271 -0.9424 -2.1007  1.0461
  963SOL     OW14521   3.055   0.865   2.304  0.0598 -0.5914 -0.2664
  963SOL    HW114522   3.110   0.942   2.288  0.9455 -1.2118 -0.1759
  963SOL    HW214523   3.034   0.890   2.394 -0.5449 -0.8737 -0.3233
  964SOL     OW14524   4.036   3.917  15.069 -0.4178 -0.2716 -0.8771
  964SOL    HW114525   3.997   3.834  15.094  0.2355  0.0365  1.1609
  964SOL    HW214526   3.987   3.952  14.994 -2.0354  0.2263  0.4118
  965SOL     OW14527   3.141   0.777   2.686 -0.2012 -0.3849  0.3335
  965SOL    HW114528   3.185   0.798   2.604  0.3748 -2.2869  0.1601
  965SOL    HW214529   3.050   0.803   2.670 -0.4138 -0.5349  1.2500
  966SOL     OW14530   3.378   0.526   7.237 -0.2430 -0.0279  0.4243
  966SOL    HW114531   3.467   0.543   7.206 -0.5827 -0.6226 -0.8666
  966SOL    HW214532   3.340   0.491   7.156 -0.0849  0.1625  0.2677
  967SOL     OW14533   3.149   3.792   6.088  0.0817 -0.6322  0.3154
  967SOL    HW114534   3.200   3.803   6.007  0.7035 -2.3188  0.4813
  967SOL    HW214535   3.142   3.885   6.111 -1.3486 -0.5637 -0.3821
  968SOL     OW14536   0.082   1.677   4.836 -0.2050  0.3779 -0.0379
  968SOL    HW114537   0.003   1.731   4.833  0.1809  0.8676 -1.4367
  968SOL    HW214538   0.095   1.694   4.929 -0.7878 -0.6601  0.2368
  969SOL     OW14539   3.384   3.808   2.409  0.5200 -1.1947  0.0553
  969SOL    HW114540   3.385   3.904   2.420 -1.3866 -1.0575 -0.9965
  969SOL    HW214541   3.298   3.793   2.369 -0.0847  0.8596  0.5358
  970SOL     OW14542   3.820   0.237   7.468 -0.4408 -0.2255 -0.0355
  970SOL    HW114543   3.762   0.161   7.467  0.1371 -0.6879  1.0330
  970SOL    HW214544   3.781   0.306   7.415  0.9153 -1.1062 -2.1928
  971SOL     OW14545   0.488   3.549  15.463 -0.2776 -1.0325  0.1041
  971SOL    HW114546   0.510   3.465  15.422 -0.2140 -1.1036  0.2848
  971SOL    HW214547   0.528   3.603  15.395 -0.7915 -2.5172 -1.3833
  972SOL     OW14548   2.876   4.260   3.458  0.1777 -0.1321 -0.5777
  972SOL    HW114549   2.872   4.272   3.363 -0.6120  0.3905 -0.4791
  972SOL    HW214550   2.850   4.168   3.453 -1.4538  0.4378 -2.5716
  973SOL     OW14551   3.604   3.833   8.665  0.2060  0.7565 -0.0741
  973SOL    HW114552   3.604   3.810   8.758 -0.7143  0.6368 -0.1048
  973SOL    HW214553   3.511   3.846   8.651  0.3068  0.7136 -0.7917
  974SOL     OW14554   1.620   3.334   7.200  0.5648  0.4802 -1.1388
  974SOL    HW114555   1.585   3.251   7.230 -0.4827  2.1167  2.1069
  974SOL    HW214556   1.612   3.326   7.105  2.4988 -2.0450 -1.1042
  975SOL     OW14557   2.421   4.400   2.574  0.0577 -0.4832  0.5493
  975SOL    HW114558   2.452   4.322   2.621 -1.3416 -1.5504 -0.2914
  975SOL    HW214559   2.504   4.437   2.544 -0.0821 -1.5083 -1.0714
  976SOL     OW14560   4.063   1.281   5.489 -0.2132 -0.2380 -0.1965
  976SOL    HW114561   4.100   1.195   5.508  1.4399  0.7198  0.9767
  976SOL    HW214562   4.088   1.292   5.397  0.0475  0.4975 -0.0361
  977SOL     OW14563   1.318   2.912   8.678  0.4477 -0.0447 -0.5598
  977SOL    HW114564   1.377   2.975   8.637  1.3966 -1.0096 -0.6976
  977SOL    HW214565   1.333   2.838   8.619  0.1386 -0.1640 -0.4877
  978SOL     OW14566   0.226   2.341   0.204 -0.8405 -0.0613 -0.8146
  978SOL    HW114567   0.228   2.436   0.208  2.2393 -0.1632 -0.1384
  978SOL    HW214568   0.239   2.335   0.109 -0.8407 -0.4528 -0.7901
  979SOL     OW14569   0.305   2.017   6.943  0.4790 -0.4546  0.2732
  979SOL    HW114570   0.317   1.931   6.984 -1.2314 -0.5868  0.4888
  979SOL    HW214571   0.243   1.997   6.873 -0.1259 -1.5508  1.1055
  980SOL     OW14572   2.152   3.401   3.245  0.8500  0.3499  0.1977
  980SOL    HW114573   2.093   3.393   3.319  1.0546 -1.4440  0.1578
  980SOL    HW214574   2.148   3.310   3.216  2.4971  0.0657  0.8721
  981SOL     OW14575   3.850   1.563   7.217 -0.6098 -0.0722  0.3446
  981SOL    HW114576   3.865   1.503   7.290  1.9416  1.1502  0.8407
  981SOL    HW214577   3.931   1.614   7.217 -0.3063 -0.5610  1.0983
  982SOL     OW14578   2.092   2.858   3.184  0.5688  0.2875  0.3113
  982SOL    HW114579   2.009   2.904   3.194  0.7408  0.2177  2.0617
  982SOL    HW214580   2.060   2.768   3.180  0.2652  0.3289  1.8233
  983SOL     OW14581   1.523   1.475   8.819 -0.9469  0.7195  0.4731
  983SOL    HW114582   1.511   1.400   8.760 -0.3151  0.2977  0.8840
  983SOL    HW214583   1.428   1.473   8.832 -1.1689 -1.3647 -1.4173
  984SOL     OW14584   1.516   3.578   4.202 -0.0810  0.2877 -0.1509
  984SOL    HW114585   1.519   3.667   4.237 -0.9592  0.4125 -0.3904
  984SOL    HW214586   1.563   3.593   4.120  0.2970  2.7657  0.5216
  985SOL     OW14587   2.544   1.046   6.844 -0.6499  0.1767 -0.1608
  985SOL    HW114588   2.453   1.047   6.873 -0.2723 -0.8863  1.1226
  985SOL    HW214589   2.585   1.074   6.926 -0.6968  0.8632 -0.3797
  986SOL     OW14590   0.137   2.875   1.358  0.3008 -0.0207  0.1213
  986SOL    HW114591   0.151   2.793   1.405  0.3555  0.1157  0.3448
  986SOL    HW214592   0.218   2.877   1.306  0.1135  1.0013 -0.1458
  987SOL     OW14593   1.257   1.261   8.185 -0.6717  0.5691 -0.1735
  987SOL    HW114594   1.194   1.269   8.113  0.5386  1.1012 -1.1622
  987SOL    HW214595   1.306   1.184   8.156 -1.4966  0.2622 -0.7680
  988SOL     OW14596   2.887   2.344   9.561 -0.3712  0.0256  0.3113
  988SOL    HW114597   2.842   2.379   9.484  1.2196  2.0091  0.2887
  988SOL    HW214598   2.919   2.266   9.517  0.8757  1.0301 -0.5696
  989SOL     OW14599   0.317   0.576   6.492  0.4319  0.5556 -0.5110
  989SOL    HW114600   0.230   0.538   6.485 -0.0860  1.4560  1.1509
  989SOL    HW214601   0.365   0.560   6.410 -1.9712 -0.4348 -1.7076
  990SOL     OW14602   4.128   3.756   1.494 -0.1606  0.0008  0.0302
  990SOL    HW114603   4.207   3.809   1.503 -0.4678  0.5685 -0.6683
  990SOL    HW214604   4.064   3.821   1.463 -1.3536 -0.6017  1.1976
  991SOL     OW14605   3.224   0.378   8.822  0.1228 -0.2375  0.3019
  991SOL    HW114606   3.277   0.401   8.746 -1.2865  0.6022 -0.4395
  991SOL    HW214607   3.211   0.462   8.867  0.0181 -0.6569  1.0510
  992SOL     OW14608   1.319   4.567   9.897 -0.1128 -0.4872 -0.8326
  992SOL    HW114609   1.414   4.565   9.884  0.1080  0.9574  0.5161
  992SOL    HW214610   1.310   4.634   9.965  2.8747  0.3171 -1.2044
  993SOL     OW14611   2.758   0.154   3.685 -0.3595  0.1292 -0.2214
  993SOL    HW114612   2.792   0.068   3.710 -0.5922  0.5287  1.4348
  993SOL    HW214613   2.745   0.139   3.591 -1.5147 -0.4083  0.0218
  994SOL     OW14614   1.477   1.929   2.760  0.8162 -0.4279  0.2004
  994SOL    HW114615   1.441   1.842   2.778 -0.1503 -0.1146 -0.2206
  994SOL    HW214616   1.408   1.956   2.699  0.6026 -1.4802 -0.0221
  995SOL     OW14617   0.269   1.018   1.474  0.0450 -0.0383  0.3315
  995SOL    HW114618   0.275   0.973   1.389 -0.4722 -1.4886  1.0650
  995SOL    HW214619   0.288   1.107   1.447 -1.7286  0.6014  1.1855
  996SOL     OW14620   4.365   0.390  17.059  1.0604 -0.4958 -0.1598
  996SOL    HW114621   4.459   0.378  17.067  1.2446  0.0261 -1.6604
  996SOL    HW214622   4.361   0.452  16.986 -1.7797 -0.0392  0.3613
  997SOL     OW14623   2.583   3.651   7.170 -0.3253  0.3462  0.3350
  997SOL    HW114624   2.488   3.656   7.155 -0.3339  0.6662  0.5048
  997SOL    HW214625   2.599   3.632   7.263  0.5256 -1.5554 -0.1905
  998SOL     OW14626   3.262   4.015   2.753  0.2283 -0.2868  0.0711
  998SOL    HW114627   3.243   3.971   2.836  0.1167  0.9079  0.6716
  998SOL    HW214628   3.237   4.103   2.780  1.5990  0.2893 -0.5636
  999SOL     OW14629   3.201   2.921   8.593 -0.4995 -0.0061  0.1901
  999SOL    HW114630   3.110   2.895   8.579 -0.3991  0.4254 -1.2185
  999SOL    HW214631   3.212   2.991   8.528 -0.0179 -0.8558 -0.6434
 1000SOL     OW14632   1.591   3.708  13.840  0.4151  0.3047 -0.2214
 1000SOL    HW114633   1.686   3.704  13.852  0.1210 -1.9306  1.3922
 1000SOL    HW214634   1.595   3.635  13.779  1.1433  0.6291 -0.5515
 1001SOL     OW14635   1.366   3.776   6.743  0.0127  0.3038 -0.1416
 1001SOL    HW114636   1.346   3.841   6.810 -0.8695  1.1413 -1.2233
 1001SOL    HW214637   1.428   3.824   6.688 -2.1805  1.6938 -1.3803
 1002SOL     OW14638   1.470   0.993   1.799  0.4608 -0.6735  0.4725
 1002SOL    HW114639   1.455   1.057   1.730  0.0641 -0.4812  0.7356
 1002SOL    HW214640   1.548   1.023   1.846  0.0693  0.1054  0.6172
 1003SOL     OW14641   4.624   4.538  13.415  0.3274 -0.5933  0.2927
 1003SOL    HW114642   4.642   4.605  13.348 -0.7962 -1.2991 -0.7092
 1003SOL    HW214643   4.709   4.496  13.425  0.7424  0.9880  3.3965
 1004SOL     OW14644   4.260   1.226  16.056 -0.0685  0.1899  0.3847
 1004SOL    HW114645   4.349   1.238  16.090  0.6330 -4.1876  0.0981
 1004SOL    HW214646   4.285   1.178  15.977 -2.9296 -1.1648  0.3027
 1005SOL     OW14647   1.652   0.473   2.506 -0.4640  0.3266  0.1883
 1005SOL    HW114648   1.675   0.563   2.531 -1.1188  0.5235  0.0793
 1005SOL    HW214649   1.593   0.497   2.435 -1.6304  2.3139  1.8129
 1006SOL     OW14650   1.698   3.950   9.052  0.2964 -0.2110  0.4392
 1006SOL    HW114651   1.631   3.972   9.117 -0.7992 -0.8319 -0.4787
 1006SOL    HW214652   1.722   4.027   9.000  0.2697 -0.4392  0.0904
 1007SOL     OW14653   1.039   0.040   3.658 -0.1354  0.4959 -0.1015
 1007SOL    HW114654   1.016   4.687   3.673  0.3573  0.5990  1.2338
 1007SOL    HW214655   1.132   0.039   3.634  0.3153  0.5253  1.6557
 1008SOL     OW14656   0.782   2.473   3.533  0.2024  0.4342  0.0383
 1008SOL    HW114657   0.696   2.512   3.515  0.4594  0.6845 -0.6500
 1008SOL    HW214658   0.808   2.517   3.613  0.9054  3.0934 -1.6769
 1009SOL     OW14659   1.996   2.423   3.587 -0.3914  0.0832  0.1140
 1009SOL    HW114660   1.989   2.386   3.675 -1.9099 -0.5214 -0.2503
 1009SOL    HW214661   2.014   2.516   3.600  2.9685 -0.5675 -0.0459
 1010SOL     OW14662   4.251   1.233   5.210 -0.3059  0.0725  0.3480
 1010SOL    HW114663   4.229   1.317   5.170  0.4382 -0.1033 -0.4282
 1010SOL    HW214664   4.174   1.181   5.189 -0.3466  0.0586  0.5278
 1011SOL     OW14665   1.004   3.331   5.846  0.7528  0.3448  0.1499
 1011SOL    HW114666   0.981   3.270   5.916 -1.6459  0.2812 -0.6952
 1011SOL    HW214667   0.990   3.279   5.767  1.2537 -0.1382  0.3793
 1012SOL     OW14668   1.044   0.657  14.686  0.0221  0.9797 -0.2017
 1012SOL    HW114669   0.963   0.709  14.683  1.0988  2.6430 -0.8255
 1012SOL    HW214670   1.082   0.707  14.613  0.4970  0.4145 -0.3451
 1013SOL     OW14671   4.246   2.143   3.243  0.4621 -0.3544 -0.7053
 1013SOL    HW114672   4.184   2.070   3.242 -0.5822  0.5105 -0.0602
 1013SOL    HW214673   4.224   2.185   3.160 -0.1508  0.0390 -0.3499
 1014SOL     OW14674   0.769   2.811   0.346 -0.1019  0.0571  0.4508
 1014SOL    HW114675   0.714   2.774   0.416 -0.7918  3.5817  1.7653
 1014SOL    HW214676   0.851   2.772   0.379  0.0038  1.5899  2.0124
 1015SOL     OW14677   2.793   3.042   1.044 -0.1051 -0.1390  0.2377
 1015SOL    HW114678   2.751   3.118   1.002  1.0866 -0.0713 -0.8260
 1015SOL    HW214679   2.815   3.080   1.130  0.7600 -3.2420  1.3664
 1016SOL     OW14680   0.868   1.335   5.928  0.5889 -0.1446  0.0593
 1016SOL    HW114681   0.847   1.414   5.978 -0.7533  1.0990 -2.4805
 1016SOL    HW214682   0.779   1.317   5.899  1.2880  0.4160 -2.4090
 1017SOL     OW14683   1.704   0.508  15.543 -0.2221 -0.1181  0.0336
 1017SOL    HW114684   1.718   0.599  15.568  0.1594 -0.4355  1.0003
 1017SOL    HW214685   1.634   0.479  15.600 -0.5398  1.6246  0.5207
 1018SOL     OW14686   1.952   3.769   1.628 -0.1983 -0.6038  0.7381
 1018SOL    HW114687   1.896   3.847   1.634  0.8854  0.0761  2.0650
 1018SOL    HW214688   1.899   3.714   1.570 -1.0901 -0.6536  1.6042
 1019SOL     OW14689   1.643   4.691   4.929 -0.0741  0.0014 -0.4033
 1019SOL    HW114690   1.727   4.645   4.926 -0.3155 -0.5730  1.2365
 1019SOL    HW214691   1.597   4.644   4.999  0.9517  1.4902  1.2601
 1020SOL     OW14692   0.698   1.664  17.022 -0.3496  0.0187  0.5455
 1020SOL    HW114693   0.752   1.671  17.101 -0.8884  3.2790  0.6076
 1020SOL    HW214694   0.730   1.582  16.984  0.4918  1.8005 -2.5982
 1021SOL     OW14695   2.791   3.390   3.968 -0.0034  0.0601 -0.0146
 1021SOL    HW114696   2.737   3.452   4.017 -1.3003 -1.1360  0.0780
 1021SOL    HW214697   2.843   3.453   3.919  2.6426  0.0489  2.8281
 1022SOL     OW14698   2.873   3.313   2.130  0.1688  0.2986 -0.0322
 1022SOL    HW114699   2.796   3.280   2.083  1.5525 -1.1522 -1.2844
 1022SOL    HW214700   2.925   3.233   2.139  2.4114  1.8482  0.7983
 1023SOL     OW14701   2.064   4.684   4.651  0.1580  0.3835 -0.4182
 1023SOL    HW114702   2.047   0.030   4.610  1.6565  0.9151  0.0533
 1023SOL    HW214703   2.129   4.658   4.587  0.8194 -1.2912  0.9341
 1024SOL     OW14704   3.199   0.699   7.825 -0.0002  0.2578 -0.1653
 1024SOL    HW114705   3.140   0.636   7.785 -1.8111  1.5109  0.5424
 1024SOL    HW214706   3.142   0.770   7.795 -0.5987  0.6939  1.9609
 1025SOL     OW14707   4.190   0.066   8.602  0.2129  0.2279  0.2938
 1025SOL    HW114708   4.263   0.093   8.547  0.0819  0.1163  0.0601
 1025SOL    HW214709   4.246   0.031   8.671  1.2625  1.3857  0.0122
 1026SOL     OW14710   0.072   2.121  13.476 -0.5434  0.4907  0.5299
 1026SOL    HW114711   0.098   2.131  13.568  1.3377 -1.6556  0.2192
 1026SOL    HW214712   0.133   2.057  13.438 -2.6454 -1.1898  0.0261
 1027SOL     OW14713   2.525   3.212   7.998 -0.0014 -0.3770 -0.8418
 1027SOL    HW114714   2.619   3.231   7.992  0.4207 -1.4750  2.1822
 1027SOL    HW214715   2.482   3.249   7.921 -0.0211 -1.1373 -1.1962
 1028SOL     OW14716   2.288   4.295  12.264 -0.0630 -0.0337  0.2654
 1028SOL    HW114717   2.381   4.299  12.286 -0.1367 -1.8114  0.8394
 1028SOL    HW214718   2.286   4.247  12.181 -1.7620 -1.8924  1.3842
 1029SOL     OW14719   2.790   3.262   8.831  0.2323  0.1216 -0.3427
 1029SOL    HW114720   2.854   3.193   8.812  1.2844  0.9000  0.3245
 1029SOL    HW214721   2.780   3.250   8.925 -1.2642 -0.4785 -0.5890
 1030SOL     OW14722   4.308   3.688  10.974  0.3383  0.2193 -0.3443
 1030SOL    HW114723   4.381   3.722  10.923 -0.0277  1.3645 -0.1070
 1030SOL    HW214724   4.272   3.632  10.905 -1.5725  0.9151  0.0830
 1031SOL     OW14725   0.538   3.592   3.996 -0.4019  0.2554  0.1123
 1031SOL    HW114726   0.561   3.512   3.950  2.8436  0.3317  1.6099
 1031SOL    HW214727   0.557   3.661   3.932 -0.2629 -0.5257 -0.6943
 1032SOL     OW14728   0.841   2.742  11.382 -0.6907  0.4041 -0.4099
 1032SOL    HW114729   0.801   2.687  11.315 -0.1220 -2.2917  1.4776
 1032SOL    HW214730   0.925   2.767  11.343  0.0949 -0.8682  0.4703
 1033SOL     OW14731   3.007   1.524   9.298 -0.3288 -0.1638  0.3935
 1033SOL    HW114732   3.005   1.429   9.302 -1.0421 -0.2396 -1.6218
 1033SOL    HW214733   3.048   1.546   9.381  0.4185 -2.9118  0.7280
 1034SOL     OW14734   0.596   1.306   7.946 -0.6491 -0.0913 -0.4507
 1034SOL    HW114735   0.559   1.246   7.881  0.2166  0.1984 -1.2215
 1034SOL    HW214736   0.547   1.282   8.025  0.2521  0.1728  0.1851
 1035SOL     OW14737   2.246   0.552   7.855  0.0047 -0.0967  0.7926
 1035SOL    HW114738   2.271   0.643   7.866 -3.9033  1.1115 -0.2149
 1035SOL    HW214739   2.305   0.514   7.920  1.5617  1.5992  0.3401
 1036SOL     OW14740   2.547   0.872   8.966  0.6417 -0.4768 -0.5052
 1036SOL    HW114741   2.555   0.950   9.022 -0.9416 -0.9554  0.3618
 1036SOL    HW214742   2.544   0.803   9.032  0.5323  0.1733  0.1690
 1037SOL     OW14743   3.085   0.015   7.840 -0.1881 -0.4956 -0.0647
 1037SOL    HW114744   3.139   4.717   7.910 -1.3050  1.3541  1.7984
 1037SOL    HW214745   3.134   0.094   7.816 -1.0082  0.0498  0.0379
 1038SOL     OW14746   3.189   2.828   8.288  0.2658  0.0444  0.5180
 1038SOL    HW114747   3.152   2.796   8.370  1.4545  1.8460  1.7722
 1038SOL    HW214748   3.229   2.749   8.252  0.9858  0.9525 -0.6684
 1039SOL     OW14749   2.881   3.159   1.288  0.0349 -0.1854 -0.3341
 1039SOL    HW114750   2.914   3.247   1.271  2.2049 -0.7560  0.9855
 1039SOL    HW214751   2.949   3.124   1.345 -0.5232 -1.1644 -0.2693
 1040SOL     OW14752   3.348   0.391  14.777 -0.2193  0.1896 -0.6984
 1040SOL    HW114753   3.262   0.350  14.787 -0.9676  2.1323  0.5959
 1040SOL    HW214754   3.332   0.452  14.705  0.9059  0.1512 -0.9804
 1041SOL     OW14755   1.571   2.772   1.245  0.2204 -0.0982 -0.0768
 1041SOL    HW114756   1.518   2.797   1.170 -1.7751  1.5098  1.8485
 1041SOL    HW214757   1.498   2.747   1.303 -0.1130  0.9514 -0.0516
 1042SOL     OW14758   0.142   2.574   6.834  0.2880 -0.8005 -0.1707
 1042SOL    HW114759   0.165   2.635   6.904  0.7663 -1.7720  0.5016
 1042SOL    HW214760   0.134   2.634   6.760 -2.1794  0.7368  1.3606
 1043SOL     OW14761   3.091   4.030   2.513 -0.0214  0.0275  0.1082
 1043SOL    HW114762   3.143   3.993   2.584  0.1878  0.0191 -0.0495
 1043SOL    HW214763   3.074   3.957   2.453 -0.6654  0.3060 -0.0511
 1044SOL     OW14764   1.439   0.674   6.141 -0.2436  0.5528 -0.1702
 1044SOL    HW114765   1.442   0.639   6.230  1.3345  2.1843  0.4405
 1044SOL    HW214766   1.374   0.743   6.153 -0.7506  0.5302 -2.7300
 1045SOL     OW14767   1.528   2.686   2.119  0.0571 -0.5978  0.5545
 1045SOL    HW114768   1.610   2.676   2.069 -0.8809  0.9252 -1.2956
 1045SOL    HW214769   1.553   2.754   2.180  0.4193 -1.1395  1.0127
 1046SOL     OW14770   3.965   3.869   4.079  0.2006 -0.5062  0.3404
 1046SOL    HW114771   3.982   3.782   4.044  2.8277  0.3944 -0.5941
 1046SOL    HW214772   3.906   3.839   4.148  1.0576 -0.1751  1.2258
 1047SOL     OW14773   1.663   2.680   7.970 -0.1471 -0.2995  0.4281
 1047SOL    HW114774   1.631   2.725   7.892 -0.2785 -1.2424 -0.0709
 1047SOL    HW214775   1.753   2.656   7.950  0.2688  0.4455  1.4051
 1048SOL     OW14776   0.362   1.837  16.160 -0.8460  0.5766 -0.4014
 1048SOL    HW114777   0.448   1.863  16.192 -0.7837 -0.8034  0.5535
 1048SOL    HW214778   0.306   1.880  16.225  1.0785  2.6752 -0.1350
 1049SOL     OW14779   0.002   3.756   5.149  0.0228 -0.0495  0.1148
 1049SOL    HW114780   4.688   3.701   5.089 -0.8541  1.0542 -0.1343
 1049SOL    HW214781   0.072   3.802   5.104 -1.7090 -0.7432 -3.3242
 1050SOL     OW14782   4.178   2.396   6.423 -0.5827 -0.0497  0.0325
 1050SOL    HW114783   4.118   2.470   6.411 -0.4203  0.3600  1.6269
 1050SOL    HW214784   4.256   2.424   6.375  0.0803  0.4571  1.4045
 1051SOL     OW14785   3.346   1.200   1.212 -0.1754 -0.4949 -0.2541
 1051SOL    HW114786   3.379   1.140   1.145 -1.9895  1.0445 -2.5231
 1051SOL    HW214787   3.258   1.168   1.231 -0.3108 -0.0644 -0.1572
 1052SOL     OW14788   1.177   2.877   0.180 -0.3230  0.4846  0.2756
 1052SOL    HW114789   1.215   2.824   0.110  0.2021  1.3767 -0.1229
 1052SOL    HW214790   1.095   2.893   0.132  0.7950 -0.2560 -1.8772
 1053SOL     OW14791   3.364   1.943   5.615  0.6509 -0.0690 -0.4359
 1053SOL    HW114792   3.324   1.865   5.577  0.2814 -0.3244  0.4905
 1053SOL    HW214793   3.455   1.929   5.590  1.0909  0.6143  0.8063
 1054SOL     OW14794   3.922   0.137   0.369 -0.4210  0.0540 -0.7458
 1054SOL    HW114795   3.840   0.143   0.320 -0.5087  1.0862 -0.4754
 1054SOL    HW214796   3.948   0.229   0.367  0.2095 -0.1257 -0.6600
 1055SOL     OW14797   1.907   1.355   4.898  0.2951 -0.2793 -0.3044
 1055SOL    HW114798   1.822   1.322   4.926  0.0999  1.9305  1.7267
 1055SOL    HW214799   1.907   1.451   4.902  0.5055 -0.2766 -0.3340
 1056SOL     OW14800   3.193   1.617  15.129  0.5765 -0.3097 -0.4700
 1056SOL    HW114801   3.187   1.653  15.041 -1.1121 -0.6003 -0.4691
 1056SOL    HW214802   3.257   1.675  15.170  1.9105 -0.8803 -1.7392
 1057SOL     OW14803   2.876   4.578   6.851  0.0151  0.0806 -0.3141
 1057SOL    HW114804   2.928   4.600   6.929 -1.3934 -0.6867  0.8623
 1057SOL    HW214805   2.788   4.587   6.888  0.0937 -0.2426 -0.0469
 1058SOL     OW14806   0.376   1.288   5.396  0.1067  0.0711  0.3266
 1058SOL    HW114807   0.439   1.216   5.400 -0.6168 -0.5410  0.5708
 1058SOL    HW214808   0.415   1.373   5.418  0.2024  0.6950 -2.2308
 1059SOL     OW14809   4.412   1.586   6.342  0.0686  0.1872  0.2376
 1059SOL    HW114810   4.470   1.511   6.352 -1.8332 -1.2240  0.5736
 1059SOL    HW214811   4.475   1.658   6.335 -0.6521  0.8875  0.9246
 1060SOL     OW14812   4.548   2.824   4.672  0.1983 -0.1536  0.1653
 1060SOL    HW114813   4.581   2.892   4.614 -0.9561 -0.5514 -0.9684
 1060SOL    HW214814   4.608   2.817   4.746 -0.4768 -0.2536  0.7095
 1061SOL     OW14815   3.735   2.320   0.133  0.0503 -0.1596  0.7523
 1061SOL    HW114816   3.740   2.281   0.220  0.1631  0.4947  1.0382
 1061SOL    HW214817   3.647   2.291   0.108 -0.5284  0.6216  1.8670
 1062SOL     OW14818   2.591   2.667   3.841 -0.2020  0.2184 -0.5408
 1062SOL    HW114819   2.673   2.704   3.808  0.7776 -0.2910  1.3331
 1062SOL    HW214820   2.610   2.577   3.816  1.6858  0.6311 -0.5570
 1063SOL     OW14821   2.945   4.377   2.228 -0.3672  0.2073  0.4639
 1063SOL    HW114822   2.868   4.342   2.274 -0.4515 -0.2364 -0.0153
 1063SOL    HW214823   2.973   4.448   2.286  0.4709  1.5602 -1.5978
 1064SOL     OW14824   3.416   2.000   9.410  0.4179 -0.1657  0.9757
 1064SOL    HW114825   3.495   2.054   9.417  1.5304 -1.8007  1.0957
 1064SOL    HW214826   3.378   2.026   9.327  2.4686  2.7313  0.9483
 1065SOL     OW14827   2.921   2.002   2.954 -0.3762  0.3813 -0.0873
 1065SOL    HW114828   2.851   2.047   2.905  0.3739 -1.1053 -2.5332
 1065SOL    HW214829   2.988   2.069   2.942 -0.7260  0.6792 -0.3762
 1066SOL     OW14830   0.688   0.454   3.436 -0.2830  0.3610  0.2164
 1066SOL    HW114831   0.723   0.457   3.347 -1.4287  1.7596 -0.2072
 1066SOL    HW214832   0.669   0.361   3.439  1.9562 -0.1014 -0.0354
 1067SOL     OW14833   1.371   3.777   1.857 -0.1312 -0.2735  0.2827
 1067SOL    HW114834   1.420   3.721   1.917 -0.0059 -0.0369  0.4014
 1067SOL    HW214835   1.284   3.740   1.844  0.6099 -1.3882 -1.4198
 1068SOL     OW14836   1.710   0.491   1.656 -0.4457 -0.6391 -0.2030
 1068SOL    HW114837   1.686   0.580   1.681  1.3425  0.0623 -1.0193
 1068SOL    HW214838   1.802   0.485   1.681 -0.8080  0.3755  1.3871
 1069SOL     OW14839   0.686   4.052   5.004  0.1475 -0.5066  0.2230
 1069SOL    HW114840   0.773   4.028   4.974  0.3132  0.7201 -0.2825
 1069SOL    HW214841   0.707   4.138   5.042  1.0751 -0.7628  0.2899
 1070SOL     OW14842   0.892   2.865  16.107 -0.4827 -0.3311 -0.6349
 1070SOL    HW114843   0.981   2.884  16.078 -0.5951  0.2745 -0.5838
 1070SOL    HW214844   0.845   2.866  16.023 -1.2315 -0.3357 -0.2109
 1071SOL     OW14845   1.810   0.487   3.130  0.0639 -0.1456 -0.0890
 1071SOL    HW114846   1.765   0.528   3.056  1.2849 -0.4025 -0.9726
 1071SOL    HW214847   1.745   0.480   3.200 -2.1276 -0.4218 -2.1546
 1072SOL     OW14848   2.698   1.089  10.481 -0.2026  0.4086 -0.9205
 1072SOL    HW114849   2.639   1.081  10.406 -0.1887 -0.0632 -0.8814
 1072SOL    HW214850   2.680   1.179  10.507 -3.4912 -0.2911 -0.7585
 1073SOL     OW14851   1.516   0.404  16.641  0.0387 -0.6912  0.5251
 1073SOL    HW114852   1.611   0.400  16.629  0.0245 -2.3094  0.8909
 1073SOL    HW214853   1.490   0.361  16.559  1.7164 -2.7902  1.0767
 1074SOL     OW14854   1.351   1.107   2.773 -0.0006  0.4748 -0.1173
 1074SOL    HW114855   1.301   1.035   2.812 -0.7245  0.9607 -0.1367
 1074SOL    HW214856   1.332   1.181   2.831 -0.1034 -1.1430  1.9157
 1075SOL     OW14857   3.134   2.485  11.012  0.2874 -0.6376  0.1786
 1075SOL    HW114858   3.186   2.496  11.092  1.2472  2.6028 -0.8799
 1075SOL    HW214859   3.200   2.447  10.953 -0.7205 -0.0066 -1.3469
 1076SOL     OW14860   4.461   3.192   0.922 -0.2720 -0.0832  0.0410
 1076SOL    HW114861   4.484   3.285   0.914  0.6797 -0.3955 -0.7836
 1076SOL    HW214862   4.478   3.189   1.016  1.0908 -0.4084 -0.2185
 1077SOL     OW14863   1.508   1.645  15.437 -0.0195 -0.6350 -0.1238
 1077SOL    HW114864   1.442   1.700  15.395 -0.5683  0.4045  2.1131
 1077SOL    HW214865   1.458   1.563  15.438 -1.2068  0.0849 -0.1685
 1078SOL     OW14866   0.192   0.619   7.727 -0.0160  0.7238  0.0499
 1078SOL    HW114867   0.169   0.627   7.819  1.8301 -0.4552  0.6144
 1078SOL    HW214868   0.153   0.532   7.716  0.3024  0.2043  3.0645
 1079SOL     OW14869   0.175   4.488  16.992 -0.5934  0.2902  0.3436
 1079SOL    HW114870   0.117   4.538  16.934  0.5139 -0.5488 -1.4883
 1079SOL    HW214871   0.121   4.479  17.070  0.8380  1.1179  1.4372
 1080SOL     OW14872   4.724   2.251   5.718 -0.1235 -0.0792 -0.1824
 1080SOL    HW114873   4.651   2.211   5.765  0.3136  0.0346  0.5918
 1080SOL    HW214874   4.676   2.293   5.646 -3.8495  0.6262  2.6821
 1081SOL     OW14875   3.956   1.505   7.842  0.0246 -0.1794 -0.6021
 1081SOL    HW114876   3.930   1.425   7.797 -0.4635 -1.2008  1.4612
 1081SOL    HW214877   3.894   1.563   7.797  0.2431  0.4289 -0.1216
 1082SOL     OW14878   2.170   2.184   4.164  0.5284 -0.3311  0.7887
 1082SOL    HW114879   2.077   2.177   4.186  0.7732 -0.0124  1.9431
 1082SOL    HW214880   2.173   2.099   4.120  1.4585  0.5686 -0.8726
 1083SOL     OW14881   3.130   3.574  10.027  0.2362  0.1499  0.2539
 1083SOL    HW114882   3.150   3.665  10.001 -0.9469  0.3577  0.0978
 1083SOL    HW214883   3.192   3.527   9.971  2.5846  0.4428  2.5961
 1084SOL     OW14884   2.360   0.888   4.067  0.0302  0.1161  0.1288
 1084SOL    HW114885   2.336   0.953   4.132 -0.0209  1.6481 -1.4134
 1084SOL    HW214886   2.271   0.855   4.055  0.1408 -0.4689  0.9160
 1085SOL     OW14887   2.367   2.521   7.042 -0.2956 -0.2174  0.5938
 1085SOL    HW114888   2.408   2.593   7.090  0.4014 -0.2672  0.0651
 1085SOL    HW214889   2.381   2.441   7.093  2.5960 -0.3388 -0.4469
 1086SOL     OW14890   3.886   3.999  10.697 -0.4778  0.2686  0.1390
 1086SOL    HW114891   3.923   4.003  10.786  0.5415  0.2498 -0.2850
 1086SOL    HW214892   3.921   4.072  10.647 -2.2772  0.4784 -0.7849
 1087SOL     OW14893   0.874   1.492   7.064  0.1731 -0.0462 -0.0363
 1087SOL    HW114894   0.933   1.561   7.094  0.1001 -0.8690  1.9779
 1087SOL    HW214895   0.857   1.529   6.977  0.6731 -1.5832 -0.7860
 1088SOL     OW14896   2.802   3.594   8.757 -0.1959 -0.2824 -0.0314
 1088SOL    HW114897   2.757   3.525   8.805 -1.6010  0.4487 -0.3130
 1088SOL    HW214898   2.811   3.549   8.674 -0.1396 -1.1976  0.4750
 1089SOL     OW14899   4.700   0.403   3.621  0.2651 -0.1678  0.2596
 1089SOL    HW114900   4.655   0.452   3.690  1.9785  1.4108  0.2793
 1089SOL    HW214901   4.727   0.330   3.675 -1.1578 -1.0251 -0.1851
 1090SOL     OW14902   3.289   1.998   6.770  0.0718 -0.8047 -0.4621
 1090SOL    HW114903   3.319   2.003   6.861 -1.5678 -0.6382  0.0696
 1090SOL    HW214904   3.296   1.905   6.746 -1.3086 -0.7147 -1.2043
 1091SOL     OW14905   4.372   3.217   0.021 -0.2501  0.2598 -0.2267
 1091SOL    HW114906   4.371   3.242   0.114 -0.7585  1.0030 -0.4222
 1091SOL    HW214907   4.315   3.140   0.020  1.2467 -0.8595  1.1590
 1092SOL     OW14908   0.351   0.037   5.501 -0.1864  0.2184  0.1639
 1092SOL    HW114909   0.444   0.018   5.513 -0.2505 -1.7502 -2.4894
 1092SOL    HW214910   0.369   0.113   5.446  1.9198 -0.7167 -0.4551
 1093SOL     OW14911   3.736   0.810   2.655 -0.2018 -0.7642  0.2692
 1093SOL    HW114912   3.827   0.803   2.625 -0.1857 -0.2510  0.2031
 1093SOL    HW214913   3.686   0.782   2.578  1.9645 -0.9260 -1.0878
 1094SOL     OW14914   2.006   2.971  10.038  0.1350  0.0461 -0.1818
 1094SOL    HW114915   2.011   2.883  10.076 -0.7658 -0.9577 -2.3889
 1094SOL    HW214916   1.973   3.023  10.112 -0.9508 -0.7085 -0.1402
 1095SOL     OW14917   3.037   3.546   6.587  0.0100 -0.9373  0.1019
 1095SOL    HW114918   3.001   3.470   6.540 -2.0674 -0.6215  1.1846
 1095SOL    HW214919   3.006   3.545   6.677 -1.4224 -0.6951 -0.3945
 1096SOL     OW14920   0.508   1.228  11.537  0.8120  0.5081  0.4235
 1096SOL    HW114921   0.450   1.299  11.509 -1.4735 -0.5469  2.4528
 1096SOL    HW214922   0.444   1.157  11.542  0.2678  0.8636 -1.4636
 1097SOL     OW14923   1.490   2.731   7.747  0.0266 -0.0800 -0.2550
 1097SOL    HW114924   1.426   2.724   7.819  0.4759 -0.1830  0.1329
 1097SOL    HW214925   1.490   2.640   7.718  1.9832  0.8340 -3.0320
 1098SOL     OW14926   4.593   4.458  17.009 -0.5360  0.0565 -0.2602
 1098SOL    HW114927   4.499   4.442  17.021 -0.1792 -0.8604  1.2458
 1098SOL    HW214928   4.596   4.522  16.938 -0.6644  1.8510  1.3615
 1099SOL     OW14929   0.148   0.618  10.063 -0.1706 -0.0301 -0.3588
 1099SOL    HW114930   0.243   0.625  10.070 -0.2372  0.1754  0.3540
 1099SOL    HW214931   0.141   0.580   9.976 -2.4291 -0.4235 -0.0063
 1100SOL     OW14932   4.476   3.770   1.529 -0.0640 -0.1312 -0.2699
 1100SOL    HW114933   4.416   3.844   1.539 -0.0548  0.0712 -1.7372
 1100SOL    HW214934   4.491   3.756   1.623  0.0271 -0.5276 -0.3427
 1101SOL     OW14935   3.589   0.343   3.182 -0.4520 -0.5102 -0.3503
 1101SOL    HW114936   3.507   0.388   3.160 -0.5292 -1.7499 -2.6405
 1101SOL    HW214937   3.564   0.308   3.267  0.9287 -2.3762 -0.7166
 1102SOL     OW14938   0.372   3.105   9.238  0.8542  0.0114  0.4519
 1102SOL    HW114939   0.388   3.186   9.189  0.7238 -0.5423 -0.5143
 1102SOL    HW214940   0.463   3.076   9.243  0.4800 -0.9462  1.5531
 1103SOL     OW14941   2.070   3.112  16.119 -0.0564  0.7510 -0.5913
 1103SOL    HW114942   2.054   3.198  16.078 -0.2704  1.1637  0.3690
 1103SOL    HW214943   2.101   3.059  16.046 -0.8248  0.8491 -0.9924
 1104SOL     OW14944   2.075   2.134   1.018 -0.0036  0.8684  0.1834
 1104SOL    HW114945   2.127   2.054   1.027 -1.2708  0.0343  0.2388
 1104SOL    HW214946   2.140   2.183   0.968  0.9807  1.6589  2.2793
 1105SOL     OW14947   0.432   4.451   1.945  0.1890 -0.5101  0.2980
 1105SOL    HW114948   0.342   4.428   1.966 -0.4480  1.1823 -0.5683
 1105SOL    HW214949   0.427   4.480   1.854 -1.1678  1.5959  1.0262
 1106SOL     OW14950   2.962   1.309   4.718  0.0666 -0.5186  0.3196
 1106SOL    HW114951   2.886   1.367   4.711 -0.2671 -0.9795  0.1090
 1106SOL    HW214952   2.976   1.316   4.812  2.3126 -0.8301  0.0136
 1107SOL     OW14953   0.908   1.524   3.498 -0.3106  0.0706  0.1152
 1107SOL    HW114954   0.942   1.614   3.505 -1.4887  0.4732  0.7332
 1107SOL    HW214955   0.825   1.533   3.450  0.5460  1.0022 -1.1928
 1108SOL     OW14956   2.790   4.409  11.419  0.2242  0.0786  0.6336
 1108SOL    HW114957   2.745   4.365  11.347  1.1377 -0.8660  0.6204
 1108SOL    HW214958   2.865   4.348  11.424 -0.8644 -1.1871  1.4922
 1109SOL     OW14959   0.838   0.515  15.594 -0.7557  0.1941  0.2159
 1109SOL    HW114960   0.872   0.587  15.646  2.0464  0.2127 -1.6190
 1109SOL    HW214961   0.806   0.561  15.517 -2.4825  0.5970  1.1847
 1110SOL     OW14962   2.484   4.116  11.631 -0.5554 -0.1996 -0.4562
 1110SOL    HW114963   2.435   4.194  11.607 -0.1706 -0.5202 -2.2961
 1110SOL    HW214964   2.561   4.157  11.671 -0.4998 -0.3990 -0.3616
 1111SOL     OW14965   3.323   2.531   6.219  0.2721  0.3062 -0.1351
 1111SOL    HW114966   3.329   2.457   6.279 -3.4677 -1.9657 -2.5277
 1111SOL    HW214967   3.339   2.490   6.134 -1.3382  3.1858 -1.8395
 1112SOL     OW14968   0.932   3.465   8.556 -0.1857  0.3861 -0.5509
 1112SOL    HW114969   1.004   3.476   8.618 -2.8776 -0.6694  2.7746
 1112SOL    HW214970   0.966   3.520   8.485  1.4828  0.4402  0.3108
 1113SOL     OW14971   1.220   1.321   2.935  0.0298 -0.3741 -0.1436
 1113SOL    HW114972   1.197   1.414   2.930 -0.7755 -0.6461 -1.2717
 1113SOL    HW214973   1.146   1.287   2.886 -1.1347 -2.0084  2.7306
 1114SOL     OW14974   1.053   4.578   3.024  0.3802 -0.2258  0.4418
 1114SOL    HW114975   1.097   4.662   3.036 -0.2728  0.2321 -0.3912
 1114SOL    HW214976   1.048   4.546   3.114  0.1105 -0.4454  0.3496
 1115SOL     OW14977   2.996   4.397  10.669  0.0972  0.0355 -0.0422
 1115SOL    HW114978   2.995   4.377  10.763  0.8111 -0.8105 -0.2086
 1115SOL    HW214979   3.078   4.366  10.630  1.0803  0.7750  1.4445
 1116SOL     OW14980   1.233   0.466   4.893  0.0372  0.1131 -0.7320
 1116SOL    HW114981   1.176   0.484   4.968  1.0474  1.4337 -0.3076
 1116SOL    HW214982   1.226   0.370   4.886 -0.1669  0.1921 -1.7412
 1117SOL     OW14983   0.790   1.161   5.526  0.3079 -0.1515 -0.7594
 1117SOL    HW114984   0.856   1.174   5.593 -1.6362 -0.3630  1.2058
 1117SOL    HW214985   0.837   1.202   5.453 -0.6646  1.1889 -0.6400
 1118SOL     OW14986   3.625   2.812  12.372  0.6392 -0.1033  0.3823
 1118SOL    HW114987   3.719   2.792  12.376  0.4603 -0.4266  3.3405
 1118SOL    HW214988   3.626   2.899  12.412 -1.2285  0.1058 -0.0517
 1119SOL     OW14989   2.752   2.589   7.904 -0.5395 -0.0495  0.1555
 1119SOL    HW114990   2.791   2.665   7.946  1.2763 -0.4571 -0.7579
 1119SOL    HW214991   2.789   2.515   7.953  0.7380 -1.0265 -2.2331
 1120SOL     OW14992   0.701   1.694   3.961  0.6971  0.0763  0.0219
 1120SOL    HW114993   0.615   1.660   3.985  1.3876  0.7293  3.4421
 1120SOL    HW214994   0.711   1.667   3.870 -0.1983  0.0544 -0.0789
 1121SOL     OW14995   2.603   0.348   6.606  0.3124  1.1265  0.1079
 1121SOL    HW114996   2.673   0.342   6.671  1.4407  2.1481 -1.0176
 1121SOL    HW214997   2.595   0.256   6.580  0.2759  0.4166  2.6725
 1122SOL     OW14998   4.690   4.737   8.575  0.3290  0.2170 -0.3867
 1122SOL    HW114999   4.699   4.643   8.591  1.4481  0.4537  0.3514
 1122SOL    HW215000   0.033   0.006   8.525  0.6513  1.2733  0.3042
 1123SOL     OW15001   0.986   3.881   6.395 -0.2148  0.1961  0.2620
 1123SOL    HW115002   0.960   3.791   6.372 -2.1307  0.7638  0.2243
 1123SOL    HW215003   1.008   3.909   6.306  2.5885  0.5196  1.0772
 1124SOL     OW15004   2.115   0.678   2.274  0.8410 -0.0883  0.5291
 1124SOL    HW115005   2.072   0.608   2.323 -2.8452 -0.5432 -3.3575
 1124SOL    HW215006   2.063   0.677   2.193  0.3713  2.6044  0.8235
 1125SOL     OW15007   0.779   1.404   8.697  0.1648  0.1906  0.7861
 1125SOL    HW115008   0.729   1.407   8.779  0.8235 -0.5979  1.2153
 1125SOL    HW215009   0.777   1.496   8.672  2.6871  0.4214  1.4497
 1126SOL     OW15010   2.612   0.436   1.776 -0.1612  0.2857 -0.0414
 1126SOL    HW115011   2.669   0.430   1.853  0.1744 -2.4435 -0.4940
 1126SOL    HW215012   2.547   0.368   1.791  0.0328  0.0745 -0.1603
 1127SOL     OW15013   0.116   2.570  10.796 -0.2518 -0.1282 -0.1875
 1127SOL    HW115014   0.204   2.587  10.829 -0.1733 -0.8267 -0.0330
 1127SOL    HW215015   0.052   2.602  10.860  1.5116  1.1107  0.9378
 1128SOL     OW15016   2.007   3.928   5.586  0.0888  0.2769 -0.0688
 1128SOL    HW115017   2.025   4.021   5.599  1.9817 -0.0708 -0.2602
 1128SOL    HW215018   2.015   3.890   5.674 -0.7832  0.2181 -0.0174
 1129SOL     OW15019   2.491   0.476   4.541 -0.1421 -0.1408 -0.0290
 1129SOL    HW115020   2.485   0.567   4.571  0.0136 -0.1910  0.1571
 1129SOL    HW215021   2.447   0.429   4.611 -0.2611 -0.8689 -0.5905
 1130SOL     OW15022   2.547   0.496  10.013 -0.0996 -0.3884  0.1171
 1130SOL    HW115023   2.572   0.528  10.100 -0.3969  0.9642 -0.3049
 1130SOL    HW215024   2.564   0.402  10.022 -0.4383 -0.6239 -1.8689
 1131SOL     OW15025   0.437   2.657   1.603 -0.0840 -0.0975 -0.3577
 1131SOL    HW115026   0.396   2.657   1.516 -0.3854 -1.8360 -0.2128
 1131SOL    HW215027   0.378   2.615   1.665 -0.7890  0.1987 -0.8323
 1132SOL     OW15028   4.351   2.094   5.288 -0.0058 -0.3737  0.6782
 1132SOL    HW115029   4.275   2.039   5.271  0.5798 -0.4087 -1.9703
 1132SOL    HW215030   4.320   2.181   5.313  1.0398  0.2465 -0.1470
 1133SOL     OW15031   0.440   2.564   6.479  0.4352 -0.2322 -0.6043
 1133SOL    HW115032   0.535   2.572   6.464  0.4659 -2.0383 -1.3519
 1133SOL    HW215033   0.437   2.555   6.574  2.3956 -2.2412 -0.7266
 1134SOL     OW15034   0.731   2.450  11.774 -0.2726 -0.0388  0.2018
 1134SOL    HW115035   0.823   2.430  11.760 -0.2088 -0.1820  0.8197
 1134SOL    HW215036   0.726   2.540  11.741  3.4931  1.1116  2.6874
 1135SOL     OW15037   3.103   0.470  12.866  0.1578 -0.3500  0.4509
 1135SOL    HW115038   3.102   0.407  12.794  2.8882  2.0064 -1.6021
 1135SOL    HW215039   3.034   0.531  12.842 -0.3158 -0.6167  1.1362
 1136SOL     OW15040   3.804   2.071   7.850 -0.0480 -0.0118  0.1515
 1136SOL    HW115041   3.822   2.114   7.933  1.3261  1.0959 -0.7321
 1136SOL    HW215042   3.745   2.001   7.880  1.3910 -0.2499  2.4350
 1137SOL     OW15043   2.305   1.813  14.501  0.3347  0.3065 -0.0600
 1137SOL    HW115044   2.277   1.877  14.435 -2.6335 -1.4372 -0.5172
 1137SOL    HW215045   2.332   1.871  14.572 -1.3552  1.0040  0.0194
 1138SOL     OW15046   3.463   1.254   9.982  0.6078  0.0402 -0.3032
 1138SOL    HW115047   3.555   1.275   9.966  0.3364  1.3119 -0.2160
 1138SOL    HW215048   3.465   1.159   9.972  0.0935 -0.0777  0.7479
 1139SOL     OW15049   4.438   3.879   7.399 -0.3465  0.0183 -0.1025
 1139SOL    HW115050   4.421   3.876   7.493  1.5329  2.0228  0.3291
 1139SOL    HW215051   4.385   3.805   7.371 -1.5283  0.6979  0.3646
 1140SOL     OW15052   4.073   3.623   7.301 -0.5333 -0.4502 -0.5157
 1140SOL    HW115053   4.053   3.649   7.391  1.5056  0.5589 -0.3631
 1140SOL    HW215054   4.024   3.541   7.292 -0.5027 -0.7350  1.9480
 1141SOL     OW15055   3.454   2.072   1.979  0.0173 -0.4118  0.1933
 1141SOL    HW115056   3.538   2.110   2.003 -0.0388 -0.1375 -0.0386
 1141SOL    HW215057   3.445   2.098   1.887  2.3338 -0.2987  0.0142
 1142SOL     OW15058   0.506   1.560   2.485  0.0188 -0.2762  0.4474
 1142SOL    HW115059   0.471   1.489   2.539 -1.5317  1.1828  1.3687
 1142SOL    HW215060   0.515   1.535   2.393  0.0586 -0.3905  0.4817
 1143SOL     OW15061   2.322   1.889  11.768 -0.0289 -0.0715  0.1999
 1143SOL    HW115062   2.338   1.805  11.812 -1.7839 -0.9578 -0.8337
 1143SOL    HW215063   2.313   1.853  11.680  0.6815 -0.2450  0.2000
 1144SOL     OW15064   2.227   2.085   2.888  0.0965  0.3054 -0.3661
 1144SOL    HW115065   2.192   2.088   2.799 -1.2709  0.8320  0.1874
 1144SOL    HW215066   2.146   2.094   2.938  0.7908  1.0613  0.6009
 1145SOL     OW15067   0.219   2.219   7.796 -0.1808 -0.5693  0.0370
 1145SOL    HW115068   0.266   2.289   7.841 -0.2558 -0.9358  0.6976
 1145SOL    HW215069   0.143   2.205   7.854 -0.0695  0.1790  0.3579
 1146SOL     OW15070   4.609   4.346  15.182 -0.2388  0.2798  0.8017
 1146SOL    HW115071   4.619   4.256  15.214  0.5535  0.2637  0.5046
 1146SOL    HW215072   4.517   4.347  15.154 -0.5036  0.9722  1.7064
 1147SOL     OW15073   1.526   3.460   9.196 -0.1146 -0.3577 -0.1586
 1147SOL    HW115074   1.591   3.406   9.242 -0.6684 -1.2379 -0.4112
 1147SOL    HW215075   1.584   3.530   9.167 -1.6957  1.6120  1.4493
 1148SOL     OW15076   4.048   3.261  11.559 -0.2869 -0.1045 -0.2358
 1148SOL    HW115077   4.053   3.356  11.545  1.3639 -0.2755 -0.8830
 1148SOL    HW215078   4.016   3.229  11.475 -0.8362 -1.8010  0.6363
 1149SOL     OW15079   1.203   2.266  17.021 -0.2421 -0.4804 -0.0754
 1149SOL    HW115080   1.156   2.321  16.958  0.3252  1.8899  1.5606
 1149SOL    HW215081   1.291   2.277  16.986 -0.7455  1.3685 -0.7680
 1150SOL     OW15082   2.668   4.243   8.893 -0.4451  0.3320 -0.1456
 1150SOL    HW115083   2.676   4.277   8.803 -0.6573 -1.7251 -0.9459
 1150SOL    HW215084   2.577   4.270   8.905 -0.9543 -1.2927 -0.3474
 1151SOL     OW15085   2.466   1.830   4.867  0.0271  0.3031  0.7305
 1151SOL    HW115086   2.371   1.841   4.878  0.0545 -0.5657  1.8509
 1151SOL    HW215087   2.496   1.914   4.904  0.0103  0.4420  0.4261
 1152SOL     OW15088   3.618   1.580   6.082 -0.0195  0.2263 -0.1747
 1152SOL    HW115089   3.644   1.506   6.137  0.0997 -0.1708 -0.7637
 1152SOL    HW215090   3.523   1.570   6.075 -0.0387 -0.5640  1.3373
 1153SOL     OW15091   1.330   2.307   6.314 -0.6413  0.1182  0.5685
 1153SOL    HW115092   1.331   2.402   6.306  0.7788 -0.0970 -1.7537
 1153SOL    HW215093   1.368   2.297   6.401 -1.6840  2.3039  1.2539
 1154SOL     OW15094   2.564   3.407   9.496  0.2481 -0.6624 -0.3564
 1154SOL    HW115095   2.600   3.410   9.584  2.5154  2.5412 -1.4029
 1154SOL    HW215096   2.486   3.354   9.515 -0.1798  0.9103  2.1712
 1155SOL     OW15097   1.504   0.324  11.686  0.5243 -0.0328  0.2048
 1155SOL    HW115098   1.594   0.319  11.654 -0.2598 -0.5100 -1.9167
 1155SOL    HW215099   1.502   0.249  11.745 -3.0119  0.7206  1.0337
 1156SOL     OW15100   2.691   1.301  16.146 -0.1334 -0.5040 -0.0464
 1156SOL    HW115101   2.616   1.360  16.143  0.1673 -0.1466 -0.4834
 1156SOL    HW215102   2.676   1.246  16.223  0.1311  1.9390  1.7179
 1157SOL     OW15103   2.550   2.416   6.783  0.5308 -0.0134 -0.0285
 1157SOL    HW115104   2.461   2.405   6.750  0.8979 -3.1024 -0.0050
 1157SOL    HW215105   2.537   2.408   6.878  0.7575  0.8634  0.0766
 1158SOL     OW15106   0.334   1.194   3.230  0.1361  0.0466  0.0699
 1158SOL    HW115107   0.388   1.164   3.303  1.4060  0.4224 -0.7004
 1158SOL    HW215108   0.392   1.168   3.158  0.4631  0.4796  0.1707
 1159SOL     OW15109   4.019   2.457  13.571 -0.5708 -0.0404 -0.0925
 1159SOL    HW115110   3.928   2.457  13.601 -1.5834  3.5626 -3.1302
 1159SOL    HW215111   4.043   2.547  13.593  0.7259 -0.0748 -1.3735
 1160SOL     OW15112   2.350   2.728   5.819 -1.2074  0.0683  0.2093
 1160SOL    HW115113   2.414   2.788   5.857 -0.5617  0.6625 -1.8186
 1160SOL    HW215114   2.275   2.759   5.871  1.2207 -0.3638  3.9592
 1161SOL     OW15115   2.256   1.683   9.488 -0.1418  0.0062 -0.3334
 1161SOL    HW115116   2.238   1.758   9.545  3.6134  1.4015 -1.0224
 1161SOL    HW215117   2.229   1.710   9.400  0.0590 -1.5545 -0.8700
 1162SOL     OW15118   1.484   4.075   7.618 -0.2825 -0.1760 -0.4072
 1162SOL    HW115119   1.550   4.144   7.610  0.9499 -1.6629 -3.2024
 1162SOL    HW215120   1.402   4.124   7.609 -0.4200 -0.3905 -0.3220
 1163SOL     OW15121   4.109   2.307   1.900  0.0646 -0.3030 -0.4013
 1163SOL    HW115122   4.164   2.364   1.847  1.6926 -0.4680  1.1294
 1163SOL    HW215123   4.140   2.225   1.861  1.8847 -0.6352  1.7950
 1164SOL     OW15124   2.958   0.014   5.795  0.5673  0.4760 -0.0272
 1164SOL    HW115125   2.910   4.700   5.859 -1.7294  2.8646  0.1784
 1164SOL    HW215126   2.921   4.702   5.722  1.5875 -0.2739 -0.0212
 1165SOL     OW15127   1.702   2.539  12.489  0.4679 -0.1105  0.5216
 1165SOL    HW115128   1.615   2.575  12.506 -0.5825 -2.9466  1.0749
 1165SOL    HW215129   1.707   2.555  12.394  0.1202 -0.5168  0.4336
 1166SOL     OW15130   2.627   1.080   8.284 -0.2980  0.0360 -0.1006
 1166SOL    HW115131   2.696   1.023   8.251 -1.7667 -1.1855 -1.0700
 1166SOL    HW215132   2.624   1.062   8.378 -0.7231  0.7841  0.0334
 1167SOL     OW15133   0.487   1.128  16.695 -0.0594  0.1231  0.7330
 1167SOL    HW115134   0.547   1.174  16.636  0.6669 -1.0848  0.5250
 1167SOL    HW215135   0.408   1.155  16.650  0.2694  0.4082  0.3303
 1168SOL     OW15136   2.623   4.008   5.618 -0.1967  0.3352 -0.0316
 1168SOL    HW115137   2.578   3.951   5.556  0.7754 -0.3536 -0.1058
 1168SOL    HW215138   2.552   4.071   5.625 -2.2126 -1.9435 -0.0553
 1169SOL     OW15139   4.425   0.855  13.412  0.2349  0.4828  0.1931
 1169SOL    HW115140   4.486   0.924  13.385  0.0642  0.8671  0.7910
 1169SOL    HW215141   4.379   0.888  13.490 -0.1487  0.3478  0.0253
 1170SOL     OW15142   0.226   4.223   2.312 -0.3337  0.3931  0.1615
 1170SOL    HW115143   0.170   4.221   2.389 -0.1470  0.8122  0.3093
 1170SOL    HW215144   0.184   4.146   2.275 -0.3993  1.1040 -1.2536
 1171SOL     OW15145   3.905   0.943   5.511 -0.4826  0.1861  0.4390
 1171SOL    HW115146   3.873   0.854   5.528  0.4384  0.1673  2.0815
 1171SOL    HW215147   3.999   0.937   5.528 -0.4586 -0.0825  0.2047
 1172SOL     OW15148   3.582   2.516   7.343 -0.7592  0.1076  0.0090
 1172SOL    HW115149   3.538   2.437   7.310  0.3010 -1.0069  1.2820
 1172SOL    HW215150   3.554   2.526   7.434 -2.8039 -0.6728 -0.5324
 1173SOL     OW15151   1.496   0.541   8.783  0.1979 -0.1708 -0.2826
 1173SOL    HW115152   1.551   0.576   8.853 -0.8094 -1.3176  1.0908
 1173SOL    HW215153   1.460   0.615   8.735 -0.2588  0.7325  1.4585
 1174SOL     OW15154   2.487   0.660   6.091 -0.1482  0.0108 -0.5137
 1174SOL    HW115155   2.460   0.735   6.038 -4.8227 -2.1921 -1.2790
 1174SOL    HW215156   2.465   0.680   6.182 -1.1718 -0.3852 -0.6702
 1175SOL     OW15157   3.843   4.244   4.361  0.2542  0.4994  0.4710
 1175SOL    HW115158   3.822   4.167   4.414 -1.9487  0.4680 -0.4401
 1175SOL    HW215159   3.937   4.227   4.359 -0.4535 -3.4312 -0.4179
 1176SOL     OW15160   3.072   2.155   2.407  0.4455  0.4658  0.1641
 1176SOL    HW115161   2.979   2.164   2.429  0.6878  1.3929  0.7856
 1176SOL    HW215162   3.076   2.121   2.317  0.6956  1.7127 -0.2909
 1177SOL     OW15163   4.690   4.594   9.207  0.7346 -0.1682 -0.5037
 1177SOL    HW115164   0.031   4.561   9.249  1.1772  0.6796 -0.6620
 1177SOL    HW215165   4.628   4.594   9.280  2.4837  1.1571  1.0169
 1178SOL     OW15166   2.932   0.610   1.690 -0.2765 -0.4904  0.0961
 1178SOL    HW115167   2.872   0.588   1.618 -0.3271 -0.6159  0.1761
 1178SOL    HW215168   2.887   0.571   1.765 -1.0012 -2.1458 -1.1843
 1179SOL     OW15169   1.890   0.924   6.665  0.1049 -0.2919  0.0465
 1179SOL    HW115170   1.892   0.935   6.760  0.6936 -1.8244  0.2079
 1179SOL    HW215171   1.972   0.966   6.637  1.1928 -0.6870  2.6337
 1180SOL     OW15172   0.147   0.105   2.798  0.9437  0.7401  0.6319
 1180SOL    HW115173   0.190   0.067   2.875 -2.4533 -2.8691  0.7006
 1180SOL    HW215174   0.100   0.031   2.761  2.9649  1.5132 -3.4961
 1181SOL     OW15175   2.040   2.504   4.771 -0.1531  0.1718 -0.4422
 1181SOL    HW115176   2.008   2.439   4.833  1.5403 -1.7526 -1.5936
 1181SOL    HW215177   1.958   2.539   4.736 -1.0543  0.1003  1.5966
 1182SOL     OW15178   4.724   0.025   1.498 -0.0230  0.3021 -0.7991
 1182SOL    HW115179   4.638   4.737   1.463 -0.2897  1.1619 -0.7739
 1182SOL    HW215180   0.042   0.028   1.421  0.4742  1.9654 -0.3588
 1183SOL     OW15181   2.540   4.594   9.611  0.0665  0.2518 -0.4816
 1183SOL    HW115182   2.597   4.669   9.593 -1.7129  1.0887 -2.5574
 1183SOL    HW215183   2.562   4.533   9.541 -1.8305 -1.3636  0.3257
 1184SOL     OW15184   3.247   4.539   7.189  0.2450 -0.1841  0.3050
 1184SOL    HW115185   3.203   4.598   7.128  0.3871 -1.6176 -1.1831
 1184SOL    HW215186   3.268   4.463   7.135 -2.8114 -0.8146  0.0227
 1185SOL     OW15187   1.448   0.015   3.460  0.0256  0.5122  0.0742
 1185SOL    HW115188   1.406   0.061   3.533 -0.7127  0.9510 -0.6312
 1185SOL    HW215189   1.508   4.692   3.502 -0.9546 -1.5511 -1.5248
 1186SOL     OW15190   3.832   2.145   5.512 -0.1428  0.6573  0.1925
 1186SOL    HW115191   3.922   2.122   5.538 -1.0393 -1.4110  1.4825
 1186SOL    HW215192   3.812   2.191   5.594  1.1170 -0.4535  1.1371
 1187SOL     OW15193   1.630   3.627   4.717 -0.2580 -0.2364  0.3362
 1187SOL    HW115194   1.549   3.641   4.669 -1.4532 -0.3037  2.3113
 1187SOL    HW215195   1.659   3.718   4.725  1.0547 -1.0992  5.2971
 1188SOL     OW15196   0.277   0.621  17.695  0.1781 -0.3034  0.1779
 1188SOL    HW115197   0.243   0.702  17.658  2.7726  0.7464  0.0366
 1188SOL    HW215198   0.366   0.617  17.658 -0.2697 -0.8133 -0.8154
 1189SOL     OW15199   2.731   1.893   2.160 -0.1793  0.0718 -0.4149
 1189SOL    HW115200   2.689   1.977   2.143  0.1120  0.0232 -1.3797
 1189SOL    HW215201   2.659   1.832   2.177 -0.3476  0.0058 -1.3153
 1190SOL     OW15202   1.737   2.810   2.279 -0.1562 -0.0466 -0.0185
 1190SOL    HW115203   1.830   2.801   2.258  0.0524  3.0080 -0.3806
 1190SOL    HW215204   1.714   2.882   2.220 -2.1505 -1.0658 -0.4934
 1191SOL     OW15205   1.015   4.536  13.415  0.3506  0.0487 -0.7703
 1191SOL    HW115206   0.977   4.492  13.491  0.9530 -1.7295 -1.5151
 1191SOL    HW215207   1.039   4.620  13.455  0.2100 -0.3262  0.0955
 1192SOL     OW15208   1.275   4.328   9.585 -0.4859 -0.5386 -0.2376
 1192SOL    HW115209   1.222   4.408   9.579  1.1109  0.4402 -1.6347
 1192SOL    HW215210   1.205   4.266   9.602  0.1674 -0.1442  3.6964
 1193SOL     OW15211   4.266   2.747  17.308  0.1776 -0.0219 -0.2749
 1193SOL    HW115212   4.316   2.670  17.334  0.4408  0.5658  0.9801
 1193SOL    HW215213   4.178   2.709  17.307 -0.1086  0.5818  1.0325
 1194SOL     OW15214   4.227   1.454   7.899 -0.6724 -0.0154  0.2879
 1194SOL    HW115215   4.134   1.475   7.888 -0.8027  0.6099  2.5834
 1194SOL    HW215216   4.240   1.455   7.994  3.8549  0.5558 -0.3121
 1195SOL     OW15217   2.428   4.559  12.169  0.1836  0.5435 -0.3384
 1195SOL    HW115218   2.410   4.583  12.078 -0.5312 -1.1419 -0.6393
 1195SOL    HW215219   2.346   4.586  12.210 -0.1421  0.7584 -1.1199
 1196SOL     OW15220   1.119   0.013   9.722  0.4134 -0.1959 -0.5744
 1196SOL    HW115221   1.141   0.104   9.743  0.8066 -0.3973 -0.1255
 1196SOL    HW215222   1.141   4.714   9.807  0.2511  0.4499 -0.2434
 1197SOL     OW15223   1.479   0.883  12.552 -0.1964 -0.7122  0.4546
 1197SOL    HW115224   1.398   0.832  12.552 -0.1887 -0.7266  0.8629
 1197SOL    HW215225   1.469   0.948  12.622  1.2437  0.3727 -0.3616
 1198SOL     OW15226   2.678   2.114   6.438 -0.2017  0.4018  0.2881
 1198SOL    HW115227   2.611   2.071   6.492 -0.3569 -0.7379 -0.8002
 1198SOL    HW215228   2.761   2.079   6.468 -0.6996  0.8965  2.1978
 1199SOL     OW15229   1.806   2.548   7.130  0.1136 -0.0533  0.8598
 1199SOL    HW115230   1.763   2.469   7.163  1.2985 -0.3737  1.6754
 1199SOL    HW215231   1.729   2.589   7.091  0.7503 -0.2507 -0.5883
 1200SOL     OW15232   0.836   3.249   6.469 -0.5074  0.2874 -0.2247
 1200SOL    HW115233   0.767   3.314   6.484 -0.6304  0.5108 -1.8300
 1200SOL    HW215234   0.775   3.189   6.425 -0.8042 -0.3418  1.0325
 1201SOL     OW15235   3.297   1.163  11.907  0.3824 -0.4003  0.3362
 1201SOL    HW115236   3.276   1.256  11.915  0.7802 -0.1590 -1.3537
 1201SOL    HW215237   3.341   1.165  11.992  0.9345  0.3425  0.0421
 1202SOL     OW15238   2.409   1.347   4.264 -0.0495 -0.3204  0.0335
 1202SOL    HW115239   2.340   1.398   4.221  1.8928  1.4637 -0.9999
 1202SOL    HW215240   2.415   1.399   4.345 -0.6332 -1.3564  0.7315
 1203SOL     OW15241   0.009   4.729  13.595 -0.0955  0.7061 -0.5133
 1203SOL    HW115242   0.059   0.071  13.585  2.7297 -0.6241  2.8992
 1203SOL    HW215243   0.070   4.661  13.565 -0.5090 -0.6562  1.7897
 1204SOL     OW15244   1.088   4.360   2.555 -0.1581  0.0262  0.0070
 1204SOL    HW115245   1.030   4.365   2.631 -0.5651 -0.7565 -0.2504
 1204SOL    HW215246   1.135   4.278   2.568  1.0107  0.7698  0.4184
 1205SOL     OW15247   1.322   3.532   2.434 -0.1440 -0.1799 -0.1663
 1205SOL    HW115248   1.269   3.472   2.382 -1.0692 -0.3700  1.0069
 1205SOL    HW215249   1.298   3.619   2.401 -1.4533  0.8425  3.4887
 1206SOL     OW15250   1.483   2.498   2.700 -0.0579  0.0238  0.2885
 1206SOL    HW115251   1.553   2.450   2.654 -0.8064 -0.0120 -0.8013
 1206SOL    HW215252   1.531   2.579   2.717  0.9101 -0.5954  0.5670
 1207SOL     OW15253   0.019   2.396   2.755 -0.1290 -0.0616  0.2024
 1207SOL    HW115254   4.726   2.339   2.825  0.9938 -0.3309  0.4919
 1207SOL    HW215255   0.093   2.343   2.725 -0.1758 -0.3489  0.5953
 1208SOL     OW15256   0.302   2.105   6.563 -0.2925  0.2474  0.4372
 1208SOL    HW115257   0.293   2.192   6.523  1.7005 -0.8781 -2.4378
 1208SOL    HW215258   0.358   2.127   6.638  0.8980  0.3720 -0.5014
 1209SOL     OW15259   2.800   2.611   6.292 -0.2582  0.5680  0.3249
 1209SOL    HW115260   2.823   2.519   6.311 -0.7021  0.4894  0.4660
 1209SOL    HW215261   2.885   2.649   6.269  0.1309 -0.1376  0.5811
 1210SOL     OW15262   1.464   4.104   2.655 -0.4589  0.2419 -0.7408
 1210SOL    HW115263   1.472   4.198   2.674 -0.0082  0.0373  0.0621
 1210SOL    HW215264   1.478   4.058   2.738 -0.3956  0.2788 -0.7306
 1211SOL     OW15265   4.057   2.718   1.685 -0.4276  0.0860  0.6881
 1211SOL    HW115266   4.089   2.788   1.628 -0.2832 -0.7313 -0.2330
 1211SOL    HW215267   4.067   2.757   1.771 -1.1559  2.4118 -0.2757
 1212SOL     OW15268   3.440   2.613   2.390 -0.0904  0.4111 -0.0060
 1212SOL    HW115269   3.410   2.636   2.478  1.3119 -0.0518  0.5960
 1212SOL    HW215270   3.501   2.539   2.392 -2.0610 -1.1884  0.6737
 1213SOL     OW15271   1.419   0.151   9.908  0.1515  0.6600  0.0736
 1213SOL    HW115272   1.432   0.107   9.992 -2.7368  1.8527  1.1366
 1213SOL    HW215273   1.505   0.189   9.892  0.1887  0.3833 -0.3834
 1214SOL     OW15274   4.482   1.173   5.621  0.2401  0.1588  0.0776
 1214SOL    HW115275   4.394   1.135   5.628  1.0356 -1.6918 -0.0660
 1214SOL    HW215276   4.458   1.231   5.549 -1.0289 -0.6904 -0.1931
 1215SOL     OW15277   1.340   3.524   5.285  0.1620  0.8466  0.1980
 1215SOL    HW115278   1.366   3.609   5.319  1.7677 -0.5638  2.4807
 1215SOL    HW215279   1.371   3.541   5.196 -0.3646 -1.6358 -0.4737
 1216SOL     OW15280   0.641   2.576   2.543 -0.3705 -0.5316 -0.7058
 1216SOL    HW115281   0.680   2.515   2.481  0.6124 -0.7497  0.1271
 1216SOL    HW215282   0.637   2.515   2.616  1.9396  0.3330  0.1636
 1217SOL     OW15283   4.570   0.968   3.604 -0.1224 -0.3005 -0.2001
 1217SOL    HW115284   4.635   1.039   3.597 -0.2355 -0.1499  0.2873
 1217SOL    HW215285   4.527   1.000   3.683  0.0243 -0.1475 -0.1795
 1218SOL     OW15286   2.294   1.763   7.093 -0.0865  0.4644 -0.1544
 1218SOL    HW115287   2.250   1.715   7.023 -0.7654  2.8376 -1.3854
 1218SOL    HW215288   2.313   1.841   7.040 -1.9811  1.1026  0.1093
 1219SOL     OW15289   2.413   0.482  15.704 -0.5374 -0.0674  0.5988
 1219SOL    HW115290   2.319   0.499  15.696 -0.8316 -1.4745  1.2568
 1219SOL    HW215291   2.449   0.513  15.620 -0.2387 -1.5993  0.1685
 1220SOL     OW15292   3.422   0.682   7.969 -0.6494  0.1846 -0.0668
 1220SOL    HW115293   3.333   0.689   7.934 -1.4177 -0.5219  1.6941
 1220SOL    HW215294   3.405   0.596   8.007  0.4904  0.7542  1.7349
 1221SOL     OW15295   2.029   3.708   7.663 -0.4157 -0.0119 -0.0553
 1221SOL    HW115296   2.109   3.726   7.614 -1.2696  1.3609 -0.9673
 1221SOL    HW215297   1.970   3.695   7.588  0.1799  2.5203 -0.9803
 1222SOL     OW15298   3.113   2.032  15.468  0.1053 -0.2156 -0.3717
 1222SOL    HW115299   3.099   1.986  15.551  0.7778 -1.9161 -1.1974
 1222SOL    HW215300   3.209   2.036  15.460  0.1472  0.4663  0.4677
 1223SOL     OW15301   1.060   0.730   7.500 -0.2496 -0.6420  0.6588
 1223SOL    HW115302   0.994   0.690   7.443 -0.1897  2.8190 -1.8269
 1223SOL    HW215303   1.132   0.669   7.482 -1.1173 -1.4176 -0.2228
 1224SOL     OW15304   2.803   3.761   5.668  0.1236 -0.0436 -0.3112
 1224SOL    HW115305   2.762   3.688   5.714 -1.2069  0.6185 -0.4340
 1224SOL    HW215306   2.730   3.795   5.617 -0.4319 -1.0296 -0.1662
 1225SOL     OW15307   3.941   2.515   5.267 -0.1827  0.4523 -0.7022
 1225SOL    HW115308   3.966   2.444   5.326 -1.3009  0.7760  0.1594
 1225SOL    HW215309   3.900   2.456   5.204 -2.3135 -0.6379  1.7107
 1226SOL     OW15310   4.220   3.753   9.388  0.2868  0.1657  0.6299
 1226SOL    HW115311   4.173   3.681   9.429 -0.8402  0.3642 -0.3409
 1226SOL    HW215312   4.228   3.797   9.473  2.9471  2.5570 -0.8609
 1227SOL     OW15313   1.302   2.289  16.315 -0.0088  0.1201 -0.4310
 1227SOL    HW115314   1.357   2.313  16.240 -1.4327  2.8176 -0.5905
 1227SOL    HW215315   1.303   2.193  16.320 -0.1292  0.0567 -1.5192
 1228SOL     OW15316   2.000   4.434  13.254 -0.1529 -0.4846 -0.2976
 1228SOL    HW115317   2.058   4.459  13.326  0.3913  0.7314 -1.1749
 1228SOL    HW215318   1.923   4.491  13.254 -0.7832 -1.3312 -0.1300
 1229SOL     OW15319   2.694   2.914   4.831  0.9319  0.3990 -0.0279
 1229SOL    HW115320   2.607   2.916   4.871  1.7532 -0.1210  1.7885
 1229SOL    HW215321   2.719   2.822   4.827  2.3680  0.7973 -0.0404
 1230SOL     OW15322   4.084   0.940  16.957  0.3386  0.5431  0.0811
 1230SOL    HW115323   4.110   0.986  16.877 -2.3728  1.8950 -0.0323
 1230SOL    HW215324   4.030   0.870  16.921  1.2637  0.2044 -0.6315
 1231SOL     OW15325   1.503   0.855   0.316 -0.4256  0.1670  0.5226
 1231SOL    HW115326   1.564   0.881   0.246  1.2812 -2.5098  0.9857
 1231SOL    HW215327   1.465   0.941   0.334  1.2941  0.9199  0.5381
 1232SOL     OW15328   3.760   4.249   7.432 -0.2907  0.3442  0.1775
 1232SOL    HW115329   3.689   4.296   7.388 -1.1864 -2.8192 -1.7669
 1232SOL    HW215330   3.796   4.313   7.493  0.9372 -1.2527  1.1133
 1233SOL     OW15331   1.155   0.069   3.081 -0.1282  0.3771  0.3779
 1233SOL    HW115332   1.242   0.063   3.122  0.6371 -2.7281 -1.6956
 1233SOL    HW215333   1.173   0.140   3.020 -1.3058  0.2377 -0.1270
 1234SOL     OW15334   2.064   2.273  16.701  0.2026  0.2032  0.8098
 1234SOL    HW115335   1.994   2.278  16.765  0.1409 -1.1998  0.8529
 1234SOL    HW215336   2.074   2.178  16.695 -1.4479 -0.0593  2.3318
 1235SOL     OW15337   1.012   0.502  17.468 -0.3484  0.5171  0.4779
 1235SOL    HW115338   1.059   0.430  17.511  0.9328  0.4064 -1.1353
 1235SOL    HW215339   1.080   0.546  17.418  0.2078  0.5393  1.2649
 1236SOL     OW15340   2.476   2.340  13.481 -0.5198  0.3036 -0.2938
 1236SOL    HW115341   2.566   2.371  13.485 -0.5201  0.3320 -0.5162
 1236SOL    HW215342   2.430   2.404  13.427 -0.2449 -0.9494 -1.9909
 1237SOL     OW15343   0.430   1.623   4.032 -0.1561 -0.5031  0.0040
 1237SOL    HW115344   0.424   1.552   4.095  1.8011 -0.9691 -0.3358
 1237SOL    HW215345   0.384   1.585   3.957 -1.4888 -0.3059  0.7231
 1238SOL     OW15346   0.021   2.948  11.144 -0.1460 -0.4416  0.2468
 1238SOL    HW115347   0.055   3.035  11.166  1.1957 -0.6952 -0.8386
 1238SOL    HW215348   4.671   2.949  11.181  0.2445 -0.5616  1.1772
 1239SOL     OW15349   2.268   0.599   8.638  0.1516 -0.0307  0.3797
 1239SOL    HW115350   2.213   0.645   8.575 -1.7971 -0.6145  1.6734
 1239SOL    HW215351   2.238   0.509   8.622  0.3533 -0.1651  0.7516
 1240SOL     OW15352   0.028   2.860   2.651 -0.2721  0.6709 -0.3784
 1240SOL    HW115353   4.702   2.909   2.600 -1.5689 -0.0600  0.5418
 1240SOL    HW215354   4.716   2.779   2.656  1.1235 -0.2829 -1.4499
 1241SOL     OW15355   1.732   4.108   0.508  0.4754 -0.3631  0.4682
 1241SOL    HW115356   1.702   4.053   0.581 -1.5857  1.7131  1.1992
 1241SOL    HW215357   1.650   4.150   0.480  1.2825  0.5304 -0.5542
 1242SOL     OW15358   1.801   0.844   8.886  0.3431  0.4568  0.2567
 1242SOL    HW115359   1.889   0.872   8.910  1.9844 -1.6845 -3.3293
 1242SOL    HW215360   1.772   0.914   8.827 -0.1437  1.2331  1.4212
 1243SOL     OW15361   4.403   3.713   5.593 -0.0952 -0.1051  0.3530
 1243SOL    HW115362   4.431   3.668   5.513 -0.0576 -0.1429  0.3877
 1243SOL    HW215363   4.406   3.638   5.652  0.2860 -0.7395 -0.4714
 1244SOL     OW15364   0.217   4.095   3.343 -0.6795 -0.0193  0.0184
 1244SOL    HW115365   0.290   4.153   3.318 -1.4192  0.4435 -1.0534
 1244SOL    HW215366   0.172   4.087   3.259 -0.3937 -0.5024 -0.0876
 1245SOL     OW15367   1.877   2.675   4.247 -0.0731 -0.5289  0.4150
 1245SOL    HW115368   1.799   2.648   4.296  1.4356  0.6226  3.4625
 1245SOL    HW215369   1.842   2.757   4.212  0.9960 -0.2772 -0.0525
 1246SOL     OW15370   1.399   1.347  16.663 -0.5131  0.5236  0.5065
 1246SOL    HW115371   1.366   1.437  16.661  0.6880  0.9425 -0.9416
 1246SOL    HW215372   1.420   1.330  16.571 -1.9464  0.0819  0.2672
 1247SOL     OW15373   2.880   2.855   3.923 -0.4011 -0.1524  0.2899
 1247SOL    HW115374   2.852   2.898   4.004  0.0629 -0.5800  0.6791
 1247SOL    HW215375   2.964   2.821   3.955  0.5588  1.4338 -0.5560
 1248SOL     OW15376   2.445   3.219   0.702  1.1250 -0.4628  0.0122
 1248SOL    HW115377   2.365   3.198   0.751  0.3549  2.1849 -0.1023
 1248SOL    HW215378   2.445   3.152   0.633 -0.0715 -0.0218 -0.4355
 1249SOL     OW15379   3.183   2.282   8.087  0.1834 -0.0741  0.1386
 1249SOL    HW115380   3.117   2.232   8.038  1.4033 -2.6336  1.0974
 1249SOL    HW215381   3.152   2.371   8.072 -0.1452 -0.2117 -0.0282
 1250SOL     OW15382   4.566   1.482   9.396 -0.0046 -0.4046  0.2704
 1250SOL    HW115383   4.651   1.464   9.437  1.5700  1.2875 -2.2818
 1250SOL    HW215384   4.533   1.551   9.454 -0.3439  1.9836 -2.7401
 1251SOL     OW15385   4.081   0.158   2.331 -0.2577 -0.0577  0.2642
 1251SOL    HW115386   4.060   0.192   2.419 -0.1165  1.6941 -0.3701
 1251SOL    HW215387   4.168   0.192   2.307 -0.8939  1.0775 -0.4338
 1252SOL     OW15388   3.830   3.347   5.587  0.3628 -0.0238  0.4582
 1252SOL    HW115389   3.925   3.338   5.584  0.2269 -0.6878 -2.0236
 1252SOL    HW215390   3.823   3.384   5.675 -1.6189 -0.3921  0.4655
 1253SOL     OW15391   1.344   3.968   3.285  0.1819 -0.0137  0.4111
 1253SOL    HW115392   1.381   3.911   3.352  1.0674  1.8881  1.5524
 1253SOL    HW215393   1.340   3.906   3.212  0.5082 -1.8512  1.9448
 1254SOL     OW15394   2.349   0.261  17.619 -0.4520  0.1539 -0.5965
 1254SOL    HW115395   2.298   0.226  17.692 -1.1822  0.2426 -1.0651
 1254SOL    HW215396   2.351   0.356  17.630 -0.2072 -0.0084  0.7579
 1255SOL     OW15397   0.652   0.849   7.637 -0.3431  0.1609 -0.0958
 1255SOL    HW115398   0.580   0.833   7.698  0.0555  1.2635  0.6714
 1255SOL    HW215399   0.641   0.784   7.568 -1.2484 -0.2765  0.4624
 1256SOL     OW15400   1.160   3.125   4.587  0.1267  0.3564 -0.3602
 1256SOL    HW115401   1.249   3.155   4.608 -0.6716  2.5210 -0.0348
 1256SOL    HW215402   1.170   3.070   4.510 -0.4259  1.3819 -1.1650
 1257SOL     OW15403   1.493   0.035   4.551 -0.3730 -0.0322  0.5425
 1257SOL    HW115404   1.402   0.064   4.556 -0.0909  1.2286 -1.8428
 1257SOL    HW215405   1.547   0.109   4.524  0.4187 -0.3948  1.1371
 1258SOL     OW15406   0.198   2.195   6.138  0.9090 -0.4461  0.2392
 1258SOL    HW115407   0.278   2.142   6.139  1.4309  0.3616  1.4485
 1258SOL    HW215408   0.151   2.123   6.096  0.0374  0.5335 -0.4536
 1259SOL     OW15409   2.184   0.190   9.713  0.2174  0.4894 -0.3753
 1259SOL    HW115410   2.155   0.174   9.802  0.6972  1.3686 -0.0613
 1259SOL    HW215411   2.211   0.102   9.687  0.1922  0.4923 -0.4109
 1260SOL     OW15412   4.240   2.034   6.707  0.5273  0.1716 -0.0965
 1260SOL    HW115413   4.277   2.064   6.623  1.1212 -0.8267 -0.1881
 1260SOL    HW215414   4.163   2.091   6.715  2.9627  3.2761  1.2825
 1261SOL     OW15415   2.416   0.562   3.547 -0.0411 -0.5423  0.2529
 1261SOL    HW115416   2.467   0.619   3.489 -1.1190  0.2654  0.0746
 1261SOL    HW215417   2.475   0.489   3.562 -0.4530 -0.5968  1.6421
 1262SOL     OW15418   2.413   0.238  15.546 -0.2326 -0.4586  0.0305
 1262SOL    HW115419   2.362   0.315  15.572  1.5556  0.2551  1.3570
 1262SOL    HW215420   2.465   0.222  15.625 -1.3390 -1.0093  0.6563
 1263SOL     OW15421   0.856   2.881   8.298 -0.4387 -0.1177 -0.0187
 1263SOL    HW115422   0.916   2.864   8.225  0.4138 -1.8578  1.0698
 1263SOL    HW215423   0.805   2.801   8.290  0.7017 -0.6108 -2.2526
 1264SOL     OW15424   3.586   3.450   0.541 -0.4245 -0.2269 -0.1762
 1264SOL    HW115425   3.510   3.508   0.538 -0.1492  0.2333  1.8807
 1264SOL    HW215426   3.647   3.498   0.485  2.4337 -1.6214  1.7097
 1265SOL     OW15427   0.803   1.515   6.142  0.5446 -0.2720  0.1331
 1265SOL    HW115428   0.730   1.551   6.194  0.2752 -2.5069  1.2919
 1265SOL    HW215429   0.870   1.578   6.168  1.2028 -0.3118 -1.4708
 1266SOL     OW15430   2.323   2.895  14.377 -0.7056  0.2996  0.0270
 1266SOL    HW115431   2.413   2.894  14.344 -0.8151 -5.5157 -0.2253
 1266SOL    HW215432   2.327   2.897  14.473 -2.0899  1.0401  0.0672
 1267SOL     OW15433   3.608   2.358   2.769  0.2794 -0.2559 -0.0558
 1267SOL    HW115434   3.616   2.270   2.806 -0.8191  0.6659  2.3508
 1267SOL    HW215435   3.513   2.363   2.759  0.4613 -2.1666 -2.5147
 1268SOL     OW15436   2.783   0.750   6.552  0.5499 -0.2037  0.2531
 1268SOL    HW115437   2.840   0.716   6.484  1.3046 -2.7400  2.1468
 1268SOL    HW215438   2.849   0.764   6.620  1.4775 -0.4651 -0.6111
 1269SOL     OW15439   0.697   3.623   8.085  0.0978 -1.0204 -0.2915
 1269SOL    HW115440   0.697   3.562   8.160  1.3774 -1.4915 -0.6764
 1269SOL    HW215441   0.690   3.713   8.117  2.8176 -1.1591  0.7251
 1270SOL     OW15442   1.945   4.685   6.254  0.2602  0.1883 -0.1134
 1270SOL    HW115443   1.924   4.722   6.340 -0.5765  0.3447 -0.3838
 1270SOL    HW215444   1.952   4.593   6.278 -0.8314  0.5760  1.7022
 1271SOL     OW15445   4.132   0.813   5.683 -0.3067 -0.1838 -0.4950
 1271SOL    HW115446   4.102   0.724   5.664 -1.7764  0.2896 -0.3813
 1271SOL    HW215447   4.052   0.840   5.727  0.6454 -1.3758  2.0058
 1272SOL     OW15448   1.170   1.059   5.468  0.7714  0.1670  0.3781
 1272SOL    HW115449   1.181   1.138   5.415  0.0829 -0.4713 -0.7040
 1272SOL    HW215450   1.250   1.012   5.446  0.2372 -1.2767  1.5442
 1273SOL     OW15451   3.038   2.768   9.291  0.0332 -0.3659  0.3333
 1273SOL    HW115452   3.076   2.855   9.301  0.9245 -0.6267 -0.8512
 1273SOL    HW215453   3.050   2.748   9.198  0.8235 -1.4633  0.6704
 1274SOL     OW15454   1.184   2.936  13.145  0.0801  0.2254  0.2639
 1274SOL    HW115455   1.228   2.906  13.065 -0.9895 -1.9660  0.5211
 1274SOL    HW215456   1.192   2.858  13.200 -2.3754 -0.6198 -0.5902
 1275SOL     OW15457   4.678   0.015   7.504 -0.1040  0.2181 -0.1097
 1275SOL    HW115458   4.648   4.671   7.543  1.3992 -0.7103 -0.9153
 1275SOL    HW215459   0.034   0.000   7.513  0.3685  1.3510 -3.4184
 1276SOL     OW15460   3.999   0.804   8.399  0.6900 -0.1511  0.6753
 1276SOL    HW115461   3.935   0.825   8.331  0.1611  2.4896  1.9795
 1276SOL    HW215462   3.960   0.862   8.464 -0.7370  0.8742 -1.0934
 1277SOL     OW15463   4.303   2.282  12.787  0.2348  0.1736 -0.0210
 1277SOL    HW115464   4.254   2.362  12.765 -0.3289 -0.8262 -2.4596
 1277SOL    HW215465   4.395   2.308  12.786  0.7611 -1.6733  0.1516
 1278SOL     OW15466   2.153   1.686  13.070  0.1467  0.0142 -0.2811
 1278SOL    HW115467   2.245   1.681  13.044  0.4262 -1.6941  1.0647
 1278SOL    HW215468   2.167   1.708  13.162 -1.5798  0.4585 -0.1365
 1279SOL     OW15469   0.381   2.627   4.608 -0.5311  0.1549 -0.2805
 1279SOL    HW115470   0.406   2.609   4.517 -0.4546 -2.2569  0.2332
 1279SOL    HW215471   0.445   2.583   4.664 -2.7786 -2.3086  0.3290
 1280SOL     OW15472   4.093   2.088   7.238  0.1765  0.3465 -0.6998
 1280SOL    HW115473   4.149   2.105   7.162  1.1691 -4.8743 -1.1656
 1280SOL    HW215474   4.012   2.065   7.193  0.0739  0.2708 -0.4752
 1281SOL     OW15475   3.470   2.004   9.838 -0.4353 -0.2418 -0.2938
 1281SOL    HW115476   3.534   1.961   9.782 -0.7448 -1.6502  0.4078
 1281SOL    HW215477   3.409   2.056   9.786 -1.0324 -0.7025 -0.0612
 1282SOL     OW15478   3.326   2.748   9.484 -0.3884  0.3050 -0.0477
 1282SOL    HW115479   3.270   2.688   9.533 -1.8134  2.4020  0.8313
 1282SOL    HW215480   3.324   2.705   9.398  0.9304  1.6418 -0.7412
 1283SOL     OW15481   4.368   0.937   7.195 -0.5160 -0.2322  0.2811
 1283SOL    HW115482   4.278   0.921   7.222 -0.4341 -0.2957  0.5148
 1283SOL    HW215483   4.417   0.865   7.233 -0.2965 -0.6140 -0.7352
 1284SOL     OW15484   1.469   2.627   0.757 -0.1388  0.3528 -0.0280
 1284SOL    HW115485   1.479   2.557   0.822 -1.3326  0.3626  0.1749
 1284SOL    HW215486   1.541   2.689   0.766  1.5393 -1.5205 -0.7753
 1285SOL     OW15487   3.552   2.358   9.663 -0.4914 -0.4854  0.0512
 1285SOL    HW115488   3.511   2.434   9.704 -0.2689  0.4057 -1.4079
 1285SOL    HW215489   3.596   2.330   9.744 -1.2509 -1.0576  0.2698
 1286SOL     OW15490   2.875   1.717   4.723  0.1773 -0.7618 -0.1689
 1286SOL    HW115491   2.870   1.808   4.752 -0.5463 -1.7144  2.6878
 1286SOL    HW215492   2.886   1.728   4.629 -2.8881  0.3962 -0.3786
 1287SOL     OW15493   3.303   0.227   6.051  0.0253  0.2133  0.3246
 1287SOL    HW115494   3.351   0.171   5.990  0.7316  1.4294 -0.2237
 1287SOL    HW215495   3.210   0.203   6.046  0.1365  0.4012 -2.6937
 1288SOL     OW15496   3.905   3.490   6.657 -0.1094 -0.4413 -0.4535
 1288SOL    HW115497   3.911   3.396   6.643 -0.6798 -0.3671 -1.1547
 1288SOL    HW215498   3.941   3.525   6.576  0.7550 -0.5236 -0.1049
 1289SOL     OW15499   3.142   1.590   6.934  0.3508 -0.2632  0.3566
 1289SOL    HW115500   3.171   1.506   6.970  0.6070 -0.1464  0.4259
 1289SOL    HW215501   3.052   1.583   6.966  0.4250  1.0875  0.8549
 1290SOL     OW15502   1.538   0.519   2.006  0.1209 -0.1899 -0.4422
 1290SOL    HW115503   1.444   0.514   1.987 -0.2619 -1.2857  1.6406
 1290SOL    HW215504   1.557   0.608   1.976  0.6951 -1.0645 -2.6793
 1291SOL     OW15505   3.221   1.407   1.735 -0.1746 -0.0865  0.0632
 1291SOL    HW115506   3.298   1.462   1.725 -0.1209 -0.2856 -0.6390
 1291SOL    HW215507   3.210   1.365   1.650 -0.3387  0.4536 -0.1830
 1292SOL     OW15508   1.450   2.196   3.824 -0.4376 -0.6492  0.0782
 1292SOL    HW115509   1.488   2.162   3.905  1.4344  1.1537 -0.0436
 1292SOL    HW215510   1.397   2.117   3.809  0.8253 -1.5512  0.4083
 1293SOL     OW15511   4.642   2.750  10.009  0.2196  0.1307  0.1029
 1293SOL    HW115512   4.646   2.735  10.104 -0.3169 -0.3930  0.0460
 1293SOL    HW215513   4.735   2.770  10.001  0.3684 -0.5680  0.1009
 1294SOL     OW15514   4.425   4.324   7.405  0.6054 -0.1608  0.2722
 1294SOL    HW115515   4.404   4.236   7.373  2.8612 -1.1713  1.5862
 1294SOL    HW215516   4.499   4.352   7.351  1.0234  1.4342  1.6616
 1295SOL     OW15517   3.185   1.296   7.531  0.2867 -0.0207 -0.0301
 1295SOL    HW115518   3.222   1.326   7.615  0.4317  0.2447 -0.1885
 1295SOL    HW215519   3.118   1.362   7.519  0.7872  0.3262 -0.9251
 1296SOL     OW15520   1.518   1.354   4.661  0.0986  0.1496 -0.0892
 1296SOL    HW115521   1.567   1.432   4.688  0.1519 -1.1776  3.6110
 1296SOL    HW215522   1.456   1.345   4.733  0.6935 -1.5268  0.2157
 1297SOL     OW15523   3.174   1.273   2.137  0.0174 -0.3275 -0.0680
 1297SOL    HW115524   3.142   1.336   2.072  0.5066  1.4930  1.4440
 1297SOL    HW215525   3.102   1.211   2.149 -0.9418  0.2452 -2.8160
 1298SOL     OW15526   2.393   0.668   1.677  0.0405  0.2248 -0.2275
 1298SOL    HW115527   2.399   0.762   1.695  0.3801 -0.0597  1.1043
 1298SOL    HW215528   2.416   0.639   1.765  0.8653  0.0746 -0.4933
 1299SOL     OW15529   4.594   2.881   3.526  0.3382 -0.2996  0.2709
 1299SOL    HW115530   4.581   2.937   3.450  0.7169  0.2719  0.6305
 1299SOL    HW215531   4.543   2.806   3.492  0.6846 -0.2692 -0.3190
 1300SOL     OW15532   2.572   3.482   9.014 -0.4821  0.0549 -0.2028
 1300SOL    HW115533   2.647   3.448   9.063 -2.2544 -1.4686  1.4129
 1300SOL    HW215534   2.553   3.560   9.066  1.8249  1.3852 -1.3514
 1301SOL     OW15535   0.160   2.120  12.157 -0.1013 -0.4633 -0.3629
 1301SOL    HW115536   0.079   2.085  12.119 -0.4804 -0.7559  0.7350
 1301SOL    HW215537   0.181   2.169  12.077  0.9801 -3.3215 -1.8196
 1302SOL     OW15538   4.270   1.286  10.134 -0.3358  0.1992  0.2501
 1302SOL    HW115539   4.177   1.309  10.139 -0.7358 -1.1211 -0.9115
 1302SOL    HW215540   4.255   1.200  10.173  1.1087 -0.7791 -1.3955
 1303SOL     OW15541   1.598   3.114   8.319 -0.6147 -0.0029  0.0793
 1303SOL    HW115542   1.530   3.114   8.251 -0.5014 -2.0361 -0.0406
 1303SOL    HW215543   1.563   3.037   8.365 -0.4452 -0.7116 -0.9653
 1304SOL     OW15544   1.647   3.392   8.007  0.2518  0.0952  0.0932
 1304SOL    HW115545   1.719   3.438   7.962 -1.5345  0.0710 -2.8491
 1304SOL    HW215546   1.576   3.452   7.983  0.7629 -0.3134 -2.4988
 1305SOL     OW15547   0.014   2.931   7.943 -0.2431 -0.3481  0.2429
 1305SOL    HW115548   4.699   2.980   7.880  1.5634  0.0795 -0.9394
 1305SOL    HW215549   0.079   2.885   7.890 -0.0043  2.4908 -1.9505
 1306SOL     OW15550   2.993   4.215   7.741  0.1358  0.0278 -0.4560
 1306SOL    HW115551   3.019   4.123   7.752  2.6948  0.8332  0.0825
 1306SOL    HW215552   3.067   4.254   7.695  0.4478 -0.0432 -0.0200
 1307SOL     OW15553   4.411   0.366   4.528  0.1033 -0.2792  0.7101
 1307SOL    HW115554   4.336   0.373   4.470  1.4755 -1.7627 -1.2335
 1307SOL    HW215555   4.481   0.397   4.471  1.5953 -1.1505  2.0563
 1308SOL     OW15556   3.863   0.304   4.910 -0.1425 -0.0897 -0.0870
 1308SOL    HW115557   3.827   0.218   4.931 -1.5913 -0.0714 -2.5087
 1308SOL    HW215558   3.789   0.340   4.860  0.7323 -1.0662 -2.0960
 1309SOL     OW15559   0.631   2.845  16.653  0.0965  0.5743  0.0514
 1309SOL    HW115560   0.703   2.817  16.597 -1.3383  0.8172 -1.9651
 1309SOL    HW215561   0.554   2.847  16.596  0.7042  3.6843 -0.7032
 1310SOL     OW15562   1.839   2.499   9.443  0.1398  0.6451  0.2809
 1310SOL    HW115563   1.906   2.467   9.503  0.2284  1.3843  0.5668
 1310SOL    HW215564   1.761   2.507   9.497  1.0068  1.1022  1.4467
 1311SOL     OW15565   0.613   3.814  13.909 -0.0289  0.7601 -0.3577
 1311SOL    HW115566   0.527   3.780  13.935  0.7663 -0.5794  0.4828
 1311SOL    HW215567   0.638   3.867  13.984 -1.3236  0.3693  0.3534
 1312SOL     OW15568   1.222   4.428   5.980 -0.1468  0.3511  0.4252
 1312SOL    HW115569   1.308   4.468   5.969  0.3846 -0.3580  2.0802
 1312SOL    HW215570   1.216   4.402   6.071  3.0751  0.5229  0.6854
 1313SOL     OW15571   3.904   4.302   3.737 -0.0397 -0.2117 -0.4487
 1313SOL    HW115572   3.976   4.286   3.798 -1.1955  1.5057  1.3403
 1313SOL    HW215573   3.905   4.395   3.712  0.3123 -0.2256 -0.4877
 1314SOL     OW15574   3.018   3.124   9.092 -0.4185 -0.0479  0.3277
 1314SOL    HW115575   3.074   3.055   9.127 -0.0822  0.8240  1.5172
 1314SOL    HW215576   3.083   3.188   9.061  0.3775 -0.8019  0.4157
 1315SOL     OW15577   0.455   2.558   2.242 -0.1627 -0.0864  0.2898
 1315SOL    HW115578   0.444   2.564   2.147  0.1843  1.3072  0.3351
 1315SOL    HW215579   0.503   2.637   2.266  0.1888  0.2713 -1.6532
 1316SOL     OW15580   0.950   2.726  17.651 -0.2061  0.3794  0.2811
 1316SOL    HW115581   0.914   2.783  17.719  1.6151  0.8922  0.8119
 1316SOL    HW215582   1.041   2.752  17.659  0.0341 -0.4446  0.2429
 1317SOL     OW15583   4.554   4.462   4.560 -0.1552 -0.0471 -0.2422
 1317SOL    HW115584   4.510   4.545   4.579  1.2161  0.2393  1.7048
 1317SOL    HW215585   4.640   4.497   4.582 -1.1410  2.4824 -0.4457
 1318SOL     OW15586   2.285   3.624   2.182 -0.7569  0.1792 -0.0190
 1318SOL    HW115587   2.245   3.569   2.114  0.5849 -1.3016  0.3800
 1318SOL    HW215588   2.208   3.677   2.203 -0.4379  0.1538  1.2087
 1319SOL     OW15589   1.905   4.259   7.353 -0.6111  0.1404 -0.4509
 1319SOL    HW115590   1.882   4.166   7.353 -1.7194  0.4103  0.4769
 1319SOL    HW215591   1.892   4.294   7.265 -2.0771 -1.3974 -0.8509
 1320SOL     OW15592   2.981   2.930   5.117 -0.0211 -0.5082 -0.2127
 1320SOL    HW115593   3.051   2.995   5.125 -0.8338  0.3654 -0.1045
 1320SOL    HW215594   2.906   2.976   5.079 -0.4244 -1.0418 -0.0643
 1321SOL     OW15595   2.523   2.356   7.494 -0.2887 -0.0888  0.1735
 1321SOL    HW115596   2.452   2.420   7.498 -0.2978 -0.1332  0.6718
 1321SOL    HW215597   2.514   2.303   7.573 -0.6978 -0.5393 -0.1830
 1322SOL     OW15598   0.425   0.825   4.597 -0.1297  0.6752  0.0209
 1322SOL    HW115599   0.476   0.886   4.651 -1.0747  2.2735 -0.8811
 1322SOL    HW215600   0.405   0.878   4.520  1.9879 -0.3595 -1.2498
 1323SOL     OW15601   1.049   3.637   4.394  0.0538 -0.0424 -0.3363
 1323SOL    HW115602   1.034   3.553   4.438 -0.7189  0.1588 -0.2122
 1323SOL    HW215603   1.098   3.626   4.313  1.0088 -0.8231  0.3602
 1324SOL     OW15604   2.906   4.599  17.507  0.0917 -0.0348 -0.4041
 1324SOL    HW115605   2.929   4.664  17.440  1.4490 -0.2432 -0.1261
 1324SOL    HW215606   2.975   4.611  17.571  1.7099 -1.4239 -1.8816
 1325SOL     OW15607   4.269   0.262   3.022  0.3801  0.5247  0.0298
 1325SOL    HW115608   4.177   0.266   3.045  0.1572 -0.0417 -0.7811
 1325SOL    HW215609   4.290   0.318   3.097  0.1636  0.4562  0.1404
 1326SOL     OW15610   1.763   2.337   8.897  0.0527  0.1117 -0.1664
 1326SOL    HW115611   1.853   2.309   8.884  0.2659  0.5507  0.3851
 1326SOL    HW215612   1.738   2.279   8.969  0.5603  2.4796  1.8932
 1327SOL     OW15613   2.318   1.246  17.545 -0.4575 -0.5564  0.0989
 1327SOL    HW115614   2.243   1.193  17.572 -2.3884  1.3462 -1.4840
 1327SOL    HW215615   2.306   1.327  17.594  2.3952  1.1444 -1.9855
 1328SOL     OW15616   1.763   4.458  14.700 -0.0170 -0.2063  0.5639
 1328SOL    HW115617   1.845   4.469  14.748  1.3980  1.3908 -2.2409
 1328SOL    HW215618   1.751   4.546  14.666 -2.0551 -0.3492  0.9282
 1329SOL     OW15619   4.590   2.361   2.225 -0.4629  0.4013 -0.3801
 1329SOL    HW115620   4.645   2.286   2.251  1.3268  3.2902  4.2468
 1329SOL    HW215621   4.623   2.431   2.281 -1.0024  1.5008 -1.4567
 1330SOL     OW15622   1.326   4.551   2.900  0.3235  0.3144  0.2152
 1330SOL    HW115623   1.354   4.571   2.989  3.3305 -0.0806 -0.6515
 1330SOL    HW215624   1.233   4.552   2.923  0.0892 -1.3858 -0.6180
 1331SOL     OW15625   2.167   0.444   4.851  0.3061  0.4157 -0.1784
 1331SOL    HW115626   2.234   0.426   4.917  0.5714  0.2461 -0.5009
 1331SOL    HW215627   2.187   0.537   4.842 -0.1017  0.4623 -0.6121
 1332SOL     OW15628   1.629   3.296   6.928 -0.1594 -0.8519  0.1646
 1332SOL    HW115629   1.538   3.325   6.917 -0.7987 -2.3551  1.5669
 1332SOL    HW215630   1.655   3.331   6.843  2.5141 -1.0124  0.9219
 1333SOL     OW15631   0.328   2.153   9.008  0.3820  0.0039 -0.1886
 1333SOL    HW115632   0.397   2.211   9.040 -0.5338  0.6348  0.6338
 1333SOL    HW215633   0.364   2.117   8.927  1.1186 -0.8222  0.4932
 1334SOL     OW15634   1.239   3.722   7.209 -0.2515 -0.6851 -0.5435
 1334SOL    HW115635   1.317   3.726   7.154  2.1903  3.0716  3.1545
 1334SOL    HW215636   1.216   3.814   7.226  0.6526 -1.1203  3.1103
 1335SOL     OW15637   3.988   2.015   4.675 -0.3884  0.1360  0.1446
 1335SOL    HW115638   3.971   2.030   4.768 -0.5124 -0.7841  0.2659
 1335SOL    HW215639   3.902   1.991   4.640  0.1445  0.2762 -1.2873
 1336SOL     OW15640   4.284   4.434   1.272  0.6098 -0.5777 -0.3766
 1336SOL    HW115641   4.211   4.484   1.308  1.9544  0.4778  0.9318
 1336SOL    HW215642   4.270   4.444   1.178 -0.3265  3.3478  0.1960
 1337SOL     OW15643   0.769   4.487   4.813 -0.2446 -0.3230  0.2360
 1337SOL    HW115644   0.690   4.533   4.785 -0.8152 -1.0944  0.5953
 1337SOL    HW215645   0.726   4.442   4.886 -1.2754  2.1849  1.1661
 1338SOL     OW15646   2.730   0.034   9.586  0.2894 -0.2112 -0.0341
 1338SOL    HW115647   2.722   0.124   9.616  2.1122 -0.0132 -0.1402
 1338SOL    HW215648   2.741   0.034   9.491 -2.9831 -0.2522 -0.4191
 1339SOL     OW15649   1.486   1.815  14.571 -0.3133 -0.2535  0.3586
 1339SOL    HW115650   1.505   1.740  14.514 -0.0494  2.2082 -2.7885
 1339SOL    HW215651   1.449   1.866  14.499 -1.3396 -1.8302 -0.2263
 1340SOL     OW15652   3.786   3.209   8.243 -0.3008 -0.0686 -0.3452
 1340SOL    HW115653   3.841   3.276   8.202 -1.1367 -0.0822 -1.4919
 1340SOL    HW215654   3.834   3.179   8.320  1.9478 -0.4181 -1.8804
 1341SOL     OW15655   3.815   0.896   7.499 -0.2340 -0.0679 -0.1507
 1341SOL    HW115656   3.884   0.907   7.564 -1.3123  2.8613  0.5024
 1341SOL    HW215657   3.788   0.987   7.511  0.3565  0.0412  0.3696
 1342SOL     OW15658   0.066   3.671   1.200  0.6202  0.2000  0.1126
 1342SOL    HW115659   0.135   3.606   1.214  0.4513 -0.2314 -1.0207
 1342SOL    HW215660   0.020   3.648   1.281  0.0503  3.1268  0.5993
 1343SOL     OW15661   2.393   3.795   8.854 -0.4941  0.0269 -0.1455
 1343SOL    HW115662   2.402   3.776   8.947  0.1379 -1.9113 -0.6115
 1343SOL    HW215663   2.477   3.836   8.835 -0.7824  0.8374  0.3446
 1344SOL     OW15664   0.902   1.676   1.757 -0.4065 -0.1882 -0.0573
 1344SOL    HW115665   0.906   1.649   1.666 -1.5298 -1.4065  0.2582
 1344SOL    HW215666   0.816   1.716   1.761 -0.5611 -0.5689  0.4083
 1345SOL     OW15667   3.383   0.456  14.279 -0.2704 -0.7101 -0.0407
 1345SOL    HW115668   3.473   0.485  14.263  0.5482 -2.9070  0.6205
 1345SOL    HW215669   3.392   0.362  14.268  1.9926 -0.3472 -1.2446
 1346SOL     OW15670   0.495   3.655   0.708 -0.0371 -0.1022  0.2737
 1346SOL    HW115671   0.513   3.690   0.620 -1.0079 -0.5757 -0.1126
 1346SOL    HW215672   0.578   3.650   0.755  0.0367 -0.9904  0.0389
 1347SOL     OW15673   3.182   2.610   2.976  0.1477 -0.7286  0.8080
 1347SOL    HW115674   3.127   2.578   3.048 -0.0508 -0.0059  0.9798
 1347SOL    HW215675   3.224   2.690   3.010 -0.9634  0.1299  0.1511
 1348SOL     OW15676   1.524   2.312   4.135  0.9945  0.5390 -0.2466
 1348SOL    HW115677   1.488   2.309   4.223  0.9346 -2.4818 -0.3810
 1348SOL    HW215678   1.617   2.322   4.154  1.2969  2.2011 -2.6781
 1349SOL     OW15679   2.149   3.111  10.478 -0.2043  0.3851 -0.1458
 1349SOL    HW115680   2.085   3.053  10.519  0.3617  0.3818  0.7536
 1349SOL    HW215681   2.223   3.051  10.477 -0.4527  0.0496  0.8262
 1350SOL     OW15682   0.163   4.629   5.116 -1.1923  0.0638 -0.4599
 1350SOL    HW115683   0.152   4.668   5.202  0.7914  1.5735 -0.8911
 1350SOL    HW215684   0.073   4.604   5.093 -1.6930 -0.5053  2.1848
 1351SOL     OW15685   2.670   2.996   1.395  0.6223 -0.3173  0.0159
 1351SOL    HW115686   2.693   3.008   1.488 -0.5624 -1.6047  0.4643
 1351SOL    HW215687   2.736   3.046   1.346 -1.2655  1.0087 -1.1664
 1352SOL     OW15688   4.228   2.626   7.913 -0.4825  0.4983  0.2127
 1352SOL    HW115689   4.204   2.534   7.905  0.8897  0.0942  0.6921
 1352SOL    HW215690   4.178   2.666   7.842  0.2836 -0.5500 -0.9223
 1353SOL     OW15691   4.509   1.769  15.662  0.0225  0.6058  0.0752
 1353SOL    HW115692   4.431   1.824  15.666 -0.4502 -0.1250  0.9071
 1353SOL    HW215693   4.581   1.822  15.627 -0.3105  0.4914 -0.7815
 1354SOL     OW15694   3.482   0.471  12.362  0.2174 -0.1464  0.3680
 1354SOL    HW115695   3.461   0.445  12.452  0.7091  0.9750  0.8109
 1354SOL    HW215696   3.571   0.436  12.362 -0.1031 -0.9374 -0.6176
 1355SOL     OW15697   1.157   0.901   8.644 -0.5582  0.0973  0.1548
 1355SOL    HW115698   1.184   0.915   8.553  1.6821  0.0592  0.8101
 1355SOL    HW215699   1.082   0.961   8.651 -1.2767 -1.0045  1.8057
 1356SOL     OW15700   0.950   4.142   7.736 -0.4167 -0.5473  0.3662
 1356SOL    HW115701   0.929   4.198   7.810  1.2820  1.5236 -0.7186
 1356SOL    HW215702   0.927   4.051   7.758  2.2039 -1.1575  0.6860
 1357SOL     OW15703   3.757   4.499   5.544  0.0652  0.4292  0.1977
 1357SOL    HW115704   3.683   4.542   5.501 -0.2542 -0.8517 -0.5585
 1357SOL    HW215705   3.706   4.428   5.585  1.5096 -0.4336  0.4922
 1358SOL     OW15706   3.613   1.068  10.986 -0.3816  0.2283 -0.2930
 1358SOL    HW115707   3.580   1.008  11.053 -2.1749  3.1863  1.4817
 1358SOL    HW215708   3.660   1.125  11.048  2.7227 -1.1819 -1.3553
 1359SOL     OW15709   3.314   4.107  14.846 -0.1948  0.0351 -0.6632
 1359SOL    HW115710   3.360   4.111  14.762  0.2791 -0.3049 -0.4169
 1359SOL    HW215711   3.241   4.048  14.823  0.6310 -0.4286 -2.1313
 1360SOL     OW15712   2.436   2.074   7.614  0.1872  0.2635 -0.2143
 1360SOL    HW115713   2.398   2.145   7.665 -1.2901 -0.0250 -0.9117
 1360SOL    HW215714   2.355   2.031   7.586  0.9034 -1.2882  0.1068
 1361SOL     OW15715   4.453   2.234   3.437 -0.2400 -0.0229  0.3535
 1361SOL    HW115716   4.371   2.217   3.389 -0.2753  1.7598 -0.2303
 1361SOL    HW215717   4.500   2.284   3.370 -0.8305  0.6250  0.4170
 1362SOL     OW15718   4.044   2.270  16.179 -0.0789  0.4712 -0.3960
 1362SOL    HW115719   4.136   2.293  16.191 -0.4424  1.3031  0.8126
 1362SOL    HW215720   4.039   2.216  16.100 -0.3798  0.8174 -0.6106
 1363SOL     OW15721   0.935   0.641   6.096  0.4039  0.1444  0.6860
 1363SOL    HW115722   0.953   0.555   6.058  0.7111  1.3031 -1.7555
 1363SOL    HW215723   0.967   0.693   6.023  1.8679  0.7640  1.7725
 1364SOL     OW15724   2.253   0.335   6.665 -0.1105 -0.4512  0.2201
 1364SOL    HW115725   2.250   0.263   6.729 -3.0001 -0.7518 -0.2301
 1364SOL    HW215726   2.337   0.310   6.626  1.3516  1.6485  2.0470
 1365SOL     OW15727   3.080   4.144  16.861  0.2870 -0.0397 -0.6186
 1365SOL    HW115728   3.082   4.222  16.806 -1.3081 -1.7239 -3.0923
 1365SOL    HW215729   2.994   4.104  16.850 -0.9376  2.7540 -1.2211
 1366SOL     OW15730   3.744   2.443  14.709  0.3453 -0.2966 -0.2249
 1366SOL    HW115731   3.790   2.359  14.710  0.7370 -0.1005 -1.7785
 1366SOL    HW215732   3.821   2.500  14.709 -1.2927  1.9057  0.1114
 1367SOL     OW15733   2.734   1.529  15.897 -0.0719  0.1260 -0.3571
 1367SOL    HW115734   2.679   1.484  15.962  1.0084  0.9190  1.1102
 1367SOL    HW215735   2.682   1.606  15.873 -1.6075 -0.9365 -0.4751
 1368SOL     OW15736   0.600   1.992   6.476  0.0130 -0.3577 -0.4420
 1368SOL    HW115737   0.523   1.972   6.530  1.9866 -3.0786  1.3942
 1368SOL    HW215738   0.597   2.087   6.464 -1.1013  0.1343  3.5398
 1369SOL     OW15739   0.488   0.237   8.527  0.1787  0.0522 -0.3289
 1369SOL    HW115740   0.432   0.260   8.452  1.7611  2.1848 -0.8467
 1369SOL    HW215741   0.577   0.263   8.502  0.4222  0.3703  0.8533
 1370SOL     OW15742   3.771   2.601   7.705  0.3011 -0.0913 -0.4236
 1370SOL    HW115743   3.795   2.518   7.664  1.3042  0.3606 -0.7410
 1370SOL    HW215744   3.715   2.574   7.778  2.2961  0.1348  1.1705
 1371SOL     OW15745   4.621   0.291   5.067  0.1872  0.7572  0.5051
 1371SOL    HW115746   4.620   0.312   5.161  1.8181 -1.2320  0.9555
 1371SOL    HW215747   4.704   0.246   5.054  1.2352  3.0630 -0.8441
 1372SOL     OW15748   3.207   0.085  11.005  0.3885  0.0594  0.4464
 1372SOL    HW115749   3.207   0.137  10.925 -1.3555 -1.9798 -0.8708
 1372SOL    HW215750   3.300   0.085  11.026  0.9493  0.4211 -2.0592
 1373SOL     OW15751   0.625   3.485   1.924 -0.0317 -0.2636 -0.7647
 1373SOL    HW115752   0.562   3.552   1.899  0.4210  0.1646 -0.7560
 1373SOL    HW215753   0.683   3.529   1.986 -1.2842 -0.6005  0.6447
 1374SOL     OW15754   3.632   1.852   5.521 -0.2447 -0.4054  0.2973
 1374SOL    HW115755   3.683   1.886   5.595  0.6702 -0.1030 -0.4638
 1374SOL    HW215756   3.661   1.761   5.516  0.6975 -0.0963  0.0629
 1375SOL     OW15757   1.741   0.856   5.608 -0.2971  0.0659  0.2479
 1375SOL    HW115758   1.824   0.821   5.576 -0.8611 -0.2109 -0.8953
 1375SOL    HW215759   1.686   0.785   5.575  0.4261  0.2439 -1.3382
 1376SOL     OW15760   0.866   2.405   8.453 -0.1312 -0.1785  0.0111
 1376SOL    HW115761   0.925   2.378   8.524  1.0563  0.9477 -0.5499
 1376SOL    HW215762   0.916   2.477   8.414  2.4800 -1.2887  1.2793
 1377SOL     OW15763   4.322   3.118   2.323  0.3494  0.4378 -0.0744
 1377SOL    HW115764   4.237   3.149   2.291  0.5116  0.0970 -0.8374
 1377SOL    HW215765   4.283   3.087   2.404 -1.9249  0.5495 -1.1158
 1378SOL     OW15766   2.834   1.093   4.085  0.4949  0.5236 -0.2445
 1378SOL    HW115767   2.824   1.064   3.994 -1.9063  1.4969 -0.2995
 1378SOL    HW215768   2.753   1.137   4.109  0.1874  0.6950 -1.5836
 1379SOL     OW15769   2.737   1.364  10.304 -0.0833 -0.0564 -0.6314
 1379SOL    HW115770   2.789   1.362  10.384  0.8086 -1.6919 -1.2428
 1379SOL    HW215771   2.746   1.453  10.271  0.7786  1.2062  3.0165
 1380SOL     OW15772   2.886   3.845  14.239 -0.5558 -0.2128  0.5689
 1380SOL    HW115773   2.978   3.837  14.266 -0.6104  0.6289  1.0194
 1380SOL    HW215774   2.901   3.909  14.169 -1.1429 -0.0170  0.6225
 1381SOL     OW15775   3.366   4.361   8.447  0.2483 -0.0489 -0.0848
 1381SOL    HW115776   3.344   4.423   8.516 -1.6726 -0.5514 -0.2543
 1381SOL    HW215777   3.285   4.310   8.443  0.5614 -0.4559 -1.3319
 1382SOL     OW15778   3.075   2.602   2.482 -0.2242 -0.2635  0.3647
 1382SOL    HW115779   3.126   2.522   2.476  0.9099  0.6176 -2.0065
 1382SOL    HW215780   3.083   2.615   2.576 -1.4373 -1.1463  0.5880
 1383SOL     OW15781   4.026   3.738  12.750  0.1460 -0.1889  0.5239
 1383SOL    HW115782   4.023   3.833  12.759 -3.5510  0.0458 -3.3958
 1383SOL    HW215783   4.118   3.712  12.743  1.1700  2.8183  2.6286
 1384SOL     OW15784   0.121   1.142   3.493 -0.2282 -0.4089  0.0877
 1384SOL    HW115785   0.196   1.084   3.485 -0.5468 -0.8613  0.3590
 1384SOL    HW215786   0.054   1.102   3.436  2.8332 -1.6772 -2.6356
 1385SOL     OW15787   2.054   1.863   7.466  0.2554 -0.0431  0.3416
 1385SOL    HW115788   2.039   1.799   7.396  2.0071  0.3056 -0.3482
 1385SOL    HW215789   2.015   1.941   7.427 -1.1426 -0.8727  0.0851
 1386SOL     OW15790   3.193   2.191  15.145  0.3410  0.0515  0.0434
 1386SOL    HW115791   3.214   2.283  15.131 -1.3127  0.5276  0.7748
 1386SOL    HW215792   3.117   2.193  15.203 -0.4419 -0.6921 -0.9490
 1387SOL     OW15793   0.482   3.554  17.136 -0.7650  0.1272  0.0882
 1387SOL    HW115794   0.521   3.532  17.051  0.3044  0.8804  0.3834
 1387SOL    HW215795   0.502   3.647  17.139 -1.6370  0.2592  1.7197
 1388SOL     OW15796   0.485   3.205   9.826 -0.1870  0.0239  0.6359
 1388SOL    HW115797   0.580   3.193   9.823 -0.0055  2.1224 -2.1950
 1388SOL    HW215798   0.458   3.229   9.738 -1.1395 -1.5806  0.5017
 1389SOL     OW15799   4.093   0.452  11.866  0.0721  0.2700 -0.1204
 1389SOL    HW115800   4.088   0.366  11.825 -0.6079 -0.3944  1.3734
 1389SOL    HW215801   4.031   0.448  11.939  0.6685  0.8481  0.4140
 1390SOL     OW15802   1.796   3.051   7.443 -0.2162  0.3697  0.0415
 1390SOL    HW115803   1.833   2.974   7.400 -1.1254 -1.0716  1.8324
 1390SOL    HW215804   1.700   3.045   7.440 -0.1934  0.0931 -0.1046
 1391SOL     OW15805   3.560   4.379   7.258 -0.1117  0.4502 -0.5014
 1391SOL    HW115806   3.615   4.316   7.211  1.8366  0.3430  1.9180
 1391SOL    HW215807   3.489   4.388   7.194 -1.5767 -0.5584  0.9720
 1392SOL     OW15808   3.542   1.005   2.550 -0.1440  0.0759 -0.2716
 1392SOL    HW115809   3.546   1.001   2.645 -1.0342  1.4124 -0.1791
 1392SOL    HW215810   3.454   0.968   2.538 -1.6500  3.0316  1.6253
 1393SOL     OW15811   1.556   3.957   3.738 -0.3293  0.6789  0.9397
 1393SOL    HW115812   1.565   4.045   3.702 -0.2114  0.6032  0.7850
 1393SOL    HW215813   1.603   3.959   3.822 -0.3943 -1.1049  1.0174
 1394SOL     OW15814   1.685   1.198   9.311 -0.2394 -0.3361 -0.1513
 1394SOL    HW115815   1.606   1.181   9.259 -0.8640  1.4636  0.2105
 1394SOL    HW215816   1.646   1.206   9.398 -2.0583 -0.9399 -0.9129
 1395SOL     OW15817   3.822   4.323   0.755 -0.0340  0.0920 -0.0449
 1395SOL    HW115818   3.835   4.369   0.672 -2.7116  0.6531 -0.1292
 1395SOL    HW215819   3.912   4.292   0.768 -1.0037 -2.2351  1.1490
 1396SOL     OW15820   2.798   0.522   9.473 -0.9475  0.1465 -0.6476
 1396SOL    HW115821   2.822   0.446   9.419  0.3812 -0.7688  1.2278
 1396SOL    HW215822   2.708   0.527   9.441 -1.3244  1.5929  0.6068
 1397SOL     OW15823   1.712   0.652  11.798  0.0074 -0.4602  0.1378
 1397SOL    HW115824   1.722   0.648  11.893 -2.9342  1.3642  0.5276
 1397SOL    HW215825   1.804   0.658  11.775 -0.2092  1.1302 -0.3438
 1398SOL     OW15826   2.089   4.031   9.682  0.2991 -0.2222  0.4882
 1398SOL    HW115827   2.080   3.982   9.600 -0.6997 -0.4278  0.7248
 1398SOL    HW215828   2.003   4.073   9.690  1.0417  0.9589  2.2594
 1399SOL     OW15829   3.656   2.118   9.539 -0.5406  0.0165  0.2723
 1399SOL    HW115830   3.664   2.043   9.597 -1.7960  0.8695  1.5519
 1399SOL    HW215831   3.607   2.179   9.594 -1.6207 -0.1174 -0.5344
 1400SOL     OW15832   0.897   4.475  11.051  0.4354  0.0815 -0.0763
 1400SOL    HW115833   0.847   4.445  11.127  2.3789 -0.5400  0.9499
 1400SOL    HW215834   0.824   4.455  10.992  0.4191  0.9856 -0.3663
 1401SOL     OW15835   0.829   4.646   8.792 -0.6473 -0.1379 -0.3420
 1401SOL    HW115836   0.809   4.725   8.841  0.9773  2.4029 -3.7905
 1401SOL    HW215837   0.745   4.601   8.802 -0.7836  0.6327  1.8640
 1402SOL     OW15838   0.320   3.364   3.361 -0.1876 -0.1682  0.2827
 1402SOL    HW115839   0.373   3.297   3.317 -1.3156  0.1116 -1.5100
 1402SOL    HW215840   0.299   3.321   3.444 -0.5492  1.0527  0.8158
 1403SOL     OW15841   2.146   4.563  16.764  0.2709 -0.0068 -0.0304
 1403SOL    HW115842   2.239   4.551  16.748  0.0683 -2.6228  0.7400
 1403SOL    HW215843   2.143   4.485  16.820 -0.5138  0.7583  1.0148
 1404SOL     OW15844   2.431   2.738  13.551 -0.2202 -0.1517 -0.0940
 1404SOL    HW115845   2.525   2.725  13.544 -0.1354  0.2155  0.3775
 1404SOL    HW215846   2.410   2.756  13.459 -0.8094 -1.4731 -0.2082
 1405SOL     OW15847   2.572   4.150   6.599 -0.3430  0.5990 -0.3213
 1405SOL    HW115848   2.624   4.130   6.676  1.2092 -1.5810 -1.9324
 1405SOL    HW215849   2.632   4.199   6.543  1.6585  0.5987  1.8516
 1406SOL     OW15850   0.542   2.459   9.206  0.0083  0.7856 -0.5680
 1406SOL    HW115851   0.578   2.540   9.242 -1.2152  0.4772  1.3514
 1406SOL    HW215852   0.509   2.478   9.118 -1.0583  1.4026 -0.0301
 1407SOL     OW15853   0.698   2.748   5.646  0.2985  0.2641  0.1130
 1407SOL    HW115854   0.675   2.829   5.692 -2.7808 -1.2263  1.1429
 1407SOL    HW215855   0.662   2.682   5.705  1.2423 -0.6954 -0.3861
 1408SOL     OW15856   2.021   0.945   4.748  0.3939 -0.0030  0.1379
 1408SOL    HW115857   1.949   0.901   4.795 -0.6857  1.4315 -0.1888
 1408SOL    HW215858   2.031   0.896   4.667  0.2129 -0.8970  0.6544
 1409SOL     OW15859   4.457   3.153   8.583  0.1965 -0.3408  0.0671
 1409SOL    HW115860   4.486   3.160   8.674 -0.8218  0.9839  0.2869
 1409SOL    HW215861   4.472   3.059   8.577 -2.2088 -0.8266  1.5818
 1410SOL     OW15862   1.806   0.046   0.278 -0.4257 -0.3691  0.2341
 1410SOL    HW115863   1.834   4.695   0.260  2.1901  1.0578 -2.7592
 1410SOL    HW215864   1.717   0.033   0.312 -0.7079 -1.7542 -1.0225
 1411SOL     OW15865   3.446   3.698   4.174 -0.3160 -0.5634  0.2505
 1411SOL    HW115866   3.466   3.764   4.241 -0.1452  0.8434 -1.1778
 1411SOL    HW215867   3.353   3.679   4.168 -0.2871 -0.5579 -0.2066
 1412SOL     OW15868   3.881   3.050   6.971  0.3499 -0.3997 -0.0494
 1412SOL    HW115869   3.956   3.082   6.921 -0.3417 -2.0935 -2.1320
 1412SOL    HW215870   3.813   3.084   6.913  0.9155  0.4727 -0.2083
 1413SOL     OW15871   1.091   3.207   3.137  0.6515 -0.0822 -0.3727
 1413SOL    HW115872   1.185   3.218   3.149  0.6611 -1.3312  0.6584
 1413SOL    HW215873   1.088   3.114   3.117 -1.8590 -0.0978  0.0955
 1414SOL     OW15874   4.148   2.934   3.016  0.1019 -0.2781 -0.7469
 1414SOL    HW115875   4.077   2.988   2.982  0.7574 -0.0733 -1.7909
 1414SOL    HW215876   4.211   3.001   3.044  0.6874 -0.5154 -1.4996
 1415SOL     OW15877   2.297   3.575  10.724 -0.1326 -0.3939 -0.0398
 1415SOL    HW115878   2.331   3.647  10.671  1.6325 -0.3409  1.1751
 1415SOL    HW215879   2.319   3.492  10.681 -3.8358 -0.9935 -0.7944
 1416SOL     OW15880   3.688   4.271  13.046 -0.3925 -0.5786 -0.7133
 1416SOL    HW115881   3.646   4.190  13.072 -1.0512 -0.0894 -0.2554
 1416SOL    HW215882   3.774   4.269  13.089 -0.6772 -0.7322 -0.1605
 1417SOL     OW15883   3.940   1.273   6.717 -0.1763 -0.1661  0.1333
 1417SOL    HW115884   4.028   1.236   6.714 -0.9500 -1.9238 -0.8696
 1417SOL    HW215885   3.923   1.287   6.624 -0.7109 -4.3554 -0.4090
 1418SOL     OW15886   2.182   3.981  11.320 -0.7449 -0.6265 -0.4671
 1418SOL    HW115887   2.090   3.956  11.330 -1.1097  0.8677 -0.0951
 1418SOL    HW215888   2.220   3.894  11.306  1.0919  0.1636 -0.3041
 1419SOL     OW15889   4.466   2.393   8.391  0.5014  0.3523  0.0195
 1419SOL    HW115890   4.506   2.360   8.471  0.8266  0.3620 -0.1368
 1419SOL    HW215891   4.396   2.329   8.379 -0.1489  0.8040  1.4602
 1420SOL     OW15892   4.026   1.876   2.355 -0.3854  0.2318  0.0059
 1420SOL    HW115893   3.964   1.839   2.417  1.9160 -1.2433  1.4301
 1420SOL    HW215894   4.096   1.896   2.417 -0.4884  0.9553 -0.1084
 1421SOL     OW15895   0.171   3.377  11.096 -0.5155  0.0602 -0.0867
 1421SOL    HW115896   0.259   3.346  11.076 -0.8684 -0.2409 -1.1935
 1421SOL    HW215897   0.146   3.309  11.158 -1.4999  0.4010 -0.0971
 1422SOL     OW15898   1.974   1.040  16.889 -0.2891  0.6909 -0.0693
 1422SOL    HW115899   1.967   1.035  16.984  1.6427 -1.7613 -0.0454
 1422SOL    HW215900   2.067   1.018  16.882 -0.2253  0.5590  1.1728
 1423SOL     OW15901   1.958   3.304   3.390 -0.1656 -0.5649  0.4488
 1423SOL    HW115902   1.960   3.279   3.482 -0.7757 -0.3870  0.5109
 1423SOL    HW215903   1.876   3.272   3.354  2.2542 -3.1252 -2.7632
 1424SOL     OW15904   1.860   0.588  13.434 -0.0624  0.5497  0.5465
 1424SOL    HW115905   1.827   0.658  13.489 -0.6512  1.3855 -0.8685
 1424SOL    HW215906   1.875   0.631  13.349  2.8328 -1.1563  0.1799
 1425SOL     OW15907   2.119   1.024   5.582  0.1210 -0.2857  0.2860
 1425SOL    HW115908   2.205   1.066   5.583 -0.0631  0.0930  0.3370
 1425SOL    HW215909   2.127   0.972   5.502  0.0299  1.0388 -0.5905
 1426SOL     OW15910   1.139   0.999   3.409  0.1032 -0.2545 -0.2636
 1426SOL    HW115911   1.158   1.091   3.390 -0.3888 -0.2463 -0.7195
 1426SOL    HW215912   1.206   0.981   3.475  1.0519  1.0320 -0.8654
 1427SOL     OW15913   3.489   0.350   7.836  0.4553 -0.2040  0.3859
 1427SOL    HW115914   3.549   0.278   7.814  0.1968 -0.6870  1.2675
 1427SOL    HW215915   3.467   0.385   7.749 -0.5110 -0.6657  0.4364
 1428SOL     OW15916   4.149   3.721  17.313  0.3023 -0.1634 -0.3116
 1428SOL    HW115917   4.139   3.633  17.348  0.9639  0.4953  1.5535
 1428SOL    HW215918   4.144   3.774  17.392 -1.1011  0.8419 -1.0700
 1429SOL     OW15919   0.672   3.323   2.798 -0.3220  0.4138 -0.5484
 1429SOL    HW115920   0.705   3.411   2.778  1.9522 -0.5798 -1.1244
 1429SOL    HW215921   0.603   3.308   2.733 -2.2077 -2.2723  2.0872
 1430SOL     OW15922   2.571   0.716   7.820 -0.0462 -0.3681  0.1937
 1430SOL    HW115923   2.627   0.793   7.815 -2.4714  1.3485 -0.3124
 1430SOL    HW215924   2.485   0.757   7.825  0.2407  0.4585 -2.0276
 1431SOL     OW15925   0.280   2.501   5.227 -0.1592 -0.6339  0.4905
 1431SOL    HW115926   0.253   2.588   5.254  1.3402  0.8911 -2.8824
 1431SOL    HW215927   0.374   2.500   5.244 -0.2561  1.4788  1.1072
 1432SOL     OW15928   4.201   1.711   8.388  0.2225 -0.2129 -0.1889
 1432SOL    HW115929   4.199   1.663   8.305  1.2740 -0.2144 -0.2192
 1432SOL    HW215930   4.157   1.648   8.445  0.4235  0.0650  0.2751
 1433SOL     OW15931   3.588   2.505   8.369  0.1230  0.0033  0.0269
 1433SOL    HW115932   3.666   2.547   8.333 -1.5341  1.8391 -1.4278
 1433SOL    HW215933   3.611   2.412   8.364  4.5308  1.0828  0.4835
 1434SOL     OW15934   1.490   1.823  15.054 -0.3944  0.2552 -0.0382
 1434SOL    HW115935   1.500   1.914  15.081 -2.0356  0.1909  0.8045
 1434SOL    HW215936   1.567   1.790  15.101  0.0438 -1.0772 -1.7035
 1435SOL     OW15937   2.628   2.454   3.369 -0.2406 -0.0606 -0.3822
 1435SOL    HW115938   2.643   2.549   3.373 -0.3956 -0.0450 -0.1654
 1435SOL    HW215939   2.536   2.443   3.346 -0.2909  0.4243 -0.4187
 1436SOL     OW15940   3.310   3.707   8.041  0.0295  0.1506 -0.0222
 1436SOL    HW115941   3.336   3.657   7.964  0.6357 -0.5356  0.6393
 1436SOL    HW215942   3.371   3.677   8.108 -0.4024 -1.1679 -0.2105
 1437SOL     OW15943   2.388   4.703   8.907  0.3492 -0.6082 -0.0513
 1437SOL    HW115944   2.352   0.024   8.973  0.8626 -1.8216  1.3008
 1437SOL    HW215945   2.304   4.664   8.884 -0.1057  0.4869 -0.2521
 1438SOL     OW15946   3.923   3.158   8.467  0.4520  0.2224 -0.1029
 1438SOL    HW115947   3.982   3.227   8.495 -1.7312  1.9512  0.2494
 1438SOL    HW215948   3.967   3.079   8.499  1.2674 -0.0188 -1.7999
 1439SOL     OW15949   1.363   4.026   2.169  0.3934 -0.1513  0.0124
 1439SOL    HW115950   1.366   4.060   2.258  0.1344 -1.1663  0.4038
 1439SOL    HW215951   1.452   3.992   2.172  0.4624  0.1988  1.7744
 1440SOL     OW15952   4.013   1.305   8.264  1.1933  0.4972  0.2108
 1440SOL    HW115953   3.923   1.307   8.296  0.6646 -0.5422 -1.1794
 1440SOL    HW215954   3.997   1.275   8.174 -2.4215  1.5555  0.5182
 1441SOL     OW15955   1.460   1.292  14.115 -0.1622 -0.2060  0.2726
 1441SOL    HW115956   1.538   1.324  14.069 -0.3093 -0.0894  0.1042
 1441SOL    HW215957   1.431   1.220  14.059  1.2417 -1.1472  0.7444
 1442SOL     OW15958   3.690   3.144   7.352 -0.3190  0.2751  0.4365
 1442SOL    HW115959   3.710   3.237   7.343 -1.1629  0.3665 -0.4655
 1442SOL    HW215960   3.637   3.133   7.273 -0.4807 -0.8400  0.6913
 1443SOL     OW15961   3.979   0.962  16.277 -0.0737  0.0622  0.0990
 1443SOL    HW115962   3.947   1.002  16.196  2.9275 -0.9540 -1.6115
 1443SOL    HW215963   3.931   1.002  16.349  1.4319  2.4216 -0.2089
 1444SOL     OW15964   2.456   4.370   6.357 -0.1315  0.0032 -0.8363
 1444SOL    HW115965   2.391   4.357   6.426  0.0806  0.2783 -0.5867
 1444SOL    HW215966   2.455   4.284   6.316  0.6667 -0.8813  0.9754
 1445SOL     OW15967   4.254   2.108   9.056 -0.5487  0.4412 -0.6265
 1445SOL    HW115968   4.162   2.121   9.076 -0.5224 -2.0991  1.2676
 1445SOL    HW215969   4.247   2.023   9.013  2.0591  0.5106 -1.1868
 1446SOL     OW15970   1.637   1.700   8.924 -0.0075 -0.1328 -0.2496
 1446SOL    HW115971   1.588   1.635   8.874  0.2656 -1.1913  0.8487
 1446SOL    HW215972   1.581   1.707   9.001  0.6399 -2.6805  0.4373
 1447SOL     OW15973   0.462   2.795   6.143  0.2581 -0.4850 -1.3082
 1447SOL    HW115974   0.416   2.757   6.218 -1.8632  1.6536 -1.5240
 1447SOL    HW215975   0.549   2.813   6.179 -0.4303 -0.8733  0.5473
 1448SOL     OW15976   1.102   3.449   0.069  0.1314 -0.4093 -0.0014
 1448SOL    HW115977   1.048   3.527   0.084  0.7339 -0.4370  2.2657
 1448SOL    HW215978   1.082   3.390   0.142  0.9211 -1.0154 -0.2784
 1449SOL     OW15979   2.419   0.903  10.117 -0.2776 -0.0992  0.4963
 1449SOL    HW115980   2.472   0.978  10.145 -0.8057  0.0424  1.0966
 1449SOL    HW215981   2.368   0.891  10.197  0.5695  1.4047  1.2522
 1450SOL     OW15982   4.355   0.586   8.953 -0.2197 -0.4341 -0.0868
 1450SOL    HW115983   4.421   0.524   8.983 -0.6323 -1.7320 -1.9279
 1450SOL    HW215984   4.378   0.592   8.860 -2.0304 -0.3219 -0.5305
 1451SOL     OW15985   0.927   0.942  15.158  0.3540  0.3232 -0.8393
 1451SOL    HW115986   0.916   0.857  15.115  0.2225 -0.1803  0.1907
 1451SOL    HW215987   1.018   0.963  15.138 -0.0635  1.8203 -1.2060
 1452SOL     OW15988   1.550   1.053   6.762 -0.1454  0.7636 -0.5898
 1452SOL    HW115989   1.556   1.069   6.856  0.6399  0.9790 -0.6787
 1452SOL    HW215990   1.539   0.960   6.780  0.5121  0.9849  0.9669
 1453SOL     OW15991   3.150   1.886   5.014  0.0633 -0.7224  0.1898
 1453SOL    HW115992   3.099   1.806   5.026 -2.8668  1.3143  1.5126
 1453SOL    HW215993   3.085   1.957   5.018  0.9675  0.0113  1.8380
 1454SOL     OW15994   3.783   2.390  13.726 -0.1740  0.0780  0.7187
 1454SOL    HW115995   3.856   2.391  13.789 -0.1149 -0.9343  0.6755
 1454SOL    HW215996   3.747   2.471  13.762  0.0276 -0.9470  3.2369
 1455SOL     OW15997   4.224   2.694   5.258 -0.2243  0.8014 -0.2499
 1455SOL    HW115998   4.249   2.643   5.181  0.4983  0.1407  0.4213
 1455SOL    HW215999   4.131   2.670   5.252  0.1346 -0.1490 -2.0155
 1456SOL     OW16000   1.391   3.529   3.413 -0.3115  0.3867 -0.1020
 1456SOL    HW116001   1.296   3.517   3.413 -0.5287  2.2221 -0.9301
 1456SOL    HW216002   1.411   3.610   3.367 -1.2206  1.5911  1.6299
 1457SOL     OW16003   2.749   2.203   5.823  0.4804  0.2006 -0.5119
 1457SOL    HW116004   2.839   2.179   5.799  0.5247  0.9481 -1.0811
 1457SOL    HW216005   2.725   2.110   5.827  1.0201  0.2248  3.5006
 1458SOL     OW16006   2.718   2.956   9.710  0.2069 -0.4123  0.0726
 1458SOL    HW116007   2.732   2.971   9.617  2.7052 -0.6251  0.4150
 1458SOL    HW216008   2.783   3.017   9.744 -1.0069  0.8218  0.1526
 1459SOL     OW16009   2.669   4.207   4.878 -0.6176 -0.3871 -0.5871
 1459SOL    HW116010   2.619   4.163   4.947 -0.2292 -2.2930 -1.5137
 1459SOL    HW216011   2.725   4.256   4.938 -0.7375  2.3986 -2.7715
 1460SOL     OW16012   0.701   0.101   1.180  0.4902  0.9513 -0.3785
 1460SOL    HW116013   0.723   0.100   1.087  0.6577  0.1902 -0.3300
 1460SOL    HW216014   0.773   0.047   1.214  0.2640  0.2520 -1.0285
 1461SOL     OW16015   2.315   1.649  11.870 -0.1153 -0.2286  0.1443
 1461SOL    HW116016   2.388   1.650  11.932  1.7123 -0.5704 -2.0120
 1461SOL    HW216017   2.333   1.577  11.810 -0.9949 -0.0954 -0.2849
 1462SOL     OW16018   4.051   0.050   1.584  0.4326  0.2462  0.4312
 1462SOL    HW116019   4.002   0.131   1.572  0.6688  0.3448  0.1365
 1462SOL    HW216020   4.097   0.057   1.667  0.4602  1.4657  0.3083
 1463SOL     OW16021   3.347   0.921  11.754 -0.2840 -0.0501  0.5949
 1463SOL    HW116022   3.337   0.995  11.815  1.5888  1.2660 -0.6802
 1463SOL    HW216023   3.438   0.901  11.772 -0.2532  0.3621  0.8960
 1464SOL     OW16024   2.374   4.497   5.388 -0.5243  0.1768  0.0004
 1464SOL    HW116025   2.418   4.490   5.304  0.2732  0.0946  0.4197
 1464SOL    HW216026   2.289   4.458   5.367 -1.3829  2.7991 -1.4164
 1465SOL     OW16027   3.733   0.222   5.559 -0.4424  0.3768 -0.1693
 1465SOL    HW116028   3.638   0.210   5.562 -0.2881 -0.9293 -0.7309
 1465SOL    HW216029   3.759   0.193   5.646  0.1708 -3.2185 -1.5450
 1466SOL     OW16030   4.061   1.686   5.447  0.4252  0.3657  0.6968
 1466SOL    HW116031   3.978   1.692   5.495 -0.2401  0.5108 -0.4866
 1466SOL    HW216032   4.048   1.610   5.391  1.0762  2.0689 -1.7312
 1467SOL     OW16033   0.410   3.189   4.538  0.1564 -0.0503  0.0370
 1467SOL    HW116034   0.356   3.267   4.527 -0.2865 -0.4081 -0.3576
 1467SOL    HW216035   0.349   3.118   4.560 -1.8112  1.3808 -0.8239
 1468SOL     OW16036   0.946   1.018   8.969  0.2243  0.0375  0.3732
 1468SOL    HW116037   0.949   1.046   8.877 -0.0652  0.8697  0.6186
 1468SOL    HW216038   0.944   0.926   8.943  1.1834  0.3008 -0.6274
 1469SOL     OW16039   0.230   2.494  12.093 -0.2277  0.1308 -0.4381
 1469SOL    HW116040   0.286   2.520  12.019 -0.2866  1.6668  0.0430
 1469SOL    HW216041   0.270   2.409  12.110  1.8222  1.9118  3.7705
 1470SOL     OW16042   4.032   1.947  16.079 -0.0214  0.4356  0.5530
 1470SOL    HW116043   4.064   1.864  16.114  0.9746  0.5195 -0.1540
 1470SOL    HW216044   3.941   1.922  16.061 -0.6380  2.4147  0.8940
 1471SOL     OW16045   4.240   4.379   2.027  0.6691  0.0066 -0.1088
 1471SOL    HW116046   4.278   4.376   2.115 -0.2195  0.1487  0.2726
 1471SOL    HW216047   4.219   4.287   2.013  1.2924  0.0406 -1.2643
 1472SOL     OW16048   2.752   2.004  16.480  0.0164 -0.2787  0.3124
 1472SOL    HW116049   2.703   2.067  16.532 -0.4994 -0.3900 -0.0453
 1472SOL    HW216050   2.694   2.007  16.404  0.7024  1.2160 -0.1455
 1473SOL     OW16051   0.792   1.142  15.299 -0.2858 -0.7085  0.0788
 1473SOL    HW116052   0.723   1.185  15.249  0.9363  0.4338 -0.6251
 1473SOL    HW216053   0.792   1.055  15.257 -0.2959 -1.8579  2.4930
 1474SOL     OW16054   4.416   2.145  12.204  0.7200  0.3020 -0.1805
 1474SOL    HW116055   4.406   2.223  12.149  2.3908 -0.3206 -1.3625
 1474SOL    HW216056   4.342   2.094  12.172  1.3177  0.4206 -1.7577
 1475SOL     OW16057   0.957   2.040  15.870 -0.2784 -0.0827  0.0063
 1475SOL    HW116058   1.009   2.051  15.791 -0.5501  1.6673  0.0584
 1475SOL    HW216059   0.874   2.080  15.843 -1.2337 -0.1639  2.7988
 1476SOL     OW16060   2.149   3.470  15.878  0.5193  0.5404  0.3683
 1476SOL    HW116061   2.217   3.410  15.908 -2.1711 -2.4028  0.6448
 1476SOL    HW216062   2.071   3.418  15.899  0.9817 -0.3994 -0.2235
 1477SOL     OW16063   0.716   3.163  14.830  0.9855  0.8781  0.8886
 1477SOL    HW116064   0.651   3.154  14.761 -0.1605  1.0348  1.9314
 1477SOL    HW216065   0.672   3.144  14.913  1.8684 -1.7584  0.7320
 1478SOL     OW16066   2.097   3.764   6.560 -0.3730 -0.2354 -0.7863
 1478SOL    HW116067   2.074   3.686   6.509  0.5200  0.0330 -1.5878
 1478SOL    HW216068   2.026   3.768   6.625  0.1640 -0.1423 -0.2025
 1479SOL     OW16069   4.341   1.431   1.354  0.3902  0.3886 -0.2524
 1479SOL    HW116070   4.373   1.460   1.439  1.3335 -0.5192 -0.3003
 1479SOL    HW216071   4.341   1.504   1.293 -2.4934 -0.3552 -1.1810
 1480SOL     OW16072   3.443   0.752   6.902 -0.6490 -0.1913  0.0516
 1480SOL    HW116073   3.487   0.794   6.975 -2.9030 -2.2943  2.6289
 1480SOL    HW216074   3.519   0.699   6.877 -0.6399  0.8016 -2.0315
 1481SOL     OW16075   0.500   3.739   4.528  0.3505 -0.1934  0.2603
 1481SOL    HW116076   0.576   3.774   4.480  0.8197 -0.9338  0.4646
 1481SOL    HW216077   0.469   3.683   4.456  2.0745 -0.1498 -0.5292
 1482SOL     OW16078   1.915   1.593   5.023 -0.3510 -0.0504 -0.8599
 1482SOL    HW116079   1.890   1.596   5.115 -0.2924  0.2346 -0.8522
 1482SOL    HW216080   1.871   1.669   4.983  0.1051 -0.2001 -1.6371
 1483SOL     OW16081   4.047   3.116   1.919 -0.0063  0.1937  0.5826
 1483SOL    HW116082   4.133   3.158   1.920 -0.0177  0.2621 -1.3909
 1483SOL    HW216083   4.068   3.025   1.897 -1.4871 -0.3186  1.2605
 1484SOL     OW16084   3.417   2.089   2.590  0.7470  0.1245 -0.2650
 1484SOL    HW116085   3.429   1.994   2.591  0.5045  0.0826 -3.1696
 1484SOL    HW216086   3.370   2.104   2.673  2.6934 -0.7629  0.9978
 1485SOL     OW16087   3.940   3.083   4.601  0.1280  0.2953  0.0388
 1485SOL    HW116088   4.012   3.105   4.543  1.1773  0.3369  1.3739
 1485SOL    HW216089   3.964   2.993   4.621 -5.4521 -1.0875  0.7774
 1486SOL     OW16090   2.471   1.083  14.400  0.1809  0.0594  0.1689
 1486SOL    HW116091   2.381   1.111  14.384  0.2353  0.3577  0.3843
 1486SOL    HW216092   2.519   1.103  14.320  0.8725  0.3612  0.6619
 1487SOL     OW16093   1.184   0.566   0.888  0.3419  0.1818 -0.1808
 1487SOL    HW116094   1.116   0.552   0.953  0.0538  0.5676 -0.4015
 1487SOL    HW216095   1.207   0.473   0.888  2.1561  0.6408  0.5140
 1488SOL     OW16096   0.868   4.259   3.263 -0.0464  0.1466  0.1846
 1488SOL    HW116097   0.801   4.225   3.204 -0.4613 -0.8886  1.2495
 1488SOL    HW216098   0.898   4.172   3.290 -0.6221 -0.4287 -1.0769
 1489SOL     OW16099   0.175   0.436   5.108 -0.6772 -0.1698  0.0311
 1489SOL    HW116100   0.081   0.435   5.091 -0.6816 -0.7009  0.0954
 1489SOL    HW216101   0.203   0.526   5.092  1.1902 -1.2197 -2.5405
 1490SOL     OW16102   0.369   4.684  16.025  0.4322 -0.0565  0.5743
 1490SOL    HW116103   0.320   0.026  16.010  1.0194  0.1945  0.0296
 1490SOL    HW216104   0.406   4.660  15.940 -2.5108  0.0584 -0.7519
 1491SOL     OW16105   3.130   2.856  11.165  0.3189 -0.4695 -0.5745
 1491SOL    HW116106   3.217   2.834  11.132  0.8373 -0.7704  0.9899
 1491SOL    HW216107   3.064   2.838  11.098 -1.6708  1.6806  0.8349
 1492SOL     OW16108   0.112   3.243   6.573 -0.2035  0.2488 -0.6582
 1492SOL    HW116109   0.107   3.231   6.478 -0.0429  0.9729 -0.7595
 1492SOL    HW216110   0.102   3.337   6.584 -1.3956  0.0917 -0.3773
 1493SOL     OW16111   4.711   0.026   6.064  0.3845 -0.6112 -0.4904
 1493SOL    HW116112   0.011   0.029   6.152 -0.8620 -0.2089  0.0273
 1493SOL    HW216113   4.621   0.004   6.084  1.3768 -4.1868 -0.0261
 1494SOL     OW16114   0.526   0.342   4.350 -0.6137  0.2453 -0.0635
 1494SOL    HW116115   0.513   0.314   4.259  0.5337 -0.4881  0.0097
 1494SOL    HW216116   0.617   0.370   4.341  0.1172 -2.3537 -0.8100
 1495SOL     OW16117   3.996   0.335   3.477 -0.0133 -0.1879 -0.1786
 1495SOL    HW116118   3.907   0.363   3.499 -1.0982 -3.5497 -0.1689
 1495SOL    HW216119   3.978   0.269   3.410  1.2144 -3.1938  2.4058
 1496SOL     OW16120   0.216   1.840   8.434 -0.4131  0.1143  0.3266
 1496SOL    HW116121   0.170   1.766   8.396  0.1857  0.4747 -1.0771
 1496SOL    HW216122   0.298   1.798   8.458  0.4564  1.3184 -0.5486
 1497SOL     OW16123   1.986   0.817   1.306  0.2619  0.2294 -0.6876
 1497SOL    HW116124   1.925   0.845   1.375 -1.0584  0.2664 -1.8640
 1497SOL    HW216125   1.934   0.830   1.227 -0.3968  1.0427 -0.1338
 1498SOL     OW16126   3.826   3.586   0.220 -0.1481 -0.0034 -0.4273
 1498SOL    HW116127   3.742   3.601   0.263  1.8101  1.6774  2.7713
 1498SOL    HW216128   3.867   3.669   0.199  0.3693 -0.0896  0.2219
 1499SOL     OW16129   0.888   0.317   8.166 -0.1386 -0.0311  0.0368
 1499SOL    HW116130   0.912   0.409   8.179 -0.4430  0.1569 -0.6957
 1499SOL    HW216131   0.808   0.320   8.113 -0.6193  0.2534  0.7863
 1500SOL     OW16132   1.740   3.723   5.005  0.0671 -0.3411 -0.1669
 1500SOL    HW116133   1.795   3.663   4.956  0.2642 -0.1626 -0.1632
 1500SOL    HW216134   1.752   3.802   4.952  3.4096  0.5633  1.9647
 1501SOL     OW16135   1.913   0.286   5.242 -0.0051 -0.0082  0.0863
 1501SOL    HW116136   1.940   0.198   5.266  0.4968  0.3577  0.8993
 1501SOL    HW216137   1.930   0.284   5.148 -1.3085  0.7606 -0.1642
 1502SOL     OW16138   3.402   4.420   6.838 -0.2380 -0.0004 -0.4991
 1502SOL    HW116139   3.478   4.476   6.853 -0.1159 -0.9145  2.2945
 1502SOL    HW216140   3.405   4.396   6.745  1.0528  0.4183 -0.5618
 1503SOL     OW16141   4.527   0.060   6.439 -0.2326 -0.0725 -0.1414
 1503SOL    HW116142   4.503   0.042   6.348 -1.3203  0.2511  0.0734
 1503SOL    HW216143   4.435   0.062   6.467  0.1252 -3.6297  1.2336
 1504SOL     OW16144   0.456   3.225   8.814  0.4661  0.2713  0.2398
 1504SOL    HW116145   0.550   3.242   8.822  0.5644  0.0185 -0.3700
 1504SOL    HW216146   0.459   3.130   8.825  1.1550  0.0074 -2.0544
 1505SOL     OW16147   0.073   3.311   8.175 -0.0310 -0.0192 -0.0945
 1505SOL    HW116148   0.097   3.390   8.225  2.4295 -0.2557 -0.9241
 1505SOL    HW216149   0.035   3.341   8.093  2.6317  1.9970 -0.5872
 1506SOL     OW16150   3.740   4.502  17.081 -0.0922 -0.0892  1.3495
 1506SOL    HW116151   3.819   4.504  17.027 -1.6517  2.2578 -0.8678
 1506SOL    HW216152   3.747   4.591  17.113 -4.3535  0.5429  0.5811
 1507SOL     OW16153   1.572   3.772  15.412  0.1404  0.2405 -0.3680
 1507SOL    HW116154   1.574   3.751  15.505  1.7686 -2.2253 -0.9458
 1507SOL    HW216155   1.646   3.833  15.406  2.3896 -2.4465 -0.0947
 1508SOL     OW16156   1.359   1.785   8.696  0.4154  0.7222 -0.3245
 1508SOL    HW116157   1.432   1.737   8.656  0.1065 -0.5174  0.6164
 1508SOL    HW216158   1.409   1.860   8.726  0.2409  0.7828 -0.1840
 1509SOL     OW16159   3.137   4.659  13.599  0.0713 -1.0298  0.0078
 1509SOL    HW116160   3.074   4.724  13.567  0.3973 -1.2897 -1.1503
 1509SOL    HW216161   3.088   4.627  13.675  0.8405 -2.2756 -0.0174
 1510SOL     OW16162   3.723   2.425   6.279  0.2930  0.3262  0.0492
 1510SOL    HW116163   3.676   2.343   6.264  0.3911  0.5545 -1.4692
 1510SOL    HW216164   3.745   2.451   6.190  2.1188 -2.8038 -0.4055
 1511SOL     OW16165   2.965   4.290  10.935  0.8490 -0.3887 -0.1249
 1511SOL    HW116166   3.052   4.261  10.962  1.9267  1.0847 -2.0735
 1511SOL    HW216167   2.917   4.243  11.004  1.7851 -1.3920 -0.1568
 1512SOL     OW16168   3.934   2.509   7.085 -0.4126  0.3094  0.0387
 1512SOL    HW116169   3.863   2.523   7.022 -1.6485  1.2540  1.6392
 1512SOL    HW216170   3.888   2.458   7.151  2.8112 -1.6140  0.7865
 1513SOL     OW16171   4.135   2.305   7.635  0.1929  0.0823  0.2144
 1513SOL    HW116172   4.143   2.347   7.550 -0.5770  0.0228  0.1124
 1513SOL    HW216173   4.195   2.230   7.626  0.4001 -0.0137  2.1706
 1514SOL     OW16174   1.660   2.126   2.900 -0.5757  0.3742  0.1948
 1514SOL    HW116175   1.684   2.059   2.965 -2.2279 -2.1549 -1.8219
 1514SOL    HW216176   1.572   2.095   2.878 -1.1813  0.5314  2.3180
 1515SOL     OW16177   4.454   4.730  14.540  0.1956 -0.4144  0.7197
 1515SOL    HW116178   4.393   0.059  14.569  1.8618  1.5599 -0.4002
 1515SOL    HW216179   4.401   4.661  14.500  1.3535 -1.2184  0.5512
 1516SOL     OW16180   3.558   1.308   3.073  0.1903 -0.7760 -0.0600
 1516SOL    HW116181   3.468   1.340   3.065  0.7116  0.5281 -0.7933
 1516SOL    HW216182   3.604   1.328   2.992 -1.5849  2.1765 -0.3298
 1517SOL     OW16183   0.061   2.317   8.349  0.1396  0.0327 -0.0390
 1517SOL    HW116184   0.032   2.408   8.358 -0.9136 -0.2524 -0.5921
 1517SOL    HW216185   0.146   2.323   8.306  0.2173 -0.4628  0.0471
 1518SOL     OW16186   2.054   4.148   4.005  0.2174  0.1452  0.2751
 1518SOL    HW116187   2.065   4.226   3.950  3.5458 -0.4452  0.0720
 1518SOL    HW216188   2.135   4.147   4.056  0.4057  1.6553 -0.0060
 1519SOL     OW16189   3.573   0.751   8.165 -0.0277  0.0208  0.2422
 1519SOL    HW116190   3.522   0.752   8.084  1.6769 -1.0626 -0.8501
 1519SOL    HW216191   3.539   0.829   8.209 -0.8974  0.1302 -0.6240
 1520SOL     OW16192   1.851   4.303   7.892  0.1459  0.5139 -0.2564
 1520SOL    HW116193   1.930   4.274   7.938  0.9842  1.3524 -1.1657
 1520SOL    HW216194   1.788   4.265   7.953  0.8282 -1.0963 -0.5742
 1521SOL     OW16195   1.947   1.943   2.729  0.3571 -0.2336 -0.3222
 1521SOL    HW116196   1.926   1.851   2.715  0.7509 -0.5391  1.0731
 1521SOL    HW216197   1.939   1.942   2.825 -1.1152 -2.5649 -0.4935
 1522SOL     OW16198   0.699   3.040   1.722  0.2042  0.1631 -0.3316
 1522SOL    HW116199   0.610   3.008   1.710  0.3355 -0.8719  1.3729
 1522SOL    HW216200   0.690   3.133   1.699 -3.9190  0.0507  0.7983
 1523SOL     OW16201   2.790   0.972   0.968  0.3519 -0.0869 -0.6252
 1523SOL    HW116202   2.734   1.020   0.907 -0.9391  2.1228  2.3317
 1523SOL    HW216203   2.829   0.910   0.906 -0.7924 -0.6586 -0.7704
 1524SOL     OW16204   1.259   0.132   8.419  0.0898  0.1510  0.6807
 1524SOL    HW116205   1.207   0.177   8.486  2.2803  3.2711  0.2765
 1524SOL    HW216206   1.226   0.184   8.346 -2.5087 -1.9388  0.3668
 1525SOL     OW16207   1.848   4.021   3.308 -0.3729  0.3919  0.9618
 1525SOL    HW116208   1.767   3.971   3.320 -0.7729  0.4697 -1.2917
 1525SOL    HW216209   1.904   3.972   3.368  0.8618  0.2974 -0.2775
 1526SOL     OW16210   2.575   0.407   3.929 -0.4094  0.4147  0.0956
 1526SOL    HW116211   2.486   0.372   3.935 -0.3288  0.0039 -1.0746
 1526SOL    HW216212   2.583   0.481   3.989 -0.3067  0.2837  0.2430
 1527SOL     OW16213   0.992   2.981  16.575  0.6839  0.2422 -0.0838
 1527SOL    HW116214   1.043   2.937  16.643  1.5495  1.0130 -0.2258
 1527SOL    HW216215   0.914   2.929  16.555 -0.2499  1.8422 -0.6589
 1528SOL     OW16216   3.519   1.871   1.744  0.2707 -0.7503 -0.0635
 1528SOL    HW116217   3.571   1.797   1.713  2.4233  0.9524 -0.4810
 1528SOL    HW216218   3.521   1.919   1.661 -1.7884  0.6416  0.6910
 1529SOL     OW16219   1.088   4.658   9.048 -0.4316 -0.4712  0.2131
 1529SOL    HW116220   1.147   4.623   8.981  1.1595  0.2247  1.2416
 1529SOL    HW216221   1.010   4.605   9.032 -0.2691  0.0279 -2.1311
 1530SOL     OW16222   0.330   4.570   8.365  0.1792  0.1329 -0.0574
 1530SOL    HW116223   0.420   4.580   8.334  0.7027  2.5689  2.2200
 1530SOL    HW216224   0.316   4.476   8.361 -1.0339  0.3158 -0.2888
 1531SOL     OW16225   1.198   2.438  15.008 -0.2992 -0.0410  0.4578
 1531SOL    HW116226   1.143   2.393  15.072 -0.6718  0.5458  0.5515
 1531SOL    HW216227   1.150   2.515  14.977 -0.2939 -0.3719 -0.3801
 1532SOL     OW16228   2.310   3.918   7.112  0.5915  0.2590  0.0793
 1532SOL    HW116229   2.230   3.968   7.131  1.0135  0.4819  1.2580
 1532SOL    HW216230   2.274   3.856   7.050  0.7242 -1.4796  1.7564
 1533SOL     OW16231   0.953   4.597   0.784  0.3095 -0.1619 -0.1017
 1533SOL    HW116232   0.989   4.683   0.759 -1.5381  0.7011  0.1836
 1533SOL    HW216233   0.992   4.590   0.871  0.4855  0.8902 -0.0934
 1534SOL     OW16234   0.871   3.260   6.148 -0.4352 -0.3151 -0.0775
 1534SOL    HW116235   0.855   3.194   6.082 -1.0812  0.2856 -0.5200
 1534SOL    HW216236   0.824   3.338   6.117  1.4288  0.2266 -1.5455
 1535SOL     OW16237   0.437   2.854   3.373 -0.3256 -0.3778  0.0975
 1535SOL    HW116238   0.532   2.855   3.360 -0.7212 -0.3307 -2.6724
 1535SOL    HW216239   0.413   2.931   3.321 -1.2541  0.7714  2.1752
 1536SOL     OW16240   3.931   1.078  16.005  0.0977 -0.1277  0.3650
 1536SOL    HW116241   3.865   1.144  16.024  0.0424  0.2814 -1.3372
 1536SOL    HW216242   3.916   1.068  15.911  1.4323  1.8600 -0.0614
 1537SOL     OW16243   2.084   3.204  16.407 -0.3213 -0.5665  0.2298
 1537SOL    HW116244   2.076   3.181  16.315  1.3894  1.0414 -0.3176
 1537SOL    HW216245   2.120   3.293  16.410  0.3670 -0.9187  2.2380
 1538SOL     OW16246   2.483   1.526  16.755  0.6050  0.0149 -0.0623
 1538SOL    HW116247   2.405   1.472  16.768  0.5124  0.3432  0.7723
 1538SOL    HW216248   2.463   1.609  16.799  0.4674 -0.2245  0.3284
 1539SOL     OW16249   2.645   0.292   0.266  0.3579 -0.2866  0.1710
 1539SOL    HW116250   2.630   0.376   0.221  1.3463  1.1656  2.5863
 1539SOL    HW216251   2.611   0.242   0.192 -2.1477 -2.5796  2.8590
 1540SOL     OW16252   1.760   2.398  16.660 -0.6485  0.0392  0.0713
 1540SOL    HW116253   1.807   2.481  16.653 -1.5700  0.4437 -1.1761
 1540SOL    HW216254   1.796   2.376  16.746 -0.1162 -0.8124 -0.3680
 1541SOL     OW16255   1.307   2.408   2.019  0.2948  0.2721  0.5070
 1541SOL    HW116256   1.309   2.493   1.974 -0.6743  0.4502  0.8102
 1541SOL    HW216257   1.214   2.391   2.006  0.4407 -1.9320  2.3281
 1542SOL     OW16258   3.202   2.960   9.646  0.0993 -0.0830  0.1453
 1542SOL    HW116259   3.220   2.887   9.586 -1.4433 -0.5850  0.2940
 1542SOL    HW216260   3.107   2.954   9.648  0.0809 -0.3407 -1.5172
 1543SOL     OW16261   3.546   3.485   3.811 -0.5545 -0.2556  0.0333
 1543SOL    HW116262   3.627   3.490   3.861 -1.6150 -0.9618  1.8192
 1543SOL    HW216263   3.575   3.497   3.721 -1.6458 -0.9151 -0.3975
 1544SOL     OW16264   1.754   1.102   4.722 -0.4355 -0.1702 -0.0303
 1544SOL    HW116265   1.848   1.096   4.739 -0.1538  2.7501 -0.5027
 1544SOL    HW216266   1.726   1.187   4.755 -3.0219 -1.5481  1.2789
 1545SOL     OW16267   0.600   1.168   3.054  0.2789 -0.6079  0.3754
 1545SOL    HW116268   0.574   1.077   3.072 -0.2628 -0.3711  0.7923
 1545SOL    HW216269   0.660   1.182   3.127 -1.1106 -0.8885  1.5624
 1546SOL     OW16270   2.028   0.191   1.734 -0.0580 -0.3069  0.1288
 1546SOL    HW116271   2.081   0.145   1.669  0.1315 -1.1275  0.8653
 1546SOL    HW216272   2.102   0.234   1.777  0.8518 -1.7939  0.0554
 1547SOL     OW16273   4.010   1.983   8.879 -0.1209 -0.2640 -0.3976
 1547SOL    HW116274   3.980   2.046   8.944 -1.1382  1.4784 -2.5231
 1547SOL    HW216275   4.062   1.924   8.933  1.0856 -0.0139 -1.2962
 1548SOL     OW16276   3.808   4.578   7.367  0.4130 -0.1118 -0.6752
 1548SOL    HW116277   3.803   4.668   7.400 -4.1375 -0.7306  0.2786
 1548SOL    HW216278   3.826   4.528   7.447 -2.1747 -0.9829 -0.6342
 1549SOL     OW16279   0.704   3.725   4.873 -0.2480  0.3646  0.1235
 1549SOL    HW116280   0.773   3.791   4.875 -0.2266  0.3282  0.5301
 1549SOL    HW216281   0.745   3.671   4.805  0.4310  2.9043 -1.4945
 1550SOL     OW16282   2.226   2.204   2.331  0.6331  0.1170  0.0614
 1550SOL    HW116283   2.137   2.201   2.296  0.7378 -0.3937 -0.1649
 1550SOL    HW216284   2.203   2.260   2.405 -0.6243  0.4027 -0.5419
 1551SOL     OW16285   0.156   2.258  15.115  0.1929 -0.4103 -0.4071
 1551SOL    HW116286   0.092   2.310  15.065  1.0015  1.6960  0.7439
 1551SOL    HW216287   0.100   2.183  15.135  0.5129 -0.5632 -0.0915
 1552SOL     OW16288   2.719   2.524  13.276 -0.0436  0.2432  0.4627
 1552SOL    HW116289   2.695   2.604  13.228  0.6681 -0.0821 -0.4355
 1552SOL    HW216290   2.728   2.571  13.359  0.2704 -0.5537  0.8787
 1553SOL     OW16291   2.029   3.415   6.846  0.1963  0.2781  0.3857
 1553SOL    HW116292   2.019   3.419   6.941 -0.6339 -0.2170  0.3278
 1553SOL    HW216293   2.109   3.365   6.830 -1.3425 -1.4995 -1.7632
 1554SOL     OW16294   4.534   0.689   2.309  0.3191 -0.3692 -0.0529
 1554SOL    HW116295   4.458   0.741   2.284  0.5390 -0.5966 -1.1828
 1554SOL    HW216296   4.551   0.651   2.223  0.4325 -3.2790  1.2424
 1555SOL     OW16297   3.285   3.174   7.236  0.2993  0.7072 -0.2763
 1555SOL    HW116298   3.220   3.125   7.287 -0.5140  1.7681 -0.2760
 1555SOL    HW216299   3.285   3.261   7.277 -2.4463 -0.2153  1.6739
 1556SOL     OW16300   2.736   2.131   9.381 -0.4338 -0.1140 -0.1347
 1556SOL    HW116301   2.730   2.058   9.319 -1.8605 -0.3679  0.3053
 1556SOL    HW216302   2.710   2.087   9.462  0.1143  0.8448  0.5643
 1557SOL     OW16303   0.836   2.397   6.898 -0.4162  0.0996  0.6678
 1557SOL    HW116304   0.771   2.352   6.952 -1.5519  0.2542 -0.5666
 1557SOL    HW216305   0.905   2.389   6.964  0.4324  1.0865 -0.0939
 1558SOL     OW16306   1.170   1.577  15.358  0.6671  0.0546  0.1171
 1558SOL    HW116307   1.202   1.498  15.401 -3.1575 -0.3500  2.2089
 1558SOL    HW216308   1.153   1.546  15.269 -3.8466 -1.3203  1.4602
 1559SOL     OW16309   0.298   4.484   3.651  0.3663 -0.3125 -0.5548
 1559SOL    HW116310   0.393   4.493   3.648  0.1569  1.9360 -0.8025
 1559SOL    HW216311   0.280   4.578   3.646 -0.3631 -0.4324 -0.1830
 1560SOL     OW16312   2.895   0.034  10.829 -0.1150 -0.2579  0.8799
 1560SOL    HW116313   2.879   4.698  10.886 -2.4103 -1.2638 -1.0764
 1560SOL    HW216314   2.805   0.066  10.816 -0.7466 -2.0888  0.7802
 1561SOL     OW16315   2.447   0.144   4.462 -0.1931 -0.3125 -0.6709
 1561SOL    HW116316   2.416   0.229   4.494  1.1861  0.1634 -0.6179
 1561SOL    HW216317   2.529   0.168   4.419  0.5920  1.6533  1.9438
 1562SOL     OW16318   0.973   1.478   4.758  0.1428  0.3051  0.1828
 1562SOL    HW116319   0.903   1.486   4.822  1.5004 -0.6384  1.7804
 1562SOL    HW216320   0.980   1.384   4.744  1.2385  0.0767  2.2911
 1563SOL     OW16321   2.633   3.533   6.465  0.6542  0.5430 -0.2111
 1563SOL    HW116322   2.563   3.474   6.492  1.0854 -0.1344 -0.5731
 1563SOL    HW216323   2.660   3.565   6.550 -1.8306  0.7297  0.4959
 1564SOL     OW16324   3.408   1.442   5.176  0.8231  0.3995  0.0092
 1564SOL    HW116325   3.379   1.379   5.110  0.1617  2.0615 -1.2609
 1564SOL    HW216326   3.454   1.396   5.247  1.6956  1.6992  0.2876
 1565SOL     OW16327   3.904   3.746  15.679 -0.0085  0.4409  0.1679
 1565SOL    HW116328   3.910   3.658  15.716 -0.6199  0.0964 -0.5408
 1565SOL    HW216329   3.912   3.808  15.751  1.2875  1.2665 -0.6955
 1566SOL     OW16330   3.734   0.512  11.213  0.7601 -0.0816  0.0311
 1566SOL    HW116331   3.716   0.420  11.195  2.4626 -0.4851  0.4080
 1566SOL    HW216332   3.821   0.519  11.253  0.8178 -2.2132  0.2480
 1567SOL     OW16333   4.104   2.358   7.345 -0.0442  0.0568  0.7861
 1567SOL    HW116334   4.113   2.283   7.286  1.8098  1.9460 -1.3243
 1567SOL    HW216335   4.017   2.388   7.318  1.5417  3.2092 -0.7849
 1568SOL     OW16336   1.385   2.719   5.873 -0.2101 -0.4898  0.3999
 1568SOL    HW116337   1.327   2.720   5.797  1.3797 -2.2364 -0.8144
 1568SOL    HW216338   1.469   2.749   5.838 -2.2071  2.1200 -2.0989
 1569SOL     OW16339   2.084   1.650   2.835 -0.0275  0.5032 -0.0106
 1569SOL    HW116340   2.069   1.679   2.924 -0.2263 -1.5074  0.6024
 1569SOL    HW216341   2.110   1.559   2.850 -2.1154 -0.1409 -0.4141
 1570SOL     OW16342   2.234   2.044  11.365  0.5245  0.1597  0.2882
 1570SOL    HW116343   2.180   2.118  11.391  0.4358 -0.1806  1.0437
 1570SOL    HW216344   2.163   1.983  11.348 -0.8567  1.4577  1.4181
 1571SOL     OW16345   0.683   1.032   9.679 -0.1022 -0.0072  0.1122
 1571SOL    HW116346   0.642   1.007   9.596  1.7970  0.9791 -1.1373
 1571SOL    HW216347   0.607   1.024   9.736 -0.4820 -1.6997 -0.6429
 1572SOL     OW16348   1.999   3.862   6.275 -0.3255  0.0209  0.0445
 1572SOL    HW116349   2.044   3.919   6.338  2.2929 -1.6272 -0.3051
 1572SOL    HW216350   1.983   3.934   6.214  0.7028  1.7890  1.8242
 1573SOL     OW16351   3.260   0.915  16.085  0.3100 -0.0058 -0.5062
 1573SOL    HW116352   3.181   0.968  16.093 -1.1298 -2.3679  1.0967
 1573SOL    HW216353   3.252   0.881  15.996 -0.0801  0.5419 -0.6781
 1574SOL     OW16354   3.938   3.944  17.210 -0.2865 -0.1774 -0.0567
 1574SOL    HW116355   3.863   3.899  17.171  0.4764  0.5692 -2.4142
 1574SOL    HW216356   3.970   3.873  17.265  0.2675  0.5015  0.4933
 1575SOL     OW16357   4.620   2.946   1.596 -1.0742 -0.1939  0.0941
 1575SOL    HW116358   4.658   2.859   1.613 -2.4478 -1.0532 -1.1530
 1575SOL    HW216359   4.689   2.990   1.546  1.8074 -1.2622  3.1505
 1576SOL     OW16360   1.828   2.013   4.687  0.1435  0.0397 -0.5264
 1576SOL    HW116361   1.776   2.093   4.702  1.8525  1.2888 -1.3043
 1576SOL    HW216362   1.919   2.042   4.680  0.4861 -0.6785  1.0170
 1577SOL     OW16363   3.882   2.520  13.984 -0.6103  0.1293 -0.5497
 1577SOL    HW116364   3.875   2.575  13.906  0.8465  1.5421  0.3259
 1577SOL    HW216365   3.793   2.522  14.019  0.0754 -0.4029  1.2054
 1578SOL     OW16366   1.048   2.712   7.151 -0.0942  0.0945 -0.3526
 1578SOL    HW116367   0.985   2.780   7.175 -0.4150 -0.4174  0.2467
 1578SOL    HW216368   1.005   2.637   7.192 -0.1968 -0.6998 -1.9075
 1579SOL     OW16369   3.959   1.961   4.274  0.1261  0.1567  0.1482
 1579SOL    HW116370   3.956   2.037   4.331  0.0003  0.7245 -0.6266
 1579SOL    HW216371   3.968   1.895   4.343  1.1833 -0.7247 -0.8290
 1580SOL     OW16372   1.662   3.644  15.943 -0.2404  0.1679 -0.1877
 1580SOL    HW116373   1.614   3.637  15.861 -2.0326 -0.2530  0.8901
 1580SOL    HW216374   1.640   3.734  15.968 -0.5420  0.1903 -0.5330
 1581SOL     OW16375   1.773   1.284  14.523  0.0819 -0.1433  0.1506
 1581SOL    HW116376   1.709   1.252  14.459  0.7800  0.3278 -0.7666
 1581SOL    HW216377   1.751   1.376  14.535 -0.2954 -0.2453  0.2506
 1582SOL     OW16378   2.569   4.032   3.844 -0.2481  0.1792 -0.1163
 1582SOL    HW116379   2.662   4.031   3.865 -0.1412  1.1668 -0.5641
 1582SOL    HW216380   2.574   4.042   3.749  1.8796 -1.2141 -0.1490
 1583SOL     OW16381   4.084   3.683   1.758 -0.1307 -0.3197  0.2099
 1583SOL    HW116382   4.104   3.710   1.668 -0.3272 -0.8334  0.0131
 1583SOL    HW216383   4.145   3.612   1.777 -0.0140  0.3552  2.3991
 1584SOL     OW16384   2.536   0.362   5.287 -0.0259  0.3922 -0.2874
 1584SOL    HW116385   2.512   0.272   5.311  0.0963  0.2640 -0.6513
 1584SOL    HW216386   2.627   0.358   5.314  0.0917 -0.4095 -0.7905
 1585SOL     OW16387   2.183   1.668   9.871  0.3911  0.1617 -0.4277
 1585SOL    HW116388   2.278   1.669   9.883  0.3925 -0.1651 -0.4301
 1585SOL    HW216389   2.170   1.577   9.894  1.7461  0.5483  1.8571
 1586SOL     OW16390   2.787   2.551  15.349 -0.5005 -0.0697 -0.4185
 1586SOL    HW116391   2.711   2.501  15.320 -0.8914 -0.9826  2.2011
 1586SOL    HW216392   2.819   2.488  15.413 -1.6246 -1.7709 -1.5430
 1587SOL     OW16393   1.888   3.146   5.942 -0.9159 -0.6851 -0.1409
 1587SOL    HW116394   1.975   3.106   5.936 -1.2751 -0.9150 -3.5393
 1587SOL    HW216395   1.841   3.099   5.873  0.5572 -2.1413 -0.1797
 1588SOL     OW16396   3.185   2.071   2.164  0.6642  0.2773 -0.1468
 1588SOL    HW116397   3.254   2.004   2.168  1.0291  0.7896  2.0565
 1588SOL    HW216398   3.111   2.027   2.122  0.9384  0.3073 -0.6608
 1589SOL     OW16399   1.786   3.936  15.336  0.3131 -0.8354 -0.7124
 1589SOL    HW116400   1.818   3.960  15.248 -0.0094  1.3875 -0.2266
 1589SOL    HW216401   1.865   3.968  15.380 -1.0173 -0.2890  1.2476
 1590SOL     OW16402   2.050   2.997   5.087 -0.0770  0.1473 -0.2120
 1590SOL    HW116403   2.118   2.956   5.141  0.2338  1.0853  0.1030
 1590SOL    HW216404   2.025   3.065   5.149  1.4210 -0.6833  1.3207
 1591SOL     OW16405   3.573   1.202   9.622 -0.3004 -0.3386  0.0313
 1591SOL    HW116406   3.558   1.296   9.620 -1.3662 -0.4830  2.2953
 1591SOL    HW216407   3.492   1.160   9.652  0.4476 -1.1627  0.9108
 1592SOL     OW16408   1.214   1.802   3.381 -0.1219 -0.3077  0.4671
 1592SOL    HW116409   1.281   1.862   3.413 -1.0442  0.6187  0.6753
 1592SOL    HW216410   1.191   1.858   3.307  1.0346  0.2077  0.5099
 1593SOL     OW16411   3.658   4.243   7.889 -0.0469 -0.1189 -0.4175
 1593SOL    HW116412   3.671   4.289   7.806  0.3010  2.2826  0.9626
 1593SOL    HW216413   3.564   4.226   7.884 -0.0683  0.1176 -0.8370
 1594SOL     OW16414   3.972   2.475   2.433 -0.0054 -0.1072  0.5091
 1594SOL    HW116415   3.895   2.417   2.435 -0.4620  0.5284  1.6274
 1594SOL    HW216416   3.987   2.491   2.526  0.8650 -1.4556  0.6018
 1595SOL     OW16417   4.142   1.527  12.606  0.2594  0.4650  0.1396
 1595SOL    HW116418   4.110   1.596  12.549  0.4866 -1.5639 -2.4840
 1595SOL    HW216419   4.237   1.534  12.592  0.3544 -2.9420 -1.1507
 1596SOL     OW16420   3.133   1.520   3.318 -0.1642 -0.4526  0.4965
 1596SOL    HW116421   3.100   1.460   3.384 -1.1522 -1.0308 -0.5250
 1596SOL    HW216422   3.179   1.590   3.366 -0.0479 -0.7811  0.8619
 1597SOL     OW16423   4.075   3.413   4.377 -0.7528 -0.0760  0.4787
 1597SOL    HW116424   4.138   3.478   4.405  2.4352 -2.8928 -0.1523
 1597SOL    HW216425   4.094   3.406   4.283  2.6987 -0.3644  1.1930
 1598SOL     OW16426   0.822   3.768   1.086 -0.5146  0.1720 -0.5328
 1598SOL    HW116427   0.822   3.740   1.178 -3.8695 -3.0092 -1.5202
 1598SOL    HW216428   0.890   3.834   1.098 -0.0022 -0.6401  1.0914
 1599SOL     OW16429   2.343   1.276   8.336  0.3813  0.0919 -0.5428
 1599SOL    HW116430   2.298   1.224   8.403  2.6072 -1.3708 -0.1772
 1599SOL    HW216431   2.433   1.262   8.366  0.6316 -0.0980 -1.3799
 1600SOL     OW16432   1.212   4.555   3.789 -0.3712  0.6334  0.2529
 1600SOL    HW116433   1.305   4.556   3.811 -0.3727  1.4430  0.1936
 1600SOL    HW216434   1.171   4.496   3.853  2.2709 -1.4324  0.0680
 1601SOL     OW16435   0.371   2.566   2.510  0.1968 -0.0143 -0.2008
 1601SOL    HW116436   0.459   2.604   2.520 -0.3892  2.6605 -4.9522
 1601SOL    HW216437   0.363   2.596   2.420 -0.6785 -1.9353 -0.7606
 1602SOL     OW16438   0.944   0.880   5.049 -0.4025  0.6044  0.4858
 1602SOL    HW116439   0.934   0.891   5.143  0.9740  0.6866  0.6267
 1602SOL    HW216440   0.869   0.825   5.026  1.2288 -1.4752  0.0682
 1603SOL     OW16441   2.570   1.867   9.791  0.5068 -0.4924  0.2081
 1603SOL    HW116442   2.543   1.776   9.779 -1.8131  0.2809 -0.3387
 1603SOL    HW216443   2.632   1.857   9.863  0.5548 -0.4900  0.1671
 1604SOL     OW16444   3.566   0.331   9.325  0.0914  0.2657  0.1512
 1604SOL    HW116445   3.504   0.300   9.259 -0.5321 -0.8354  1.2581
 1604SOL    HW216446   3.623   0.256   9.344 -0.9045 -0.9296 -1.5634
 1605SOL     OW16447   2.676   0.812  10.134 -0.0055 -0.1075  0.0756
 1605SOL    HW116448   2.589   0.837  10.103  0.4675  1.0879 -0.2746
 1605SOL    HW216449   2.651   0.730  10.178  0.5085 -0.0220  0.5194
 1606SOL     OW16450   1.097   1.961   8.674 -0.0470  0.0544  0.1052
 1606SOL    HW116451   1.158   1.888   8.669  1.4622  1.2122  1.6488
 1606SOL    HW216452   1.145   2.027   8.624 -0.5355 -0.1112 -0.5923
 1607SOL     OW16453   0.273   1.458   3.300 -0.4025 -0.3257 -0.5537
 1607SOL    HW116454   0.217   1.437   3.374  0.7723 -0.5365  0.2811
 1607SOL    HW216455   0.319   1.379   3.271 -2.8854 -1.4078 -1.5421
 1608SOL     OW16456   0.130   3.612   6.877  0.3333  0.4875 -0.8104
 1608SOL    HW116457   0.153   3.533   6.926  0.6864  0.4342 -1.0684
 1608SOL    HW216458   0.173   3.600   6.793  1.2861  1.6212 -0.4982
 1609SOL     OW16459   2.684   2.962   9.423  0.2364 -0.5872  0.5891
 1609SOL    HW116460   2.654   3.023   9.355  3.0251  0.4359  0.2989
 1609SOL    HW216461   2.669   2.882   9.372 -0.7553 -0.0750  0.0725
 1610SOL     OW16462   2.876   0.255   8.038  0.1892  0.0003 -0.4842
 1610SOL    HW116463   2.847   0.217   8.121  0.4977  0.7101 -0.0457
 1610SOL    HW216464   2.841   0.190   7.978 -0.6702 -2.3680  2.5906
 1611SOL     OW16465   1.452   2.393   1.567 -0.1769 -0.0376  0.5465
 1611SOL    HW116466   1.461   2.455   1.639 -1.5507  2.1503 -1.1494
 1611SOL    HW216467   1.383   2.348   1.616 -0.3902  0.0426  0.3216
 1612SOL     OW16468   0.664   1.202   4.755 -0.4020  0.5529 -0.6732
 1612SOL    HW116469   0.628   1.198   4.666  0.0197 -2.7337 -0.7109
 1612SOL    HW216470   0.605   1.261   4.802 -1.0731 -0.7063  0.0847
 1613SOL     OW16471   4.121   0.145   0.686  0.3507 -0.0429 -0.1420
 1613SOL    HW116472   4.192   0.093   0.723  0.9662 -0.2620 -1.6568
 1613SOL    HW216473   4.120   0.219   0.747 -0.0318 -0.3335  0.2039
 1614SOL     OW16474   1.654   0.775   7.046  0.1597 -0.4923 -0.0578
 1614SOL    HW116475   1.594   0.803   6.977 -0.7258 -2.3584 -0.0351
 1614SOL    HW216476   1.613   0.793   7.131  2.7630  0.0325  1.0924
 1615SOL     OW16477   4.220   0.607   3.333  0.7138 -0.2017 -0.0854
 1615SOL    HW116478   4.257   0.583   3.418  1.0772 -0.9987 -0.4699
 1615SOL    HW216479   4.257   0.531   3.288  1.3605  0.9244 -1.4616
 1616SOL     OW16480   4.420   3.955   0.101 -0.2301  0.1617 -0.4946
 1616SOL    HW116481   4.424   4.041   0.059  1.1877  0.3245 -0.0407
 1616SOL    HW216482   4.436   3.894   0.030  0.3041  2.1580 -2.0864
 1617SOL     OW16483   3.464   3.263   6.468 -0.1736 -0.6761  0.0744
 1617SOL    HW116484   3.515   3.182   6.467 -0.0793 -0.6007 -1.3280
 1617SOL    HW216485   3.435   3.274   6.377  0.1376 -2.7432 -0.2706
 1618SOL     OW16486   2.850   0.901  15.007  0.0712  0.3503  0.1444
 1618SOL    HW116487   2.774   0.947  15.042 -0.0185 -0.0217  0.4468
 1618SOL    HW216488   2.919   0.928  15.068  0.1340  0.9429 -0.1945
 1619SOL     OW16489   3.962   3.643   3.564 -0.2229 -0.4996 -0.9505
 1619SOL    HW116490   3.872   3.615   3.543  0.5855 -2.7335 -1.4346
 1619SOL    HW216491   4.012   3.608   3.490  1.2858 -1.3563  0.4735
 1620SOL     OW16492   2.494   2.195   2.300 -0.4425 -0.0517 -0.1329
 1620SOL    HW116493   2.400   2.194   2.316 -0.5909 -2.1856 -1.1475
 1620SOL    HW216494   2.496   2.130   2.230 -0.6911 -0.2674  0.0617
 1621SOL     OW16495   1.273   1.517   3.466 -0.1997  0.4909  0.1283
 1621SOL    HW116496   1.354   1.566   3.453 -0.6152  1.0904 -0.1931
 1621SOL    HW216497   1.210   1.584   3.493  0.8151  2.0044 -1.2361
 1622SOL     OW16498   1.659   2.057   2.588 -0.0964 -0.0786 -0.8656
 1622SOL    HW116499   1.604   2.008   2.649  0.3363  0.9094  0.3129
 1622SOL    HW216500   1.726   1.993   2.564 -0.0705 -0.3336 -0.1194
 1623SOL     OW16501   3.600   1.786  14.494  0.6341 -0.1276 -0.6171
 1623SOL    HW116502   3.584   1.745  14.409  0.8408  0.3235 -0.8760
 1623SOL    HW216503   3.514   1.817  14.523  0.5597 -0.9616  0.0501
 1624SOL     OW16504   3.312   2.436  15.139  0.5432  0.4524 -0.5002
 1624SOL    HW116505   3.400   2.463  15.165  0.9705  1.2947 -2.8411
 1624SOL    HW216506   3.319   2.413  15.046 -1.7170  1.5952 -0.9470
 1625SOL     OW16507   0.390   0.760   9.547  0.1482 -0.1670 -0.2086
 1625SOL    HW116508   0.416   0.776   9.456 -0.3778  0.3636 -0.2631
 1625SOL    HW216509   0.303   0.799   9.554  0.3347  0.4778 -1.3650
 1626SOL     OW16510   4.094   3.979   6.317 -0.4275 -0.2113 -0.5126
 1626SOL    HW116511   4.184   3.995   6.348 -0.6916 -1.8445  1.0868
 1626SOL    HW216512   4.096   4.014   6.227 -0.0869  4.9680  1.4814
 1627SOL     OW16513   2.747   1.936  12.335  0.2152 -0.5606 -0.8086
 1627SOL    HW116514   2.726   1.890  12.417 -1.2931  0.2799 -0.7184
 1627SOL    HW216515   2.662   1.943  12.291 -0.2708  0.5344  0.3219
 1628SOL     OW16516   1.748   2.065   3.837 -0.9150 -0.0560  0.3918
 1628SOL    HW116517   1.808   2.139   3.849  0.1323 -0.5729 -1.5773
 1628SOL    HW216518   1.708   2.073   3.923  0.7338 -2.6653  1.4066
 1629SOL     OW16519   3.920   3.965  15.887  0.5373 -0.9143  0.0083
 1629SOL    HW116520   3.863   4.012  15.826 -0.3725 -0.6221  1.0901
 1629SOL    HW216521   3.897   3.992  15.976  3.2831  0.1679  0.3922
 1630SOL     OW16522   0.749   3.649   4.186  0.2140  0.4667  0.3682
 1630SOL    HW116523   0.663   3.627   4.149  0.4803  1.5445 -0.8885
 1630SOL    HW216524   0.794   3.661   4.102  2.2812  1.1050  1.5894
 1631SOL     OW16525   3.551   2.054   7.578  0.3823 -0.0855 -0.3280
 1631SOL    HW116526   3.470   2.070   7.628 -0.5075  0.7512 -2.0351
 1631SOL    HW216527   3.516   2.001   7.507  3.6501 -3.1372  0.3508
 1632SOL     OW16528   0.818   2.270   4.668  0.3608 -0.0271  0.0304
 1632SOL    HW116529   0.729   2.250   4.639 -0.3811  1.4294  1.2972
 1632SOL    HW216530   0.840   2.328   4.595  0.3775  2.4540  2.0098
 1633SOL     OW16531   3.316   0.633   8.919 -0.2228 -0.4988  0.0733
 1633SOL    HW116532   3.262   0.695   8.870  0.4442  1.2055  1.5018
 1633SOL    HW216533   3.386   0.688   8.953  0.2922 -1.5161  0.6514
 1634SOL     OW16534   1.163   3.310   8.069 -0.0175 -0.4113 -0.1873
 1634SOL    HW116535   1.175   3.359   8.150  1.5021 -1.3275  0.1354
 1634SOL    HW216536   1.163   3.220   8.099  0.8544 -0.5031 -0.4826
 1635SOL     OW16537   0.905   3.151   2.655 -0.3735  0.4696  0.7924
 1635SOL    HW116538   0.956   3.224   2.620 -2.4031  0.9148 -1.2986
 1635SOL    HW216539   0.819   3.175   2.690 -1.8546 -0.5369 -2.0827
 1636SOL     OW16540   1.922   4.321  12.413  0.0940  0.2763 -0.1242
 1636SOL    HW116541   1.899   4.302  12.322 -0.0086  0.3192 -0.1065
 1636SOL    HW216542   1.836   4.355  12.435  1.2722  2.3826  1.2581
 1637SOL     OW16543   2.483   4.128   2.322  0.1463  0.6567  0.0142
 1637SOL    HW116544   2.390   4.149   2.332 -0.5136 -0.9197 -3.0065
 1637SOL    HW216545   2.488   4.033   2.333 -2.6237  0.2065 -2.7186
 1638SOL     OW16546   0.937   3.982   6.820 -0.0339 -0.4740  0.2160
 1638SOL    HW116547   0.933   3.959   6.913 -0.3958 -0.7227  0.1395
 1638SOL    HW216548   0.905   3.908   6.769  1.3716  0.0808 -1.4596
 1639SOL     OW16549   1.554   3.132   3.785  0.1890 -0.0365 -0.1859
 1639SOL    HW116550   1.542   3.057   3.844  0.9901  0.6281  0.8163
 1639SOL    HW216551   1.553   3.198   3.854 -1.7435 -3.0405  2.6554
 1640SOL     OW16552   3.640   1.551   9.753 -0.3988 -0.5389  1.1527
 1640SOL    HW116553   3.699   1.491   9.798  1.8642  1.4432  0.7780
 1640SOL    HW216554   3.605   1.492   9.686  0.5409 -1.1203  1.1732
 1641SOL     OW16555   0.295   3.765   2.554 -0.3344 -0.0220  0.0516
 1641SOL    HW116556   0.298   3.726   2.641 -0.2708  4.9159  2.2932
 1641SOL    HW216557   0.389   3.782   2.559 -0.6835  1.6389  1.1402
 1642SOL     OW16558   3.367   2.860   6.492 -0.1538 -0.2839 -0.3994
 1642SOL    HW116559   3.316   2.878   6.413  0.3100  1.6302 -0.2535
 1642SOL    HW216560   3.301   2.874   6.560 -2.7478  0.8650 -3.1203
 1643SOL     OW16561   4.684   0.559  10.895 -0.4246 -0.2673  0.4908
 1643SOL    HW116562   4.602   0.518  10.866  0.3167  0.2424 -2.3763
 1643SOL    HW216563   4.684   0.628  10.828 -3.2014 -0.5649  0.2071
 1644SOL     OW16564   3.051   2.817   5.955 -0.2379 -0.2092 -0.4059
 1644SOL    HW116565   3.009   2.732   5.944 -1.4006  0.3223 -0.0246
 1644SOL    HW216566   3.145   2.798   5.946 -0.7402 -1.6039 -2.5807
 1645SOL     OW16567   2.051   4.737  12.472 -0.0943 -0.2208 -0.3454
 1645SOL    HW116568   2.086   4.669  12.415 -1.1922  0.0528 -1.3384
 1645SOL    HW216569   2.129   4.738  12.528  0.3087  0.7762 -0.9132
 1646SOL     OW16570   0.464   2.163   6.780 -0.4767  0.7265 -0.2531
 1646SOL    HW116571   0.423   2.102   6.841  0.5831  0.0180 -0.2531
 1646SOL    HW216572   0.549   2.123   6.759 -0.4226  3.4234 -5.2166
 1647SOL     OW16573   3.177   4.013   9.402 -0.7846  0.1156  0.2231
 1647SOL    HW116574   3.232   3.947   9.443  0.9967  1.4171 -0.0989
 1647SOL    HW216575   3.137   3.962   9.331  1.0053 -0.1389 -0.5900
 1648SOL     OW16576   1.264   4.577   8.839 -0.3381  0.2225 -0.0963
 1648SOL    HW116577   1.351   4.610   8.862 -0.3767  0.7233 -0.6684
 1648SOL    HW216578   1.261   4.615   8.751 -1.1278  1.0223  0.2814
 1649SOL     OW16579   3.567   1.299   6.962  0.1672  0.1615  0.2319
 1649SOL    HW116580   3.563   1.390   6.993 -0.3102 -0.7977  2.9853
 1649SOL    HW216581   3.640   1.266   7.015 -0.6114 -1.1666  0.4602
 1650SOL     OW16582   3.469   1.736   7.662 -0.3385 -0.5170  0.0165
 1650SOL    HW116583   3.530   1.684   7.609 -0.3474  0.5981 -1.1032
 1650SOL    HW216584   3.388   1.735   7.611 -0.5433 -1.0870  0.3582
 1651SOL     OW16585   4.376   3.450   0.374  0.1156  0.4603  0.3964
 1651SOL    HW116586   4.370   3.357   0.350  2.2244  0.2416  0.7080
 1651SOL    HW216587   4.374   3.439   0.469  0.8438  1.1436  0.4895
 1652SOL     OW16588   0.187   3.224  14.541  0.3284  0.0729  0.0325
 1652SOL    HW116589   0.125   3.167  14.496  1.3288  0.0320 -1.2908
 1652SOL    HW216590   0.259   3.166  14.515  0.5355 -0.4912  1.8583
 1653SOL     OW16591   3.150   1.585   3.711 -0.1899 -0.4096 -0.0705
 1653SOL    HW116592   3.201   1.661   3.683  0.6771 -2.1785 -3.2900
 1653SOL    HW216593   3.131   1.560   3.621 -0.4405  2.7063 -0.8818
 1654SOL     OW16594   2.467   0.757   4.578 -0.0674  0.0104 -0.0662
 1654SOL    HW116595   2.497   0.803   4.657 -1.1836 -2.2331  1.6706
 1654SOL    HW216596   2.516   0.806   4.512  1.2542 -0.6945  0.3939
 1655SOL     OW16597   0.559   1.351   6.438  0.0797 -0.1358 -0.3296
 1655SOL    HW116598   0.508   1.290   6.385 -1.1869 -0.6577  1.4876
 1655SOL    HW216599   0.640   1.300   6.447 -0.7132 -1.3123  0.1771
 1656SOL     OW16600   4.065   3.184   0.221  0.0012  0.2619 -0.0385
 1656SOL    HW116601   4.029   3.174   0.309  0.8394 -2.8301 -0.0476
 1656SOL    HW216602   4.143   3.129   0.227 -1.9246 -2.5771 -1.1475
 1657SOL     OW16603   4.621   2.527   9.587 -0.3870  0.3019  0.3036
 1657SOL    HW116604   4.650   2.601   9.641  1.1523 -0.3744  0.3747
 1657SOL    HW216605   4.674   2.526   9.508 -0.7026 -2.0261  0.1273
 1658SOL     OW16606   0.617   2.111  11.337 -0.2342  0.0204 -0.3849
 1658SOL    HW116607   0.685   2.173  11.311 -0.8700  2.2528  3.3939
 1658SOL    HW216608   0.655   2.039  11.286  0.1869 -0.3931  0.5140
 1659SOL     OW16609   4.488   4.710  13.647 -0.5851  0.2479 -0.0453
 1659SOL    HW116610   4.579   4.717  13.620 -0.4929  0.2888  0.2761
 1659SOL    HW216611   4.457   4.725  13.558 -1.1644 -0.2293  0.0725
 1660SOL     OW16612   2.171   3.165   8.879 -0.0318 -0.5781  0.0103
 1660SOL    HW116613   2.225   3.087   8.865 -0.9853 -1.3570  0.7352
 1660SOL    HW216614   2.198   3.178   8.970  0.0692 -1.0223  0.0421
 1661SOL     OW16615   3.757   3.175   5.124  0.1643  0.0836 -0.0605
 1661SOL    HW116616   3.719   3.097   5.163 -1.0994 -0.0910 -1.6276
 1661SOL    HW216617   3.773   3.140   5.036 -1.7757  1.9806 -1.1637
 1662SOL     OW16618   0.313   1.944   6.089 -0.1375  0.4073 -0.1170
 1662SOL    HW116619   0.313   1.891   6.009 -1.0817  0.8385 -0.3980
 1662SOL    HW216620   0.405   1.944   6.116 -0.2262  0.5182  0.1874
 1663SOL     OW16621   3.917   1.421   2.667 -0.6290  0.1500  0.2412
 1663SOL    HW116622   3.862   1.385   2.597  0.1487  0.1128 -0.3420
 1663SOL    HW216623   3.994   1.364   2.661 -2.0306 -1.7237 -0.0230
 1664SOL     OW16624   3.625   1.074   6.293  0.7889 -0.7517  0.4043
 1664SOL    HW116625   3.610   1.028   6.376 -2.3452  3.6029  2.2218
 1664SOL    HW216626   3.536   1.108   6.289  1.0505 -0.0557  0.6700
 1665SOL     OW16627   4.583   1.734   5.137 -0.2098  0.3159 -0.0788
 1665SOL    HW116628   4.675   1.758   5.151 -0.0054 -0.6690  0.2582
 1665SOL    HW216629   4.552   1.815   5.097 -0.5086 -0.0810 -0.6396
 1666SOL     OW16630   3.584   3.833   7.850 -0.5495 -0.5288 -0.4695
 1666SOL    HW116631   3.643   3.908   7.836 -0.9759 -0.0696  0.2407
 1666SOL    HW216632   3.537   3.864   7.926 -0.8942  0.1811 -0.9716
 1667SOL     OW16633   2.456   3.334   3.684 -0.0908  0.1081 -0.2607
 1667SOL    HW116634   2.409   3.267   3.635  1.8601 -1.6622  0.3295
 1667SOL    HW216635   2.528   3.294   3.732 -1.2189  0.9140  2.1194
 1668SOL     OW16636   3.601   1.971   4.836  0.0720 -0.2683 -0.6138
 1668SOL    HW116637   3.549   2.048   4.861  0.3951 -1.1334  2.6539
 1668SOL    HW216638   3.566   1.908   4.899  0.6420  3.0797  3.1013
 1669SOL     OW16639   3.821   4.606   0.097 -0.0808 -0.0990 -0.0898
 1669SOL    HW116640   3.736   4.618   0.056 -0.8536 -1.2725  1.1396
 1669SOL    HW216641   3.871   4.579   0.020  1.1005  2.0540 -0.0863
 1670SOL     OW16642   0.153   1.785   7.509  0.1034  0.0205  0.0078
 1670SOL    HW116643   0.159   1.874   7.544  1.1952  0.5272 -1.4729
 1670SOL    HW216644   0.159   1.737   7.592  0.6406  1.1754  0.6297
 1671SOL     OW16645   2.365   0.777   9.880  0.2259 -0.0298  0.9387
 1671SOL    HW116646   2.362   0.863   9.839 -0.6781 -0.8566 -0.7368
 1671SOL    HW216647   2.389   0.805   9.968  0.6592  0.7906  0.5578
 1672SOL     OW16648   0.796   3.214   0.623 -0.3409 -0.0531 -0.2338
 1672SOL    HW116649   0.835   3.286   0.574  0.4200  0.5262  1.2382
 1672SOL    HW216650   0.703   3.235   0.628 -0.2844  0.8560 -3.0713
 1673SOL     OW16651   1.729   3.600   5.816  0.0268 -0.2124 -0.0657
 1673SOL    HW116652   1.816   3.639   5.809  0.7880 -1.7419  0.6305
 1673SOL    HW216653   1.724   3.549   5.897 -1.4044  0.8767  0.5208
 1674SOL     OW16654   2.921   0.127  11.380  0.3920 -0.0257 -0.0103
 1674SOL    HW116655   2.963   0.046  11.352 -0.1068 -0.2895 -0.0100
 1674SOL    HW216656   2.927   0.121  11.476  1.1949 -0.4733 -0.0864
 1675SOL     OW16657   0.578   2.606   4.848  0.2822  0.4318  0.1287
 1675SOL    HW116658   0.667   2.579   4.868  1.1428  2.1155 -1.4956
 1675SOL    HW216659   0.533   2.533   4.891  0.9262 -0.6514 -1.0312
 1676SOL     OW16660   3.633   2.541  14.067 -0.1505 -0.1587 -0.0980
 1676SOL    HW116661   3.605   2.525  14.157  2.3969  0.8831  0.8771
 1676SOL    HW216662   3.544   2.539  14.031  0.2279 -0.1758 -1.0448
 1677SOL     OW16663   1.552   1.704   8.550  0.5204 -0.3805  0.0701
 1677SOL    HW116664   1.591   1.620   8.525 -0.8446 -0.6663 -1.1453
 1677SOL    HW216665   1.613   1.777   8.536  0.9771 -0.8566 -0.4391
 1678SOL     OW16666   2.479   1.805   1.281 -0.2680 -0.5178  0.3622
 1678SOL    HW116667   2.419   1.828   1.352  0.7279 -1.1315  1.4145
 1678SOL    HW216668   2.461   1.714   1.259 -0.0184 -0.5878  0.4495
 1679SOL     OW16669   1.323   2.947  17.483  0.3593  0.3364 -0.2418
 1679SOL    HW116670   1.363   3.033  17.501 -0.3945  1.3585 -3.3965
 1679SOL    HW216671   1.362   2.932  17.397  1.1893 -1.7009  0.5139
 1680SOL     OW16672   1.882   1.577  14.567 -0.6864 -0.1424 -0.2784
 1680SOL    HW116673   1.974   1.555  14.555 -0.7594 -2.1374  2.9760
 1680SOL    HW216674   1.866   1.667  14.539  1.7110  0.2141 -0.4936
 1681SOL     OW16675   0.778   1.206   9.097 -0.1782  0.0982 -0.1036
 1681SOL    HW116676   0.721   1.254   9.037  0.8738  0.8335 -0.5168
 1681SOL    HW216677   0.837   1.157   9.040  0.6451 -0.4178  1.1919
 1682SOL     OW16678   3.077   3.834   7.982  0.1822  0.3300 -0.1652
 1682SOL    HW116679   3.162   3.804   8.015  0.3838 -0.2360 -1.1916
 1682SOL    HW216680   3.100   3.855   7.891  1.5027 -1.7384 -0.3034
 1683SOL     OW16681   3.338   0.123   6.900  0.2821 -0.8199 -0.2392
 1683SOL    HW116682   3.366   0.173   6.824 -2.5845  0.1854 -0.6615
 1683SOL    HW216683   3.331   0.194   6.964 -1.5934 -1.0420 -0.1862
 1684SOL     OW16684   2.679   2.136   8.877  0.1881  0.0181 -0.4020
 1684SOL    HW116685   2.743   2.183   8.930  0.0938 -1.6639  1.1763
 1684SOL    HW216686   2.729   2.073   8.826  0.8272 -0.2502  0.5602
 1685SOL     OW16687   2.587   4.287   8.248  0.8578 -0.6830  0.0744
 1685SOL    HW116688   2.608   4.371   8.288  1.5620 -1.1012  0.5746
 1685SOL    HW216689   2.657   4.233   8.284  1.4521 -0.4169 -0.6802
 1686SOL     OW16690   1.300   4.231  16.866  0.5175 -0.5521  0.1902
 1686SOL    HW116691   1.207   4.208  16.871  0.5581 -0.8937 -0.7189
 1686SOL    HW216692   1.340   4.145  16.877  3.9301  0.9955  0.0678
 1687SOL     OW16693   4.381   0.968   2.499  0.0258  0.2135  0.0861
 1687SOL    HW116694   4.394   0.929   2.586  0.6232 -0.1083 -0.1496
 1687SOL    HW216695   4.309   0.915   2.464 -0.4609  2.3937 -2.2237
 1688SOL     OW16696   0.014   3.082  17.049  0.1699  0.2240 -0.0294
 1688SOL    HW116697   4.705   3.077  16.966  3.0772  1.1352 -1.7454
 1688SOL    HW216698   4.678   3.077  17.109 -1.1759 -2.6726 -1.9115
 1689SOL     OW16699   2.340   1.360   3.118 -0.6135  0.1309  0.3911
 1689SOL    HW116700   2.308   1.339   3.031  0.7355  1.0222 -0.3399
 1689SOL    HW216701   2.435   1.351   3.110 -1.0959 -3.3262 -0.9602
 1690SOL     OW16702   3.554   3.061   2.587  0.3305  0.4050 -0.1531
 1690SOL    HW116703   3.584   2.972   2.565 -0.6856 -0.3025  1.3231
 1690SOL    HW216704   3.505   3.082   2.507  1.4560 -0.5709 -1.1177
 1691SOL     OW16705   1.619   0.195   8.343 -0.2238 -0.1119  0.5649
 1691SOL    HW116706   1.540   0.241   8.317 -0.1525  0.2519  0.9907
 1691SOL    HW216707   1.624   0.237   8.429  1.0285  1.8120 -0.4663
 1692SOL     OW16708   1.661   2.229   9.359  0.0584  0.0891  0.0352
 1692SOL    HW116709   1.628   2.289   9.426  2.4108  1.6544 -0.1896
 1692SOL    HW216710   1.709   2.166   9.413  0.5506  0.0238 -0.4809
 1693SOL     OW16711   4.705   0.907   1.584  0.5588 -0.0855 -0.4377
 1693SOL    HW116712   4.625   0.927   1.535  0.7716 -0.0261 -0.7627
 1693SOL    HW216713   0.019   0.865   1.516 -0.8062 -2.0102 -0.3405
 1694SOL     OW16714   1.397   0.453   4.184 -0.1656  0.1855  0.0616
 1694SOL    HW116715   1.340   0.437   4.108 -0.2915  2.0739 -0.2482
 1694SOL    HW216716   1.347   0.530   4.213 -1.6928 -0.8943  0.3005
 1695SOL     OW16717   2.635   2.089   5.304  0.8073  0.1773  0.0943
 1695SOL    HW116718   2.557   2.119   5.351  1.4343  0.6687  0.8165
 1695SOL    HW216719   2.597   2.020   5.249 -0.8947  2.4051 -1.5129
 1696SOL     OW16720   2.198   3.774   5.470  0.4443  0.3541 -0.3582
 1696SOL    HW116721   2.140   3.830   5.522  0.2318 -1.0133  0.8672
 1696SOL    HW216722   2.209   3.823   5.388 -2.1054  2.8952  0.8148
 1697SOL     OW16723   2.975   2.966   5.747  0.4073  0.7553 -0.3567
 1697SOL    HW116724   2.922   2.893   5.715  0.0888  0.7459  0.1974
 1697SOL    HW216725   3.016   2.929   5.825 -1.5532 -0.7317 -0.0316
 1698SOL     OW16726   2.818   0.630   6.069 -0.3640  0.2327 -0.3317
 1698SOL    HW116727   2.821   0.535   6.055 -0.8612  0.1599  0.0606
 1698SOL    HW216728   2.829   0.641   6.163 -0.9068  0.0398 -0.2465
 1699SOL     OW16729   3.959   1.468   7.445 -0.8281  0.2023  0.1760
 1699SOL    HW116730   4.013   1.388   7.443 -0.4470  0.4569  0.3268
 1699SOL    HW216731   4.013   1.526   7.499 -0.6397  0.8695 -0.7473
 1700SOL     OW16732   1.689   3.148   4.908  0.1130 -0.0252 -0.3695
 1700SOL    HW116733   1.642   3.231   4.899 -0.6008 -0.4919 -0.9344
 1700SOL    HW216734   1.620   3.095   4.869  0.0620  2.1554 -3.2429
 1701SOL     OW16735   1.939   1.490   8.002  0.8268 -0.0602  0.4939
 1701SOL    HW116736   2.008   1.509   8.065 -0.2598  1.9420  1.0741
 1701SOL    HW216737   1.939   1.577   7.962 -2.6417 -1.3157 -2.2510
 1702SOL     OW16738   1.507   4.156   6.665  0.5444 -0.6123 -0.5883
 1702SOL    HW116739   1.481   4.240   6.628 -0.5873 -1.1101 -0.9068
 1702SOL    HW216740   1.598   4.177   6.686 -0.2519 -0.4914  2.8431
 1703SOL     OW16741   0.862   2.966   4.298 -0.2204 -0.5895  0.1183
 1703SOL    HW116742   0.849   3.051   4.340  0.7617 -1.2858  1.8162
 1703SOL    HW216743   0.774   2.941   4.269  0.5666 -1.5520 -1.4326
 1704SOL     OW16744   3.292   3.782   3.587 -0.0673  0.4716  0.6032
 1704SOL    HW116745   3.211   3.750   3.625 -1.8776  3.8238 -0.4860
 1704SOL    HW216746   3.339   3.809   3.667  2.3788  0.0248 -0.6731
 1705SOL     OW16747   0.903   0.529  10.560  0.7158  0.8473 -0.2459
 1705SOL    HW116748   0.891   0.622  10.574 -0.7356  0.5101  0.7848
 1705SOL    HW216749   0.948   0.536  10.476  2.2235 -0.0225  0.4840
 1706SOL     OW16750   2.956   0.277   9.968  0.1274  0.8218 -0.1223
 1706SOL    HW116751   2.949   0.306   9.877 -1.0277 -0.5850 -0.4910
 1706SOL    HW216752   3.046   0.302   9.987  0.4740 -0.3338 -0.2453
 1707SOL     OW16753   0.089   1.179   5.310  0.3517  0.8352  0.3008
 1707SOL    HW116754   0.036   1.114   5.356  1.2709  0.8546  1.3913
 1707SOL    HW216755   0.145   1.214   5.379 -0.7751  1.9894  0.6354
 1708SOL     OW16756   1.509   2.453   7.773  0.3534 -0.8026 -0.3229
 1708SOL    HW116757   1.447   2.410   7.715  0.3803  0.4249 -1.2580
 1708SOL    HW216758   1.470   2.427   7.857  0.5577  1.8855  0.6037
 1709SOL     OW16759   1.004   1.581   8.454 -0.0764  0.1054  0.1654
 1709SOL    HW116760   0.924   1.626   8.480 -0.0424  0.3038 -0.0759
 1709SOL    HW216761   1.058   1.584   8.533  1.7009  2.3677 -1.1010
 1710SOL     OW16762   3.942   4.587   0.330 -0.0595 -0.4971 -0.3170
 1710SOL    HW116763   3.907   4.593   0.241 -0.0661  0.1894 -0.2669
 1710SOL    HW216764   3.950   4.682   0.342 -0.9066 -0.4575 -0.0739
 1711SOL     OW16765   3.734   2.820   2.580  0.2664 -0.7359  0.5294
 1711SOL    HW116766   3.735   2.746   2.640 -2.4576 -2.3287 -1.3934
 1711SOL    HW216767   3.767   2.777   2.501 -0.0259 -3.2349  1.7712
 1712SOL     OW16768   1.293   2.367   3.477  0.3517 -0.2243  0.3432
 1712SOL    HW116769   1.257   2.306   3.412 -0.9209 -0.2918  1.1080
 1712SOL    HW216770   1.252   2.451   3.455 -1.5093 -1.8252 -2.3400
 1713SOL     OW16771   0.265   3.184   2.052  0.1096 -0.3756  0.7983
 1713SOL    HW116772   0.272   3.115   2.119  0.4122 -2.0894 -0.9912
 1713SOL    HW216773   0.171   3.202   2.063  0.3848  1.0691  0.6916
 1714SOL     OW16774   0.185   3.398  14.759  0.0648 -0.2894 -0.7187
 1714SOL    HW116775   0.203   3.342  14.684  3.1464  1.3727 -1.2347
 1714SOL    HW216776   0.243   3.474  14.755  0.3072 -0.5779 -2.9313
 1715SOL     OW16777   4.323   4.632   3.377  0.0259  0.6670  0.6511
 1715SOL    HW116778   4.251   4.675   3.330 -0.2681  1.1437  1.5490
 1715SOL    HW216779   4.273   4.556   3.407 -0.8981  0.9863 -0.0687
 1716SOL     OW16780   1.179   0.810  10.404  0.2450 -0.2686  0.2097
 1716SOL    HW116781   1.138   0.723  10.407  0.4867 -0.3641  0.8390
 1716SOL    HW216782   1.109   0.858  10.448  1.0962  0.2829  0.9667
 1717SOL     OW16783   0.718   4.546  17.104  0.4320 -0.6478 -0.2680
 1717SOL    HW116784   0.690   4.551  17.196  1.6359  1.3335 -0.0078
 1717SOL    HW216785   0.628   4.533  17.074 -0.1105 -0.5190  1.3078
 1718SOL     OW16786   2.029   0.091  13.885  0.4624 -0.4049  0.3305
 1718SOL    HW116787   1.981   0.010  13.866  0.1191 -0.0541 -0.3113
 1718SOL    HW216788   2.005   0.141  13.808  0.9188  0.3343  0.6718
 1719SOL     OW16789   0.664   3.928   9.028  0.0272 -0.2087 -0.4983
 1719SOL    HW116790   0.624   3.841   9.032  0.0973 -0.2173  0.0383
 1719SOL    HW216791   0.602   3.979   8.976 -0.9455 -1.6764 -0.7918
 1720SOL     OW16792   4.197   2.572   6.150  0.2792 -0.2897  0.2346
 1720SOL    HW116793   4.261   2.607   6.213  1.6937 -1.4195 -0.5811
 1720SOL    HW216794   4.183   2.492   6.200  0.0346 -1.2249 -1.3194
 1721SOL     OW16795   3.278   1.559   4.550 -0.1022 -0.0077  0.7403
 1721SOL    HW116796   3.239   1.597   4.471  1.2229 -0.7147 -0.2482
 1721SOL    HW216797   3.245   1.470   4.547  1.7460 -0.5914 -2.2637
 1722SOL     OW16798   2.234   0.892   1.416 -0.0951  0.6330  0.4369
 1722SOL    HW116799   2.145   0.865   1.393  0.2727  1.8236 -2.3480
 1722SOL    HW216800   2.232   0.877   1.511  1.4336 -1.6151  0.1236
 1723SOL     OW16801   0.179   0.748   4.316  0.2891 -0.1917 -0.2469
 1723SOL    HW116802   0.270   0.738   4.343  0.1428 -1.5148 -0.2772
 1723SOL    HW216803   0.138   0.734   4.401  0.4294 -2.3388 -0.5425
 1724SOL     OW16804   2.971   4.675   4.524  0.1780 -0.1583  0.2039
 1724SOL    HW116805   2.963   4.734   4.449 -1.2057 -0.8428 -0.1790
 1724SOL    HW216806   2.915   4.725   4.584  1.8417  2.5027 -0.4632
 1725SOL     OW16807   4.510   4.016  15.921  0.1044 -0.3183 -0.1953
 1725SOL    HW116808   4.505   4.035  16.015  1.2594 -1.1246  0.0214
 1725SOL    HW216809   4.589   4.068  15.907  1.4941 -3.1295 -2.6328
 1726SOL     OW16810   2.916   3.465   4.497 -0.3138  0.5066  0.2212
 1726SOL    HW116811   2.985   3.487   4.435  2.9614 -1.4652  3.1350
 1726SOL    HW216812   2.891   3.555   4.518 -1.5335 -0.0288  1.0775
 1727SOL     OW16813   3.654   4.098   0.708  0.0864 -0.1805  0.1510
 1727SOL    HW116814   3.724   4.148   0.749 -1.0801  0.2312  1.6731
 1727SOL    HW216815   3.619   4.160   0.644  2.2062  0.0053 -0.8228
 1728SOL     OW16816   1.240   4.198   7.570  0.4259 -0.3682 -0.5365
 1728SOL    HW116817   1.152   4.185   7.606  1.3722 -0.0715  1.8778
 1728SOL    HW216818   1.240   4.291   7.548 -0.1879 -0.1715  0.2797
 1729SOL     OW16819   3.696   0.630  13.327 -0.1318  0.8193  0.1720
 1729SOL    HW116820   3.769   0.597  13.378  0.2031 -0.1032 -0.8972
 1729SOL    HW216821   3.627   0.615  13.392  0.4576 -0.1760  0.5579
 1730SOL     OW16822   1.342   2.341   7.979 -0.1305  0.4449  0.8213
 1730SOL    HW116823   1.401   2.319   8.051 -0.3347  0.9221  1.1317
 1730SOL    HW216824   1.280   2.269   7.976  0.1830  0.3586 -2.6110
 1731SOL     OW16825   0.670   1.344  15.119  0.2319 -0.4533 -0.1759
 1731SOL    HW116826   0.728   1.417  15.098 -0.7303  0.3268 -0.1213
 1731SOL    HW216827   0.651   1.298  15.037 -0.5992 -1.0361  0.3445
 1732SOL     OW16828   3.047   0.378   6.622 -0.3773 -0.2042  0.9083
 1732SOL    HW116829   3.126   0.432   6.618  1.4181 -2.8646  0.2649
 1732SOL    HW216830   3.073   0.312   6.557  0.2958  1.5445 -0.5847
 1733SOL     OW16831   1.194   0.303   0.890  0.6988  0.1895  0.4414
 1733SOL    HW116832   1.269   0.247   0.913 -0.2128 -1.1349  0.2050
 1733SOL    HW216833   1.127   0.287   0.957  0.1823 -0.3235 -0.1973
 1734SOL     OW16834   2.218   1.888   1.003  0.3853  0.4761  0.0452
 1734SOL    HW116835   2.215   1.806   1.053 -0.9335 -0.7755 -2.0989
 1734SOL    HW216836   2.291   1.934   1.045  1.5504 -2.7860  1.5582
 1735SOL     OW16837   1.132   3.261   4.169  0.0872 -0.8502 -0.0427
 1735SOL    HW116838   1.082   3.309   4.235 -0.7638 -0.3583 -1.0599
 1735SOL    HW216839   1.065   3.268   4.102  1.6149 -0.6886 -1.5529
 1736SOL     OW16840   1.800   2.873   8.180  0.6198 -0.4820  0.5025
 1736SOL    HW116841   1.737   2.901   8.114  1.6590  2.8663  0.9078
 1736SOL    HW216842   1.879   2.923   8.159  0.8068  0.7804  4.2319
 1737SOL     OW16843   2.188   1.882   9.297  0.4642 -0.1592 -0.5705
 1737SOL    HW116844   2.246   1.957   9.287 -0.6519  0.6481 -1.0634
 1737SOL    HW216845   2.155   1.860   9.210  2.6180 -0.5180 -1.2988
 1738SOL     OW16846   4.485   1.550   5.302 -0.5340  0.2776  0.3354
 1738SOL    HW116847   4.443   1.614   5.360 -1.8713  2.2525 -2.8110
 1738SOL    HW216848   4.520   1.610   5.237 -0.8135 -2.5128 -2.3790
 1739SOL     OW16849   2.878   1.227   3.682  0.1063 -0.0416  0.1744
 1739SOL    HW116850   2.900   1.290   3.614 -0.7468 -1.1465 -1.1202
 1739SOL    HW216851   2.856   1.289   3.752  0.4887  0.6115 -0.2837
 1740SOL     OW16852   0.345   0.965   2.761  0.0103  0.3329  0.1874
 1740SOL    HW116853   0.299   1.015   2.828  0.2318  0.0716  0.5384
 1740SOL    HW216854   0.278   0.903   2.731 -0.1710  0.7163 -0.1904
 1741SOL     OW16855   1.670   4.086   5.910  0.8852  0.4979  0.2541
 1741SOL    HW116856   1.647   3.997   5.936  0.6436  0.8347  1.1814
 1741SOL    HW216857   1.663   4.132   5.993 -1.0006 -1.5681  1.2566
 1742SOL     OW16858   4.659   2.136   8.216  0.3186  0.0477  0.7978
 1742SOL    HW116859   4.678   2.220   8.258 -0.9079 -0.2143  1.8599
 1742SOL    HW216860   4.617   2.094   8.291  0.0541 -1.9809 -0.4906
 1743SOL     OW16861   1.510   2.992   0.762  0.2013  0.3643  0.2730
 1743SOL    HW116862   1.537   3.021   0.675 -3.3172 -2.8005 -1.8508
 1743SOL    HW216863   1.559   2.910   0.767 -0.1389  0.1858  0.6886
 1744SOL     OW16864   1.445   1.768  13.886 -0.0271  0.7662  0.0616
 1744SOL    HW116865   1.498   1.757  13.807 -0.6442 -2.6344  0.1142
 1744SOL    HW216866   1.488   1.839  13.933 -0.0533  0.3153  0.7683
 1745SOL     OW16867   2.088   4.516   0.017  0.1342 -0.4067  0.9454
 1745SOL    HW116868   2.156   4.583   0.023  0.7711 -0.8929 -0.8868
 1745SOL    HW216869   2.145   4.443   0.037  0.0390 -0.5594  0.6561
 1746SOL     OW16870   0.019   0.161  16.977  1.0953  0.5711 -0.2570
 1746SOL    HW116871   0.001   0.075  16.939 -1.0270  1.0986 -0.4651
 1746SOL    HW216872   0.110   0.154  17.006  0.7542  1.4464  1.0510
 1747SOL     OW16873   2.500   0.739   1.958  0.6093 -0.3626  0.8745
 1747SOL    HW116874   2.578   0.792   1.938  0.3551 -0.5154 -0.5355
 1747SOL    HW216875   2.539   0.667   2.008  1.9943  0.3835  0.8734
 1748SOL     OW16876   1.586   0.103  10.659  0.2475  0.4024 -0.3462
 1748SOL    HW116877   1.677   0.117  10.685 -0.7625  2.3568  2.1667
 1748SOL    HW216878   1.570   0.018  10.702 -0.6624 -0.9167 -3.3265
 1749SOL     OW16879   3.792   2.844   5.682 -0.2042 -0.2646 -0.5330
 1749SOL    HW116880   3.710   2.844   5.632 -0.9201  1.1080  0.6069
 1749SOL    HW216881   3.852   2.909   5.645 -1.2429  0.3748 -1.1020
 1750SOL     OW16882   1.065   1.556   2.881 -0.2216 -0.3061 -0.0148
 1750SOL    HW116883   1.079   1.639   2.927 -1.1349  1.3376 -2.6524
 1750SOL    HW216884   1.036   1.584   2.794 -0.5952  1.6997  0.7620
 1751SOL     OW16885   2.491   3.282  13.820 -0.2603  0.1352 -0.0535
 1751SOL    HW116886   2.449   3.354  13.772 -1.9804 -0.4629  0.5502
 1751SOL    HW216887   2.478   3.305  13.912  1.3200  0.1546  0.1708
 1752SOL     OW16888   3.404   4.120   8.677  0.9086  0.6274 -0.2809
 1752SOL    HW116889   3.407   4.203   8.629 -1.1916  1.5667  1.2240
 1752SOL    HW216890   3.394   4.137   8.771  0.3415  2.9947 -0.7717
 1753SOL     OW16891   4.270   1.111   2.836 -0.1495 -0.3424 -1.2850
 1753SOL    HW116892   4.353   1.159   2.845 -0.6958  0.5082 -0.8752
 1753SOL    HW216893   4.293   1.032   2.787 -0.0057 -0.4351 -1.0659
 1754SOL     OW16894   4.662   3.683   6.443 -0.2462  0.2773 -0.2077
 1754SOL    HW116895   4.706   3.762   6.414  2.3920 -1.9136 -2.1517
 1754SOL    HW216896   4.585   3.708   6.495  1.1649 -0.4516  2.2408
 1755SOL     OW16897   3.370   2.335   6.413 -0.6778  0.2257 -0.1025
 1755SOL    HW116898   3.405   2.266   6.469  1.2909  1.9618  0.8146
 1755SOL    HW216899   3.341   2.397   6.480 -3.7470 -0.4737 -0.8045
 1756SOL     OW16900   4.384   1.595   2.956 -0.0396  0.0451 -0.0413
 1756SOL    HW116901   4.439   1.596   2.878 -0.1691 -0.1415 -0.1349
 1756SOL    HW216902   4.361   1.502   2.960  2.1053 -0.5507 -1.2386
 1757SOL     OW16903   4.439   3.333   0.612 -0.2354 -0.2156 -0.3119
 1757SOL    HW116904   4.471   3.347   0.701  0.6212 -0.1420 -0.6305
 1757SOL    HW216905   4.508   3.276   0.578 -1.0792 -0.3494 -1.8154
 1758SOL     OW16906   3.259   1.095   9.055  0.1150 -0.0756  0.4165
 1758SOL    HW116907   3.213   1.127   8.977  0.5904  0.4251  0.3451
 1758SOL    HW216908   3.347   1.079   9.023  0.2328  0.0592  0.6764
 1759SOL     OW16909   1.998   0.310   5.642 -0.1319 -0.1016 -0.5904
 1759SOL    HW116910   2.005   0.343   5.552  1.3246  1.7608  0.2038
 1759SOL    HW216911   1.961   0.387   5.686 -0.9516 -1.6377  1.3746
 1760SOL     OW16912   1.756   2.822  12.004  0.0810  0.0843  0.4869
 1760SOL    HW116913   1.699   2.750  11.976 -0.4149  0.8855 -0.5240
 1760SOL    HW216914   1.706   2.901  11.984  0.6222  0.3278  0.1027
 1761SOL     OW16915   3.303   3.695  14.726  0.3330 -0.1354 -0.3853
 1761SOL    HW116916   3.393   3.666  14.708 -0.0559 -0.8862 -1.1072
 1761SOL    HW216917   3.273   3.621  14.779 -0.9464 -0.2606 -1.2921
 1762SOL     OW16918   0.581   2.070   5.381 -0.7507  0.2044  0.0474
 1762SOL    HW116919   0.516   2.140   5.392 -0.3140  0.7042 -0.5319
 1762SOL    HW216920   0.551   2.014   5.452 -1.9210  1.4503  0.5581
 1763SOL     OW16921   0.388   3.783   7.864 -0.1379  0.7808 -0.4289
 1763SOL    HW116922   0.343   3.779   7.779  0.0531 -2.8942 -0.3589
 1763SOL    HW216923   0.470   3.826   7.842 -0.9630  1.1832 -2.7143
 1764SOL     OW16924   3.551   3.576  14.657  0.0680 -0.1798 -0.2141
 1764SOL    HW116925   3.597   3.518  14.718 -0.7047  0.3010  0.8307
 1764SOL    HW216926   3.518   3.510  14.596  0.0853  0.1424 -0.5741
 1765SOL     OW16927   1.179   3.982   7.319 -0.4530  0.2837  0.6912
 1765SOL    HW116928   1.263   4.021   7.344 -0.0922 -0.9542  1.4053
 1765SOL    HW216929   1.141   4.052   7.266 -0.6194  1.1427  1.9454
 1766SOL     OW16930   0.559   2.672  14.457  0.3159  0.1326  0.4368
 1766SOL    HW116931   0.583   2.621  14.380 -1.1748  1.2832 -0.7871
 1766SOL    HW216932   0.472   2.633  14.470  0.9149 -1.6888 -1.1105
 1767SOL     OW16933   2.804   4.112  13.240  0.0598  0.1401 -0.4512
 1767SOL    HW116934   2.773   4.092  13.328  0.5195 -0.3923 -0.4144
 1767SOL    HW216935   2.812   4.026  13.199 -0.0989  0.1435 -0.4908
 1768SOL     OW16936   0.987   2.127   8.861 -0.0030  0.3308  0.0463
 1768SOL    HW116937   0.913   2.074   8.832 -0.5318  1.3163 -0.4003
 1768SOL    HW216938   1.050   2.085   8.803 -0.9249 -0.4075 -0.4286
 1769SOL     OW16939   3.209   3.164   8.452 -0.7205  0.3441 -0.0426
 1769SOL    HW116940   3.219   3.212   8.369  2.5396  1.0489  0.7788
 1769SOL    HW216941   3.113   3.168   8.459 -0.7057 -0.5300  0.5922
 1770SOL     OW16942   0.431   4.537   5.823  0.3524 -0.0800 -0.0077
 1770SOL    HW116943   0.432   4.441   5.829  3.2065 -0.0990 -1.1964
 1770SOL    HW216944   0.424   4.563   5.915  1.6745 -3.2327  0.9778
 1771SOL     OW16945   1.483   2.271  16.769 -0.4410  0.2853  0.0400
 1771SOL    HW116946   1.418   2.299  16.704 -1.0215 -2.5988 -0.6313
 1771SOL    HW216947   1.531   2.205  16.719 -0.8605 -1.3762  1.8358
 1772SOL     OW16948   0.774   2.704  12.571  0.6983 -0.0491  0.3416
 1772SOL    HW116949   0.775   2.795  12.599 -2.1243  0.0217  0.2922
 1772SOL    HW216950   0.718   2.673  12.643 -0.8032  0.6058 -0.5336
 1773SOL     OW16951   1.722   3.256   1.869 -0.4676 -0.1378 -0.0498
 1773SOL    HW116952   1.750   3.213   1.949  0.5298 -2.1539 -1.4818
 1773SOL    HW216953   1.639   3.211   1.852 -0.5808  0.4092 -0.9328
 1774SOL     OW16954   1.092   0.492   6.885 -0.1101  0.2082 -0.0682
 1774SOL    HW116955   1.171   0.523   6.930  0.1279  0.3765 -0.5893
 1774SOL    HW216956   1.120   0.509   6.795  1.0348 -0.4881  0.1540
 1775SOL     OW16957   1.916   3.102   6.728  0.2230  0.1511 -0.1336
 1775SOL    HW116958   1.854   3.058   6.787  0.1859  0.2629 -0.0891
 1775SOL    HW216959   1.905   3.196   6.741  1.4059  0.1778  0.6430
 1776SOL     OW16960   1.171   2.116   3.367  0.1007  0.4693 -0.5690
 1776SOL    HW116961   1.146   2.076   3.284  1.8886 -1.4991 -0.1529
 1776SOL    HW216962   1.085   2.137   3.405  0.8865  1.2379  0.8006
 1777SOL     OW16963   0.088   3.276   5.652  0.0292 -0.6913 -0.2238
 1777SOL    HW116964   0.001   3.255   5.621 -0.3918  1.1765 -0.3051
 1777SOL    HW216965   0.065   3.273   5.745  1.6962  1.1595  0.2492
 1778SOL     OW16966   2.891   4.612   5.554  0.4040  0.2025 -0.3162
 1778SOL    HW116967   2.980   4.578   5.541  0.2532 -0.4309  0.3391
 1778SOL    HW216968   2.842   4.535   5.582  0.6473  1.3492  3.2620
 1779SOL     OW16969   0.803   2.645   4.230  0.0989  0.1229  0.1743
 1779SOL    HW116970   0.723   2.660   4.180 -0.2366  0.1684  0.7239
 1779SOL    HW216971   0.833   2.733   4.251 -1.8382  1.2312 -1.7392
 1780SOL     OW16972   4.384   0.903   5.388  0.6481 -0.2065 -0.5844
 1780SOL    HW116973   4.377   0.810   5.410  2.2169 -0.3012 -0.4696
 1780SOL    HW216974   4.355   0.908   5.297 -1.9639  0.5699  0.3049
 1781SOL     OW16975   2.425   3.661   3.402 -0.7444 -0.2492 -0.3274
 1781SOL    HW116976   2.361   3.675   3.332 -1.3422  0.5500  0.3780
 1781SOL    HW216977   2.499   3.644   3.344  1.5414 -1.3939  2.9545
 1782SOL     OW16978   1.948   1.896   2.993 -0.1444 -0.1567  0.4173
 1782SOL    HW116979   1.860   1.912   3.028  0.0370 -2.0089  1.7502
 1782SOL    HW216980   1.978   1.838   3.063  2.0317 -0.9007 -1.1273
 1783SOL     OW16981   1.538   1.996   8.815  0.7735 -0.1718  0.4512
 1783SOL    HW116982   1.614   1.972   8.868  1.3059 -0.2462 -0.3405
 1783SOL    HW216983   1.585   2.052   8.753 -0.3016  0.4066  0.1545
 1784SOL     OW16984   1.020   1.283   8.502  0.1680 -0.2060 -0.2867
 1784SOL    HW116985   1.004   1.325   8.587  2.1573 -3.4120  1.7311
 1784SOL    HW216986   1.016   1.356   8.441  2.6581  0.2394  0.0946
 1785SOL     OW16987   4.732   3.840   8.859  0.6523  0.1624  0.0679
 1785SOL    HW116988   4.669   3.771   8.837  1.5307 -1.0627  1.3709
 1785SOL    HW216989   4.690   3.916   8.819  0.2888  1.2377  2.5150
 1786SOL     OW16990   2.346   2.914   3.298 -0.0183 -0.3637 -0.2347
 1786SOL    HW116991   2.337   2.871   3.383  1.4644 -0.2253 -0.0193
 1786SOL    HW216992   2.281   2.864   3.248  0.6519  0.1258 -1.5771
 1787SOL     OW16993   4.216   0.539   7.929  0.0889  0.0316 -0.3110
 1787SOL    HW116994   4.232   0.526   8.023  0.9370 -0.6446 -0.5483
 1787SOL    HW216995   4.198   0.449   7.902 -1.7303  0.5462 -0.8380
 1788SOL     OW16996   2.712   2.925   8.317 -0.3651 -0.3727  0.4287
 1788SOL    HW116997   2.662   2.923   8.235  2.8800  0.4164 -1.5595
 1788SOL    HW216998   2.800   2.941   8.283 -1.9524  1.0744 -3.0108
 1789SOL     OW16999   3.857   1.846   3.804  0.3676 -0.1292 -0.2262
 1789SOL    HW117000   3.839   1.787   3.878  0.1199  1.8290  1.2859
 1789SOL    HW217001   3.839   1.931   3.845  1.4662 -0.4614  0.9548
 1790SOL     OW17002   1.599   2.508   6.584  0.8012 -0.1981 -0.1073
 1790SOL    HW117003   1.526   2.560   6.550 -0.1197 -0.4105  1.5369
 1790SOL    HW217004   1.653   2.580   6.617  0.6038  0.3684 -1.0124
 1791SOL     OW17005   3.782   3.837   0.101 -0.5064 -0.2289  0.0352
 1791SOL    HW117006   3.730   3.872   0.173  1.6424 -0.3382  1.6348
 1791SOL    HW217007   3.733   3.767   0.057  1.1944 -2.0003  0.9616
 1792SOL     OW17008   0.992   4.724  11.060  0.4576  0.6011 -0.2006
 1792SOL    HW117009   1.007   4.704  11.152  1.7203  1.9463 -0.1123
 1792SOL    HW217010   0.970   4.636  11.032  1.6027  0.3320 -0.2297
 1793SOL     OW17011   0.132   2.187   2.061 -0.3287  0.8093 -0.7104
 1793SOL    HW117012   0.201   2.122   2.044 -1.3383 -0.7360  1.1225
 1793SOL    HW217013   0.176   2.261   2.104 -1.1878  1.3518 -0.7781
 1794SOL     OW17014   1.972   2.477   1.881  0.1663  0.2632 -0.4949
 1794SOL    HW117015   2.059   2.442   1.861 -0.2015  0.3387 -2.2471
 1794SOL    HW217016   1.934   2.403   1.928 -0.4380  0.7464 -0.2354
 1795SOL     OW17017   2.714   0.847   2.846  0.1779  0.1256 -0.2431
 1795SOL    HW117018   2.674   0.849   2.760 -1.2047 -1.2601  0.3608
 1795SOL    HW217019   2.692   0.936   2.871  1.4527 -0.1449  1.8926
 1796SOL     OW17020   3.222   0.046   1.948 -0.0595 -0.5957 -0.5537
 1796SOL    HW117021   3.192   4.723   1.881  1.7107 -2.2329  0.1524
 1796SOL    HW217022   3.282   4.737   2.006  0.3895  3.9056  2.6263
 1797SOL     OW17023   1.507   1.185  16.872 -0.5900  0.2309  0.5225
 1797SOL    HW117024   1.441   1.217  16.810 -0.3734 -1.3882 -0.5524
 1797SOL    HW217025   1.473   1.208  16.958 -0.0338 -1.0285  1.0865
 1798SOL     OW17026   0.907   3.882  12.189  0.5723  0.5152  0.3925
 1798SOL    HW117027   0.840   3.832  12.235  0.9238  0.2726  0.6351
 1798SOL    HW217028   0.854   3.907  12.113  1.8083  2.1057  0.0526
 1799SOL     OW17029   3.001   1.485   7.468 -0.2864 -0.0019 -0.3784
 1799SOL    HW117030   2.928   1.428   7.491  1.2115 -1.4996  0.6876
 1799SOL    HW217031   2.970   1.524   7.387 -2.2423  2.4377  1.5352
 1800SOL     OW17032   3.676   1.634   2.956  0.9656  0.4602  0.5461
 1800SOL    HW117033   3.706   1.543   2.962  3.4006  1.2460  0.4988
 1800SOL    HW217034   3.671   1.630   2.860  1.5199 -1.0948  0.5771
 1801SOL     OW17035   3.693   0.528   2.075 -0.2087  0.3078 -0.6316
 1801SOL    HW117036   3.708   0.451   2.130  2.1245  1.5040  0.4156
 1801SOL    HW217037   3.784   0.545   2.050  0.2150 -3.2566 -1.5079
 1802SOL     OW17038   4.113   1.284   3.048  0.3993  0.4561 -0.4656
 1802SOL    HW117039   4.199   1.251   3.071 -0.0500 -0.3805  0.0342
 1802SOL    HW217040   4.101   1.252   2.959 -2.0408 -1.5196  0.5650
 1803SOL     OW17041   4.657   1.497   9.944  0.1564  0.1626 -0.3134
 1803SOL    HW117042   4.613   1.413   9.954  0.0419  0.3715  1.0284
 1803SOL    HW217043   4.631   1.541  10.026 -1.7502  0.5331 -1.1190
 1804SOL     OW17044   2.824   2.368   8.392  0.5217 -0.2677  0.8392
 1804SOL    HW117045   2.760   2.319   8.445 -1.8252  2.8576  0.8984
 1804SOL    HW217046   2.887   2.300   8.371  1.2353  1.3833 -2.2917
 1805SOL     OW17047   3.299   3.261   4.428 -0.1293  0.0068 -0.2273
 1805SOL    HW117048   3.373   3.257   4.367 -0.2612  0.5502 -0.4219
 1805SOL    HW217049   3.316   3.180   4.476  1.9660  0.3666 -0.3419
 1806SOL     OW17050   2.386   0.839   6.642 -0.0835  0.0530 -0.0624
 1806SOL    HW117051   2.419   0.867   6.727  0.7499  2.3933 -1.1514
 1806SOL    HW217052   2.441   0.767   6.610  0.3624  1.3867 -2.3110
 1807SOL     OW17053   3.658   3.844   2.019  0.2212 -0.4129  0.2197
 1807SOL    HW117054   3.627   3.879   1.935 -1.7180  1.4294  1.7117
 1807SOL    HW217055   3.663   3.749   2.011  2.0497 -0.2280 -0.9379
 1808SOL     OW17056   0.567   2.874   2.725  0.3808 -0.0087 -0.8009
 1808SOL    HW117057   0.613   2.820   2.661  1.7419 -1.4313  1.3726
 1808SOL    HW217058   0.609   2.856   2.809 -0.9139 -1.4926 -0.4790
 1809SOL     OW17059   2.479   2.128   4.676  0.4781 -0.3175  0.0880
 1809SOL    HW117060   2.530   2.125   4.757  0.0192  1.1695  0.4295
 1809SOL    HW217061   2.547   2.108   4.613  1.4562 -0.7873  1.2883
 1810SOL     OW17062   1.927   4.102   6.178  0.4707 -0.1805 -0.8669
 1810SOL    HW117063   1.892   4.190   6.190 -0.8310 -1.0071  1.4766
 1810SOL    HW217064   2.018   4.122   6.157  0.6725  0.5363  0.6616
 1811SOL     OW17065   1.429   1.130   0.330 -0.0097  0.2272 -0.3768
 1811SOL    HW117066   1.476   1.157   0.252  1.1823  0.5835  0.4635
 1811SOL    HW217067   1.493   1.154   0.398 -0.6169 -0.6860  0.5102
 1812SOL     OW17068   2.600   0.467   2.072  0.3224 -0.3560  0.0143
 1812SOL    HW117069   2.504   0.473   2.072  0.2402 -1.7735 -0.5593
 1812SOL    HW217070   2.619   0.413   2.148  1.9288  1.8790  1.2146
 1813SOL     OW17071   4.034   3.461   8.279 -0.5268 -0.4763 -0.3469
 1813SOL    HW117072   4.120   3.447   8.239 -0.9678 -0.0277 -1.4519
 1813SOL    HW217073   4.044   3.459   8.374  0.2342 -0.8848 -0.4339
 1814SOL     OW17074   4.457   3.668  16.434  0.5102 -0.2508 -0.5265
 1814SOL    HW117075   4.437   3.619  16.354 -1.5027 -1.6497  0.8429
 1814SOL    HW217076   4.405   3.745  16.411  0.8905  0.8215  2.1582
 1815SOL     OW17077   1.110   3.636   8.957  0.1856  0.0126 -0.3170
 1815SOL    HW117078   1.051   3.711   8.951  2.0860  1.5023 -0.2658
 1815SOL    HW217079   1.193   3.667   8.992  0.4312  0.5207 -1.3361
 1816SOL     OW17080   4.260   3.156   1.661 -0.0793 -0.1049  0.2703
 1816SOL    HW117081   4.328   3.170   1.594 -2.2779 -0.3246 -2.0156
 1816SOL    HW217082   4.309   3.097   1.719 -1.0172 -0.0453  1.1116
 1817SOL     OW17083   0.236   3.590  10.006 -0.0632 -0.2991 -0.0156
 1817SOL    HW117084   0.153   3.551  10.034 -0.8608  0.9558 -0.6143
 1817SOL    HW217085   0.242   3.663  10.068 -1.4483  0.0390 -0.2567
 1818SOL     OW17086   0.046   1.317  11.437  0.1237 -0.1535  0.1904
 1818SOL    HW117087   4.703   1.271  11.417  0.0227  0.6761 -1.3074
 1818SOL    HW217088   0.013   1.403  11.464  0.8352  0.3622 -0.5770
 1819SOL     OW17089   4.160   1.664   6.515  0.6730  0.1420  0.1618
 1819SOL    HW117090   4.202   1.689   6.598 -3.8556  3.7123  1.3912
 1819SOL    HW217091   4.235   1.625   6.471  1.6819  0.5001  1.5452
 1820SOL     OW17092   4.107   1.253   1.344  0.2749 -0.5626  0.2494
 1820SOL    HW117093   4.188   1.301   1.331 -0.2861  0.8262  1.8888
 1820SOL    HW217094   4.066   1.308   1.411 -0.9061 -0.6214 -0.4233
 1821SOL     OW17095   2.112   3.909   8.304 -0.4146 -0.0961 -0.5770
 1821SOL    HW117096   2.108   3.968   8.379  1.0159  0.3913 -0.8928
 1821SOL    HW217097   2.204   3.917   8.280 -0.7759  0.3326 -1.8193
 1822SOL     OW17098   1.479   2.059   4.063 -0.3088  0.6356  0.0429
 1822SOL    HW117099   1.472   2.148   4.097  0.4367  0.5251  0.5012
 1822SOL    HW217100   1.469   2.010   4.145  0.3272  0.8067  0.2203
 1823SOL     OW17101   1.901   3.536   4.332  0.7814  0.0583 -0.3968
 1823SOL    HW117102   1.989   3.568   4.348  1.1133 -0.9314 -0.1968
 1823SOL    HW217103   1.879   3.574   4.247  0.6674  0.0585 -0.3675
 1824SOL     OW17104   2.793   1.557   5.571 -0.4181 -0.8073 -0.3089
 1824SOL    HW117105   2.853   1.555   5.646 -0.1487 -0.1843 -0.5000
 1824SOL    HW217106   2.800   1.464   5.550 -0.0294 -1.3773  2.2818
 1825SOL     OW17107   0.336   0.182  12.558 -0.3973 -0.0748 -0.8696
 1825SOL    HW117108   0.348   0.097  12.516 -0.5147  0.2305 -1.5295
 1825SOL    HW217109   0.395   0.243  12.513 -0.0247  0.2038  0.0048
 1826SOL     OW17110   0.913   4.204  12.457 -0.1239  0.2344  0.1327
 1826SOL    HW117111   0.860   4.130  12.486 -0.1623 -0.0212 -0.5718
 1826SOL    HW217112   0.997   4.158  12.454 -0.6726 -0.7749  0.0681
 1827SOL     OW17113   3.883   2.334   4.642 -0.0210 -0.1827 -0.0025
 1827SOL    HW117114   3.911   2.386   4.718  1.2915 -0.1479 -0.5145
 1827SOL    HW217115   3.862   2.251   4.685 -0.2941 -0.0502  0.1165
 1828SOL     OW17116   2.705   2.668  13.522 -0.1949 -0.6045  0.0277
 1828SOL    HW117117   2.764   2.737  13.550 -1.4751  1.1344 -1.5804
 1828SOL    HW217118   2.707   2.598  13.588 -3.7649 -2.3869 -1.7596
 1829SOL     OW17119   1.891   0.280   9.132 -0.1801 -0.3748  0.0547
 1829SOL    HW117120   1.975   0.258   9.091 -0.1975 -1.5827  0.6526
 1829SOL    HW217121   1.833   0.220   9.085 -0.8884  0.0387  0.4041
 1830SOL     OW17122   0.061   2.779   5.621  0.3993  0.3629 -0.6815
 1830SOL    HW117123   0.014   2.840   5.564 -2.5368  0.0204  1.3718
 1830SOL    HW217124   0.125   2.839   5.660 -0.5233  1.2658 -0.5497
 1831SOL     OW17125   1.708   0.863   3.076  0.3551 -0.4960 -0.1703
 1831SOL    HW117126   1.619   0.892   3.055  0.1331 -0.8116  0.3385
 1831SOL    HW217127   1.716   0.791   3.012  2.3517 -0.8625  0.5056
 1832SOL     OW17128   1.987   3.353   9.095  0.5940 -0.3980 -0.2702
 1832SOL    HW117129   2.079   3.359   9.069  1.0008 -1.7023  0.9097
 1832SOL    HW217130   1.979   3.258   9.090  3.7649 -0.7903  2.0148
 1833SOL     OW17131   0.857   0.582   4.473  0.5788 -0.4549  0.3710
 1833SOL    HW117132   0.934   0.600   4.527 -0.8561  0.8701  1.9977
 1833SOL    HW217133   0.844   0.675   4.451 -0.2100 -0.8343 -0.7643
 1834SOL     OW17134   0.661   1.091   0.601  0.5453 -0.2620  0.0545
 1834SOL    HW117135   0.609   1.086   0.521 -0.2057 -1.1900  0.5989
 1834SOL    HW217136   0.704   1.006   0.598  1.0522 -0.0349  0.7632
 1835SOL     OW17137   4.159   4.233   8.159  0.0105 -0.0095 -0.6073
 1835SOL    HW117138   4.205   4.149   8.156 -0.3184 -0.1654 -1.2466
 1835SOL    HW217139   4.091   4.213   8.095 -1.0653  1.4738  0.0739
 1836SOL     OW17140   0.928   4.587  17.431 -0.4183  0.2959  0.0634
 1836SOL    HW117141   0.951   4.600  17.339  0.3277  0.6410  0.2990
 1836SOL    HW217142   0.838   4.555  17.420 -0.3210 -0.3924  1.3256
 1837SOL     OW17143   3.211   4.360   1.826  0.2937 -0.6933  0.2814
 1837SOL    HW117144   3.280   4.294   1.820 -1.0449 -2.0881  0.1576
 1837SOL    HW217145   3.239   4.420   1.757 -1.4180 -2.4237 -1.9160
 1838SOL     OW17146   2.588   3.706  12.546  0.0226 -0.1617  0.2332
 1838SOL    HW117147   2.501   3.697  12.585  0.4188 -1.3690  0.8474
 1838SOL    HW217148   2.623   3.617  12.549  0.2500 -0.1019 -0.5321
 1839SOL     OW17149   0.995   0.500   1.073  0.4911  0.6494 -0.7228
 1839SOL    HW117150   1.025   0.440   1.142  0.6345  0.2250 -1.1528
 1839SOL    HW217151   0.981   0.574   1.132  1.2480  0.5437 -0.4003
 1840SOL     OW17152   4.070   0.982   8.101  0.0143 -0.7950 -0.4051
 1840SOL    HW117153   4.037   1.065   8.069  1.7540  0.1586  0.2627
 1840SOL    HW217154   3.991   0.928   8.108  0.5490 -1.4300  0.8452
 1841SOL     OW17155   0.681   4.340   7.451  0.2218 -0.0837  0.5135
 1841SOL    HW117156   0.649   4.412   7.506  1.5821  1.4803 -0.7473
 1841SOL    HW217157   0.602   4.304   7.410 -0.9571  3.2983 -0.1727
 1842SOL     OW17158   2.672   1.214   5.087 -0.4787 -0.6809  0.4067
 1842SOL    HW117159   2.630   1.151   5.145 -0.8022  0.7743  1.7706
 1842SOL    HW217160   2.607   1.236   5.021 -0.0173  1.0693  0.5213
 1843SOL     OW17161   1.222   0.225   6.819  0.4702  0.4688 -0.4121
 1843SOL    HW117162   1.294   0.286   6.834  1.0471 -0.6004  1.0783
 1843SOL    HW217163   1.212   0.251   6.727  2.0415 -0.2898 -0.7887
 1844SOL     OW17164   0.122   2.109  16.559  0.5014 -1.0098 -0.3683
 1844SOL    HW117165   0.083   2.087  16.643 -1.0932  1.3624 -0.4839
 1844SOL    HW217166   0.196   2.164  16.586 -1.0710  0.9390 -0.0558
 1845SOL     OW17167   3.136   0.383   1.494  0.2984 -0.3793 -0.6766
 1845SOL    HW117168   3.211   0.426   1.453 -1.0138  2.3750 -0.1843
 1845SOL    HW217169   3.096   0.455   1.543  0.1578 -1.0355  0.1610
 1846SOL     OW17170   1.246   3.116   6.808 -0.0512 -0.2469 -0.6422
 1846SOL    HW117171   1.165   3.072   6.832  0.5852 -0.8082  0.4486
 1846SOL    HW217172   1.232   3.125   6.714 -1.5616  0.3455 -0.3647
 1847SOL     OW17173   0.373   1.457   7.865  0.4447  0.3104 -0.3421
 1847SOL    HW117174   0.445   1.403   7.832  0.1564 -0.8451  0.9323
 1847SOL    HW217175   0.420   1.505   7.933  0.4785  0.9915 -0.8416
 1848SOL     OW17176   1.136   3.456   3.328  0.6379  0.1495  0.2571
 1848SOL    HW117177   1.133   3.479   3.235 -1.9223  0.5855  0.4461
 1848SOL    HW217178   1.050   3.489   3.356  0.4451  0.2160 -0.4063
 1849SOL     OW17179   1.454   0.310   6.227  0.1725  0.1975  0.4253
 1849SOL    HW117180   1.540   0.349   6.211  0.0683  0.7271  1.1724
 1849SOL    HW217181   1.416   0.386   6.270  0.8984  1.4143 -1.0777
 1850SOL     OW17182   2.555   3.407   4.203  0.1769 -0.0464  0.1550
 1850SOL    HW117183   2.623   3.373   4.260 -0.4119  0.9163  1.4382
 1850SOL    HW217184   2.520   3.321   4.176  0.9742 -0.3350  0.0355
 1851SOL     OW17185   3.251   2.327   3.137  0.0578  0.5144 -0.1280
 1851SOL    HW117186   3.202   2.255   3.178  1.7152 -1.0590 -0.9259
 1851SOL    HW217187   3.189   2.353   3.069 -0.6686  0.5895  0.5588
 1852SOL     OW17188   0.738   1.935   2.529 -0.5130 -0.7700 -0.1908
 1852SOL    HW117189   0.752   2.029   2.534 -0.1412 -0.9590  2.3479
 1852SOL    HW217190   0.777   1.905   2.447 -1.6753 -0.2608 -0.9317
 1853SOL     OW17191   1.339   4.456   2.518 -0.1167  0.1345  0.0132
 1853SOL    HW117192   1.385   4.452   2.602 -1.9979  0.1824  1.0549
 1853SOL    HW217193   1.249   4.442   2.549 -0.0096  0.2951  0.3942
 1854SOL     OW17194   1.601   3.328   3.974  0.1898  0.5663  0.3796
 1854SOL    HW117195   1.676   3.309   4.030  0.2633  0.1062  0.1264
 1854SOL    HW217196   1.604   3.423   3.987 -0.1369  0.6312 -0.0142
 1855SOL     OW17197   2.935   1.676   5.026 -0.3691 -0.3259  0.2844
 1855SOL    HW117198   2.877   1.745   5.057  0.3355  0.0354  0.8135
 1855SOL    HW217199   2.951   1.694   4.934 -0.6887 -2.7293 -0.2585
 1856SOL     OW17200   1.529   4.306   3.220 -1.1760  0.0022  0.7260
 1856SOL    HW117201   1.516   4.300   3.315 -0.0950  0.9689  0.9352
 1856SOL    HW217202   1.492   4.394   3.215 -2.4867 -0.5868  0.0474
 1857SOL     OW17203   3.077   0.271  14.867 -0.3390 -0.0212  0.1720
 1857SOL    HW117204   3.020   0.287  14.943 -1.2307 -0.0853 -0.4877
 1857SOL    HW217205   3.013   0.236  14.805 -0.2494  0.5206 -0.2219
 1858SOL     OW17206   2.551   0.445   7.425  0.5438 -0.2349  0.3095
 1858SOL    HW117207   2.529   0.354   7.447  0.5162  0.1479  1.8922
 1858SOL    HW217208   2.573   0.468   7.516  0.0395  0.6876  0.2048
 1859SOL     OW17209   1.140   0.407  14.702 -0.6006  0.1317  0.4400
 1859SOL    HW117210   1.143   0.368  14.615 -1.8093 -0.8790  0.8400
 1859SOL    HW217211   1.091   0.489  14.697  0.8419  1.0095  0.8492
 1860SOL     OW17212   2.356   2.354   3.708  0.1852  0.0939 -0.1399
 1860SOL    HW117213   2.446   2.385   3.717 -0.9509  3.7575 -1.3855
 1860SOL    HW217214   2.366   2.304   3.627 -2.5483  0.8094 -0.9009
 1861SOL     OW17215   4.437   1.591   7.733 -0.5430 -0.0719  0.0593
 1861SOL    HW117216   4.419   1.515   7.788  0.0911 -0.4452 -0.2427
 1861SOL    HW217217   4.487   1.645   7.794  0.4131  0.3080 -1.0639
 1862SOL     OW17218   1.554   2.342  10.209 -0.0492  0.3225 -0.2118
 1862SOL    HW117219   1.478   2.311  10.259 -0.7118  1.5165 -0.4728
 1862SOL    HW217220   1.568   2.269  10.150  1.1412 -1.2968  2.0676
 1863SOL     OW17221   2.607   1.923  10.158 -0.2518 -0.3288  0.0484
 1863SOL    HW117222   2.586   1.833  10.133  1.4284 -1.4324  2.6152
 1863SOL    HW217223   2.644   1.910  10.245  1.0772 -0.2667 -0.5136
 1864SOL     OW17224   3.990   3.600   4.841 -0.2540  0.0421  0.2683
 1864SOL    HW117225   3.976   3.507   4.822  0.8945  0.4082 -2.2854
 1864SOL    HW217226   4.083   3.603   4.865 -0.2516 -2.3264  0.6136
 1865SOL     OW17227   1.847   0.820   1.873 -0.3006 -0.2103 -0.2779
 1865SOL    HW117228   1.756   0.792   1.865 -0.0340 -1.1756  0.0969
 1865SOL    HW217229   1.843   0.879   1.948  1.4402 -0.4246 -0.0152
 1866SOL     OW17230   0.229   0.170  15.907 -0.2362 -0.1543 -0.1189
 1866SOL    HW117231   0.213   0.183  15.813 -1.3992 -2.1864 -0.2178
 1866SOL    HW217232   0.254   0.257  15.936 -1.0962 -0.0283  0.2610
 1867SOL     OW17233   3.755   0.097   6.552 -0.2002  0.6056 -0.4655
 1867SOL    HW117234   3.678   0.043   6.534 -0.1501 -0.3218  2.0828
 1867SOL    HW217235   3.822   0.030   6.537 -0.3853  0.5489 -1.0404
 1868SOL     OW17236   2.481   0.301   2.378  0.1326  0.2322 -0.0721
 1868SOL    HW117237   2.515   0.212   2.394  1.8806  0.6308 -1.5705
 1868SOL    HW217238   2.557   0.350   2.408 -1.3927  1.8910  1.0289
 1869SOL     OW17239   2.659   1.560   2.677 -0.5139  0.2665 -0.5413
 1869SOL    HW117240   2.745   1.534   2.709  0.0948  0.9445 -1.6469
 1869SOL    HW217241   2.669   1.561   2.582 -1.5325 -0.5468 -0.6631
 1870SOL     OW17242   1.437   3.996  15.206  0.3454 -0.1571  0.0337
 1870SOL    HW117243   1.505   3.985  15.139  0.5805 -0.6062  0.3442
 1870SOL    HW217244   1.456   3.915  15.254 -1.1888  0.5102  1.7650
 1871SOL     OW17245   4.709   4.387   8.233  0.0221  0.4773  0.2601
 1871SOL    HW117246   0.027   4.462   8.212  0.4772 -0.0481 -0.3827
 1871SOL    HW217247   4.702   4.404   8.327 -0.0580 -2.0370  0.7054
 1872SOL     OW17248   1.852   0.106   6.846 -0.0638 -0.5164  0.3763
 1872SOL    HW117249   1.922   0.170   6.833 -0.5001  0.0924  0.9839
 1872SOL    HW217250   1.821   0.122   6.935  0.5416 -2.0732  0.8727
 1873SOL     OW17251   4.276   2.574   8.529  0.2426  0.1653  0.1044
 1873SOL    HW117252   4.342   2.515   8.492 -0.2045 -0.3273  0.0982
 1873SOL    HW217253   4.243   2.522   8.602  0.2834 -0.5132 -0.3660
 1874SOL     OW17254   0.996   2.697   5.065 -0.3995  0.0332  0.6425
 1874SOL    HW117255   1.003   2.717   5.158 -0.2712 -0.3538  0.7175
 1874SOL    HW217256   1.055   2.621   5.066 -0.2263  0.1244 -3.0450
 1875SOL     OW17257   3.914   3.957   6.555  0.5045  0.5383  0.0136
 1875SOL    HW117258   3.969   3.973   6.478 -0.1142 -0.2612 -0.5987
 1875SOL    HW217259   3.966   3.901   6.613  1.1267 -2.1001 -3.0527
 1876SOL     OW17260   1.980   0.315   6.749 -0.1850 -0.1386  0.3470
 1876SOL    HW117261   1.989   0.379   6.820 -1.4027  0.2378  0.1450
 1876SOL    HW217262   2.066   0.323   6.707 -0.2947 -4.1779 -0.6930
 1877SOL     OW17263   2.176   0.778  14.138 -0.1670  0.0704 -0.6249
 1877SOL    HW117264   2.088   0.804  14.111 -0.5946 -0.4278  0.2986
 1877SOL    HW217265   2.154   0.710  14.202 -0.7550  1.2403  0.4123
 1878SOL     OW17266   3.133   3.317   5.550 -0.4442 -0.2900 -0.8080
 1878SOL    HW117267   3.221   3.326   5.512  0.1333 -0.8322  0.4116
 1878SOL    HW217268   3.114   3.403   5.587 -0.6607 -0.1822 -1.1683
 1879SOL     OW17269   0.952   4.038   1.618 -0.2109  0.8113  0.2443
 1879SOL    HW117270   1.041   4.005   1.603 -0.3762  0.7459 -0.5927
 1879SOL    HW217271   0.935   4.000   1.704 -1.5462 -0.3883 -0.5557
 1880SOL     OW17272   2.939   0.087  11.640  0.0346 -0.0529 -0.8773
 1880SOL    HW117273   2.875   0.019  11.660  0.6604 -0.0818  1.0213
 1880SOL    HW217274   2.962   0.131  11.722 -0.4122 -2.0150  0.3025
 1881SOL     OW17275   1.445   0.297  13.853  0.4948 -0.0567  0.3591
 1881SOL    HW117276   1.506   0.253  13.911  0.4819  0.2172  0.5821
 1881SOL    HW217277   1.365   0.251  13.881  1.5077 -0.5081  2.4979
 1882SOL     OW17278   4.198   1.703   0.688  0.2270 -0.4376 -0.2471
 1882SOL    HW117279   4.237   1.693   0.602  0.3892 -0.9720 -0.1094
 1882SOL    HW217280   4.269   1.674   0.745 -2.0349 -0.3508  2.6696
 1883SOL     OW17281   4.093   4.621  16.303  0.4339 -0.1514  0.0031
 1883SOL    HW117282   4.130   4.695  16.351 -1.7221 -0.1899  1.6998
 1883SOL    HW217283   4.038   4.664  16.238 -0.2028  1.7811  1.8204
 1884SOL     OW17284   3.216   1.495   9.044  0.0737 -0.4201 -0.1471
 1884SOL    HW117285   3.142   1.556   9.043  2.1795  2.1093 -0.2041
 1884SOL    HW217286   3.203   1.441   9.123 -0.1909  2.3950  1.7514
 1885SOL     OW17287   3.345   4.617  16.619 -0.1554 -0.3877 -0.5095
 1885SOL    HW117288   3.257   4.644  16.646  1.1224 -0.5224  3.7973
 1885SOL    HW217289   3.360   4.680  16.549 -2.2595  0.0559 -0.5732
 1886SOL     OW17290   2.602   4.699  12.335  0.0246  0.2228 -0.3865
 1886SOL    HW117291   2.552   4.635  12.284 -2.1162  1.0928  0.5958
 1886SOL    HW217292   2.537   0.013  12.382  1.5701  1.8756 -0.0811
 1887SOL     OW17293   4.525   4.731  14.047 -0.5306 -0.3143 -0.1505
 1887SOL    HW117294   4.604   4.712  13.996 -0.2097 -0.2845  0.3413
 1887SOL    HW217295   4.447   4.707  13.996 -2.0669  3.2505  0.5182
 1888SOL     OW17296   0.054   3.363   5.277 -0.0539 -0.2667  0.0944
 1888SOL    HW117297   0.056   3.269   5.261 -1.8523 -0.6043  1.8403
 1888SOL    HW217298   0.103   3.394   5.201 -1.1620  2.4841  0.4925
 1889SOL     OW17299   4.487   1.413   3.244  0.3578  0.0496 -0.1873
 1889SOL    HW117300   4.582   1.413   3.258  0.4227 -0.9437 -0.6270
 1889SOL    HW217301   4.485   1.371   3.158 -1.4189  1.8949 -1.0211
 1890SOL     OW17302   1.386   1.348   3.179  0.1655  0.2334 -0.2488
 1890SOL    HW117303   1.319   1.335   3.111  0.6415  0.5414 -0.7770
 1890SOL    HW217304   1.434   1.423   3.145 -1.5342  0.8431 -1.3350
 1891SOL     OW17305   4.115   0.342   7.243  0.7812  0.0081 -1.1753
 1891SOL    HW117306   4.203   0.379   7.230  1.5659 -1.4797 -0.0478
 1891SOL    HW217307   4.116   0.305   7.331  2.0072  1.1343 -0.7129
 1892SOL     OW17308   0.554   0.868   6.919  0.2340 -0.4110 -0.4969
 1892SOL    HW117309   0.599   0.909   6.992  0.8416  0.3562 -1.3007
 1892SOL    HW217310   0.631   0.835   6.873  0.2397 -0.3541 -0.5291
 1893SOL     OW17311   0.024   3.998  14.710 -0.5298  0.4879 -0.1030
 1893SOL    HW117312   0.047   3.921  14.658  0.1663 -0.8849  2.2347
 1893SOL    HW217313   0.051   4.059  14.642  0.1236  1.8596  1.3702
 1894SOL     OW17314   0.748   4.342   3.476 -0.1938  0.7590  0.9069
 1894SOL    HW117315   0.783   4.334   3.388 -0.4856  0.2884  0.8322
 1894SOL    HW217316   0.758   4.250   3.501  1.1447  0.3678 -1.1372
 1895SOL     OW17317   1.860   2.456   5.378  0.3004  0.4112 -0.2727
 1895SOL    HW117318   1.797   2.414   5.436  0.0070  2.7513  1.1213
 1895SOL    HW217319   1.803   2.483   5.306  0.6302 -1.7336 -1.3445
 1896SOL     OW17320   3.540   0.114   0.513  0.0038  0.3494 -0.3612
 1896SOL    HW117321   3.514   0.079   0.598 -0.3667  0.8978 -0.2492
 1896SOL    HW217322   3.529   0.038   0.456  1.9976 -0.4132  0.2687
 1897SOL     OW17323   1.000   3.985  17.193 -0.3235 -0.0080  0.0386
 1897SOL    HW117324   0.970   3.918  17.254  1.4783 -0.6958  0.1736
 1897SOL    HW217325   0.930   4.045  17.218 -0.0856  0.7134 -1.0297
 1898SOL     OW17326   1.427   0.312  14.331  0.0469  0.0569 -1.0080
 1898SOL    HW117327   1.408   0.403  14.355 -1.4032 -0.8491  1.1619
 1898SOL    HW217328   1.488   0.285  14.399 -0.2680  0.6161 -0.4979
 1899SOL     OW17329   4.506   3.451   2.179  0.0991  0.1886 -0.7267
 1899SOL    HW117330   4.584   3.506   2.172  0.2542 -0.3179 -2.8685
 1899SOL    HW217331   4.457   3.489   2.252  2.0841  1.8359 -0.2623
 1900SOL     OW17332   2.327   3.130   2.964  0.2350  0.8166  0.3396
 1900SOL    HW117333   2.308   3.046   2.922 -1.6601  0.1146  2.6183
 1900SOL    HW217334   2.257   3.136   3.030  0.0660 -0.5627  0.2852
 1901SOL     OW17335   4.188   3.372   3.029  0.3290 -0.4672  0.0282
 1901SOL    HW117336   4.115   3.381   2.968  0.7383 -1.2564 -0.5803
 1901SOL    HW217337   4.192   3.460   3.068 -2.2825  0.4467 -1.7787
 1902SOL     OW17338   3.087   1.598  10.623 -0.3680 -0.0676 -0.4538
 1902SOL    HW117339   3.181   1.607  10.603 -0.1738 -3.4471 -1.0332
 1902SOL    HW217340   3.079   1.662  10.694 -0.7375  1.1649 -1.6192
 1903SOL     OW17341   0.792   0.967   6.167  0.2506  0.1141 -0.2308
 1903SOL    HW117342   0.716   0.948   6.113 -0.2470  1.0317  0.1542
 1903SOL    HW217343   0.781   0.890   6.223  0.4993  0.2241 -0.0310
 1904SOL     OW17344   3.470   2.351   2.481 -0.2111  0.2164 -0.0966
 1904SOL    HW117345   3.445   2.259   2.486 -0.5583  0.3258  0.1400
 1904SOL    HW217346   3.556   2.345   2.523 -0.1290 -0.3072 -0.3469
 1905SOL     OW17347   0.797   1.179   9.374  0.5145 -0.0290  0.8717
 1905SOL    HW117348   0.723   1.118   9.382 -0.6836  1.3137  0.1471
 1905SOL    HW217349   0.785   1.201   9.281  0.5530 -0.8081  0.6824
 1906SOL     OW17350   0.345   2.129   7.463 -0.4864  0.1181 -0.3193
 1906SOL    HW117351   0.311   2.204   7.513  1.5202 -0.0523  1.2866
 1906SOL    HW217352   0.307   2.057   7.513 -0.3897 -0.0608 -0.5045
 1907SOL     OW17353   1.634   0.562   5.869  0.5416  0.1709  0.2886
 1907SOL    HW117354   1.716   0.576   5.916  1.7709 -2.9054 -0.8964
 1907SOL    HW217355   1.622   0.469   5.888 -1.4742  0.2944 -0.3662
 1908SOL     OW17356   2.850   3.719   4.602 -0.6725 -0.3784 -0.0425
 1908SOL    HW117357   2.759   3.749   4.599 -0.2887  0.8639  1.3807
 1908SOL    HW217358   2.857   3.709   4.697 -0.1135  1.5517  0.1165
 1909SOL     OW17359   0.797   3.215   6.914 -1.2575 -0.0671  0.1242
 1909SOL    HW117360   0.813   3.122   6.903 -1.0842 -0.1258  0.8531
 1909SOL    HW217361   0.780   3.222   7.008  4.3825  2.3217  0.9553
 1910SOL     OW17362   2.271   3.034   3.754  0.0051  0.3523  0.0974
 1910SOL    HW117363   2.342   2.995   3.806  2.4738  0.3456 -3.2804
 1910SOL    HW217364   2.216   3.070   3.824 -0.8748 -1.4171  0.3062
 1911SOL     OW17365   2.218   3.993  14.659 -0.9175  0.1171  0.0785
 1911SOL    HW117366   2.163   4.063  14.626 -0.1306  0.6708 -0.0665
 1911SOL    HW217367   2.253   3.970  14.573 -0.7545 -0.4767  0.3052
 1912SOL     OW17368   4.491   2.576   1.641 -0.3315 -0.7977  0.0125
 1912SOL    HW117369   4.499   2.567   1.546 -0.5114 -1.2751  0.0460
 1912SOL    HW217370   4.558   2.641   1.666  0.2532 -0.5598 -2.1676
 1913SOL     OW17371   2.538   3.865   5.431 -0.0224  0.1522  0.7037
 1913SOL    HW117372   2.594   3.831   5.361  0.5564  1.5536  0.4811
 1913SOL    HW217373   2.450   3.856   5.394  0.0554  0.6675  0.3847
 1914SOL     OW17374   3.655   4.541   6.883 -0.5840  0.0181  0.0465
 1914SOL    HW117375   3.673   4.635   6.882  1.2707 -0.3399  0.4823
 1914SOL    HW217376   3.741   4.509   6.912  0.4666  2.7535 -0.0737
 1915SOL     OW17377   1.347   3.830   4.117 -0.5072 -0.6890 -0.1049
 1915SOL    HW117378   1.334   3.735   4.129 -1.8815 -0.6852 -1.5496
 1915SOL    HW217379   1.272   3.874   4.158  0.0156  0.1115 -0.0192
 1916SOL     OW17380   4.281   1.385   2.192  0.5152 -0.1877 -0.1705
 1916SOL    HW117381   4.305   1.292   2.190  0.4756 -0.2153  0.5896
 1916SOL    HW217382   4.300   1.426   2.108 -2.0211 -0.8669 -1.0911
 1917SOL     OW17383   3.622   2.120   7.258 -0.1540 -0.1900 -0.1533
 1917SOL    HW117384   3.573   2.096   7.337 -0.3917 -1.8905 -0.8159
 1917SOL    HW217385   3.578   2.202   7.233  2.1064  0.3918 -2.1861
 1918SOL     OW17386   4.666   3.762   5.542  0.1397 -0.9049 -0.0294
 1918SOL    HW117387   4.576   3.794   5.538  0.3753 -0.1295  0.7701
 1918SOL    HW217388   4.673   3.716   5.458  0.3196 -2.4012  0.8230
 1919SOL     OW17389   0.296   0.235  12.836 -0.1863  0.8460  0.1657
 1919SOL    HW117390   0.284   0.242  12.742 -0.5234  1.0325  0.2254
 1919SOL    HW217391   0.206   0.222  12.863  0.3705 -0.7277  1.2632
 1920SOL     OW17392   3.920   4.225   1.874 -0.0034  0.1230 -0.3946
 1920SOL    HW117393   3.986   4.173   1.921 -2.0538  1.0857  3.5597
 1920SOL    HW217394   3.841   4.214   1.927  0.3997  2.3938  0.6827
 1921SOL     OW17395   0.013   3.561   7.518  0.1565 -0.4967  0.2299
 1921SOL    HW117396   4.695   3.530   7.447 -0.3218 -0.5673  0.6404
 1921SOL    HW217397   0.094   3.522   7.486 -0.6282 -1.0581 -1.0574
 1922SOL     OW17398   0.887   2.450  17.679  0.5098 -0.3194  0.0861
 1922SOL    HW117399   0.830   2.449  17.603  2.1366  1.2744 -1.1334
 1922SOL    HW217400   0.892   2.545  17.687  1.3211 -0.5535  2.4409
 1923SOL     OW17401   1.106   1.928   6.297 -0.3638  0.4599 -0.3333
 1923SOL    HW117402   1.158   1.975   6.232  1.2593  0.3907  0.8891
 1923SOL    HW217403   1.133   1.969   6.379 -3.7286  0.4464  0.7680
 1924SOL     OW17404   3.552   1.434   3.927 -0.3896  0.1579  0.0359
 1924SOL    HW117405   3.610   1.460   3.856  0.0178 -1.7617 -0.3081
 1924SOL    HW217406   3.527   1.347   3.898  0.0268 -0.3170  1.1007
 1925SOL     OW17407   4.550   2.352   4.311 -0.2499  0.0712  0.2695
 1925SOL    HW117408   4.489   2.316   4.247 -0.7071 -1.8735  1.7847
 1925SOL    HW217409   4.524   2.444   4.302 -1.9849 -0.4765 -0.2846
 1926SOL     OW17410   1.759   1.502   2.105 -0.3976  0.2085 -0.6944
 1926SOL    HW117411   1.807   1.566   2.157  0.3069  0.1695 -1.2957
 1926SOL    HW217412   1.678   1.549   2.084 -0.2466  0.9124  0.3149
 1927SOL     OW17413   3.096   1.914   3.238 -0.1240 -0.3328 -0.8108
 1927SOL    HW117414   3.025   1.856   3.213  0.4302 -0.8651 -1.1426
 1927SOL    HW217415   3.046   1.980   3.287  0.7766 -0.3328  0.1038
 1928SOL     OW17416   2.550   2.383   2.479  0.2953 -0.2209  0.3693
 1928SOL    HW117417   2.645   2.390   2.472  0.3624 -2.4459 -1.1421
 1928SOL    HW217418   2.536   2.310   2.419 -2.5856 -0.6590  1.5812
 1929SOL     OW17419   2.700   1.317   3.429 -0.2211 -1.3326  0.2366
 1929SOL    HW117420   2.773   1.360   3.474  0.4603 -2.6855  0.4181
 1929SOL    HW217421   2.633   1.362   3.480  0.0453  0.3547 -0.8906
 1930SOL     OW17422   2.132   3.466   6.498  0.3385  0.0765  0.6090
 1930SOL    HW117423   2.121   3.473   6.403  0.8193 -0.2312  0.5295
 1930SOL    HW217424   2.183   3.386   6.508  2.5772  1.1249 -2.2484
 1931SOL     OW17425   4.318   0.796  17.398 -0.1666 -0.0115 -0.7310
 1931SOL    HW117426   4.284   0.712  17.368 -0.5412 -0.1527  0.0886
 1931SOL    HW217427   4.319   0.847  17.317 -0.9862  0.3508 -0.5157
 1932SOL     OW17428   0.089   0.926   4.124  0.5389 -0.2952  0.4017
 1932SOL    HW117429   0.104   0.863   4.194  2.7178 -0.7110 -0.4415
 1932SOL    HW217430   4.732   0.915   4.116  0.1515  3.1257  0.4020
 1933SOL     OW17431   1.203   4.243   9.210  0.4682  0.1213 -0.3213
 1933SOL    HW117432   1.227   4.235   9.118 -0.8563  2.2358 -0.8387
 1933SOL    HW217433   1.141   4.315   9.208  1.4359  0.9646 -0.1916
 1934SOL     OW17434   2.000   0.646  16.944  0.0573 -0.6589  0.2040
 1934SOL    HW117435   1.909   0.676  16.938  0.9807  1.9867 -0.3362
 1934SOL    HW217436   2.026   0.683  16.860 -1.3570 -0.7557 -0.2844
 1935SOL     OW17437   4.636   2.614   2.711  0.1713 -0.5246 -0.0752
 1935SOL    HW117438   4.583   2.623   2.790  0.5478 -1.9217  0.3258
 1935SOL    HW217439   4.689   2.535   2.725  0.4184 -0.4790 -0.7393
 1936SOL     OW17440   2.843   1.530  10.974 -0.2526  0.4750 -0.1518
 1936SOL    HW117441   2.893   1.476  10.913  0.2630 -1.8205  2.3384
 1936SOL    HW217442   2.918   1.554  11.028  1.4103 -0.0894 -2.2245
 1937SOL     OW17443   4.224   0.855   9.293 -0.2284  0.6045 -0.3589
 1937SOL    HW117444   4.279   0.912   9.346 -0.7958 -1.9319  2.9272
 1937SOL    HW217445   4.175   0.809   9.360  0.4942 -1.8835 -1.5553
 1938SOL     OW17446   4.182   2.377   6.730  0.7228  0.6728 -0.5142
 1938SOL    HW117447   4.207   2.381   6.637 -0.2036  0.6215 -0.7648
 1938SOL    HW217448   4.089   2.359   6.718  0.7319 -1.7753  3.2325
 1939SOL     OW17449   2.292   4.260   7.295 -0.0599 -0.2971 -0.0935
 1939SOL    HW117450   2.343   4.261   7.376 -0.7615  1.1878  0.3497
 1939SOL    HW217451   2.359   4.230   7.234 -0.4018  0.3412 -0.7838
 1940SOL     OW17452   0.303   2.255   5.392  0.0164  0.1139  0.5661
 1940SOL    HW117453   0.232   2.309   5.357 -1.3259  0.9557  4.5237
 1940SOL    HW217454   0.318   2.294   5.478 -2.9980 -0.3424  1.2808
 1941SOL     OW17455   1.892   2.011  16.570 -0.1848  0.7044  0.0114
 1941SOL    HW117456   1.855   1.935  16.616 -1.5802  1.5171  0.2218
 1941SOL    HW217457   1.983   2.003  16.599 -0.9112 -2.4046  1.4910
 1942SOL     OW17458   2.533   4.136   1.101 -0.6091  0.1087 -0.3483
 1942SOL    HW117459   2.587   4.160   1.177  1.7423 -2.0171 -1.3365
 1942SOL    HW217460   2.592   4.156   1.028 -1.8339 -0.6046 -1.5190
 1943SOL     OW17461   3.301   3.319   1.958 -0.4917 -0.5307 -0.3162
 1943SOL    HW117462   3.283   3.334   1.865  0.5195 -2.1825 -0.7950
 1943SOL    HW217463   3.220   3.272   1.978 -1.1875  0.9327  0.2967
 1944SOL     OW17464   1.973   0.158   2.089  0.1934  0.5591  0.3262
 1944SOL    HW117465   1.910   0.160   2.161  0.4048  2.7831  0.4465
 1944SOL    HW217466   1.939   0.091   2.029  2.2659  0.4009 -0.6467
 1945SOL     OW17467   2.179   4.166   6.117 -0.2170  0.1753  0.2205
 1945SOL    HW117468   2.231   4.245   6.131 -0.2344  0.4399 -1.2766
 1945SOL    HW217469   2.217   4.149   6.031 -0.5865 -1.3211  0.3505
 1946SOL     OW17470   0.295   0.255   3.345 -0.4875 -1.0433 -0.2244
 1946SOL    HW117471   0.317   0.167   3.314  1.6259 -0.7423  0.3929
 1946SOL    HW217472   0.301   0.251   3.440 -0.2992 -2.6929 -0.3068
 1947SOL     OW17473   4.435   0.932   6.686 -0.1845  0.4517  0.2871
 1947SOL    HW117474   4.479   0.972   6.761 -2.2376 -0.8928  2.1935
 1947SOL    HW217475   4.491   0.856   6.671  1.5785  1.4560  1.7898
 1948SOL     OW17476   2.454   4.414   5.696  0.1504  0.0393 -0.5687
 1948SOL    HW117477   2.497   4.485   5.744  0.8610 -0.0344 -1.0791
 1948SOL    HW217478   2.466   4.436   5.603  1.4775  2.5720  0.1883
 1949SOL     OW17479   0.703   2.343   7.878  0.5295 -0.3532  0.3178
 1949SOL    HW117480   0.706   2.258   7.834 -1.3094  0.1539 -0.7926
 1949SOL    HW217481   0.732   2.404   7.810  0.7412 -0.0530  0.6750
 1950SOL     OW17482   0.104   0.227   6.918  0.3220 -0.4538  0.3285
 1950SOL    HW117483   0.153   0.249   6.998  1.9817  0.9689 -1.0730
 1950SOL    HW217484   0.083   0.310   6.875 -2.3230 -0.4826  1.6092
 1951SOL     OW17485   2.825   0.635   9.855 -0.3110 -0.0038  0.3237
 1951SOL    HW117486   2.825   0.586   9.937  0.0521 -1.3024 -0.4525
 1951SOL    HW217487   2.750   0.614   9.799 -0.2938 -1.2121  0.7371
 1952SOL     OW17488   1.043   1.391   4.130  0.1593  0.2399  0.3134
 1952SOL    HW117489   0.967   1.348   4.168  0.7180 -1.5079 -0.5570
 1952SOL    HW217490   1.046   1.353   4.042 -0.4684 -0.8030  0.7460
 1953SOL     OW17491   1.026   3.272   0.988  0.4702 -0.3345  0.8755
 1953SOL    HW117492   1.062   3.307   0.906 -1.2167 -0.6953 -0.0153
 1953SOL    HW217493   1.016   3.350   1.041 -0.8456  0.7189 -0.9310
 1954SOL     OW17494   1.973   0.914   9.400  0.0720 -0.2663  0.2279
 1954SOL    HW117495   1.966   0.961   9.316 -2.1775  2.5642  1.9719
 1954SOL    HW217496   1.885   0.929   9.437 -0.0492 -3.3370  1.1117
 1955SOL     OW17497   1.008   2.018   5.913 -0.6103  0.7754 -0.1136
 1955SOL    HW117498   0.960   1.951   5.962  1.7257 -2.2764 -2.0254
 1955SOL    HW217499   1.060   2.061   5.981  2.0075 -0.3398 -1.4291
 1956SOL     OW17500   0.165   0.893   7.136 -0.4853  0.2143 -0.1216
 1956SOL    HW117501   0.182   0.818   7.192 -0.9283  0.8362  0.8524
 1956SOL    HW217502   0.105   0.949   7.185 -1.7651 -1.3691  0.0786
 1957SOL     OW17503   2.456   0.998   3.807 -0.1008 -0.1774  0.5470
 1957SOL    HW117504   2.419   0.910   3.795 -1.0151  0.1507  1.0214
 1957SOL    HW217505   2.551   0.984   3.816 -0.1504 -0.1557  1.0912
 1958SOL     OW17506   1.922   2.592   9.116 -0.5629  0.1489  0.2593
 1958SOL    HW117507   1.926   2.638   9.032  0.8565  3.0367  1.9273
 1958SOL    HW217508   1.837   2.547   9.117 -0.2828 -0.4293 -1.8322
 1959SOL     OW17509   3.821   0.895   8.201  0.1939  0.0570  0.3002
 1959SOL    HW117510   3.806   0.972   8.257 -0.5269 -0.3679  0.6893
 1959SOL    HW217511   3.737   0.850   8.209 -0.4760  1.4911  1.4570
 1960SOL     OW17512   3.873   2.356   7.661 -0.1556 -0.0839  0.1398
 1960SOL    HW117513   3.837   2.288   7.719  1.9836  0.1794  1.7792
 1960SOL    HW217514   3.962   2.324   7.647  0.2460  1.1982 -0.2094
 1961SOL     OW17515   0.584   4.398   2.389 -0.6314 -0.1494  0.0641
 1961SOL    HW117516   0.524   4.449   2.335  0.3105  0.9869  0.0984
 1961SOL    HW217517   0.665   4.417   2.342 -0.7422  0.9182  0.3014
 1962SOL     OW17518   0.975   2.961   3.051  0.2411 -0.2856 -0.1664
 1962SOL    HW117519   0.885   2.978   3.079  0.5131 -0.6545  0.9073
 1962SOL    HW217520   0.991   2.868   3.062 -0.7262 -0.2799  1.2233
 1963SOL     OW17521   2.353   2.458   4.368  0.7049 -0.1311  0.2577
 1963SOL    HW117522   2.302   2.386   4.331  1.7145  1.6675 -4.6728
 1963SOL    HW217523   2.289   2.528   4.383  1.9404  0.8014  1.2255
 1964SOL     OW17524   2.650   3.729   5.233 -0.3729 -0.3372  0.3239
 1964SOL    HW117525   2.695   3.645   5.233  3.6697  1.7925 -1.7614
 1964SOL    HW217526   2.722   3.792   5.222 -0.7518 -0.2839 -1.6708
 1965SOL     OW17527   0.757   0.941  11.593 -0.3241  0.2343  0.4299
 1965SOL    HW117528   0.849   0.920  11.608 -0.1113  0.7817 -0.0877
 1965SOL    HW217529   0.720   0.855  11.610 -0.2813  0.1010 -0.1629
 1966SOL     OW17530   3.191   3.296  10.154 -0.2089  0.0765  0.6168
 1966SOL    HW117531   3.244   3.375  10.142  0.2292 -0.3528 -0.2291
 1966SOL    HW217532   3.208   3.274  10.246  0.6104 -0.6577  0.2844
 1967SOL     OW17533   4.547   1.282   4.582  0.0111 -0.6728  0.2868
 1967SOL    HW117534   4.559   1.201   4.632 -1.8499 -1.6498 -0.8605
 1967SOL    HW217535   4.488   1.328   4.640  2.5368  0.7050  1.7789
 1968SOL     OW17536   2.790   3.993  17.092 -0.1538 -0.0498  0.0215
 1968SOL    HW117537   2.824   3.979  17.004  1.0974 -1.3506  0.7030
 1968SOL    HW217538   2.729   4.066  17.082  0.1738  0.2678  0.3374
 1969SOL     OW17539   0.344   1.263  12.499  0.5193  0.2100  0.0007
 1969SOL    HW117540   0.394   1.330  12.453  0.1805  0.0158 -0.6446
 1969SOL    HW217541   0.291   1.246  12.421 -0.1407  1.3752  0.1967
 1970SOL     OW17542   3.653   0.125   0.800 -0.0253  0.2743  0.0574
 1970SOL    HW117543   3.697   0.115   0.715  2.9103 -0.8081  1.7162
 1970SOL    HW217544   3.707   0.072   0.858 -0.7581  0.3660  0.8168
 1971SOL     OW17545   0.018   1.976   7.056  0.8507  0.2627 -0.4850
 1971SOL    HW117546   0.043   2.000   6.967  1.2457 -1.4983 -0.8490
 1971SOL    HW217547   0.063   1.892   7.064 -3.9433 -2.2874 -0.0933
 1972SOL     OW17548   3.249   0.364   7.049 -0.3355 -0.0916 -0.4897
 1972SOL    HW117549   3.263   0.372   6.955 -0.4666 -2.5267 -0.7098
 1972SOL    HW217550   3.160   0.393   7.068  1.3079  3.2928  2.1521
 1973SOL     OW17551   3.826   0.537   4.071 -0.4225 -0.0741  0.2205
 1973SOL    HW117552   3.784   0.511   4.153  0.7185 -0.3361  0.7255
 1973SOL    HW217553   3.773   0.612   4.046  1.1656  0.1933 -2.2892
 1974SOL     OW17554   4.585   3.718  16.892 -0.0134 -0.5985  0.2665
 1974SOL    HW117555   4.554   3.655  16.957 -0.5622 -0.1526  0.4365
 1974SOL    HW217556   4.554   3.677  16.812  0.3611 -2.1403  0.9073
 1975SOL     OW17557   3.981   4.099   7.952 -0.0545 -0.6010  0.1808
 1975SOL    HW117558   4.003   4.009   7.973  0.9363  0.2276  2.8369
 1975SOL    HW217559   3.979   4.092   7.857  0.2932  2.5646 -0.0736
 1976SOL     OW17560   0.957   3.484   5.495  0.1714  0.3785  0.4328
 1976SOL    HW117561   1.039   3.490   5.545 -0.3328  1.1430  1.1834
 1976SOL    HW217562   0.977   3.550   5.428  0.3824  1.5324  1.6229
 1977SOL     OW17563   4.459   2.298  17.494  0.3065  0.1238 -0.2494
 1977SOL    HW117564   4.433   2.260  17.578  0.4600  0.2675 -0.1371
 1977SOL    HW217565   4.485   2.223  17.440 -2.0800 -0.4491 -0.5956
 1978SOL     OW17566   4.073   3.807   7.750 -0.1331 -0.3897 -0.0525
 1978SOL    HW117567   4.084   3.794   7.845 -1.5047  0.1437  0.1755
 1978SOL    HW217568   4.036   3.895   7.740 -0.3668 -0.3164  1.4189
 1979SOL     OW17569   0.899   4.004   7.217  0.5433 -0.2038  0.3889
 1979SOL    HW117570   0.935   3.974   7.300  0.1075  1.2836  1.1156
 1979SOL    HW217571   0.884   3.919   7.176  1.6378  0.4420 -1.3610
 1980SOL     OW17572   0.755   1.500   5.328  0.3318  0.6582  0.8838
 1980SOL    HW117573   0.706   1.572   5.287 -0.3687  0.5847  1.5808
 1980SOL    HW217574   0.679   1.449   5.358  1.0006 -1.6813 -1.4019
 1981SOL     OW17575   3.649   4.009   0.963  0.7226 -0.2603 -0.3935
 1981SOL    HW117576   3.670   4.088   1.014 -1.4572 -0.1053  0.2861
 1981SOL    HW217577   3.636   4.036   0.873  1.0231  0.7489 -0.1341
 1982SOL     OW17578   3.230   1.471   2.357 -0.2272  0.5275 -0.1204
 1982SOL    HW117579   3.194   1.431   2.278 -1.0428  2.3674 -0.6770
 1982SOL    HW217580   3.284   1.533   2.308  1.3293 -0.8782 -0.1976
 1983SOL     OW17581   0.164   3.460  14.369  0.7937 -0.5101 -0.4450
 1983SOL    HW117582   0.081   3.476  14.323  1.3415  0.6455 -1.0498
 1983SOL    HW217583   0.164   3.377  14.415 -0.3462 -1.5597 -2.3326
 1984SOL     OW17584   0.008   2.910   5.972 -0.9157 -0.0882 -0.3144
 1984SOL    HW117585   4.712   2.893   6.059 -0.5843 -0.8535 -0.3338
 1984SOL    HW217586   0.100   2.897   5.993 -1.0324  2.6786  1.8501
 1985SOL     OW17587   4.234   1.951   4.436 -0.0839 -0.3557 -0.3793
 1985SOL    HW117588   4.167   1.902   4.485 -1.0312  2.5367  1.2049
 1985SOL    HW217589   4.183   2.021   4.396 -0.7904 -0.3731  0.4884
 1986SOL     OW17590   3.327   2.293   3.614  0.1178 -0.3395 -0.1386
 1986SOL    HW117591   3.298   2.267   3.701 -1.0564  1.5241  0.0325
 1986SOL    HW217592   3.316   2.215   3.560  0.4256 -1.8139  1.9374
 1987SOL     OW17593   0.963   2.297  11.663 -0.3774 -0.2460 -0.1763
 1987SOL    HW117594   1.023   2.370  11.672  0.8563 -1.4595  1.3781
 1987SOL    HW217595   0.984   2.277  11.571 -0.1388 -0.8717  0.0122
 1988SOL     OW17596   0.514   0.658   3.584 -0.2512 -0.6163 -0.2852
 1988SOL    HW117597   0.454   0.653   3.510  1.0266 -0.3226 -1.3513
 1988SOL    HW217598   0.566   0.579   3.568  2.0683  0.8813 -0.2238
 1989SOL     OW17599   2.958   1.893   3.734 -0.4176 -0.7103  0.0156
 1989SOL    HW117600   2.934   1.803   3.709 -0.9858 -1.0570  1.8521
 1989SOL    HW217601   2.876   1.935   3.707  0.7287  0.4365 -1.6691
 1990SOL     OW17602   0.433   2.675   5.830  0.5962  0.5763  0.1613
 1990SOL    HW117603   0.359   2.630   5.871  1.0298  0.2797  0.6137
 1990SOL    HW217604   0.502   2.638   5.884  1.1041  0.6706 -0.4228
 1991SOL     OW17605   0.729   3.463   0.344  0.7428  0.4166  0.0349
 1991SOL    HW117606   0.639   3.493   0.331  1.4065  3.2169  1.9136
 1991SOL    HW217607   0.743   3.476   0.438 -0.6397  0.5670  0.2223
 1992SOL     OW17608   4.097   4.012   4.570  0.3217 -0.3125  0.0961
 1992SOL    HW117609   4.055   3.949   4.628  0.0762  1.1822  1.5264
 1992SOL    HW217610   4.100   4.089   4.627 -0.7258  0.2754 -0.6332
 1993SOL     OW17611   1.254   4.542   6.830  0.1975 -0.1220  0.2789
 1993SOL    HW117612   1.181   4.602   6.817 -0.9577 -2.0493 -1.9504
 1993SOL    HW217613   1.255   4.529   6.925 -1.5633 -2.2827  0.0010
 1994SOL     OW17614   1.318   4.142  14.468  0.0575 -0.0607  0.5402
 1994SOL    HW117615   1.359   4.058  14.485  0.6256  0.3769  1.3510
 1994SOL    HW217616   1.393   4.199  14.487  0.2601 -0.2825  0.4006
 1995SOL     OW17617   1.701   0.603   2.917  0.2864  0.8393 -0.2303
 1995SOL    HW117618   1.729   0.526   2.866  0.4749  0.1466  0.9177
 1995SOL    HW217619   1.617   0.612   2.873  0.1510 -0.9052 -0.3318
 1996SOL     OW17620   2.473   2.043   6.192  0.3012  0.1108 -0.4867
 1996SOL    HW117621   2.549   2.016   6.245  1.2017  1.8043 -0.9129
 1996SOL    HW217622   2.512   2.127   6.167 -0.9365 -0.2723 -3.6971
 1997SOL     OW17623   3.915   1.926  16.361 -0.5145 -0.4303 -0.7764
 1997SOL    HW117624   3.995   1.946  16.313 -1.1772  1.8119 -0.9233
 1997SOL    HW217625   3.923   1.971  16.445  0.8270 -3.2872  0.6505
 1998SOL     OW17626   1.161   0.313   7.264 -0.4115  0.2748  0.1540
 1998SOL    HW117627   1.109   0.263   7.201  1.4889  0.3452 -1.4593
 1998SOL    HW217628   1.250   0.290   7.239 -0.9790 -2.2359  0.4253
 1999SOL     OW17629   3.341   0.254   6.464  0.5718 -0.7109 -0.6649
 1999SOL    HW117630   3.265   0.196   6.473  0.1121 -0.3095 -1.9362
 1999SOL    HW217631   3.401   0.198   6.414 -1.2233 -2.3068 -1.0506
 2000SOL     OW17632   3.292   3.972   1.215 -0.1965 -0.1191  0.1514
 2000SOL    HW117633   3.273   3.919   1.292 -0.2955 -0.7925 -0.3322
 2000SOL    HW217634   3.227   4.042   1.224 -0.5996 -0.6773  1.4557
 2001SOL     OW17635   0.175   0.986   3.158  0.2028 -0.0711  0.4509
 2001SOL    HW117636   0.148   0.940   3.238  0.9804  0.3340  0.9502
 2001SOL    HW217637   0.215   1.064   3.197 -1.3663 -0.2272  2.4272
 2002SOL     OW17638   0.391   1.023   6.394 -0.4046  0.0970 -0.5166
 2002SOL    HW117639   0.372   1.027   6.488 -2.4197  2.7754 -1.0655
 2002SOL    HW217640   0.332   0.955   6.363  1.1253 -0.3186 -2.5578
 2003SOL     OW17641   1.784   3.083  14.460 -0.6519 -0.0363  0.3382
 2003SOL    HW117642   1.784   3.027  14.537  1.6322 -2.0859 -1.1661
 2003SOL    HW217643   1.866   3.076  14.410 -1.6394 -0.9314 -1.1833
 2004SOL     OW17644   2.027   3.376   7.155 -0.0973  0.3011  0.8702
 2004SOL    HW117645   1.973   3.316   7.207 -1.2806 -0.7210 -1.5375
 2004SOL    HW217646   1.969   3.451   7.169 -0.9789  0.0285 -1.4424
 2005SOL     OW17647   0.064   1.470   7.919 -0.2836 -0.3865 -0.2273
 2005SOL    HW117648   0.158   1.465   7.905 -0.4572  1.0637 -1.9428
 2005SOL    HW217649   0.055   1.423   8.002  0.6552 -0.0892  0.0393
 2006SOL     OW17650   0.485   3.696   1.867  0.3687 -0.6545  0.3593
 2006SOL    HW117651   0.544   3.765   1.836 -1.5353  0.7373 -0.1999
 2006SOL    HW217652   0.406   3.711   1.814  1.0421  0.4642 -0.3239
 2007SOL     OW17653   2.627   2.310  10.346  0.4677  0.7515  0.1070
 2007SOL    HW117654   2.534   2.315  10.368  0.5187  0.1291  0.4763
 2007SOL    HW217655   2.632   2.228  10.395 -1.5234  0.4975 -0.1061
 2008SOL     OW17656   1.830   0.431  10.137 -0.1185  0.2304  0.1107
 2008SOL    HW117657   1.871   0.386  10.210 -0.7383 -0.0260  0.3027
 2008SOL    HW217658   1.832   0.524  10.161 -1.4672  0.1406  0.5907
 2009SOL     OW17659   1.861   3.290   3.033 -0.1134 -0.3813 -0.1689
 2009SOL    HW117660   1.859   3.255   3.123  1.7805  0.1682  0.0848
 2009SOL    HW217661   1.870   3.383   3.056 -0.6325 -0.5464  0.7076
 2010SOL     OW17662   0.318   2.475   6.013 -0.7045  0.0619  0.0259
 2010SOL    HW117663   0.296   2.413   5.943  0.2843  1.8184 -1.8120
 2010SOL    HW217664   0.241   2.472   6.070 -1.9072  2.7855 -1.4474
 2011SOL     OW17665   1.146   4.192  13.004 -0.0676 -0.2429  0.6644
 2011SOL    HW117666   1.204   4.160  13.073  0.6526  0.4595  0.3794
 2011SOL    HW217667   1.109   4.271  13.044  0.7668 -0.3068  1.5767
 2012SOL     OW17668   0.370   3.821   1.649  0.1756 -0.0963  0.0932
 2012SOL    HW117669   0.458   3.860   1.649  0.7223 -1.2956  2.9780
 2012SOL    HW217670   0.315   3.895   1.674 -1.5014 -1.8111  1.4727
 2013SOL     OW17671   4.311   0.604   8.178 -0.0170 -0.6103  0.1050
 2013SOL    HW117672   4.248   0.632   8.244  0.3310 -0.0959  0.2157
 2013SOL    HW217673   4.341   0.528   8.228  0.6380  0.2148  0.9711
 2014SOL     OW17674   2.808   3.989  16.808  0.0749 -0.4098  0.7250
 2014SOL    HW117675   2.714   4.006  16.817  0.2911 -0.6054  3.2739
 2014SOL    HW217676   2.802   3.900  16.774  1.0886 -0.1027 -0.2523
 2015SOL     OW17677   2.766   0.888   7.398 -0.2223  0.8222 -0.4084
 2015SOL    HW117678   2.839   0.899   7.337 -0.5828 -2.1760 -1.3657
 2015SOL    HW217679   2.722   0.825   7.341 -1.3034  2.1905 -1.0892
 2016SOL     OW17680   1.183   3.655  15.112 -0.2510  0.3458 -0.1548
 2016SOL    HW117681   1.207   3.684  15.024  1.0246  0.6899  0.3106
 2016SOL    HW217682   1.262   3.694  15.150 -0.7305 -0.5358  1.6927
 2017SOL     OW17683   2.328   3.854   2.953 -0.1386  0.9700 -0.0827
 2017SOL    HW117684   2.397   3.814   3.005  0.3790 -0.7872 -2.1020
 2017SOL    HW217685   2.352   3.823   2.865  0.1573  0.3504  0.2155
 2018SOL     OW17686   0.936   1.211   4.817  0.2740 -0.1544 -0.1425
 2018SOL    HW117687   0.843   1.231   4.807  0.5393  1.4488  0.6096
 2018SOL    HW217688   0.958   1.149   4.748  1.7319  0.5330 -0.2905
 2019SOL     OW17689   2.579   1.725   4.632  0.1387 -0.0344 -0.3175
 2019SOL    HW117690   2.604   1.791   4.568  2.4424 -3.0348 -2.4790
 2019SOL    HW217691   2.575   1.769   4.717 -0.6046 -2.8591  1.1286
 2020SOL     OW17692   3.549   1.712  11.892 -0.2083  0.4277 -0.4421
 2020SOL    HW117693   3.496   1.779  11.850  0.9482  0.8348 -1.2677
 2020SOL    HW217694   3.561   1.643  11.827 -0.4551 -0.0434  0.0101
 2021SOL     OW17695   4.186   0.071   7.395  0.0148  0.2702  0.1399
 2021SOL    HW117696   4.131   0.056   7.318 -1.3776  0.8382  1.0097
 2021SOL    HW217697   4.254   0.005   7.382  0.4485  1.1839 -2.2279
 2022SOL     OW17698   3.277   2.510   9.016 -0.3775  0.3736 -0.4891
 2022SOL    HW117699   3.365   2.492   8.982 -0.1774  1.3564 -0.4820
 2022SOL    HW217700   3.217   2.490   8.945 -0.8476  1.6261 -0.4382
 2023SOL     OW17701   3.282   3.711   8.681  0.3154 -0.3671  0.0025
 2023SOL    HW117702   3.222   3.666   8.621 -2.3722 -0.2157  2.5396
 2023SOL    HW217703   3.316   3.782   8.626  1.0302 -1.2998 -0.7569
 2024SOL     OW17704   4.665   1.588  13.434 -0.2303 -0.1540 -0.5264
 2024SOL    HW117705   4.730   1.599  13.364  1.5917  3.6778  1.7610
 2024SOL    HW217706   4.663   1.493  13.441  1.5768 -0.0345  1.8629
 2025SOL     OW17707   2.007   0.994   5.959  0.8539  0.5860  0.1471
 2025SOL    HW117708   1.924   1.008   5.914  0.0482 -0.3757  1.3283
 2025SOL    HW217709   1.971   0.959   6.041 -0.9900 -0.0178 -0.9434
 2026SOL     OW17710   4.230   2.107   8.664  0.0467  0.1884  0.0280
 2026SOL    HW117711   4.188   2.020   8.662 -0.5124  0.4001  2.1598
 2026SOL    HW217712   4.311   2.084   8.709 -0.0234 -1.6555 -0.7680
 2027SOL     OW17713   2.003   4.634   8.538  0.6692  0.2589 -0.4427
 2027SOL    HW117714   2.075   4.597   8.487  0.9762 -0.3464  0.4111
 2027SOL    HW217715   1.949   4.675   8.471 -1.4185 -1.2073  0.3605
 2028SOL     OW17716   0.697   1.845   0.987 -0.1147  0.1028 -0.5174
 2028SOL    HW117717   0.619   1.886   1.026 -0.0981 -0.2713 -0.0816
 2028SOL    HW217718   0.757   1.916   1.005 -0.4416  0.1161  0.5239
 2029SOL     OW17719   2.172   4.266   8.033 -0.3601 -0.3924 -0.8376
 2029SOL    HW117720   2.122   4.200   8.082  0.7463  0.2360  1.1488
 2029SOL    HW217721   2.256   4.223   8.016  0.0363  0.6826 -1.6133
 2030SOL     OW17722   1.831   2.675  16.677 -0.5099  0.0027  0.5588
 2030SOL    HW117723   1.768   2.687  16.605  3.0220  0.9005 -2.3851
 2030SOL    HW217724   1.909   2.729  16.664  0.2055 -1.3049 -0.5747
 2031SOL     OW17725   0.564   0.869   4.121 -0.0688  0.5179  0.4501
 2031SOL    HW117726   0.638   0.874   4.060 -0.2191 -0.5766  0.1729
 2031SOL    HW217727   0.508   0.940   4.091 -0.8471 -0.4915 -0.4900
 2032SOL     OW17728   1.060   2.621   8.073  0.3622 -0.3026  0.1250
 2032SOL    HW117729   1.136   2.601   8.019 -0.1282 -0.6716 -0.4327
 2032SOL    HW217730   1.094   2.692   8.126 -1.3841 -1.0103  2.1792
 2033SOL     OW17731   0.573   3.115  16.849  0.4468  0.5049  0.4231
 2033SOL    HW117732   0.579   3.186  16.784  2.1836  0.7711  0.8762
 2033SOL    HW217733   0.634   3.049  16.817  3.0425  2.3246  1.5651
 2034SOL     OW17734   0.871   2.481   9.455  0.4116  0.0225  0.4295
 2034SOL    HW117735   0.916   2.494   9.372  0.5841  1.1824  0.7101
 2034SOL    HW217736   0.891   2.565   9.497 -0.4317  0.0387  0.8008
 2035SOL     OW17737   0.800   0.521   1.948 -0.0186  0.0072  0.3497
 2035SOL    HW117738   0.775   0.596   2.002 -0.3307 -0.1842  0.4657
 2035SOL    HW217739   0.716   0.491   1.914  0.8631 -2.5978  0.4962
 2036SOL     OW17740   3.980   2.649  11.765 -0.2188  0.4351 -0.2121
 2036SOL    HW117741   3.946   2.620  11.850 -3.3330  0.7949 -1.3268
 2036SOL    HW217742   3.990   2.743  11.777 -2.8444  0.4504  1.7754
 2037SOL     OW17743   0.791   0.939   0.018 -0.0814  0.2696  0.1452
 2037SOL    HW117744   0.834   0.984   0.090  0.9108 -2.6025  1.3564
 2037SOL    HW217745   0.861   0.887  17.730 -0.4982 -0.4691  0.3621
 2038SOL     OW17746   3.516   1.079   1.842 -0.0896 -0.1537  0.5662
 2038SOL    HW117747   3.598   1.043   1.875 -0.1101 -1.5693 -0.8993
 2038SOL    HW217748   3.506   1.152   1.903  1.0807  2.0348 -1.8250
 2039SOL     OW17749   2.900   2.208   3.714  0.6976  0.1164 -0.6721
 2039SOL    HW117750   2.982   2.186   3.669  1.4770  0.7598  0.4415
 2039SOL    HW217751   2.873   2.285   3.663 -2.3266 -1.5906 -1.6722
 2040SOL     OW17752   1.594   1.706   5.117 -0.5693 -0.4130  0.6708
 2040SOL    HW117753   1.615   1.799   5.105  1.4553 -0.6704  2.1160
 2040SOL    HW217754   1.515   1.693   5.065  0.7475 -0.3929 -1.3528
 2041SOL     OW17755   2.278   3.862   7.411  0.0272 -0.3827  0.2393
 2041SOL    HW117756   2.275   3.769   7.434 -0.2226 -0.2694  0.6662
 2041SOL    HW217757   2.306   3.857   7.319  0.9911  0.6937  0.4820
 2042SOL     OW17758   1.211   3.900   3.011 -0.2873 -0.2618  0.0079
 2042SOL    HW117759   1.163   3.842   3.069 -1.7734 -0.9375 -1.9021
 2042SOL    HW217760   1.144   3.948   2.961 -0.8534 -0.9310  0.1236
 2043SOL     OW17761   0.842   4.237  10.823 -0.0833 -0.4264  0.2911
 2043SOL    HW117762   0.858   4.165  10.884 -0.9622 -0.3489  0.6251
 2043SOL    HW217763   0.747   4.248  10.835 -0.7366 -3.1340 -2.2869
 2044SOL     OW17764   4.603   3.489   4.502 -0.2425 -0.0295  0.3035
 2044SOL    HW117765   4.695   3.494   4.476 -0.6674  1.4961 -0.9058
 2044SOL    HW217766   4.585   3.583   4.490 -1.4362 -0.4279 -0.9299
 2045SOL     OW17767   0.596   0.588   8.584  0.2336  0.0546  0.1862
 2045SOL    HW117768   0.681   0.626   8.561  0.9805 -1.0680  1.0633
 2045SOL    HW217769   0.607   0.518   8.648  0.9095 -0.5723 -0.5980
 2046SOL     OW17770   3.054   4.302   8.185 -0.6495  0.1420  0.1894
 2046SOL    HW117771   3.078   4.393   8.198 -0.9407  0.2400  0.0405
 2046SOL    HW217772   3.018   4.299   8.097  0.2915  0.0780 -0.1953
 2047SOL     OW17773   3.322   3.285   2.941  0.0204 -0.2489 -0.0594
 2047SOL    HW117774   3.296   3.226   2.870 -1.9618  0.0459  0.4228
 2047SOL    HW217775   3.396   3.326   2.895 -0.1763  1.0874  0.8483
 2048SOL     OW17776   2.320   1.208   3.950  0.7066  0.2068 -0.4865
 2048SOL    HW117777   2.240   1.186   3.998  0.0208  2.4783 -0.5646
 2048SOL    HW217778   2.364   1.125   3.934  0.4074 -0.1765  0.7029
 2049SOL     OW17779   3.612   0.302   4.718 -0.0963 -0.1811  0.0359
 2049SOL    HW117780   3.630   0.215   4.684  1.0010 -0.2297  0.7432
 2049SOL    HW217781   3.519   0.310   4.698  0.2336  1.1668 -0.9411
 2050SOL     OW17782   0.595   2.687  17.708  0.3253 -0.3272 -0.2247
 2050SOL    HW117783   0.565   2.711   0.044  0.9154  0.9366 -0.3749
 2050SOL    HW217784   0.639   2.769  17.686 -0.3584  1.0508  3.5242
 2051SOL     OW17785   0.028   0.832  14.662 -0.1657 -0.4259 -0.4812
 2051SOL    HW117786   0.066   0.815  14.576  0.0918  0.6199 -0.5720
 2051SOL    HW217787   4.708   0.757  14.651 -2.7618  1.1925  2.1732
 2052SOL     OW17788   1.158   4.610   9.366 -0.2480  0.2774 -0.3666
 2052SOL    HW117789   1.236   4.591   9.315 -1.1321 -0.4918 -1.4508
 2052SOL    HW217790   1.129   4.672   9.299 -0.3994 -0.3382 -0.8753
 2053SOL     OW17791   3.815   4.477   3.043 -0.1597 -0.3575 -0.0326
 2053SOL    HW117792   3.902   4.439   3.046  1.0393  2.1936 -2.7766
 2053SOL    HW217793   3.784   4.447   3.128 -0.0300  1.7099  0.7314
 2054SOL     OW17794   1.601   4.250  14.843 -0.4515 -0.1206 -0.3668
 2054SOL    HW117795   1.629   4.165  14.877 -1.0731 -0.7248 -1.3560
 2054SOL    HW217796   1.682   4.289  14.810 -1.4827  2.0721 -0.2693
 2055SOL     OW17797   3.876   1.159   4.299  0.2069  0.4622 -0.4202
 2055SOL    HW117798   3.932   1.175   4.223 -2.1886 -0.1781 -2.3614
 2055SOL    HW217799   3.793   1.180   4.256 -1.0904  2.2959  3.0335
 2056SOL     OW17800   4.258   0.392  11.074 -0.0982  0.3107  0.3767
 2056SOL    HW117801   4.311   0.407  11.153  0.6324  1.5856 -0.3487
 2056SOL    HW217802   4.287   0.302  11.059 -1.3705  0.1590 -1.1148
 2057SOL     OW17803   4.440   2.747  13.781  0.5063 -0.1716  0.1338
 2057SOL    HW117804   4.484   2.764  13.698  1.9782  1.2199  1.2005
 2057SOL    HW217805   4.482   2.801  13.848  0.0849  1.0496 -0.6029
 2058SOL     OW17806   1.933   3.623   3.474 -0.2154 -0.0799  0.7803
 2058SOL    HW117807   1.900   3.582   3.555 -0.3916 -1.6374 -0.0709
 2058SOL    HW217808   2.021   3.584   3.469 -0.5881 -0.8391  0.0936
 2059SOL     OW17809   3.194   2.595   1.250 -0.6747  0.3167 -0.2053
 2059SOL    HW117810   3.234   2.645   1.321 -0.8905 -1.4200  1.1313
 2059SOL    HW217811   3.203   2.656   1.177 -0.0282  1.5026  0.8821
 2060SOL     OW17812   3.471   3.605  17.484 -0.0263  0.2328  0.6685
 2060SOL    HW117813   3.500   3.538  17.422 -0.6647 -0.0098  0.6297
 2060SOL    HW217814   3.432   3.672  17.428  2.2996  0.2442 -0.9389
 2061SOL     OW17815   4.583   4.501   3.018 -0.1347  0.1664  0.0971
 2061SOL    HW117816   4.529   4.525   2.943  0.9512 -0.6904 -0.9638
 2061SOL    HW217817   4.571   4.579   3.071  0.3482  0.7143 -0.6116
 2062SOL     OW17818   2.699   2.277  10.076  0.1933  0.2333  0.0049
 2062SOL    HW117819   2.690   2.300  10.169 -0.6728  0.5048 -0.1454
 2062SOL    HW217820   2.765   2.210  10.093  0.2878  0.8148  1.9312
 2063SOL     OW17821   2.877   0.190   5.077 -0.2752 -0.3430 -0.0577
 2063SOL    HW117822   2.872   0.283   5.101 -0.0587 -0.1796 -0.6441
 2063SOL    HW217823   2.818   0.194   5.002  1.9876 -0.0597 -1.8342
 2064SOL     OW17824   1.491   4.121  16.383  0.2574 -0.0821 -0.4746
 2064SOL    HW117825   1.569   4.069  16.366  1.2137  2.0578 -2.6372
 2064SOL    HW217826   1.451   4.058  16.443  1.0792  0.7641  0.9807
 2065SOL     OW17827   4.005   2.946  17.475  0.3431 -0.2236 -0.1264
 2065SOL    HW117828   3.969   3.006  17.540  1.4047  1.3480 -0.9818
 2065SOL    HW217829   4.012   2.863  17.522  0.1273 -0.7400 -1.0118
 2066SOL     OW17830   3.327   2.466   2.173  0.9546  0.4241 -0.8063
 2066SOL    HW117831   3.405   2.423   2.139  1.6564  0.6814  0.5156
 2066SOL    HW217832   3.368   2.507   2.249  0.1918  0.5238 -0.4426
 2067SOL     OW17833   3.528   3.708   7.271  0.0393 -0.4119  0.2731
 2067SOL    HW117834   3.588   3.767   7.316 -0.0692 -0.7411  0.8589
 2067SOL    HW217835   3.571   3.686   7.189 -0.5978 -2.2011  0.3953
 2068SOL     OW17836   3.387   4.218   7.840 -0.4775  0.0443  0.1884
 2068SOL    HW117837   3.348   4.304   7.824 -1.2872 -0.0738  1.5069
 2068SOL    HW217838   3.341   4.189   7.919 -2.6363  0.3827 -0.9725
 2069SOL     OW17839   1.109   0.089   0.370  0.0935 -0.3356  0.0841
 2069SOL    HW117840   1.188   0.121   0.412 -0.5354  0.3479  0.7509
 2069SOL    HW217841   1.127   4.735   0.354 -0.9369 -0.3032 -1.2407
 2070SOL     OW17842   0.604   0.494   7.592  0.7341 -0.2866 -0.1195
 2070SOL    HW117843   0.546   0.546   7.536 -0.3813 -0.8516  0.5099
 2070SOL    HW217844   0.571   0.519   7.678  1.8448 -1.2850  0.5866
 2071SOL     OW17845   0.795   1.615   2.455  0.6104 -0.1998 -0.0906
 2071SOL    HW117846   0.708   1.610   2.494  0.9955  2.0490  1.0860
 2071SOL    HW217847   0.798   1.696   2.402  1.2746  0.1337  0.4556
 2072SOL     OW17848   4.486   3.648   5.314  1.1939  0.1277 -0.7632
 2072SOL    HW117849   4.397   3.673   5.289 -0.3452 -1.7953  2.7978
 2072SOL    HW217850   4.526   3.734   5.309 -1.2875  1.2484 -1.3066
 2073SOL     OW17851   0.046   2.796  11.432 -0.1404 -0.5179  0.0220
 2073SOL    HW117852   0.091   2.853  11.370  1.4191  0.1132  1.7491
 2073SOL    HW217853   0.009   2.733  11.370 -0.0465 -0.3066 -0.2509
 2074SOL     OW17854   2.164   2.290   7.214 -0.9529  0.3601 -0.3310
 2074SOL    HW117855   2.192   2.202   7.241 -1.7704  0.7037  1.6833
 2074SOL    HW217856   2.199   2.306   7.127  0.4589  1.3419  0.4185
 2075SOL     OW17857   2.579   1.029   8.546 -0.4363 -0.0077 -0.6261
 2075SOL    HW117858   2.646   1.070   8.601 -1.3449  1.1108 -0.3489
 2075SOL    HW217859   2.504   1.016   8.603 -0.7423  0.0876 -1.0067
 2076SOL     OW17860   4.340   1.967   8.121 -0.4211  0.1625 -0.1969
 2076SOL    HW117861   4.293   1.961   8.205  0.1311  2.7229  0.3021
 2076SOL    HW217862   4.430   1.954   8.149 -0.0217  3.0879 -0.0876
 2077SOL     OW17863   3.562   1.784   9.338 -0.6002 -0.2995  0.0113
 2077SOL    HW117864   3.603   1.796   9.423 -0.7558 -1.7016  0.2890
 2077SOL    HW217865   3.497   1.853   9.352  1.9792  2.1406 -0.1051
 2078SOL     OW17866   3.927   4.418   6.930  0.3013 -0.4668  0.2182
 2078SOL    HW117867   3.961   4.447   7.015 -0.2576 -0.4574  0.4384
 2078SOL    HW217868   4.006   4.384   6.889  1.0642  0.5743  0.7844
 2079SOL     OW17869   3.222   0.312  10.042 -0.2701 -0.2554  0.3327
 2079SOL    HW117870   3.209   0.386  10.101  0.3888  0.4019 -0.3417
 2079SOL    HW217871   3.232   0.339   9.950  1.0415 -1.5020  0.1114
 2080SOL     OW17872   3.744   2.726  11.457  0.6680  0.0564 -0.6088
 2080SOL    HW117873   3.681   2.679  11.512  0.4738 -0.3065 -1.1511
 2080SOL    HW217874   3.807   2.658  11.434 -0.9635 -1.0720 -1.7355
 2081SOL     OW17875   2.901   0.822   9.264  0.3963 -0.7439 -0.6173
 2081SOL    HW117876   2.852   0.766   9.205 -1.0888  1.2364 -1.2810
 2081SOL    HW217877   2.839   0.891   9.290  1.8614  0.4197 -0.1733
 2082SOL     OW17878   0.325   3.332   1.815 -0.0215 -0.3594 -0.0394
 2082SOL    HW117879   0.411   3.330   1.855 -0.4611 -1.6440  0.8506
 2082SOL    HW217880   0.284   3.260   1.864 -0.4815  1.1560  1.8083
 2083SOL     OW17881   1.167   3.577   1.790 -0.2762 -0.2387  0.1463
 2083SOL    HW117882   1.096   3.513   1.780 -0.0233 -0.3143 -1.0767
 2083SOL    HW217883   1.242   3.519   1.779 -1.0340 -0.8109 -1.9587
 2084SOL     OW17884   1.570   0.807   2.039  0.0070  0.0275  0.0797
 2084SOL    HW117885   1.637   0.854   2.088 -0.7007  2.4991 -1.3122
 2084SOL    HW217886   1.489   0.844   2.075  0.1940  1.3905 -0.9049
 2085SOL     OW17887   0.263   4.253   7.561 -0.0720 -0.5940 -0.2173
 2085SOL    HW117888   0.280   4.180   7.620 -1.0047 -0.4778  0.1869
 2085SOL    HW217889   0.172   4.242   7.536  0.0660  0.5663 -1.2499
 2086SOL     OW17890   2.991   0.115  12.566 -0.5039  0.1822 -0.4443
 2086SOL    HW117891   2.932   0.169  12.514 -0.5133  2.0847  1.5125
 2086SOL    HW217892   3.037   0.183  12.615 -3.9114  1.3024  1.2090
 2087SOL     OW17893   1.079   1.398   2.544 -0.0348 -0.0614 -0.0098
 2087SOL    HW117894   1.058   1.480   2.589 -1.0669 -0.2105 -0.2199
 2087SOL    HW217895   0.999   1.346   2.546  1.7449 -2.7560  0.6683
 2088SOL     OW17896   4.584   1.296   8.477  0.5516  0.3280  0.3148
 2088SOL    HW117897   4.548   1.346   8.404 -3.1444  1.0847  2.6702
 2088SOL    HW217898   4.635   1.364   8.521  0.0902 -0.0987  1.5223
 2089SOL     OW17899   1.463   2.809  10.983  0.2947  0.1496  0.6685
 2089SOL    HW117900   1.544   2.791  10.934 -0.9229  0.1370 -1.3252
 2089SOL    HW217901   1.396   2.790  10.917  0.7844  0.7089  0.0110
 2090SOL     OW17902   4.084   2.610   3.270  0.2449  0.6514 -0.7235
 2090SOL    HW117903   4.087   2.559   3.351  0.6387  0.8810 -0.5937
 2090SOL    HW217904   4.001   2.573   3.240  0.6694 -2.4354  1.9466
 2091SOL     OW17905   3.490   4.421   3.283 -0.3288 -0.3656  0.7157
 2091SOL    HW117906   3.430   4.451   3.351  0.0849  1.3256  0.3307
 2091SOL    HW217907   3.454   4.333   3.274  1.9803 -1.2991  0.7950
 2092SOL     OW17908   3.196   4.661   2.945  0.1168  0.2250 -0.2471
 2092SOL    HW117909   3.143   4.670   3.024  1.6496  1.7715  0.6002
 2092SOL    HW217910   3.191   0.011   2.908 -0.9788  0.7371  1.1171
 2093SOL     OW17911   3.028   2.124   9.822  0.2034  0.2697  0.6423
 2093SOL    HW117912   3.003   2.035   9.846 -0.8886  0.8903  1.8046
 2093SOL    HW217913   3.077   2.131   9.904  0.5368 -1.4984  0.5900
 2094SOL     OW17914   3.399   0.741   7.520 -0.0834  0.0913  0.5200
 2094SOL    HW117915   3.438   0.757   7.606  0.2513 -2.2258  0.8089
 2094SOL    HW217916   3.304   0.736   7.529 -0.2226  1.9709 -0.0333
 2095SOL     OW17917   2.206   0.249   7.302  0.2966 -0.9544 -0.0267
 2095SOL    HW117918   2.159   0.314   7.354  0.5322 -2.2948  1.8692
 2095SOL    HW217919   2.294   0.258   7.340  1.3614 -1.4372 -2.3788
 2096SOL     OW17920   3.412   2.828   9.065  0.3789  0.0784 -0.0125
 2096SOL    HW117921   3.458   2.891   9.121 -0.2337 -0.3266  0.9597
 2096SOL    HW217922   3.430   2.749   9.117 -0.9737 -0.5507 -0.5070
 2097SOL     OW17923   3.375   4.048   6.321  0.1796 -0.4484 -0.2120
 2097SOL    HW117924   3.320   4.063   6.398  1.8858  1.9518  0.5213
 2097SOL    HW217925   3.374   3.953   6.327 -1.0725 -0.2886  2.1172
 2098SOL     OW17926   4.683   2.101  17.723  0.1763 -0.2096 -0.2545
 2098SOL    HW117927   4.717   2.187  17.699  2.8034 -1.3941 -0.7811
 2098SOL    HW217928   4.595   2.111  17.686 -0.3781 -0.6200  0.9770
 2099SOL     OW17929   4.322   0.622  13.603  0.3012 -0.0908 -0.8047
 2099SOL    HW117930   4.246   0.578  13.564 -0.9672  0.2369  1.3149
 2099SOL    HW217931   4.348   0.687  13.538  0.1972  0.1343 -0.6193
 2100SOL     OW17932   3.836   0.045  11.815 -0.3926  0.2692 -0.3697
 2100SOL    HW117933   3.840   0.066  11.721 -0.4527 -0.2121 -0.4771
 2100SOL    HW217934   3.857   4.690  11.815 -2.0148 -0.1008 -0.8184
 2101SOL     OW17935   2.932   3.373   3.713  0.4491  0.6511  0.5207
 2101SOL    HW117936   2.922   3.282   3.740  1.4702  0.5734  0.6390
 2101SOL    HW217937   2.855   3.393   3.660  1.2763  0.6879 -0.6420
 2102SOL     OW17938   3.482   3.686   2.898 -0.3022  0.4800  0.4953
 2102SOL    HW117939   3.503   3.600   2.863 -0.4599 -0.0429  1.6903
 2102SOL    HW217940   3.520   3.745   2.833  0.0959 -0.2727  0.0509
 2103SOL     OW17941   1.304   3.381   7.393  0.7377  0.2290  0.5753
 2103SOL    HW117942   1.267   3.294   7.378  0.0354  0.7689 -0.7646
 2103SOL    HW217943   1.378   3.358   7.450  0.5710 -1.0531  0.2759
 2104SOL     OW17944   2.358   2.180   5.100 -0.5959  0.2190 -0.1672
 2104SOL    HW117945   2.315   2.108   5.146  1.6802 -0.8019  0.3240
 2104SOL    HW217946   2.325   2.264   5.133  0.3187  0.0970  1.0265
 2105SOL     OW17947   0.613   0.766   7.344  0.2415 -0.1184  0.3593
 2105SOL    HW117948   0.663   0.820   7.283 -2.8861  0.1471 -1.9194
 2105SOL    HW217949   0.523   0.798   7.338 -0.0177 -1.1268 -1.3009
 2106SOL     OW17950   1.557   3.833   5.942  0.1900  0.0532 -0.1083
 2106SOL    HW117951   1.535   3.823   5.849 -0.1982 -1.2682  0.1361
 2106SOL    HW217952   1.620   3.762   5.951  0.1013  0.0965  0.7917
 2107SOL     OW17953   1.260   0.164   4.496  0.3509  0.6974  0.2882
 2107SOL    HW117954   1.311   0.244   4.502 -1.4752  1.7680  1.4428
 2107SOL    HW217955   1.196   0.187   4.429 -1.0828 -0.4551  1.2631
 2108SOL     OW17956   0.050   4.709   1.763 -0.4825 -0.2105  0.3150
 2108SOL    HW117957   0.124   0.030   1.773 -1.7658  1.1727  1.5869
 2108SOL    HW217958   0.034   4.701   1.669  0.4480 -0.2135  0.1504
 2109SOL     OW17959   3.841   3.627   5.091 -0.1965  0.7081  0.2005
 2109SOL    HW117960   3.887   3.631   5.007  1.8775  0.9084  1.3340
 2109SOL    HW217961   3.878   3.548   5.131  0.3273 -0.0632 -1.8503
 2110SOL     OW17962   1.506   2.849  11.664  0.0938 -0.2677  0.5562
 2110SOL    HW117963   1.493   2.926  11.719 -1.1382 -0.2320  0.2231
 2110SOL    HW217964   1.592   2.816  11.689 -0.7176 -1.6861  1.4660
 2111SOL     OW17965   4.587   1.728   3.206  0.0095  0.6003 -0.3632
 2111SOL    HW117966   4.653   1.747   3.273 -1.1713  2.1341  0.3793
 2111SOL    HW217967   4.534   1.668   3.258  2.6582 -0.4597  1.1232
 2112SOL     OW17968   1.647   0.543   6.455 -0.0763  0.3365  0.7716
 2112SOL    HW117969   1.683   0.470   6.506  0.0352 -1.1918 -1.4683
 2112SOL    HW217970   1.680   0.619   6.502  0.4958  0.2930  0.4379
 2113SOL     OW17971   1.884   1.819  15.331 -0.1472 -0.1382  0.4278
 2113SOL    HW117972   1.876   1.880  15.258  0.6353  1.0867  1.3556
 2113SOL    HW217973   1.978   1.801  15.340 -0.5113 -1.5483  1.3436
 2114SOL     OW17974   3.588   2.958   9.241 -0.0918 -0.2736  0.0429
 2114SOL    HW117975   3.553   2.972   9.329 -0.3711  0.3033 -0.1643
 2114SOL    HW217976   3.650   3.030   9.235  1.1224 -1.3205 -0.0408
 2115SOL     OW17977   1.178   4.519  11.619  0.1622 -0.0438 -0.5446
 2115SOL    HW117978   1.216   4.432  11.604  1.2135  0.4793 -0.9545
 2115SOL    HW217979   1.141   4.544  11.535 -0.5981  1.3108  0.1987
 2116SOL     OW17980   2.064   0.815  15.346  0.3221  0.6742 -0.0901
 2116SOL    HW117981   2.086   0.722  15.358  0.4924  0.7095 -0.1251
 2116SOL    HW217982   1.979   0.806  15.303 -0.8876  2.1743  1.9998
 2117SOL     OW17983   3.516   3.565   1.710 -0.9435 -0.1120 -0.2549
 2117SOL    HW117984   3.585   3.620   1.674 -0.3951  0.8144  2.2370
 2117SOL    HW217985   3.468   3.528   1.635  0.2204  2.9425 -2.4904
 2118SOL     OW17986   2.050   4.572   5.127 -0.2032 -0.3607 -0.3247
 2118SOL    HW117987   2.101   4.648   5.157  1.7945 -2.1223  0.7516
 2118SOL    HW217988   2.027   4.602   5.039  0.9567 -1.4627 -0.9960
 2119SOL     OW17989   4.356   4.614   5.741 -0.2062 -0.3011  0.0221
 2119SOL    HW117990   4.363   4.518   5.746 -0.3385 -0.3208 -0.2019
 2119SOL    HW217991   4.396   4.637   5.658  1.4554 -2.0641  0.3064
 2120SOL     OW17992   2.778   0.152  10.552  0.3528  0.2445 -0.1745
 2120SOL    HW117993   2.735   0.114  10.629  0.3493 -0.7915 -0.6892
 2120SOL    HW217994   2.832   0.082  10.516 -2.6624 -1.3581 -1.6259
 2121SOL     OW17995   4.503   0.809   1.792  0.7109  0.1299  0.6548
 2121SOL    HW117996   4.558   0.818   1.714 -0.8498 -3.0266 -0.7864
 2121SOL    HW217997   4.424   0.763   1.764  0.4068 -0.3340  2.2636
 2122SOL     OW17998   4.317   0.305   5.905 -0.7457 -0.0221  0.4375
 2122SOL    HW117999   4.363   0.354   5.836 -1.6176 -3.0729 -2.3064
 2122SOL    HW218000   4.273   0.231   5.863 -1.5034  0.4555  0.3851
 2123SOL     OW18001   2.552   1.740   4.019 -0.0070  0.2021 -0.2546
 2123SOL    HW118002   2.640   1.710   4.042  0.1501  1.1194  0.3266
 2123SOL    HW218003   2.505   1.659   4.039 -2.6808  2.1816  1.4025
 2124SOL     OW18004   1.859   1.041   4.223  0.1443  0.0276 -0.1790
 2124SOL    HW118005   1.769   1.061   4.199  0.3299  1.2528  0.1697
 2124SOL    HW218006   1.843   0.976   4.292  0.7478  0.6780  0.5728
 2125SOL     OW18007   2.624   3.080   9.119  0.2690 -0.0098 -0.0141
 2125SOL    HW118008   2.699   3.138   9.104  1.5576 -2.1583 -1.9214
 2125SOL    HW218009   2.665   2.994   9.134  2.1793  0.4538 -2.5123
 2126SOL     OW18010   1.737   3.019  10.663  0.7864 -0.2054 -0.1112
 2126SOL    HW118011   1.699   3.037  10.576  1.5801 -0.0950 -0.4372
 2126SOL    HW218012   1.784   3.100  10.683  0.2111  0.1872 -0.3157
 2127SOL     OW18013   1.695   1.994   2.241  1.0207 -0.2608 -0.0851
 2127SOL    HW118014   1.602   1.976   2.259  1.5239  0.2819  3.0877
 2127SOL    HW218015   1.687   2.004   2.146  1.8648  0.7673 -0.0523
 2128SOL     OW18016   1.813   4.496   5.278 -0.0092 -0.5269  0.5248
 2128SOL    HW118017   1.886   4.527   5.224 -1.1979 -0.5896 -1.1089
 2128SOL    HW218018   1.821   4.549   5.356  1.7149 -0.0929  0.0536
 2129SOL     OW18019   3.811   3.420  14.734  0.1810 -0.1201  0.2779
 2129SOL    HW118020   3.881   3.391  14.675 -0.4398  1.7688 -1.4020
 2129SOL    HW218021   3.796   3.343  14.787 -0.5617 -0.8386 -0.9666
 2130SOL     OW18022   2.995   0.958  15.375 -0.1688  0.0263 -0.6111
 2130SOL    HW118023   2.913   0.957  15.425 -0.1611 -0.5306 -0.6052
 2130SOL    HW218024   2.992   1.042  15.330 -3.7712 -0.3483 -1.0884
 2131SOL     OW18025   3.318   4.241   9.360  0.6862 -0.2036 -0.2664
 2131SOL    HW118026   3.326   4.251   9.455 -0.7761 -0.7962 -0.0779
 2131SOL    HW218027   3.270   4.158   9.356  1.4060 -0.6498  0.4367
 2132SOL     OW18028   0.953   4.692   4.649  0.0448  0.0551 -0.2457
 2132SOL    HW118029   1.003   4.675   4.728  0.5140 -0.8127 -0.7281
 2132SOL    HW218030   0.878   4.632   4.653  1.1314 -1.4047 -1.6055
 2133SOL     OW18031   1.094   2.806   1.007 -0.2909  0.2317  0.6667
 2133SOL    HW118032   1.169   2.814   1.066  1.3464  1.6698 -1.6588
 2133SOL    HW218033   1.138   2.834   0.927  0.7820  0.0318  1.1897
 2134SOL     OW18034   0.113   1.354   3.101 -0.0998  0.0110 -0.0649
 2134SOL    HW118035   0.174   1.380   3.171 -0.3488  1.6266 -0.4383
 2134SOL    HW218036   0.104   1.442   3.063 -2.8327  0.4321  1.5745
 2135SOL     OW18037   1.018   0.320   1.873  0.0196 -0.1019 -0.0473
 2135SOL    HW118038   0.929   0.285   1.872  1.3648 -3.4835 -1.6754
 2135SOL    HW218039   1.008   0.371   1.793  0.9186  0.2843  0.0878
 2136SOL     OW18040   4.515   0.788   3.405  0.2198  0.0783  0.1468
 2136SOL    HW118041   4.547   0.839   3.479  1.6459  2.0660 -1.8259
 2136SOL    HW218042   4.492   0.861   3.346 -0.7120 -0.1785  0.1824
 2137SOL     OW18043   3.947   4.588   3.702  0.4949  0.0029  0.3561
 2137SOL    HW118044   3.858   4.580   3.736  0.8411 -1.6499  0.8505
 2137SOL    HW218045   3.958   4.683   3.704 -0.3748  0.0941  0.8557
 2138SOL     OW18046   2.183   3.749  11.924  0.9373 -0.0976 -0.4434
 2138SOL    HW118047   2.128   3.814  11.881  1.1726  0.4178  0.0373
 2138SOL    HW218048   2.270   3.764  11.889  0.9745 -1.7719 -1.0559
 2139SOL     OW18049   2.393   0.197   3.414 -0.1096  0.8311 -0.3536
 2139SOL    HW118050   2.475   0.225   3.372 -0.7618  0.9557 -1.5683
 2139SOL    HW218051   2.417   0.143   3.489  1.5721  0.0776 -1.4185
 2140SOL     OW18052   1.734   0.793   7.773  0.3671 -0.5803 -0.5506
 2140SOL    HW118053   1.788   0.730   7.821 -0.2640 -0.7372 -0.0461
 2140SOL    HW218054   1.674   0.814   7.844  0.5701 -2.1604  0.0817
 2141SOL     OW18055   3.472   0.976   2.816 -0.6674  0.3023 -0.3665
 2141SOL    HW118056   3.428   0.967   2.901 -0.0181  1.9971  0.1647
 2141SOL    HW218057   3.506   0.887   2.818  0.5844  0.8266  1.7551
 2142SOL     OW18058   4.379   4.128   1.937 -0.3821 -0.6363  0.0545
 2142SOL    HW118059   4.440   4.061   1.966 -0.2056 -0.3722  0.2898
 2142SOL    HW218060   4.422   4.212   1.954  0.6611 -1.0388 -0.6621
 2143SOL     OW18061   0.418   0.356  13.219 -0.3375  0.1746  0.5425
 2143SOL    HW118062   0.470   0.301  13.278 -1.3735 -1.6085 -0.2124
 2143SOL    HW218063   0.462   0.438  13.242 -3.5501  2.1294 -0.4317
 2144SOL     OW18064   1.624   3.960   2.192  0.1358 -0.3879 -0.0077
 2144SOL    HW118065   1.605   3.975   2.285  0.7736  2.3437 -0.3349
 2144SOL    HW218066   1.706   4.007   2.186  0.1641 -0.7436 -2.1168
 2145SOL     OW18067   3.337   3.714  16.127  0.3119 -0.1137  0.1768
 2145SOL    HW118068   3.408   3.656  16.153  0.1467 -0.3574  0.0879
 2145SOL    HW218069   3.274   3.660  16.080  1.1553 -1.9757  1.1679
 2146SOL     OW18070   4.097   4.674   3.225  0.1400  0.5411  0.5279
 2146SOL    HW118071   4.084   4.728   3.147  0.2282 -1.4382 -0.8451
 2146SOL    HW218072   4.059   4.589   3.203  1.8068 -0.1351  0.2184
 2147SOL     OW18073   1.354   0.584   6.985  0.3295  0.2193  0.0246
 2147SOL    HW118074   1.380   0.652   6.923  2.2483 -1.9930 -1.5772
 2147SOL    HW218075   1.338   0.630   7.068  0.7539 -0.1540  0.3151
 2148SOL     OW18076   1.414   0.552   1.644  0.5498 -0.0533 -0.2780
 2148SOL    HW118077   1.485   0.498   1.679 -0.5925 -1.2974  0.1287
 2148SOL    HW218078   1.361   0.562   1.723  3.8238 -2.0015  2.1538
 2149SOL     OW18079   2.758   2.971   1.802  0.1630  0.1224  0.2747
 2149SOL    HW118080   2.732   3.058   1.833  0.1724  1.1854 -2.7507
 2149SOL    HW218081   2.846   2.982   1.767 -0.0942  2.1024  0.2140
 2150SOL     OW18082   4.310   3.651   2.792 -0.8689  0.6453  0.6884
 2150SOL    HW118083   4.302   3.590   2.719 -0.0380 -0.7804  1.7876
 2150SOL    HW218084   4.227   3.700   2.796 -2.2920 -1.6622 -0.5350
 2151SOL     OW18085   1.403   1.622   5.513  0.2356 -0.5056  0.2940
 2151SOL    HW118086   1.367   1.534   5.528 -0.3700 -0.3261 -0.1109
 2151SOL    HW218087   1.494   1.600   5.492 -0.6566 -2.8791 -1.0915
 2152SOL     OW18088   3.456   0.914  17.407 -0.0408  0.5361 -0.2398
 2152SOL    HW118089   3.461   0.988  17.468  1.4286 -0.8553  1.3357
 2152SOL    HW218090   3.453   0.841  17.468  1.2748  1.0199  0.4026
 2153SOL     OW18091   4.186   4.580   2.934  0.2350 -0.7608 -0.5844
 2153SOL    HW118092   4.118   4.647   2.943  0.6722 -0.1694 -1.6773
 2153SOL    HW218093   4.253   4.635   2.893  2.0598 -2.3556  0.2761
 2154SOL     OW18094   1.383   1.635   7.667  0.4854  0.4257  0.1759
 2154SOL    HW118095   1.350   1.547   7.687 -0.3467  0.5583 -0.5877
 2154SOL    HW218096   1.381   1.650   7.573  1.2827 -0.9911 -0.0611
 2155SOL     OW18097   0.968   3.338   3.974 -0.0122 -0.5279 -0.2293
 2155SOL    HW118098   0.893   3.398   3.962  1.1807  1.4055  2.0102
 2155SOL    HW218099   0.997   3.329   3.883  0.4071  1.8847 -0.3425
 2156SOL     OW18100   1.190   3.446  10.038 -0.1630 -0.3348 -0.3585
 2156SOL    HW118101   1.266   3.502  10.024 -0.6640  0.5608  0.5788
 2156SOL    HW218102   1.134   3.490  10.101  2.0523  0.4253  1.0663
 2157SOL     OW18103   3.265   1.819   4.616 -0.4385 -0.1461  0.7187
 2157SOL    HW118104   3.309   1.734   4.609  0.1555  0.2695 -0.5720
 2157SOL    HW218105   3.184   1.798   4.570 -0.8785  2.6477  0.2656
 2158SOL     OW18106   3.761   1.375   2.448  0.0276 -0.2853  0.3473
 2158SOL    HW118107   3.836   1.410   2.400  1.1642 -0.8124  1.7311
 2158SOL    HW218108   3.702   1.446   2.423  1.0207 -0.0333 -1.2850
 2159SOL     OW18109   1.910   2.129   2.357  0.4374 -0.0741 -0.2675
 2159SOL    HW118110   1.859   2.210   2.349 -3.1052 -2.1704  1.1728
 2159SOL    HW218111   1.853   2.067   2.313  0.9572  0.1303 -1.2254
 2160SOL     OW18112   3.976   1.644   9.156 -0.5570  0.4961  0.2263
 2160SOL    HW118113   3.929   1.608   9.081 -2.1541  0.8237  1.0694
 2160SOL    HW218114   4.037   1.574   9.179  0.8336  1.9913  1.1224
 2161SOL     OW18115   0.727   0.011  12.888  0.1525  0.0660 -0.2409
 2161SOL    HW118116   0.813   4.708  12.892  1.2717  2.3253 -1.0215
 2161SOL    HW218117   0.697   0.020  12.979  0.9107 -1.8258  0.1936
 2162SOL     OW18118   1.704   1.887   9.764  0.2551  0.2436  0.4111
 2162SOL    HW118119   1.746   1.814   9.718  2.0465  1.2545  0.4420
 2162SOL    HW218120   1.773   1.901   9.829  0.6613 -1.2159  0.3062
 2163SOL     OW18121   1.433   1.959   3.488 -0.2757  0.3034 -0.0006
 2163SOL    HW118122   1.406   1.942   3.578 -0.4139  2.1254  0.3014
 2163SOL    HW218123   1.398   2.043   3.458  0.0569 -0.2146 -1.8632
 2164SOL     OW18124   0.749   2.145   4.140 -0.2560  0.2317  0.8272
 2164SOL    HW118125   0.742   2.239   4.126  1.2477 -0.2403 -3.1293
 2164SOL    HW218126   0.761   2.120   4.048 -1.6815  0.8996  0.4604
 2165SOL     OW18127   3.919   3.698   7.562  0.1783  0.0283  0.2130
 2165SOL    HW118128   3.955   3.746   7.637  0.0514 -1.1307  1.0066
 2165SOL    HW218129   3.941   3.609   7.590  0.0549  0.6983  2.4822
 2166SOL     OW18130   1.412   3.318   0.781  0.0723  0.1009 -0.2718
 2166SOL    HW118131   1.429   3.409   0.806  1.5113 -0.1219 -0.4510
 2166SOL    HW218132   1.478   3.307   0.713  0.9640  1.6878  0.3355
 2167SOL     OW18133   3.898   4.066   4.885 -0.0785 -0.3652  0.0215
 2167SOL    HW118134   3.939   4.148   4.857 -0.0018 -0.8343 -1.2035
 2167SOL    HW218135   3.882   4.079   4.979  0.4856  2.0569 -0.2009
 2168SOL     OW18136   3.529   3.910   6.107 -0.3248  0.1240 -0.2015
 2168SOL    HW118137   3.491   3.876   6.026  0.2454 -0.3748 -0.2579
 2168SOL    HW218138   3.471   3.983   6.129  1.2207  1.6987 -1.3380
 2169SOL     OW18139   0.308   3.619   1.489  0.0552  0.0007  0.1077
 2169SOL    HW118140   0.224   3.656   1.517 -0.0248  0.1391 -0.3194
 2169SOL    HW218141   0.362   3.698   1.491 -0.7156  0.5021  1.1012
 2170SOL     OW18142   2.282   3.291   5.387  0.3452 -0.2802 -0.0434
 2170SOL    HW118143   2.201   3.316   5.341  0.0158  1.3181  1.3994
 2170SOL    HW218144   2.281   3.350   5.462  0.4020  0.5052 -0.6672
 2171SOL     OW18145   1.599   3.581  14.711 -0.5735 -0.4068  0.4486
 2171SOL    HW118146   1.587   3.543  14.624 -1.1319  1.1883 -0.1766
 2171SOL    HW218147   1.542   3.528  14.766 -2.1320  1.5967  0.7507
 2172SOL     OW18148   3.176   3.736   4.281 -0.1119  0.0577 -0.4113
 2172SOL    HW118149   3.133   3.652   4.262  0.4591 -0.2937 -0.1777
 2172SOL    HW218150   3.184   3.723   4.376 -0.2853  0.8279 -0.2907
 2173SOL     OW18151   4.562   0.365   8.977 -0.5140  0.2353  1.2930
 2173SOL    HW118152   4.657   0.358   8.966 -0.7428  0.1033 -0.6053
 2173SOL    HW218153   4.523   0.281   8.950  1.0186  0.1424 -0.6429
 2174SOL     OW18154   3.702   1.802   8.925  0.4027  0.4461 -0.5036
 2174SOL    HW118155   3.686   1.896   8.937 -0.8924  0.1212  0.2621
 2174SOL    HW218156   3.739   1.786   9.012 -2.5464 -1.4318  0.3919
 2175SOL     OW18157   2.798   4.266  17.734 -0.4156 -0.2858 -0.3129
 2175SOL    HW118158   2.788   4.236   0.073 -1.6540  2.4267  0.4491
 2175SOL    HW218159   2.730   4.219  17.686 -0.1404 -0.7938 -0.2144
 2176SOL     OW18160   0.230   3.857   3.460  0.0197 -0.2208  0.2343
 2176SOL    HW118161   0.218   3.804   3.382  1.5194  0.7970 -0.6838
 2176SOL    HW218162   0.222   3.941   3.415 -1.7484 -1.1328 -1.1459
 2177SOL     OW18163   2.314   1.081   4.254 -0.2427  0.3548  0.7015
 2177SOL    HW118164   2.362   1.164   4.252 -0.1858  0.3002 -0.1716
 2177SOL    HW218165   2.249   1.100   4.321 -1.8723 -2.4474 -0.0634
 2178SOL     OW18166   2.469   3.058   6.207 -0.0498  0.4272 -0.2267
 2178SOL    HW118167   2.544   3.118   6.214 -0.4094  0.9254 -0.7119
 2178SOL    HW218168   2.492   2.989   6.269  0.4397  0.4522 -0.3736
 2179SOL     OW18169   2.958   1.936   2.023  0.1128  0.3757 -0.1142
 2179SOL    HW118170   2.893   1.918   2.091 -0.6354  0.3784 -0.8316
 2179SOL    HW218171   2.927   1.995   1.954 -0.1096  0.7447  0.3044
 2180SOL     OW18172   2.958   4.602   2.347 -0.3502 -0.2509 -0.4243
 2180SOL    HW118173   2.925   4.676   2.399  0.4143 -0.5182  0.4460
 2180SOL    HW218174   3.051   4.622   2.360 -0.5492  1.9072 -2.2393
 2181SOL     OW18175   0.817   2.448  10.088  0.2795 -0.3793 -0.3648
 2181SOL    HW118176   0.807   2.468  10.181  2.1473  0.0619 -0.2685
 2181SOL    HW218177   0.904   2.410  10.080 -0.0352 -1.2183  0.1835
 2182SOL     OW18178   0.067   3.628   8.484  0.4544  0.5366  0.1286
 2182SOL    HW118179   0.125   3.615   8.409  0.4561 -1.6233  0.5011
 2182SOL    HW218180   4.731   3.572   8.462  2.0792 -1.5634 -0.0485
 2183SOL     OW18181   0.775   2.624  10.615 -0.1138  0.4959 -0.2453
 2183SOL    HW118182   0.711   2.633  10.545  0.4291  1.1091 -0.6573
 2183SOL    HW218183   0.849   2.583  10.571  0.5652  0.9340  0.5047
 2184SOL     OW18184   3.680   2.838   6.233 -0.3855  0.2867 -0.3980
 2184SOL    HW118185   3.769   2.828   6.197 -0.2414 -0.5979  0.2074
 2184SOL    HW218186   3.685   2.770   6.300 -0.2967  0.0960 -0.5959
 2185SOL     OW18187   2.468   0.057   4.748  0.1433  0.2369  0.2276
 2185SOL    HW118188   2.481   4.701   4.762  1.7648  0.8892  3.0872
 2185SOL    HW218189   2.500   0.077   4.660  0.7941  0.4751  0.5170
 2186SOL     OW18190   4.366   1.633   4.630 -0.4746  0.0848  0.4971
 2186SOL    HW118191   4.411   1.671   4.554 -0.0026  2.3873  1.9332
 2186SOL    HW218192   4.311   1.709   4.645 -3.2637 -2.0496  1.0024
 2187SOL     OW18193   1.717   0.890  11.052  0.1596  0.4107 -0.6186
 2187SOL    HW118194   1.656   0.841  10.996 -1.5367  0.3723  1.2511
 2187SOL    HW218195   1.713   0.979  11.017 -1.5439  0.0824 -1.2708
 2188SOL     OW18196   3.455   0.511   2.435 -0.1209  0.0025  0.3756
 2188SOL    HW118197   3.389   0.574   2.406 -0.9027 -0.8564  0.2829
 2188SOL    HW218198   3.410   0.429   2.413 -0.6256  0.3229  0.1954
 2189SOL     OW18199   2.562   2.722   8.377 -0.3363  0.2984 -0.0555
 2189SOL    HW118200   2.479   2.759   8.349 -0.7419  0.7866  1.8481
 2189SOL    HW218201   2.618   2.797   8.356 -0.7263  0.3893 -0.7643
 2190SOL     OW18202   1.493   0.772   6.808 -0.8601 -0.1645  0.9986
 2190SOL    HW118203   1.406   0.772   6.769  0.3873 -0.1251 -1.7344
 2190SOL    HW218204   1.544   0.720   6.746 -1.4042  0.6067 -0.0940
 2191SOL     OW18205   0.224   2.838   0.769  0.1505  0.0404  0.0350
 2191SOL    HW118206   0.136   2.803   0.779  0.8414 -1.8652 -0.5422
 2191SOL    HW218207   0.273   2.776   0.824 -2.4440 -1.6289  0.4525
 2192SOL     OW18208   0.937   3.950   4.919  0.3440  0.3570 -0.1929
 2192SOL    HW118209   1.022   3.992   4.921  2.8840 -4.7694 -0.3636
 2192SOL    HW218210   0.919   3.915   5.007 -3.3185 -2.4323 -2.0109
 2193SOL     OW18211   3.582   2.125   2.896  0.8467 -0.1018 -0.2308
 2193SOL    HW118212   3.656   2.065   2.885  0.7622 -0.1847 -0.3384
 2193SOL    HW218213   3.507   2.066   2.901  1.1921 -0.4606  0.7470
 2194SOL     OW18214   1.000   0.808   7.234 -0.6731  0.3602 -0.1342
 2194SOL    HW118215   1.049   0.849   7.305 -3.1591 -0.5400  2.1250
 2194SOL    HW218216   1.037   0.722   7.218  0.6107  0.7064  0.9743
 2195SOL     OW18217   0.211   2.040   3.859 -0.5281  0.1483  0.4585
 2195SOL    HW118218   0.301   2.048   3.827 -0.7397 -0.3219 -0.2464
 2195SOL    HW218219   0.212   1.945   3.872  0.4394  0.1866  0.6595
 2196SOL     OW18220   3.791   3.608   6.041  0.0460 -0.4767  0.2517
 2196SOL    HW118221   3.812   3.691   6.084  0.5303  0.6880 -2.2288
 2196SOL    HW218222   3.734   3.569   6.107  0.9400  1.3914  2.0910
 2197SOL     OW18223   3.886   1.434   8.615  0.0917 -0.0475  0.0162
 2197SOL    HW118224   3.865   1.519   8.654 -0.9748  0.3293 -1.3599
 2197SOL    HW218225   3.976   1.442   8.583  0.6767  1.1355  1.9354
 2198SOL     OW18226   2.789   1.665   3.323  0.5197  0.9827 -0.2632
 2198SOL    HW118227   2.780   1.610   3.245  0.9746  0.9658 -0.3006
 2198SOL    HW218228   2.790   1.753   3.285 -1.5203  1.4663  0.7586
 2199SOL     OW18229   2.302   1.126   7.441  0.1176  0.0885  0.1691
 2199SOL    HW118230   2.324   1.186   7.370  0.5733 -0.6338 -0.2915
 2199SOL    HW218231   2.272   1.189   7.507  3.9518  1.1525  0.8662
 2200SOL     OW18232   3.864   2.483   6.055 -0.4000 -0.4503  0.0121
 2200SOL    HW118233   3.901   2.516   5.973  1.0942 -1.0449  0.4461
 2200SOL    HW218234   3.868   2.563   6.106 -0.1619 -0.8476  0.6191
 2201SOL     OW18235   0.242   3.068   2.997  0.1243 -0.2791  0.1144
 2201SOL    HW118236   0.201   2.982   2.991  0.5959 -0.5507  0.8144
 2201SOL    HW218237   0.295   3.068   2.917  0.1873  1.9480  0.1495
 2202SOL     OW18238   2.690   2.160  16.986 -0.1329  0.5961 -0.2974
 2202SOL    HW118239   2.781   2.164  17.014 -0.1971  1.9280 -0.2609
 2202SOL    HW218240   2.663   2.245  17.020  1.9960  0.4767  1.6471
 2203SOL     OW18241   4.176   3.234   4.844  0.1480 -0.5430 -0.4449
 2203SOL    HW118242   4.110   3.283   4.795  0.3746 -0.2482 -0.4514
 2203SOL    HW218243   4.249   3.219   4.784 -0.1284  1.4809 -1.2938
 2204SOL     OW18244   3.238   0.423   9.129  0.4973 -0.1319  0.4026
 2204SOL    HW118245   3.202   0.498   9.175 -1.4261 -1.2654  0.7284
 2204SOL    HW218246   3.265   0.461   9.045  0.7732  0.5320  0.7904
 2205SOL     OW18247   1.743   4.727   3.781 -0.1943 -0.0590 -0.2092
 2205SOL    HW118248   1.808   4.713   3.712 -0.2488 -2.1139  0.1775
 2205SOL    HW218249   1.668   4.677   3.749 -0.3667  0.5692 -0.7768
 2206SOL     OW18250   0.858   0.358   6.609  0.3162  0.0594  0.4918
 2206SOL    HW118251   0.793   0.428   6.621  1.1052  0.7043  1.0200
 2206SOL    HW218252   0.942   0.404   6.617  0.9329 -0.9848  0.0433
 2207SOL     OW18253   0.536   1.558   3.466 -0.2507 -0.5493 -0.4628
 2207SOL    HW118254   0.597   1.515   3.407  2.8738  3.1787  0.0510
 2207SOL    HW218255   0.456   1.540   3.416 -0.6582  0.9165 -0.3320
 2208SOL     OW18256   1.805   2.422   4.126  0.4068 -0.4200 -0.9488
 2208SOL    HW118257   1.855   2.482   4.181  0.6814 -0.1722 -1.4666
 2208SOL    HW218258   1.800   2.470   4.044  1.0397 -0.0568 -0.7769
 2209SOL     OW18259   0.421   2.397   7.607 -0.4550  0.1985 -0.2881
 2209SOL    HW118260   0.345   2.444   7.574 -0.2281  0.3318 -0.6217
 2209SOL    HW218261   0.391   2.352   7.686  0.1527 -1.4767 -1.0340
 2210SOL     OW18262   1.317   4.711   4.279 -0.3139  0.2103  0.4048
 2210SOL    HW118263   1.378   4.734   4.209 -0.9756 -0.6911 -0.4778
 2210SOL    HW218264   1.344   0.023   4.356 -0.4790  0.8980  0.0119
 2211SOL     OW18265   2.440   1.795  15.051  0.6371  0.4096 -0.4837
 2211SOL    HW118266   2.352   1.771  15.079  0.8168 -1.5246 -1.5546
 2211SOL    HW218267   2.494   1.756  15.120  2.9317 -0.6183 -2.8346
 2212SOL     OW18268   4.675   4.216   4.005  0.1000 -0.4112  0.1505
 2212SOL    HW118269   0.031   4.216   4.021  0.6930 -0.3718 -3.2840
 2212SOL    HW218270   4.658   4.122   4.010  1.6929 -0.6074  1.9939
 2213SOL     OW18271   2.447   2.358   9.323  0.2326  0.6283  0.4585
 2213SOL    HW118272   2.422   2.286   9.380 -0.2154  0.2006 -0.2778
 2213SOL    HW218273   2.421   2.328   9.235 -0.1785  1.1341  0.4071
 2214SOL     OW18274   4.634   2.564   6.733 -0.4116 -0.3837  0.0797
 2214SOL    HW118275   4.713   2.563   6.787 -0.4185 -2.5290  0.0802
 2214SOL    HW218276   4.581   2.628   6.780  2.2440  1.6764  0.2729
 2215SOL     OW18277   2.132   4.035   6.474 -0.4825  0.7073  0.5502
 2215SOL    HW118278   2.194   4.090   6.522  0.0871 -1.5835  2.4459
 2215SOL    HW218279   2.108   3.962   6.531 -0.2517  0.6696  0.5995
 2216SOL     OW18280   4.290   2.842   2.818  0.5464  0.3960 -0.3687
 2216SOL    HW118281   4.277   2.931   2.788 -0.3773  0.0897 -0.8855
 2216SOL    HW218282   4.240   2.847   2.899  0.7147 -3.7192  0.0367
 2217SOL     OW18283   2.423   3.791   9.130  0.1175 -0.0133 -0.2056
 2217SOL    HW118284   2.502   3.841   9.149  0.3664 -0.7550  0.6803
 2217SOL    HW218285   2.374   3.812   9.210 -0.6760  1.4411 -1.0846
 2218SOL     OW18286   2.059   3.203  17.134  0.0187  0.2163  0.3329
 2218SOL    HW118287   2.107   3.122  17.119 -0.2971 -0.2190  1.6889
 2218SOL    HW218288   1.982   3.188  17.079 -0.6304 -2.4423  2.0155
 2219SOL     OW18289   2.799   3.842   6.024 -0.3818 -0.3888 -0.1025
 2219SOL    HW118290   2.764   3.768   5.975 -0.8142 -1.0244  1.1532
 2219SOL    HW218291   2.722   3.897   6.011 -0.6295 -0.6908  0.0648
 2220SOL     OW18292   4.121   2.919   6.293 -0.3093  0.2603  0.1295
 2220SOL    HW118293   4.117   2.883   6.382  1.1067 -0.8943 -0.2769
 2220SOL    HW218294   4.210   2.895   6.269 -0.4227 -0.5109  0.4648
 2221SOL     OW18295   4.356   3.933   4.569 -0.0541  0.0367 -0.2714
 2221SOL    HW118296   4.264   3.956   4.560 -0.1210 -0.0610  0.1500
 2221SOL    HW218297   4.405   4.015   4.569 -0.3772  0.2292  1.7639
 2222SOL     OW18298   0.476   0.281   5.230 -0.0324 -0.1184  0.5813
 2222SOL    HW118299   0.546   0.345   5.243 -0.3368  0.1873  0.7195
 2222SOL    HW218300   0.520   0.205   5.191  0.5506  0.4228  0.1834
 2223SOL     OW18301   0.453   3.434   7.652  0.1245  0.3407 -0.4452
 2223SOL    HW118302   0.521   3.482   7.605  0.3822  0.0384 -0.3877
 2223SOL    HW218303   0.480   3.445   7.743  0.4580 -0.5502 -0.4346
 2224SOL     OW18304   3.244   0.551   6.566  0.5847 -0.1296  0.8931
 2224SOL    HW118305   3.242   0.562   6.471  1.3564  2.1609  1.1473
 2224SOL    HW218306   3.286   0.632   6.593 -1.0286  1.3843 -1.2022
 2225SOL     OW18307   3.963   1.813   4.953 -0.0047  0.2517 -0.2793
 2225SOL    HW118308   3.909   1.810   5.032  0.2340  0.7746 -0.0934
 2225SOL    HW218309   3.930   1.738   4.903 -3.4983  0.5553  1.5439
 2226SOL     OW18310   2.600   0.572   0.841  0.4100  0.3215 -0.5406
 2226SOL    HW118311   2.572   0.484   0.816  0.9704  0.1123 -0.4397
 2226SOL    HW218312   2.622   0.557   0.933 -1.4179 -0.6107 -0.2440
 2227SOL     OW18313   0.742   0.114   0.209  0.1567 -0.6946 -0.5854
 2227SOL    HW118314   0.792   0.148   0.283 -0.3336  0.7969 -0.9352
 2227SOL    HW218315   0.668   0.174   0.208 -0.9697 -2.0194  2.3152
 2228SOL     OW18316   0.631   1.231  17.116 -0.8816  0.7807  0.3132
 2228SOL    HW118317   0.709   1.204  17.164 -1.7450 -2.3865 -0.0402
 2228SOL    HW218318   0.613   1.154  17.062  0.4650 -0.2904  1.3965
 2229SOL     OW18319   2.300   4.345   8.297 -0.2957  0.1521 -0.0369
 2229SOL    HW118320   2.394   4.359   8.287  0.0551 -1.0696  1.6670
 2229SOL    HW218321   2.293   4.288   8.220  0.7906 -0.6651  0.4713
 2230SOL     OW18322   2.262   2.352   0.018 -0.3292 -0.1419 -0.4315
 2230SOL    HW118323   2.210   2.306  17.703 -0.7095  0.8978 -0.8462
 2230SOL    HW218324   2.224   2.307   0.094 -2.1962 -0.9403 -1.8193
 2231SOL     OW18325   0.452   4.392   3.042  0.0886  0.0887 -0.2393
 2231SOL    HW118326   0.478   4.329   2.974 -1.6344 -1.0205  0.1068
 2231SOL    HW218327   0.444   4.466   2.982  1.3161 -0.7419 -1.4248
 2232SOL     OW18328   2.412   1.098  13.541  0.1881  0.8805 -0.0357
 2232SOL    HW118329   2.445   1.168  13.598 -0.0770  0.6293  0.4182
 2232SOL    HW218330   2.437   1.140  13.458 -3.4725  0.3970 -1.4045
 2233SOL     OW18331   3.556   2.505   4.071  0.0702 -0.0355 -0.3691
 2233SOL    HW118332   3.462   2.489   4.063 -0.0294 -0.0897  0.9677
 2233SOL    HW218333   3.594   2.419   4.054  1.8672  0.7895 -0.5904
 2234SOL     OW18334   3.553   3.909   4.367 -0.3525 -0.0269  0.5897
 2234SOL    HW118335   3.487   3.937   4.431  0.5832  2.2773  0.5245
 2234SOL    HW218336   3.632   3.946   4.405  0.5635 -1.5001  0.1149
 2235SOL     OW18337   3.489   2.412   8.889  0.3346  0.6623  0.1473
 2235SOL    HW118338   3.485   2.328   8.844 -0.7691  0.7543  0.0763
 2235SOL    HW218339   3.533   2.460   8.818  0.0666  0.1604 -0.3530
 2236SOL     OW18340   3.734   1.256   2.169  0.7601 -0.0276  0.1923
 2236SOL    HW118341   3.744   1.227   2.259 -0.4018 -0.4721  0.1831
 2236SOL    HW218342   3.660   1.199   2.148  0.2265  0.9597 -0.6203
 2237SOL     OW18343   0.812   2.195   7.279 -0.2081 -0.0205  0.1478
 2237SOL    HW118344   0.721   2.172   7.259 -0.4503  1.1746 -0.1235
 2237SOL    HW218345   0.794   2.272   7.333  0.6101  1.2477 -1.3721
 2238SOL     OW18346   1.926   1.342   7.008  0.0515 -0.3950 -0.4073
 2238SOL    HW118347   1.880   1.370   7.087  0.3374  0.9724 -0.7219
 2238SOL    HW218348   1.990   1.408   6.982 -0.4853  1.0084  1.8632
 2239SOL     OW18349   3.331   1.093   9.724 -0.0421 -0.2052 -0.3132
 2239SOL    HW118350   3.275   1.084   9.801 -1.1786 -0.4542 -1.1815
 2239SOL    HW218351   3.272   1.056   9.660 -0.1120 -0.4983 -0.0799
 2240SOL     OW18352   3.575   1.137   4.970 -0.4195  0.0564 -0.4699
 2240SOL    HW118353   3.576   1.207   4.905 -1.4746 -0.1382 -0.6965
 2240SOL    HW218354   3.569   1.058   4.916 -2.6575 -0.0509 -0.0900
 2241SOL     OW18355   0.865   1.838  17.225 -0.7661  0.5893 -0.2962
 2241SOL    HW118356   0.913   1.797  17.297 -1.2097 -0.1721 -0.4299
 2241SOL    HW218357   0.871   1.931  17.245  0.8906  0.2166  0.8795
 2242SOL     OW18358   2.564   3.601   5.565  0.1966 -0.3268 -0.0636
 2242SOL    HW118359   2.500   3.531   5.553  0.3002 -0.4834  0.2970
 2242SOL    HW218360   2.539   3.674   5.507  1.0201  0.3632  0.4568
 2243SOL     OW18361   3.226   3.420   7.347  0.2354 -0.1490  1.1094
 2243SOL    HW118362   3.271   3.472   7.414  0.9420  2.7260 -1.6072
 2243SOL    HW218363   3.168   3.478   7.298 -2.1518 -0.8003  3.2273
 2244SOL     OW18364   0.782   0.100   7.057 -0.1015 -0.0419  0.2770
 2244SOL    HW118365   0.759   0.009   7.042  0.3852  0.3829 -3.1415
 2244SOL    HW218366   0.752   0.142   6.976 -2.4079 -1.9443  0.1441
 2245SOL     OW18367   2.687   3.830   3.319  0.1183 -0.2098  0.4467
 2245SOL    HW118368   2.754   3.864   3.378 -1.4779  2.6847  0.5822
 2245SOL    HW218369   2.629   3.905   3.310  2.2458  1.2955 -0.6279
 2246SOL     OW18370   1.609   2.811   1.829 -0.0745  0.0295  0.3363
 2246SOL    HW118371   1.684   2.759   1.856 -0.3795 -0.8972 -0.6177
 2246SOL    HW218372   1.647   2.898   1.817 -1.6107  0.6598 -0.0607
 2247SOL     OW18373   3.562   0.675   5.008 -0.1963  0.0930  0.4380
 2247SOL    HW118374   3.469   0.662   4.995  0.1901 -2.5182  0.2872
 2247SOL    HW218375   3.592   0.586   4.989  1.9193  1.2649 -1.7493
 2248SOL     OW18376   0.342   1.674  14.240  0.7513 -0.1455 -0.9885
 2248SOL    HW118377   0.377   1.585  14.243 -0.5884 -0.5997  0.9805
 2248SOL    HW218378   0.315   1.687  14.149 -0.4112 -1.4706 -0.8251
 2249SOL     OW18379   2.453   2.356  16.748  0.1010 -0.8100 -0.3158
 2249SOL    HW118380   2.375   2.394  16.706  0.9159  2.1032  0.8123
 2249SOL    HW218381   2.494   2.437  16.776  1.6536 -1.7860  0.2319
 2250SOL     OW18382   0.403   3.532   4.732  0.8558 -0.1329 -0.0268
 2250SOL    HW118383   0.427   3.446   4.766 -1.4712 -0.2500  1.2832
 2250SOL    HW218384   0.481   3.560   4.683  2.0968 -2.3090  0.6953
 2251SOL     OW18385   4.283   2.596  12.781 -0.3714 -0.0209  0.3123
 2251SOL    HW118386   4.365   2.551  12.800 -0.2099  0.6437  1.1552
 2251SOL    HW218387   4.276   2.653  12.857  0.5846  1.1618 -0.4831
 2252SOL     OW18388   0.655   1.822   5.758  0.2072 -0.4090 -0.4199
 2252SOL    HW118389   0.690   1.896   5.709 -0.1340  0.1953  0.2485
 2252SOL    HW218390   0.727   1.773   5.798 -0.0376  0.5042  1.1645
 2253SOL     OW18391   0.625   3.050   7.766 -0.1307  0.3185  0.1068
 2253SOL    HW118392   0.672   3.126   7.801  2.5095 -2.1783  1.9370
 2253SOL    HW218393   0.627   3.002   7.849 -0.9352 -1.6037 -1.0097
 2254SOL     OW18394   0.278   2.933   6.007 -0.2901 -0.5728  0.0668
 2254SOL    HW118395   0.336   2.874   6.056  0.6659  0.7091  0.4791
 2254SOL    HW218396   0.326   2.964   5.931 -0.8093 -1.1427 -0.4897
 2255SOL     OW18397   0.061   2.707   1.588 -0.0873  0.1425  0.4242
 2255SOL    HW118398   0.084   2.627   1.636  0.3287 -0.4320 -0.7302
 2255SOL    HW218399   0.140   2.759   1.600  1.6195 -1.9797 -1.6844
 2256SOL     OW18400   2.302   2.589   5.583  0.1863 -0.8619 -0.1351
 2256SOL    HW118401   2.316   2.623   5.671  1.5018 -0.7364 -0.3994
 2256SOL    HW218402   2.211   2.621   5.578  1.2945  2.6123  2.1064
 2257SOL     OW18403   3.188   1.096   3.680  0.2521  0.8894  0.2907
 2257SOL    HW118404   3.101   1.057   3.689 -0.2754  2.0069  0.0924
 2257SOL    HW218405   3.230   1.016   3.649 -1.8405  0.5254 -1.6061
 2258SOL     OW18406   0.865   0.317   9.074  0.6553 -0.3415  0.1768
 2258SOL    HW118407   0.911   0.337   9.156 -0.8736  0.4342  0.8373
 2258SOL    HW218408   0.923   0.253   9.034  1.2528  1.2712 -1.5281
 2259SOL     OW18409   2.141   3.031  15.852 -0.4118 -0.2027 -0.0242
 2259SOL    HW118410   2.133   2.950  15.802 -1.5123 -1.0668  1.5546
 2259SOL    HW218411   2.069   3.071  15.802 -0.3409 -0.8491 -0.6451
 2260SOL     OW18412   1.968   1.887   4.178 -0.5906  0.3549 -0.2213
 2260SOL    HW118413   1.941   1.977   4.164  0.5415  0.5972 -0.9032
 2260SOL    HW218414   1.923   1.855   4.256 -2.7059  0.3186 -1.4572
 2261SOL     OW18415   3.390   2.084  15.268  0.0836 -0.0351 -0.7921
 2261SOL    HW118416   3.318   2.121  15.217  0.0509  0.0285 -0.6994
 2261SOL    HW218417   3.410   2.164  15.316  1.8617 -1.1754  0.3722
 2262SOL     OW18418   2.145   1.393   9.919 -0.4995  0.2099 -0.1535
 2262SOL    HW118419   2.144   1.327   9.849  2.3175  0.2521 -0.2240
 2262SOL    HW218420   2.053   1.381   9.943 -0.9982 -1.4397 -2.9201
 2263SOL     OW18421   0.243   4.667   8.832  0.0995 -0.0116 -0.3765
 2263SOL    HW118422   0.199   4.585   8.812 -2.1352  1.2660 -0.6318
 2263SOL    HW218423   0.164   4.718   8.848  0.4052 -0.2198  1.8026
 2264SOL     OW18424   1.788   4.083   6.992  0.1055  0.3972  0.0412
 2264SOL    HW118425   1.764   3.991   7.001 -0.1736  0.4198 -0.4700
 2264SOL    HW218426   1.705   4.129   6.981  0.2136  0.5711 -0.0523
 2265SOL     OW18427   1.162   0.936   5.730  0.1839 -1.1799 -0.0679
 2265SOL    HW118428   1.225   0.993   5.775  0.6152 -2.3313  0.7778
 2265SOL    HW218429   1.176   0.965   5.640 -0.5793  0.5106  0.3622
 2266SOL     OW18430   0.798   4.131   2.329 -0.1380  0.1906  0.4187
 2266SOL    HW118431   0.865   4.139   2.261  1.3211 -2.1707  1.5669
 2266SOL    HW218432   0.798   4.216   2.372  2.1756 -0.0622  0.9256
 2267SOL     OW18433   3.004   3.662   3.992  0.0941  0.7300 -0.0886
 2267SOL    HW118434   2.909   3.654   3.997  0.0164  2.3792  1.1106
 2267SOL    HW218435   3.016   3.745   4.039 -1.6199  1.0226 -0.1959
 2268SOL     OW18436   1.298   0.702   4.199 -0.4655 -0.3501 -0.3954
 2268SOL    HW118437   1.205   0.681   4.186 -1.2671  2.0802  1.4100
 2268SOL    HW218438   1.284   0.783   4.149 -0.9599 -0.0954  0.1568
 2269SOL     OW18439   1.993   4.314   4.680 -0.5531  0.4554 -0.2708
 2269SOL    HW118440   2.045   4.333   4.758  1.0246 -0.2228 -1.1626
 2269SOL    HW218441   2.061   4.289   4.617 -0.8352  0.9667 -0.7887
 2270SOL     OW18442   1.267   2.262   3.041  0.2498  0.9546  0.8262
 2270SOL    HW118443   1.274   2.295   2.951 -0.5524  0.9431  0.7598
 2270SOL    HW218444   1.196   2.310   3.084 -2.3501  0.1822 -2.5603
 2271SOL     OW18445   3.480   2.118   4.129  0.1407  0.0637 -0.0839
 2271SOL    HW118446   3.520   2.128   4.042  0.5452  2.0189  0.3312
 2271SOL    HW218447   3.524   2.179   4.187 -0.7588  0.5721  0.0670
 2272SOL     OW18448   4.615   2.811   6.217  0.0651 -0.4861  0.3656
 2272SOL    HW118449   4.643   2.872   6.285  1.5836  1.8795 -2.3596
 2272SOL    HW218450   4.608   2.729   6.265 -0.5925 -1.2000 -0.9534
 2273SOL     OW18451   3.636   2.641   1.691  1.0152  0.1362 -0.4785
 2273SOL    HW118452   3.596   2.728   1.687 -0.4735 -0.4890  0.9238
 2273SOL    HW218453   3.730   2.649   1.673  0.4288 -1.1850 -4.0972
 2274SOL     OW18454   3.322   3.287  16.539 -0.5275  0.0993 -0.3320
 2274SOL    HW118455   3.336   3.268  16.447 -1.4264  1.4374 -0.7400
 2274SOL    HW218456   3.229   3.308  16.542 -0.4570  0.5362 -1.2612
 2275SOL     OW18457   1.757   1.383   8.182 -0.2017  0.0335  0.4335
 2275SOL    HW118458   1.825   1.418   8.124 -0.3593  0.9554  0.7951
 2275SOL    HW218459   1.695   1.349   8.117 -0.3173  1.3112 -0.1241
 2276SOL     OW18460   2.106   4.256  11.393 -0.5816  0.1891  0.2477
 2276SOL    HW118461   2.027   4.220  11.351  0.9572 -2.2045 -0.5827
 2276SOL    HW218462   2.169   4.187  11.374 -0.7242  0.3778 -0.9286
 2277SOL     OW18463   1.896   0.845  12.070  0.3062 -0.2790 -0.2636
 2277SOL    HW118464   1.847   0.922  12.101 -1.7609 -1.4330 -0.6643
 2277SOL    HW218465   1.980   0.851  12.115 -0.7397 -0.2769  1.7455
 2278SOL     OW18466   3.463   4.651   7.385  0.1211 -0.1126  0.6568
 2278SOL    HW118467   3.382   4.637   7.335 -0.2180  0.4394  1.0508
 2278SOL    HW218468   3.527   4.652   7.314  0.1511 -2.0569  0.6443
 2279SOL     OW18469   2.695   4.647   9.349  0.2830 -0.5048 -0.2041
 2279SOL    HW118470   2.658   4.674   9.265 -0.1812  0.5577  0.3423
 2279SOL    HW218471   2.661   4.557   9.351 -1.3859  0.1320 -0.4027
 2280SOL     OW18472   1.694   3.525  13.649 -0.2539 -0.1427 -0.1655
 2280SOL    HW118473   1.683   3.607  13.601 -0.5010 -0.3751 -0.5114
 2280SOL    HW218474   1.620   3.476  13.614 -0.8978 -2.2076  4.0697
 2281SOL     OW18475   0.549   4.020   7.623 -0.5347 -0.5945  0.5811
 2281SOL    HW118476   0.498   3.966   7.562  0.7463 -0.1521 -0.8749
 2281SOL    HW218477   0.638   4.000   7.594 -1.2093  0.4747 -2.2083
 2282SOL     OW18478   3.303   1.587  10.263  0.0811  0.0714  0.4011
 2282SOL    HW118479   3.375   1.589  10.326  1.6073 -0.3940 -1.2919
 2282SOL    HW218480   3.345   1.554  10.183 -0.1318  1.3468 -0.2434
 2283SOL     OW18481   4.260   3.636   4.967  0.0519  0.3018  0.2059
 2283SOL    HW118482   4.292   3.550   4.994 -0.2038 -0.5014 -2.0615
 2283SOL    HW218483   4.328   3.697   4.998  1.6976 -2.6174  2.2722
 2284SOL     OW18484   0.889   4.542   5.439 -0.3147 -0.1195 -0.0738
 2284SOL    HW118485   0.947   4.472   5.408  0.2195  1.6370 -2.9708
 2284SOL    HW218486   0.814   4.489   5.465 -1.7939  0.6851 -2.7502
 2285SOL     OW18487   0.491   0.145   4.833  0.4269 -0.1122  0.6802
 2285SOL    HW118488   0.520   0.233   4.810 -1.1340  0.0114 -0.8958
 2285SOL    HW218489   0.396   0.157   4.840  0.6973  0.5485  3.2852
 2286SOL     OW18490   2.086   1.604   8.821  0.0498 -0.1906 -0.3311
 2286SOL    HW118491   2.114   1.526   8.774  0.9107 -0.2733  0.3170
 2286SOL    HW218492   1.994   1.591   8.797  0.0389  3.0320 -2.1130
 2287SOL     OW18493   2.896   4.635   3.674  0.1817  0.2837  0.0990
 2287SOL    HW118494   2.941   4.556   3.704 -2.3689 -1.7227 -1.4120
 2287SOL    HW218495   2.828   4.597   3.619  0.3738 -0.7865  0.5987
 2288SOL     OW18496   2.631   4.300   1.298 -0.6340  0.3854  0.1189
 2288SOL    HW118497   2.637   4.262   1.386  1.0828  0.6684  0.1440
 2288SOL    HW218498   2.719   4.333   1.277 -0.9880  2.3927  1.7709
 2289SOL     OW18499   3.350   3.792   7.723 -0.2668  0.4096  0.3023
 2289SOL    HW118500   3.338   3.878   7.683 -0.3798  0.3235  0.1518
 2289SOL    HW218501   3.441   3.782   7.753  0.4353  1.7854 -1.3975
 2290SOL     OW18502   3.728   0.192   1.821  0.3020  0.6107  0.2390
 2290SOL    HW118503   3.817   0.225   1.814  0.8990 -1.3346 -1.2522
 2290SOL    HW218504   3.729   0.124   1.888 -1.6486 -0.1018 -0.4433
 2291SOL     OW18505   3.339   2.073   5.087 -0.6025 -0.8744 -0.3449
 2291SOL    HW118506   3.286   2.081   5.166  1.0107  2.3300  0.4041
 2291SOL    HW218507   3.313   1.990   5.046  0.7959 -0.8129 -1.3811
 2292SOL     OW18508   0.667   2.063   5.027  0.3985 -0.0062 -0.2026
 2292SOL    HW118509   0.600   2.038   5.091 -1.2393  1.5099 -1.3369
 2292SOL    HW218510   0.627   2.034   4.945  1.6300 -2.3988  0.0355
 2293SOL     OW18511   1.602   1.268   4.246 -0.1930  0.5324  0.3960
 2293SOL    HW118512   1.675   1.323   4.216 -0.6777  0.1520 -1.4873
 2293SOL    HW218513   1.554   1.325   4.307  0.0294  0.0642  1.0025
 2294SOL     OW18514   1.904   3.841   8.857 -0.2461 -0.6725  0.0136
 2294SOL    HW118515   1.853   3.821   8.935 -1.1183 -0.5559 -0.5308
 2294SOL    HW218516   1.990   3.875   8.881 -0.0867  0.0505 -1.5395
 2295SOL     OW18517   2.540   1.659   6.834 -0.0907 -0.2958 -0.4882
 2295SOL    HW118518   2.608   1.704   6.785 -1.8541  2.2439 -0.6269
 2295SOL    HW218519   2.566   1.688   6.922  0.6457 -1.0116 -0.4731
 2296SOL     OW18520   3.346   2.239  13.927  0.5297 -0.1075  0.7119
 2296SOL    HW118521   3.364   2.264  13.836 -1.2706 -1.6530 -0.0637
 2296SOL    HW218522   3.374   2.320  13.970  1.1936  0.5716 -1.0091
 2297SOL     OW18523   1.598   4.137   5.337 -0.4567  0.0091 -0.4521
 2297SOL    HW118524   1.684   4.177   5.347 -0.4715 -0.0095 -0.2586
 2297SOL    HW218525   1.577   4.105   5.425 -0.3229  1.0484 -0.0537
 2298SOL     OW18526   0.799   2.349  10.434 -0.2501  0.3310  0.1624
 2298SOL    HW118527   0.706   2.360  10.455 -0.5996 -2.8920  0.3954
 2298SOL    HW218528   0.842   2.295  10.500  0.0081 -0.6195 -0.7787
 2299SOL     OW18529   3.882   3.306   3.292 -0.0279 -0.2548 -0.2282
 2299SOL    HW118530   3.792   3.275   3.305  1.1335 -1.3202  5.2421
 2299SOL    HW218531   3.904   3.277   3.204  0.6575 -0.1413 -0.0882
 2300SOL     OW18532   1.881   1.294  11.197  0.6017 -0.6773  0.0922
 2300SOL    HW118533   1.930   1.347  11.135 -0.1280 -0.2574 -0.1219
 2300SOL    HW218534   1.799   1.288  11.148 -0.0231  0.1001  1.0383
 2301SOL     OW18535   0.392   2.060   8.397  0.4231 -0.6188 -0.1626
 2301SOL    HW118536   0.311   2.035   8.440 -0.1124  1.1731 -0.1290
 2301SOL    HW218537   0.366   2.123   8.329 -0.0983  1.0063  1.5426
 2302SOL     OW18538   0.086   0.415   6.465  0.1607  0.2663 -0.2530
 2302SOL    HW118539   0.142   0.338   6.457 -0.3331 -0.3348  1.9720
 2302SOL    HW218540   0.019   0.369   6.516  1.9254 -2.5130 -0.4281
 2303SOL     OW18541   3.237   2.181   5.630  0.3276  0.2048 -0.1487
 2303SOL    HW118542   3.244   2.216   5.541  1.8951 -1.1093 -0.5362
 2303SOL    HW218543   3.271   2.093   5.620  0.6490  0.3085  0.0278
 2304SOL     OW18544   3.035   2.418   3.345 -0.5124 -0.3420  0.2512
 2304SOL    HW118545   3.001   2.493   3.296 -0.0666  0.1663  0.7206
 2304SOL    HW218546   3.129   2.437   3.339 -0.9980  2.2449  1.1141
 2305SOL     OW18547   2.525   1.594   3.370  0.4134 -0.1265  0.3075
 2305SOL    HW118548   2.619   1.612   3.369  0.2909  0.4625 -0.9242
 2305SOL    HW218549   2.516   1.559   3.459  0.9868 -0.8267  0.0864
 2306SOL     OW18550   4.227   1.533   6.126  0.4105 -0.5058 -0.2045
 2306SOL    HW118551   4.153   1.594   6.114 -0.1194 -0.9783  0.6918
 2306SOL    HW218552   4.277   1.569   6.199  1.2057 -0.6355 -0.6826
 2307SOL     OW18553   4.236   3.485   1.091  0.0750  0.5820  0.0482
 2307SOL    HW118554   4.199   3.400   1.071  0.6269  0.0763  1.1825
 2307SOL    HW218555   4.314   3.454   1.137  0.0100  0.6353  0.1953
 2308SOL     OW18556   0.000   2.040   6.026 -0.1708 -0.1483 -0.5682
 2308SOL    HW118557   4.669   1.995   6.075 -0.8233 -0.0355 -1.3904
 2308SOL    HW218558   0.006   1.988   5.945  1.9116 -4.5419  2.4102
 2309SOL     OW18559   3.192   2.966   6.264 -0.0291  0.0263 -0.0713
 2309SOL    HW118560   3.157   3.051   6.242 -0.5578 -0.6074 -1.6684
 2309SOL    HW218561   3.187   2.922   6.179  2.0791  2.9047 -1.7030
 2310SOL     OW18562   2.788   2.694  14.370 -0.5724 -0.0947 -0.1161
 2310SOL    HW118563   2.827   2.615  14.407 -2.0742 -0.7131  0.1729
 2310SOL    HW218564   2.800   2.752  14.445  0.9321 -1.2637  0.5268
 2311SOL     OW18565   0.185   4.109   4.086  0.4555  0.1241  0.3834
 2311SOL    HW118566   0.246   4.101   4.013 -1.7446  1.1538 -1.5857
 2311SOL    HW218567   0.229   4.164   4.151 -0.0935 -0.6738  1.4305
 2312SOL     OW18568   2.336   2.632  15.631  0.7132  0.6452 -0.0117
 2312SOL    HW118569   2.384   2.704  15.589 -0.8584  0.3275 -2.3575
 2312SOL    HW218570   2.396   2.600  15.698 -0.8042  1.4747  1.7227
 2313SOL     OW18571   2.870   1.990   4.767  0.9532 -0.6957 -0.5261
 2313SOL    HW118572   2.881   2.033   4.852 -1.1099  0.5358 -0.8971
 2313SOL    HW218573   2.826   2.063   4.724  1.0631  0.8983  2.0596
 2314SOL     OW18574   3.542   2.828  16.538  0.1088  0.4294 -0.1457
 2314SOL    HW118575   3.527   2.922  16.538  1.0326  0.5791  0.3574
 2314SOL    HW218576   3.450   2.803  16.549 -0.1943  1.5631 -0.1535
 2315SOL     OW18577   1.598   1.597   4.493 -0.5065 -0.2005  0.9424
 2315SOL    HW118578   1.573   1.585   4.585  0.9715  0.0949  1.3742
 2315SOL    HW218579   1.617   1.690   4.492 -2.2126  0.1359  0.0526
 2316SOL     OW18580   0.941   4.282   8.188 -0.1299 -0.0642 -0.0022
 2316SOL    HW118581   0.963   4.371   8.216 -1.2692  0.5700 -1.1098
 2316SOL    HW218582   0.929   4.300   8.095 -0.3388 -0.5161 -0.0605
 2317SOL     OW18583   0.223   1.999  16.317 -0.0997 -0.5234  0.9309
 2317SOL    HW118584   0.229   2.024  16.409  0.2235  2.4747  0.1143
 2317SOL    HW218585   0.247   2.083  16.278  2.3618 -2.5066 -1.8372
 2318SOL     OW18586   2.276   3.529   5.543 -0.6584 -0.1684 -1.1718
 2318SOL    HW118587   2.248   3.616   5.515  2.4076 -0.0780 -3.9347
 2318SOL    HW218588   2.225   3.529   5.624  1.8164 -0.9793  0.3512
 2319SOL     OW18589   3.149   1.342   1.468  0.7449  0.1820  0.9228
 2319SOL    HW118590   3.168   1.276   1.401 -0.3256  2.5381 -1.6996
 2319SOL    HW218591   3.217   1.405   1.444 -0.1758  1.4657  1.6706
 2320SOL     OW18592   1.372   1.071   3.910 -0.9683  0.2026 -0.3490
 2320SOL    HW118593   1.457   1.094   3.874  0.5243 -1.2364  2.2454
 2320SOL    HW218594   1.318   1.132   3.860  1.2874  1.0124 -1.7725
 2321SOL     OW18595   3.152   2.904   7.005  0.3741  0.2350 -0.0747
 2321SOL    HW118596   3.091   2.970   6.971 -0.1696 -0.5817 -0.6761
 2321SOL    HW218597   3.099   2.871   7.078  0.6238  0.3240  0.1434
 2322SOL     OW18598   3.262   4.605   4.552  0.1179  0.2142 -0.3116
 2322SOL    HW118599   3.252   4.519   4.593 -2.0333 -1.3725 -4.1299
 2322SOL    HW218600   3.173   4.635   4.535  0.7674  3.3220  1.9268
 2323SOL     OW18601   1.664   2.037   1.960 -0.7486  0.0016 -0.2027
 2323SOL    HW118602   1.641   1.961   1.906 -0.9329  0.7401 -1.1724
 2323SOL    HW218603   1.627   2.106   1.906 -0.9894  0.8112  0.9984
 2324SOL     OW18604   2.888   3.426   7.778 -0.1977 -0.1066  0.2402
 2324SOL    HW118605   2.958   3.367   7.749  0.6169  1.8011 -1.6552
 2324SOL    HW218606   2.854   3.456   7.693  1.0373  1.3575  0.2753
 2325SOL     OW18607   3.165   1.172   4.263 -0.2250 -0.5938 -0.0506
 2325SOL    HW118608   3.100   1.207   4.324 -1.0202 -1.1943 -0.5649
 2325SOL    HW218609   3.205   1.251   4.228 -1.6167  0.4291  0.6948
 2326SOL     OW18610   1.057   2.494   5.355  0.4623 -0.4059  0.1731
 2326SOL    HW118611   1.095   2.541   5.281  0.2540  0.7412  0.8026
 2326SOL    HW218612   1.117   2.424   5.383  1.4582  0.7181  0.8456
 2327SOL     OW18613   2.074   0.067  14.170 -0.0750 -0.5387 -0.7499
 2327SOL    HW118614   2.051   0.061  14.077 -0.2242 -2.7428 -0.5902
 2327SOL    HW218615   2.166   0.042  14.172  0.2004  0.5035 -0.6833
 2328SOL     OW18616   1.260   3.175  16.093 -0.4410 -0.2300  0.6633
 2328SOL    HW118617   1.213   3.248  16.051 -0.6474 -0.4485  0.5116
 2328SOL    HW218618   1.307   3.223  16.161  2.9242  0.1155 -1.9053
 2329SOL     OW18619   0.973   3.894   8.721  0.4791 -0.9132 -0.0639
 2329SOL    HW118620   0.983   3.987   8.743  1.3228 -0.6387 -1.5500
 2329SOL    HW218621   0.946   3.860   8.806  2.2978 -0.5634  0.6671
 2330SOL     OW18622   1.940   0.095   4.322 -0.5191  0.2654 -0.1127
 2330SOL    HW118623   1.974   0.144   4.397  1.3744  0.1221 -0.8727
 2330SOL    HW218624   2.015   0.099   4.262 -0.8243 -1.6388 -0.6290
 2331SOL     OW18625   1.139   2.437  16.815  0.2440 -0.0209 -0.1313
 2331SOL    HW118626   1.190   2.424  16.735  0.0840 -4.6805  0.5360
 2331SOL    HW218627   1.073   2.493  16.775  0.9869  0.2982 -0.9089
 2332SOL     OW18628   4.209   3.054   5.039  0.3354  0.0044  0.0935
 2332SOL    HW118629   4.178   3.126   4.983 -1.7667 -1.3321 -0.4420
 2332SOL    HW218630   4.295   3.036   5.000  0.8651  1.7553  0.4099
 2333SOL     OW18631   0.332   1.822   4.469 -0.1795 -0.3058 -0.0064
 2333SOL    HW118632   0.328   1.782   4.557  1.3845  1.7708  1.0080
 2333SOL    HW218633   0.403   1.884   4.483  0.2996 -1.4465  2.8543
 2334SOL     OW18634   2.223   1.922   6.196 -0.2305 -0.5819  0.5785
 2334SOL    HW118635   2.250   1.896   6.284  1.2077 -0.5329  0.1566
 2334SOL    HW218636   2.303   1.959   6.159 -0.3156 -0.5302  0.4487
 2335SOL     OW18637   0.112   2.294   9.263  0.4446  0.1084  0.2755
 2335SOL    HW118638   0.179   2.318   9.327 -0.4771  0.2301  1.1908
 2335SOL    HW218639   0.054   2.370   9.265 -0.4970 -0.5769 -0.9529
 2336SOL     OW18640   0.383   1.480   3.826 -0.0783  0.8233  0.0952
 2336SOL    HW118641   0.398   1.390   3.854  0.4109  0.5476 -1.0274
 2336SOL    HW218642   0.303   1.467   3.775  0.4760  1.2255 -0.8744
 2337SOL     OW18643   3.647   3.062   4.675 -0.0272 -0.2827 -0.4536
 2337SOL    HW118644   3.738   3.084   4.658  0.2300  0.1805  1.5538
 2337SOL    HW218645   3.654   2.967   4.666  0.3640 -0.5985  3.1776
 2338SOL     OW18646   3.150   3.449   4.335  0.3854 -0.4019  0.4372
 2338SOL    HW118647   3.217   3.390   4.369  3.4579  3.5361  1.1364
 2338SOL    HW218648   3.162   3.444   4.240  2.1452 -0.1914  0.6532
 2339SOL     OW18649   0.278   0.245   5.703 -0.0969 -0.0842  0.1487
 2339SOL    HW118650   0.293   0.232   5.796  1.1757  1.5066  0.1539
 2339SOL    HW218651   0.288   0.160   5.660 -0.4722  0.3621 -0.8213
 2340SOL     OW18652   3.815   3.522   4.357 -0.1075  0.2036  0.4646
 2340SOL    HW118653   3.767   3.452   4.401  0.5235 -0.1749  0.5492
 2340SOL    HW218654   3.900   3.481   4.340 -0.2671  1.2191 -2.8435
 2341SOL     OW18655   4.037   0.918   6.531 -0.2810 -0.0469  0.1972
 2341SOL    HW118656   3.985   0.972   6.472  1.8506  0.4816 -1.1875
 2341SOL    HW218657   4.114   0.909   6.475 -1.8082  1.0081 -2.0853
 2342SOL     OW18658   3.775   1.354   4.492  0.3299 -0.2732  0.2783
 2342SOL    HW118659   3.853   1.318   4.449  0.5381  0.5639 -0.0322
 2342SOL    HW218660   3.762   1.299   4.569  0.1882  0.2329  0.6143
 2343SOL     OW18661   2.784   4.659   4.186 -0.0022  0.0143 -0.0723
 2343SOL    HW118662   2.829   4.695   4.262  1.1426  0.5345 -0.9882
 2343SOL    HW218663   2.855   4.656   4.121  0.5077 -1.1892  0.5371
 2344SOL     OW18664   3.061   1.856   9.874 -0.0800  0.5538  0.8927
 2344SOL    HW118665   3.123   1.783   9.874 -1.8771 -0.9862 -1.7115
 2344SOL    HW218666   3.116   1.918   9.922 -1.2543  0.3180  2.5541
 2345SOL     OW18667   0.527   2.152   3.846 -0.6026  0.0422 -0.5579
 2345SOL    HW118668   0.619   2.130   3.831 -0.4358  0.2946  0.1073
 2345SOL    HW218669   0.502   2.086   3.910 -0.7414 -0.8933 -1.5784
 2346SOL     OW18670   0.300   0.931   1.213  0.4412  0.8549 -0.9591
 2346SOL    HW118671   0.254   0.900   1.135  3.4620 -1.0660 -1.9810
 2346SOL    HW218672   0.296   1.026   1.203  0.1435  1.0861  1.3303
 2347SOL     OW18673   0.998   2.095   0.457  0.3376 -0.1976  0.2708
 2347SOL    HW118674   1.063   2.165   0.448  0.0035 -0.0482 -1.0001
 2347SOL    HW218675   0.921   2.146   0.432  0.0067 -1.0344 -0.3961
 2348SOL     OW18676   0.035   3.848  12.947  0.3564 -0.4014  0.6733
 2348SOL    HW118677   0.053   3.777  13.008  3.0723  0.3651  0.7802
 2348SOL    HW218678   4.723   3.912  12.997  0.9641  0.4977  0.1524
 2349SOL     OW18679   1.534   3.911   7.397  0.0514  0.3488  0.1028
 2349SOL    HW118680   1.542   3.969   7.322  1.2337  0.5446  0.3955
 2349SOL    HW218681   1.496   3.967   7.465 -0.3401 -1.0138  1.0176
 2350SOL     OW18682   3.777   4.532  10.363 -0.3480  0.1024 -0.3568
 2350SOL    HW118683   3.828   4.453  10.383  0.0767  0.6068  0.5658
 2350SOL    HW218684   3.722   4.539  10.442 -0.1682 -0.5944 -0.1635
 2351SOL     OW18685   2.878   0.912   0.703 -0.4611 -0.1768  0.2178
 2351SOL    HW118686   2.834   0.864   0.632 -1.8870  2.1650 -0.4724
 2351SOL    HW218687   2.854   0.996   0.663 -0.4152  0.6008  1.8530
 2352SOL     OW18688   4.415   0.858  14.439 -0.9968  0.8844 -0.3447
 2352SOL    HW118689   4.372   0.841  14.355 -0.3898  0.3040 -0.5409
 2352SOL    HW218690   4.385   0.779  14.483  2.5063 -0.3514 -0.2061
 2353SOL     OW18691   0.704   3.930  10.053  0.2246 -0.1428  0.1889
 2353SOL    HW118692   0.735   3.840  10.067 -1.9820 -1.1039 -0.9958
 2353SOL    HW218693   0.789   3.973  10.059  0.0867  0.1305  0.1498
 2354SOL     OW18694   3.906   0.087   6.949 -0.4644 -0.5508  0.0902
 2354SOL    HW118695   3.905   0.151   6.878  0.0295 -0.2690  0.3366
 2354SOL    HW218696   3.845   0.120   7.015  0.5277  1.4620  0.0078
 2355SOL     OW18697   4.537   4.022   1.270  0.6618  0.4977 -0.0502
 2355SOL    HW118698   4.499   3.934   1.274 -2.5453  1.8638 -0.7776
 2355SOL    HW218699   4.458   4.074   1.282  1.1636  1.0324  0.9115
 2356SOL     OW18700   2.222   0.200  15.896  0.7494  0.3477 -0.0001
 2356SOL    HW118701   2.224   0.127  15.958  2.0343 -0.0002 -0.4637
 2356SOL    HW218702   2.313   0.199  15.868  0.7199 -0.0828 -0.0814
 2357SOL     OW18703   1.897   3.531   7.875 -0.2405  0.1590  0.1769
 2357SOL    HW118704   1.949   3.584   7.814  0.7627  1.1966  1.9339
 2357SOL    HW218705   1.951   3.517   7.953  1.0664  1.5955 -0.4576
 2358SOL     OW18706   0.061   1.970   9.707  0.2126  0.1930  0.5510
 2358SOL    HW118707   0.156   1.958   9.699 -0.1683 -1.4698 -1.6262
 2358SOL    HW218708   0.034   2.004   9.622 -0.4898  0.3174  0.8306
 2359SOL     OW18709   0.466   3.720   4.243  0.1919 -0.5739 -0.2234
 2359SOL    HW118710   0.497   3.807   4.217 -0.7242 -0.1198  0.1823
 2359SOL    HW218711   0.459   3.674   4.159 -1.5803  3.0048 -2.0451
 2360SOL     OW18712   1.812   3.287   4.381  0.0059  0.0711  0.4118
 2360SOL    HW118713   1.849   3.365   4.340 -1.6595  0.0112 -1.1625
 2360SOL    HW218714   1.854   3.217   4.330  1.2092 -0.0874  1.6040
 2361SOL     OW18715   1.487   0.072   4.124 -0.0064  0.2587  0.4184
 2361SOL    HW118716   1.542   0.132   4.173  1.3554 -0.5311 -0.1432
 2361SOL    HW218717   1.453   0.127   4.054  0.7012 -1.4142 -1.2618
 2362SOL     OW18718   2.387   0.518  17.351 -0.0132 -0.4022  0.1367
 2362SOL    HW118719   2.338   0.565  17.283 -0.7880  0.7641  1.4877
 2362SOL    HW218720   2.319   0.524  17.419 -2.1609 -0.3246 -1.9945
 2363SOL     OW18721   0.206   4.346   2.753  0.3671  0.0018 -0.3100
 2363SOL    HW118722   0.141   4.392   2.701 -0.3663 -1.0014 -0.2863
 2363SOL    HW218723   0.181   4.359   2.845  0.3306 -1.4736 -0.0982
 2364SOL     OW18724   3.055   0.589   4.805 -0.6706  0.4579  0.4426
 2364SOL    HW118725   3.143   0.565   4.835 -0.3810 -0.7625 -1.3805
 2364SOL    HW218726   3.066   0.676   4.767  0.5611 -0.6545 -1.7799
 2365SOL     OW18727   1.417   1.917   6.420 -0.2662 -0.7310  0.3051
 2365SOL    HW118728   1.383   1.843   6.370 -1.2705 -0.5957  0.8045
 2365SOL    HW218729   1.335   1.961   6.442 -0.7272  0.3226 -3.5601
 2366SOL     OW18730   3.639   0.593   5.556  0.0894 -0.0810 -0.1817
 2366SOL    HW118731   3.600   0.612   5.641  1.0077 -0.4430  0.3179
 2366SOL    HW218732   3.576   0.636   5.499 -0.5643 -1.6020 -0.6081
 2367SOL     OW18733   1.217   2.778  17.667 -0.4790  0.7879  0.0090
 2367SOL    HW118734   1.286   2.712  17.672 -0.8673  0.4094  0.4441
 2367SOL    HW218735   1.247   2.848  17.610  0.4705  0.3794  0.0121
 2368SOL     OW18736   3.391   1.206   6.368  0.2091  0.1295 -0.0883
 2368SOL    HW118737   3.403   1.278   6.430  1.8507  0.1078 -0.3758
 2368SOL    HW218738   3.330   1.148   6.413  2.6523 -2.4790 -0.1560
 2369SOL     OW18739   1.617   3.647  15.032 -0.1568  0.1959 -0.6995
 2369SOL    HW118740   1.699   3.688  15.059 -0.6494 -0.0858  1.2346
 2369SOL    HW218741   1.629   3.618  14.941 -1.1394 -0.9643 -0.4576
 2370SOL     OW18742   1.947   2.436  12.509  0.4020 -0.0316  0.5650
 2370SOL    HW118743   1.869   2.492  12.512 -1.2837 -2.3534  0.1465
 2370SOL    HW218744   2.013   2.487  12.556 -1.1228  1.4717  1.0899
 2371SOL     OW18745   4.497   3.546   3.364  0.2089  0.3420 -0.3692
 2371SOL    HW118746   4.588   3.521   3.352 -0.1492 -0.4954 -1.3000
 2371SOL    HW218747   4.459   3.476   3.417  0.0094  1.0248  0.3924
 2372SOL     OW18748   2.536   2.622   9.312  0.4189 -0.0640 -0.2947
 2372SOL    HW118749   2.620   2.600   9.353 -0.8341 -2.6000  0.8967
 2372SOL    HW218750   2.475   2.549   9.312  0.7410 -0.3372  0.5458
 2373SOL     OW18751   0.409   0.084   0.383 -0.0274  0.1322  0.0574
 2373SOL    HW118752   0.453   0.109   0.302 -1.1226 -0.9364 -0.8805
 2373SOL    HW218753   0.338   0.147   0.398  1.2512  1.4338  0.6045
 2374SOL     OW18754   2.323   4.238   3.537 -0.6382 -0.1872  0.1632
 2374SOL    HW118755   2.352   4.231   3.447  1.9704  3.0476  0.7389
 2374SOL    HW218756   2.332   4.154   3.580  0.1433 -0.9573 -1.5306
 2375SOL     OW18757   2.664   1.992   1.085  0.5108  0.3373 -0.1774
 2375SOL    HW118758   2.737   2.054   1.090  0.5766  0.3313 -1.1058
 2375SOL    HW218759   2.654   1.969   1.178 -1.5177  1.1642 -0.2103
 2376SOL     OW18760   2.175   1.998   7.666  0.2821  0.0403  0.1458
 2376SOL    HW118761   2.115   2.027   7.734  1.4341  0.0657  1.1354
 2376SOL    HW218762   2.120   1.939   7.614 -1.1949 -0.9194  2.7905
 2377SOL     OW18763   0.206   1.732   9.275 -0.4709 -0.0762  0.1227
 2377SOL    HW118764   0.120   1.698   9.297 -0.5527 -1.0172 -1.6495
 2377SOL    HW218765   0.186   1.813   9.228  1.7434 -0.1234 -0.9173
 2378SOL     OW18766   2.828   2.931   3.170 -0.3737 -0.4818  0.4193
 2378SOL    HW118767   2.857   2.973   3.089  2.6179 -0.1376  1.6377
 2378SOL    HW218768   2.737   2.957   3.157 -0.1372 -0.2180 -0.7026
 2379SOL     OW18769   3.795   3.178   4.196 -0.5245 -0.1823 -0.0191
 2379SOL    HW118770   3.761   3.161   4.108  1.4632 -0.8776 -0.6453
 2379SOL    HW218771   3.883   3.208   4.173  0.0634 -2.5110 -0.7420
 2380SOL     OW18772   3.528   1.140   3.941 -0.2733 -0.3248 -0.1085
 2380SOL    HW118773   3.516   1.073   3.873  1.9500 -2.2480  1.3941
 2380SOL    HW218774   3.437   1.144   3.969  0.4920  2.3598  1.8705
 2381SOL     OW18775   1.066   4.522   9.607 -0.6318 -0.1325  0.3689
 2381SOL    HW118776   1.105   4.546   9.523  0.4006  1.4517  1.3172
 2381SOL    HW218777   1.061   4.611   9.643  0.9844  0.5977 -1.2182
 2382SOL     OW18778   2.411   3.962  10.394  0.2248 -0.1503 -0.0448
 2382SOL    HW118779   2.342   3.983  10.457  1.1570  1.3876  0.4626
 2382SOL    HW218780   2.437   4.050  10.367 -0.6864 -0.0781 -0.6987
 2383SOL     OW18781   3.022   4.058   6.134  0.0853 -0.0457  0.5735
 2383SOL    HW118782   2.956   4.093   6.194  1.6417 -0.3604  2.4916
 2383SOL    HW218783   3.039   4.138   6.085 -0.6868 -0.3679 -0.2159
 2384SOL     OW18784   1.985   1.776   6.243  0.1611  0.0942  0.1543
 2384SOL    HW118785   2.063   1.811   6.200 -0.3525 -0.6830 -1.4212
 2384SOL    HW218786   1.935   1.856   6.255  2.0885  1.2270  0.6640
 2385SOL     OW18787   2.141   1.945   6.891 -0.1702  0.3247  0.3462
 2385SOL    HW118788   2.069   1.953   6.954 -2.4151 -2.0287 -1.9287
 2385SOL    HW218789   2.113   1.868   6.842 -0.1830  1.5418 -1.5682
 2386SOL     OW18790   2.498   1.737   8.770 -0.2448 -0.4718  0.2079
 2386SOL    HW118791   2.568   1.699   8.823 -0.2404 -0.3735  0.2746
 2386SOL    HW218792   2.467   1.805   8.831 -0.9806 -0.4094 -0.2362
 2387SOL     OW18793   4.436   0.145   9.467 -0.0306 -0.1449  0.1543
 2387SOL    HW118794   4.359   0.186   9.427 -0.2878 -1.8750 -1.1174
 2387SOL    HW218795   4.501   0.205   9.431  0.2148  0.1824  1.1435
 2388SOL     OW18796   0.638   0.092   5.862 -0.1718 -0.1484 -0.1614
 2388SOL    HW118797   0.610   0.124   5.776  0.4008 -0.9331 -0.6429
 2388SOL    HW218798   0.681   0.013   5.828 -3.3557 -1.7460 -0.4604
 2389SOL     OW18799   3.975   4.136   4.009  0.4616  0.0905 -0.1462
 2389SOL    HW118800   3.987   4.044   4.031  1.6507  0.1200 -0.6319
 2389SOL    HW218801   3.899   4.152   4.064 -0.0979  0.2709 -0.9756
 2390SOL     OW18802   2.189   4.542   2.721 -0.0860  0.7815 -0.1665
 2390SOL    HW118803   2.264   4.516   2.667 -0.5881  0.2512 -0.6140
 2390SOL    HW218804   2.223   4.580   2.801 -0.8440  1.1216 -0.0014
 2391SOL     OW18805   2.871   4.144   2.595  0.3022  0.5139 -0.0500
 2391SOL    HW118806   2.953   4.125   2.549  1.4671  1.2373  1.7189
 2391SOL    HW218807   2.815   4.166   2.521  0.6249 -2.1668 -1.0841
 2392SOL     OW18808   1.858   2.357  15.826  0.3568 -0.2765 -0.0142
 2392SOL    HW118809   1.895   2.268  15.827 -0.1480 -0.4543  2.1328
 2392SOL    HW218810   1.774   2.342  15.784 -1.3025  0.7876  2.9512
 2393SOL     OW18811   0.216   2.298   5.848 -0.4556 -0.0138  0.3648
 2393SOL    HW118812   0.243   2.212   5.881  0.6918  0.3732  0.4480
 2393SOL    HW218813   0.133   2.292   5.801 -0.1994 -1.2728  0.0704
 2394SOL     OW18814   2.604   4.321   1.771  0.3421 -0.1257  0.5804
 2394SOL    HW118815   2.624   4.394   1.830 -1.4935  0.8254  0.0327
 2394SOL    HW218816   2.623   4.245   1.826  1.1575  0.1523  0.6856
 2395SOL     OW18817   2.768   3.512  14.518  0.4902  0.1962 -0.2464
 2395SOL    HW118818   2.722   3.514  14.602  0.9802  1.1180  0.0140
 2395SOL    HW218819   2.837   3.448  14.534 -1.9703 -2.1300  0.9605
 2396SOL     OW18820   3.000   2.939   4.727 -0.3503 -0.7196 -0.4101
 2396SOL    HW118821   2.966   3.028   4.734 -0.9302 -0.9163 -0.7147
 2396SOL    HW218822   3.000   2.914   4.819 -1.2387  1.4669  0.1818
 2397SOL     OW18823   2.093   2.132   5.626 -0.4624  0.1324 -0.1937
 2397SOL    HW118824   2.042   2.133   5.707 -1.2553  3.3365 -0.7271
 2397SOL    HW218825   2.167   2.084   5.662  1.3679  2.0701 -1.3712
 2398SOL     OW18826   1.568   3.131   8.729  0.0861 -0.2528 -0.1309
 2398SOL    HW118827   1.649   3.085   8.709 -0.1902 -1.4365  1.4055
 2398SOL    HW218828   1.507   3.057   8.731  0.2301 -0.3244  2.4678
 2399SOL     OW18829   3.501   0.402  12.606  0.3303 -0.6393 -0.6274
 2399SOL    HW118830   3.524   0.445  12.688 -1.5454  1.2309 -1.0791
 2399SOL    HW218831   3.461   0.318  12.630 -2.5907  0.2829 -2.2795
 2400SOL     OW18832   4.202   1.850   2.894  0.2259 -0.3001 -0.1897
 2400SOL    HW118833   4.150   1.796   2.834 -1.3286  1.7531 -0.6918
 2400SOL    HW218834   4.250   1.781   2.941  2.0469  1.0589 -0.0806
 2401SOL     OW18835   2.582   0.200   0.009 -0.0639  0.5196 -0.4285
 2401SOL    HW118836   2.626   0.174  17.680  0.9536  0.4703  0.1446
 2401SOL    HW218837   2.493   0.201  17.724 -1.3921  1.9367  2.8376
 2402SOL     OW18838   4.416   2.473   5.866  0.2313 -0.3286  0.6916
 2402SOL    HW118839   4.490   2.533   5.876 -0.8578  0.8737  1.6901
 2402SOL    HW218840   4.341   2.534   5.864 -0.9141 -1.7057  1.4055
 2403SOL     OW18841   1.159   2.120  12.231  0.1353 -0.2902  0.1720
 2403SOL    HW118842   1.096   2.182  12.268  1.3530  1.0571 -0.0424
 2403SOL    HW218843   1.110   2.038  12.222  0.8545 -0.6150 -0.7410
 2404SOL     OW18844   3.550   4.555   7.962  0.3878  0.0263  0.0416
 2404SOL    HW118845   3.470   4.598   7.991  0.0233  0.6204 -1.8010
 2404SOL    HW218846   3.565   4.491   8.032 -0.9237 -1.2162 -0.8015
 2405SOL     OW18847   0.880   0.198   1.632 -0.1309 -0.0025 -0.4319
 2405SOL    HW118848   0.897   0.292   1.631 -0.1407  0.0006  0.7145
 2405SOL    HW218849   0.969   0.167   1.615  0.2061  0.2398  0.8997
 2406SOL     OW18850   2.247   1.009   1.966 -0.5606  0.0152  0.1568
 2406SOL    HW118851   2.304   0.969   1.901  0.1850  0.1733  0.7073
 2406SOL    HW218852   2.232   1.097   1.931 -0.9324 -1.1367 -2.5586
 2407SOL     OW18853   1.851   2.312   8.301 -0.2207  0.3329  0.2439
 2407SOL    HW118854   1.855   2.401   8.267  1.2272  0.5945  1.1462
 2407SOL    HW218855   1.758   2.293   8.313  0.7002 -2.6723  2.5886
 2408SOL     OW18856   0.953   0.743  15.719 -0.1233 -0.1880 -0.1883
 2408SOL    HW118857   0.976   0.828  15.682  1.9199 -1.3849 -1.7035
 2408SOL    HW218858   1.044   0.714  15.731  0.5182  1.6716 -0.5945
 2409SOL     OW18859   1.519   0.367   6.962  0.1503  0.0045 -0.6983
 2409SOL    HW118860   1.453   0.435   6.976 -1.9705 -2.3513  0.8228
 2409SOL    HW218861   1.596   0.424   6.958  1.0755 -1.1267  0.9168
 2410SOL     OW18862   1.738   2.355   2.332  0.3354  0.6126  0.1644
 2410SOL    HW118863   1.651   2.355   2.294 -0.3972  1.3344  1.8522
 2410SOL    HW218864   1.717   2.362   2.425  0.0651  0.7298  0.0924
 2411SOL     OW18865   3.481   2.120   8.488 -0.0717 -0.4218  1.4830
 2411SOL    HW118866   3.452   2.189   8.548  0.7959  1.1990  0.0736
 2411SOL    HW218867   3.477   2.168   8.405 -1.9647  0.6298  2.1700
 2412SOL     OW18868   1.455   4.572  11.687  0.7264 -0.2712  0.3051
 2412SOL    HW118869   1.486   4.533  11.769  1.0642 -0.1407  0.2378
 2412SOL    HW218870   1.361   4.559  11.694  0.3905  0.6105 -2.4986
 2413SOL     OW18871   3.369   2.680   2.641  0.3518 -0.3872 -0.0231
 2413SOL    HW118872   3.341   2.599   2.683  0.2355 -0.9866 -1.2499
 2413SOL    HW218873   3.419   2.715   2.715 -0.1950 -0.6515  0.4754
 2414SOL     OW18874   0.018   2.906   9.203 -0.2125  0.1865 -0.3696
 2414SOL    HW118875   0.068   2.976   9.245 -0.2686  0.2621 -0.4283
 2414SOL    HW218876   0.062   2.825   9.229 -0.6575  0.9310  2.6971
 2415SOL     OW18877   2.973   0.382   3.866 -0.1787  0.0939 -0.6134
 2415SOL    HW118878   2.883   0.354   3.881  0.4978 -0.9655  1.5109
 2415SOL    HW218879   2.978   0.356   3.774  0.9259 -2.2264  0.1208
 2416SOL     OW18880   2.255   1.512   4.119 -0.3366  0.1407 -0.1214
 2416SOL    HW118881   2.201   1.452   4.068  0.2054  0.9899 -1.6895
 2416SOL    HW218882   2.183   1.560   4.161  1.6567  1.4371  1.8231
 2417SOL     OW18883   2.348   0.500  16.000  0.1633  0.1368  0.2134
 2417SOL    HW118884   2.333   0.488  15.907 -1.2846  2.0939  0.1731
 2417SOL    HW218885   2.343   0.596  16.001  2.0898  0.2489 -0.3683
 2418SOL     OW18886   0.189   0.744   1.811  0.3432 -0.0118  0.8018
 2418SOL    HW118887   0.127   0.817   1.810  0.5847  0.1243 -2.4277
 2418SOL    HW218888   0.267   0.778   1.768  1.0813 -3.0540 -0.2834
 2419SOL     OW18889   0.472   2.838   9.848  0.5350 -0.1098  0.5120
 2419SOL    HW118890   0.521   2.789   9.914  0.3784  0.7220  1.2494
 2419SOL    HW218891   0.493   2.929   9.869  0.6644 -0.0594  0.1733
 2420SOL     OW18892   0.329   0.161   7.531 -0.1671  0.0104 -0.4801
 2420SOL    HW118893   0.383   0.151   7.609 -0.5319 -0.5254 -0.2938
 2420SOL    HW218894   0.249   0.120   7.564 -1.9269  2.0065 -2.2933
 2421SOL     OW18895   0.227   4.668   6.920 -0.9335  0.4592 -0.0986
 2421SOL    HW118896   0.312   4.658   6.963 -0.3613  1.0825 -1.0919
 2421SOL    HW218897   0.194   0.016   6.944  2.0715  1.7554 -0.5285
 2422SOL     OW18898   4.333   2.169   9.310 -0.2388 -0.3783  0.1064
 2422SOL    HW118899   4.283   2.243   9.344 -2.1812 -1.9097  0.6111
 2422SOL    HW218900   4.315   2.168   9.216 -0.1622 -1.7210  0.1059
 2423SOL     OW18901   4.468   3.789   6.565  0.1209 -0.2494  0.6965
 2423SOL    HW118902   4.499   3.800   6.655  1.4077  0.4746  0.1605
 2423SOL    HW218903   4.462   3.881   6.539 -1.2908 -0.2518  1.0028
 2424SOL     OW18904   4.260   3.919  12.952 -0.1043  0.8192  0.3453
 2424SOL    HW118905   4.318   3.847  12.979 -2.6710 -0.6866  1.8190
 2424SOL    HW218906   4.289   3.938  12.863  1.3211  0.2486  0.6805
 2425SOL     OW18907   4.393   3.544   6.993 -0.5894  0.0954 -0.5472
 2425SOL    HW118908   4.427   3.594   7.067  0.1766 -0.3446 -0.6029
 2425SOL    HW218909   4.449   3.567   6.918 -2.5104  2.8922 -1.1225
 2426SOL     OW18910   0.880   0.719   1.555  0.1643  0.0462  0.1116
 2426SOL    HW118911   0.799   0.698   1.509  0.4364 -0.6545 -0.0436
 2426SOL    HW218912   0.914   0.632   1.578 -0.7302 -0.2895  0.1684
 2427SOL     OW18913   0.496   2.098   8.764 -0.2646 -0.2166 -0.1381
 2427SOL    HW118914   0.564   2.048   8.810  1.5115  1.1191 -1.2841
 2427SOL    HW218915   0.553   2.111   8.688  0.8071  0.7203  0.8302
 2428SOL     OW18916   2.514   2.741   9.744 -0.0920 -0.0883  0.0776
 2428SOL    HW118917   2.450   2.743   9.816  1.0112 -0.8166  1.0875
 2428SOL    HW218918   2.580   2.804   9.773 -0.3343  0.0155  0.4104
 2429SOL     OW18919   2.848   3.210   2.661  0.2406 -0.0503  0.5135
 2429SOL    HW118920   2.792   3.155   2.607  0.2640 -0.1079  0.5479
 2429SOL    HW218921   2.923   3.207   2.601 -2.3176  0.3246 -2.6696
 2430SOL     OW18922   0.927   2.423   4.459 -1.0321 -0.5083  0.1111
 2430SOL    HW118923   1.014   2.458   4.440 -0.4210 -0.3797  3.2019
 2430SOL    HW218924   0.921   2.360   4.387  1.3886  0.4962 -0.9780
 2431SOL     OW18925   3.240   2.120  10.495 -0.4076 -0.5280 -0.0156
 2431SOL    HW118926   3.194   2.073  10.564 -0.9965 -0.0019 -0.0471
 2431SOL    HW218927   3.262   2.051  10.433  0.7676  0.7074 -0.9840
 2432SOL     OW18928   0.052   1.108  14.597  0.4008 -0.2478  0.2006
 2432SOL    HW118929   0.056   1.013  14.584 -1.1606 -0.4560  1.3207
 2432SOL    HW218930   0.143   1.127  14.572  0.5204  0.6042  1.3177
 2433SOL     OW18931   4.692   1.403   3.877  0.3828 -0.2736 -0.3108
 2433SOL    HW118932   0.003   1.389   3.958  2.5021  0.9191 -1.3822
 2433SOL    HW218933   0.002   1.354   3.809  1.8808  1.5167 -0.5380
 2434SOL     OW18934   2.885   4.218   0.471  0.0544  0.7344  0.0762
 2434SOL    HW118935   2.932   4.213   0.388  0.5181  1.2498  0.3155
 2434SOL    HW218936   2.910   4.135   0.512  0.3797 -0.2237 -2.0743
 2435SOL     OW18937   1.396   0.045   9.375  0.1764  0.0555 -0.3847
 2435SOL    HW118938   1.434   0.057   9.462  0.9081  1.9254 -0.9685
 2435SOL    HW218939   1.422   4.696   9.348 -1.6714 -0.6450  0.1185
 2436SOL     OW18940   4.368   0.634  13.208  0.3877 -0.1078 -0.0046
 2436SOL    HW118941   4.342   0.704  13.267  0.7495 -1.5368  1.8214
 2436SOL    HW218942   4.422   0.683  13.145 -0.3715 -2.4432 -2.4741
 2437SOL     OW18943   2.739   4.576   8.884  0.1004 -0.0656  0.3401
 2437SOL    HW118944   2.796   4.514   8.839 -0.1223 -1.2577  1.7285
 2437SOL    HW218945   2.689   4.599   8.806 -0.1199 -2.0283 -0.0980
 2438SOL     OW18946   1.735   2.007   8.396  0.5623  0.1408  0.2718
 2438SOL    HW118947   1.771   1.942   8.335  0.5744  1.2685 -0.9204
 2438SOL    HW218948   1.799   2.019   8.466  1.3642 -1.9009 -0.0944
 2439SOL     OW18949   3.418   0.528  16.314  0.2706 -0.1434  0.3227
 2439SOL    HW118950   3.329   0.559  16.329 -0.2066 -1.2918 -0.0681
 2439SOL    HW218951   3.415   0.521  16.219  0.4433  1.1101  0.2292
 2440SOL     OW18952   0.948   4.413  13.656  0.4260  0.2512  0.4160
 2440SOL    HW118953   1.029   4.376  13.690 -1.6473 -1.8146  3.0921
 2440SOL    HW218954   0.892   4.337  13.643 -0.2188  0.9852 -1.0603
 2441SOL     OW18955   3.630   4.195   6.817 -0.3296 -0.0086 -0.3137
 2441SOL    HW118956   3.635   4.210   6.722 -0.5350 -0.8007 -0.4528
 2441SOL    HW218957   3.612   4.101   6.815  2.0734 -0.4358 -2.0018
 2442SOL     OW18958   0.958   4.380   0.427  0.0543 -0.4586  0.3456
 2442SOL    HW118959   0.907   4.304   0.453  1.4457 -1.5065  0.0280
 2442SOL    HW218960   0.883   4.427   0.389  0.2008 -0.3962  0.1313
 2443SOL     OW18961   0.154   4.105  12.888  0.6670 -0.3569 -0.2173
 2443SOL    HW118962   0.124   4.154  12.812 -1.7029  1.0659  1.6105
 2443SOL    HW218963   0.136   4.012  12.870 -2.3414  0.1092  0.2600
 2444SOL     OW18964   3.263   3.119   2.744  0.1364 -0.2468 -0.0968
 2444SOL    HW118965   3.239   3.165   2.664  1.9782  0.8127 -0.0364
 2444SOL    HW218966   3.262   3.027   2.718  0.6793  0.0852 -1.2770
 2445SOL     OW18967   3.340   2.610   8.252 -0.2678  0.0396  0.3619
 2445SOL    HW118968   3.413   2.589   8.193  0.5085  0.8827  1.0193
 2445SOL    HW218969   3.382   2.629   8.336  1.7184  0.3865 -0.7175
 2446SOL     OW18970   2.970   1.852   6.166 -0.0552 -0.3856  0.1337
 2446SOL    HW118971   2.963   1.947   6.158  3.1482 -0.1832 -0.2797
 2446SOL    HW218972   3.050   1.835   6.115 -2.2429 -0.9157 -3.0771
 2447SOL     OW18973   0.488   1.528   5.436 -0.9830  0.3711 -0.2620
 2447SOL    HW118974   0.541   1.606   5.454  0.1134 -0.4098 -0.1224
 2447SOL    HW218975   0.420   1.564   5.378  0.4146 -0.2766 -2.3164
 2448SOL     OW18976   3.203   0.046   7.502  0.0601  0.0721  0.7730
 2448SOL    HW118977   3.297   0.036   7.490  0.2318  1.8016  0.6815
 2448SOL    HW218978   3.209   0.101   7.580 -0.2865  3.4207 -1.5741
 2449SOL     OW18979   1.307   1.744   7.918  0.5612  0.0955  0.1840
 2449SOL    HW118980   1.377   1.701   7.969 -0.5912 -0.7594  1.0404
 2449SOL    HW218981   1.338   1.735   7.828 -1.7489 -1.0817 -0.4777
 2450SOL     OW18982   0.117   4.359  15.050  0.3608  0.3801  0.3736
 2450SOL    HW118983   0.034   4.355  15.096 -0.2556 -0.3423 -0.8025
 2450SOL    HW218984   0.084   4.409  14.976 -0.5721 -0.3724  0.2841
 2451SOL     OW18985   0.942   4.314   3.725 -0.0778  0.4766 -0.1466
 2451SOL    HW118986   0.928   4.402   3.689  1.9520  1.1054  0.5791
 2451SOL    HW218987   1.036   4.324   3.741 -0.5469  2.4552  1.4016
 2452SOL     OW18988   2.886   1.176   4.371 -0.1996  0.2002 -0.0283
 2452SOL    HW118989   2.846   1.175   4.284 -1.7594  2.9083  0.6444
 2452SOL    HW218990   2.812   1.214   4.419 -0.0951  0.6921 -0.2574
 2453SOL     OW18991   3.790   1.381   5.536 -0.0225  0.4935 -0.1706
 2453SOL    HW118992   3.821   1.452   5.480 -0.7865  1.4133  0.5572
 2453SOL    HW218993   3.858   1.322   5.505 -0.3422 -0.1018  0.2794
 2454SOL     OW18994   2.444   0.099   5.224 -0.4196  0.0381 -0.6788
 2454SOL    HW118995   2.400   0.029   5.274 -2.1346  0.9549 -0.9045
 2454SOL    HW218996   2.528   0.056   5.239 -0.4862  0.2932  0.4715
 2455SOL     OW18997   3.559   1.532  13.056 -0.1391  0.1800  0.1336
 2455SOL    HW118998   3.623   1.594  13.021  0.6445 -0.1371  1.0058
 2455SOL    HW218999   3.584   1.453  13.008  2.1258  1.1722 -0.3097
 2456SOL     OW19000   3.374   4.505   9.262 -0.2607 -0.0868  0.3982
 2456SOL    HW119001   3.373   4.411   9.277  0.8369 -0.1031  0.3457
 2456SOL    HW219002   3.295   4.535   9.306 -1.5500 -0.9795 -1.2982
 2457SOL     OW19003   4.701   1.003   7.286 -0.0262 -0.1117 -0.6222
 2457SOL    HW119004   4.730   1.086   7.326  1.8873 -0.8424 -0.4824
 2457SOL    HW219005   4.607   1.022   7.281 -0.1664 -0.1934  1.4497
 2458SOL     OW19006   1.059   4.111   3.597 -0.3553 -0.2179  0.2600
 2458SOL    HW119007   0.998   4.175   3.636  0.0592  1.9265 -2.5997
 2458SOL    HW219008   1.057   4.043   3.664 -1.1486 -1.1945 -0.7571
 2459SOL     OW19009   1.844   4.421   9.173 -0.3322  0.0457 -0.3884
 2459SOL    HW119010   1.862   4.491   9.237 -0.2345  0.7827 -1.2246
 2459SOL    HW219011   1.793   4.358   9.224 -0.2031 -0.7115 -1.2005
 2460SOL     OW19012   2.221   1.259   1.840 -0.2193 -0.3058  0.5050
 2460SOL    HW119013   2.223   1.333   1.900 -1.7914  0.9729 -1.0163
 2460SOL    HW219014   2.299   1.276   1.786  1.5586  1.4070  3.5668
 2461SOL     OW19015   2.277   0.967  15.834 -0.4373  0.1210 -0.2055
 2461SOL    HW119016   2.279   1.060  15.856  1.4423  0.4485 -1.7049
 2461SOL    HW219017   2.368   0.944  15.856  0.1121  1.8926 -0.5829
 2462SOL     OW19018   2.607   3.567   7.424  0.3063 -0.3553 -0.0533
 2462SOL    HW119019   2.546   3.563   7.498  0.4122 -3.0715 -0.0886
 2462SOL    HW219020   2.693   3.579   7.463  1.1398 -0.4128 -1.8949
 2463SOL     OW19021   3.308   1.717   6.736 -0.2765 -0.5742 -0.6592
 2463SOL    HW119022   3.394   1.714   6.777 -0.2395  1.2110 -0.5683
 2463SOL    HW219023   3.257   1.664   6.796  0.2502 -0.9503 -0.5453
 2464SOL     OW19024   3.900   2.113   3.891 -0.0371 -0.4092 -0.0377
 2464SOL    HW119025   3.968   2.083   3.951 -0.3159  0.9337  0.9303
 2464SOL    HW219026   3.877   2.191   3.941  0.5627 -1.1799  1.4420
 2465SOL     OW19027   2.963   0.155   1.721 -0.0163 -0.2224 -0.0686
 2465SOL    HW119028   2.908   0.192   1.651  1.4050  1.0265 -0.5270
 2465SOL    HW219029   2.904   0.088   1.754 -1.6053  1.2675  0.1662
 2466SOL     OW19030   3.056   4.484  16.125 -0.6676 -0.7544 -0.0486
 2466SOL    HW119031   3.120   4.531  16.178 -0.7910  0.6602 -1.1660
 2466SOL    HW219032   3.066   4.528  16.041  2.6273 -0.8768  0.2729
 2467SOL     OW19033   1.173   3.022  12.495 -0.0984  0.3100 -0.4503
 2467SOL    HW119034   1.185   2.948  12.435 -0.5591  0.1437 -0.3419
 2467SOL    HW219035   1.213   2.987  12.575  0.7968 -0.8419 -1.4135
 2468SOL     OW19036   4.712   4.600   4.731 -0.2828  0.1961 -0.7135
 2468SOL    HW119037   0.036   4.528   4.727  1.1956  1.3106  2.1565
 2468SOL    HW219038   0.027   4.677   4.748 -0.1132  0.4416 -2.4183
 2469SOL     OW19039   0.642   4.554   3.897  0.2388  0.2572  0.6359
 2469SOL    HW119040   0.601   4.522   3.817  1.3029  2.3685 -0.7847
 2469SOL    HW219041   0.699   4.480   3.919  1.9069  0.8777 -1.5304
 2470SOL     OW19042   0.595   2.938   4.254  0.9392  0.1472  0.8540
 2470SOL    HW119043   0.540   3.015   4.243 -0.3557 -1.0862 -1.1577
 2470SOL    HW219044   0.583   2.921   4.348 -0.4358 -1.7806  0.3219
 2471SOL     OW19045   4.481   0.680   4.313 -0.1012  0.0817  0.6443
 2471SOL    HW119046   4.464   0.590   4.285  1.7097  0.0231 -0.3276
 2471SOL    HW219047   4.566   0.672   4.358  0.4075  1.4018 -0.0621
 2472SOL     OW19048   1.179   1.252  15.535 -0.2243 -0.4116 -0.1217
 2472SOL    HW119049   1.242   1.323  15.523  0.4521 -1.1716 -1.0409
 2472SOL    HW219050   1.113   1.266  15.467  1.4237  0.9393 -1.4404
 2473SOL     OW19051   1.097   3.011   3.519 -0.1519  0.0450  0.6881
 2473SOL    HW119052   1.052   2.930   3.497 -0.1082  0.0395  0.6187
 2473SOL    HW219053   1.188   2.982   3.516 -0.5642 -1.1289 -0.2259
 2474SOL     OW19054   0.247   1.238  13.696  0.0457  0.1686 -0.3238
 2474SOL    HW119055   0.295   1.208  13.620  1.7501  1.1336  0.3741
 2474SOL    HW219056   0.233   1.330  13.672 -4.5354 -0.2183  0.7924
 2475SOL     OW19057   3.811   3.446   3.982 -0.0612  0.6870  0.6785
 2475SOL    HW119058   3.884   3.397   4.019  0.1633 -1.7110 -2.8919
 2475SOL    HW219059   3.856   3.521   3.943 -0.2086 -0.3651 -1.4997
 2476SOL     OW19060   2.197   0.383   4.100  0.0311  0.2269 -0.0047
 2476SOL    HW119061   2.109   0.357   4.074  0.0414 -0.7067  0.8710
 2476SOL    HW219062   2.254   0.307   4.083 -3.3139 -1.7140 -2.5268
 2477SOL     OW19063   4.547   2.590   5.198  0.2768  0.4185  0.3618
 2477SOL    HW119064   4.600   2.570   5.121  0.9333  2.4325  0.2924
 2477SOL    HW219065   4.465   2.550   5.167  0.6161 -0.6158  0.8027
 2478SOL     OW19066   3.841   1.892   5.708  0.7812  0.5596  0.3848
 2478SOL    HW119067   3.865   1.910   5.799 -1.5304 -1.5895  1.4017
 2478SOL    HW219068   3.911   1.947   5.671  0.1720  0.9621 -0.1669
 2479SOL     OW19069   2.361   4.169   5.884  0.0641  0.1799  0.1056
 2479SOL    HW119070   2.446   4.161   5.926 -0.0697  0.0616  0.3506
 2479SOL    HW219071   2.340   4.086   5.842  0.1120  0.8889 -1.3632
 2480SOL     OW19072   0.271   0.109   1.953 -0.2842  0.4379 -0.3184
 2480SOL    HW119073   0.366   0.099   1.955 -0.3736 -0.3658  0.1831
 2480SOL    HW219074   0.253   0.124   1.861  0.4688  1.3016 -0.3278
 2481SOL     OW19075   1.969   0.269   4.979  0.3035  0.5385 -0.2369
 2481SOL    HW119076   2.023   0.348   4.971  0.4609  0.4301 -0.2430
 2481SOL    HW219077   1.895   0.320   4.948 -0.9889  0.1750  2.2583
 2482SOL     OW19078   1.206   1.072  17.318  0.0269 -0.1783 -0.1135
 2482SOL    HW119079   1.156   1.044  17.395  0.3636  1.4631  0.6983
 2482SOL    HW219080   1.201   1.168  17.318 -1.6958 -0.2617 -2.7875
 2483SOL     OW19081   1.478   0.495   4.997  0.1343 -0.1782 -0.0664
 2483SOL    HW119082   1.485   0.588   4.977  1.9461 -0.5156 -1.0509
 2483SOL    HW219083   1.401   0.471   4.944  0.3943  0.5201 -0.7575
 2484SOL     OW19084   2.366   4.658   1.818  0.0606 -0.0667 -0.0857
 2484SOL    HW119085   2.344   4.685   1.907  0.2927 -2.8630  0.8333
 2484SOL    HW219086   2.460   4.640   1.827  0.2548  0.4261 -1.1429
 2485SOL     OW19087   4.163   2.344   7.914 -0.4644 -0.3349 -0.4380
 2485SOL    HW119088   4.239   2.290   7.936 -0.4807  0.0623  0.6067
 2485SOL    HW219089   4.149   2.315   7.824  2.7644 -0.0130 -1.0138
 2486SOL     OW19090   0.409   1.917   5.138  0.6487 -0.0672  0.3489
 2486SOL    HW119091   0.357   1.941   5.061  1.9402  0.4759 -0.3609
 2486SOL    HW219092   0.369   1.968   5.208  1.6079  0.0991  0.7790
 2487SOL     OW19093   3.433   0.461   2.041  0.1067 -0.0615 -0.6496
 2487SOL    HW119094   3.416   0.398   1.971  0.4912  0.5574 -1.3040
 2487SOL    HW219095   3.528   0.466   2.036  0.0914  0.1285 -0.7568
 2488SOL     OW19096   3.177   1.301   4.567 -0.0898  0.0674  0.4584
 2488SOL    HW119097   3.103   1.311   4.628 -0.3292 -1.2353  0.3804
 2488SOL    HW219098   3.135   1.332   4.487 -1.5680  0.8320  1.5267
 2489SOL     OW19099   0.851   4.077   5.969 -0.4586 -0.3482 -0.5615
 2489SOL    HW119100   0.841   4.002   5.909  1.3610 -0.1224 -1.1214
 2489SOL    HW219101   0.809   4.138   5.909  1.9710  1.6914 -0.1750
 2490SOL     OW19102   0.079   2.364   8.956 -0.5599 -0.5570 -0.2415
 2490SOL    HW119103   0.125   2.307   9.017  0.1957  1.6440  1.2480
 2490SOL    HW219104   0.136   2.440   8.964 -0.8485 -0.1864 -1.6936
 2491SOL     OW19105   2.776   3.836  16.059 -0.5125  0.1216 -0.6305
 2491SOL    HW119106   2.801   3.868  16.146  0.6405 -1.2767 -0.4608
 2491SOL    HW219107   2.748   3.916  16.014 -0.4409  0.0999 -0.7127
 2492SOL     OW19108   1.764   1.043   5.867  0.7250 -0.1821 -0.2598
 2492SOL    HW119109   1.720   1.003   5.942  2.0501  0.1278  0.6706
 2492SOL    HW219110   1.743   0.991   5.790 -1.4302  0.5241 -0.1550
 2493SOL     OW19111   0.250   3.876   5.344 -0.1218 -0.2683 -0.2597
 2493SOL    HW119112   0.326   3.860   5.287  0.0249 -0.4545 -0.0125
 2493SOL    HW219113   0.193   3.925   5.285  0.2883  0.3445 -0.1545
 2494SOL     OW19114   3.104   1.556   3.976 -0.2389  0.2324  0.5634
 2494SOL    HW119115   3.142   1.568   3.889  0.0731  1.7476  0.9172
 2494SOL    HW219116   3.102   1.646   4.007  0.8440  0.1810  0.7539
 2495SOL     OW19117   1.566   1.638   2.385 -0.3984 -0.2001 -0.1681
 2495SOL    HW119118   1.492   1.589   2.421 -0.9501 -1.7944 -3.4642
 2495SOL    HW219119   1.596   1.673   2.469 -0.6699  1.0955 -0.6118
 2496SOL     OW19120   0.585   3.824   3.299 -0.5153 -0.6751 -0.7793
 2496SOL    HW119121   0.628   3.739   3.294  4.0694  1.5985 -0.3027
 2496SOL    HW219122   0.596   3.846   3.206  2.9202 -1.0515 -0.4501
 2497SOL     OW19123   1.365   3.468   6.631 -0.1851 -0.2342 -0.5597
 2497SOL    HW119124   1.391   3.412   6.704  0.8451  0.4395 -0.4273
 2497SOL    HW219125   1.439   3.525   6.613 -0.7647  1.3727  2.0655
 2498SOL     OW19126   3.110   3.142   1.921 -0.0613 -0.1012  0.2000
 2498SOL    HW119127   3.071   3.105   1.842  0.8943 -0.4363 -0.1224
 2498SOL    HW219128   3.057   3.099   1.988 -0.0617 -2.0501 -1.0473
 2499SOL     OW19129   1.612   0.158  16.026 -0.0600  0.1673  0.2533
 2499SOL    HW119130   1.552   0.197  15.963  1.1553  3.6129  1.2628
 2499SOL    HW219131   1.589   0.203  16.107  1.7167 -0.5996  1.1824
 2500SOL     OW19132   3.662   0.491   8.226 -0.5013  0.1671 -0.0909
 2500SOL    HW119133   3.707   0.479   8.142  1.1678 -1.4968  1.0205
 2500SOL    HW219134   3.642   0.584   8.218 -0.8709  0.0859 -0.1074
 2501SOL     OW19135   2.323   3.853  14.438 -0.4709 -0.0872  0.0281
 2501SOL    HW119136   2.417   3.869  14.434 -0.5892  1.0828  2.6823
 2501SOL    HW219137   2.322   3.759  14.457 -0.6260  0.0585  0.7160
 2502SOL     OW19138   1.588   3.948  10.568 -0.2119 -0.7026  0.3866
 2502SOL    HW119139   1.632   3.866  10.546  1.8553  0.4893  0.0683
 2502SOL    HW219140   1.574   3.926  10.660 -1.0671 -0.8093  0.2340
 2503SOL     OW19141   1.789   4.067  17.236 -0.2028  0.0890  0.7026
 2503SOL    HW119142   1.701   4.103  17.238  0.1197  0.7115  3.1368
 2503SOL    HW219143   1.814   4.046  17.326  0.1250  0.5915  0.7279
 2504SOL     OW19144   3.555   2.396   5.359 -0.4953 -0.3896 -0.1773
 2504SOL    HW119145   3.471   2.364   5.393 -1.2387 -0.0717 -1.7071
 2504SOL    HW219146   3.613   2.321   5.373  0.5187  0.6510  1.1862
 2505SOL     OW19147   4.547   2.323   6.056  0.1239  0.0586  0.0016
 2505SOL    HW119148   4.643   2.321   6.053  0.1715  2.1348  0.1014
 2505SOL    HW219149   4.521   2.382   5.985  0.7592 -0.8095 -0.9538
 2506SOL     OW19150   0.154   3.234  15.460  0.0671  0.2822 -0.5278
 2506SOL    HW119151   0.083   3.287  15.497 -0.1820 -0.5998  0.2691
 2506SOL    HW219152   0.177   3.198  15.546 -0.0008  0.0677 -0.6004
 2507SOL     OW19153   2.816   0.046   2.950  0.0465 -0.0189 -0.1824
 2507SOL    HW119154   2.816   4.713   2.886  0.1067 -0.1505 -0.0367
 2507SOL    HW219155   2.769   0.009   3.025  2.2653 -0.3535  1.0522
 2508SOL     OW19156   4.571   4.031   5.976 -0.3105 -0.7483 -0.0791
 2508SOL    HW119157   4.626   4.065   6.046 -0.6008  3.2100 -1.7811
 2508SOL    HW219158   4.567   3.942   6.013  1.6823 -1.3989 -1.4309
 2509SOL     OW19159   2.658   4.267  11.208 -0.0810  0.2976  0.4705
 2509SOL    HW119160   2.610   4.196  11.251 -1.4103  0.0796 -1.3616
 2509SOL    HW219161   2.719   4.217  11.153  1.0681  1.5852  0.5751
 2510SOL     OW19162   2.542   2.945   3.134 -0.0583  0.6208  0.6840
 2510SOL    HW119163   2.494   2.992   3.065  1.2645  0.0314 -0.6538
 2510SOL    HW219164   2.465   2.925   3.187 -0.1671  0.7830  0.5847
 2511SOL     OW19165   4.222   4.435   1.624 -0.0372  0.0270 -0.5630
 2511SOL    HW119166   4.141   4.473   1.592 -0.5346 -0.9757 -0.4801
 2511SOL    HW219167   4.196   4.343   1.630 -0.6177  0.1579 -1.0507
 2512SOL     OW19168   3.437   4.252  14.045 -0.7851  0.4419  0.1338
 2512SOL    HW119169   3.519   4.261  14.094 -0.8987 -1.6036  0.7099
 2512SOL    HW219170   3.463   4.288  13.961 -0.9462 -1.6068 -0.7994
 2513SOL     OW19171   3.226   0.030   8.907  0.1470 -0.3711  0.2013
 2513SOL    HW119172   3.142   0.008   8.947  1.1244 -1.8572  1.4958
 2513SOL    HW219173   3.278   4.687   8.915  0.5185 -0.1875 -0.3561
 2514SOL     OW19174   3.186   4.288   2.612  0.6669 -0.0644  0.9698
 2514SOL    HW119175   3.151   4.202   2.592 -0.6022  0.6430  0.1276
 2514SOL    HW219176   3.269   4.268   2.655  1.0993  1.5036  0.8723
 2515SOL     OW19177   2.198   4.506  13.454 -0.4458 -0.9006  0.0980
 2515SOL    HW119178   2.238   4.571  13.512 -1.7482 -0.6923  0.7486
 2515SOL    HW219179   2.152   4.444  13.511 -2.0645 -0.3624 -0.6545
 2516SOL     OW19180   0.617   0.857   3.737  0.2007  0.5497  0.3287
 2516SOL    HW119181   0.580   0.789   3.681  0.3283  0.8083 -0.0682
 2516SOL    HW219182   0.673   0.798   3.788  0.7426  1.2374  0.5452
 2517SOL     OW19183   3.275   1.264   4.997 -0.5434 -0.0463  0.1649
 2517SOL    HW119184   3.301   1.236   4.910  2.2707 -1.7414  1.5388
 2517SOL    HW219185   3.248   1.184   5.041  0.4835 -0.5371 -0.1133
 2518SOL     OW19186   1.207   3.522   2.724 -0.6569  0.1123 -0.2177
 2518SOL    HW119187   1.242   3.514   2.635 -0.8482  0.6976 -0.3442
 2518SOL    HW219188   1.228   3.434   2.755  1.0725  0.1351 -1.2849
 2519SOL     OW19189   2.945   1.172  15.181  0.0885 -0.2611  0.0797
 2519SOL    HW119190   2.970   1.260  15.151 -2.7706  1.5042  2.9407
 2519SOL    HW219191   2.851   1.185  15.165  0.4736  0.6512 -1.4771
 2520SOL     OW19192   3.994   4.174   2.346  0.1572  0.0933  0.8432
 2520SOL    HW119193   3.966   4.259   2.312  0.0596  0.8203  2.7551
 2520SOL    HW219194   3.930   4.109   2.317 -1.5606  1.1865  2.1403
 2521SOL     OW19195   2.026   1.148   2.881  0.0417  0.4715  0.4251
 2521SOL    HW119196   1.980   1.201   2.946  0.2496 -0.2465  1.1652
 2521SOL    HW219197   1.956   1.108   2.830  0.7190  0.5777 -0.5982
 2522SOL     OW19198   3.655   3.789   0.700  0.0404 -0.3366 -0.3375
 2522SOL    HW119199   3.620   3.872   0.732  1.3102  0.2694 -0.5204
 2522SOL    HW219200   3.638   3.798   0.606  1.8003 -1.5220 -0.7579
 2523SOL     OW19201   4.468   2.512   9.901 -0.3862 -0.0766 -0.4262
 2523SOL    HW119202   4.523   2.587   9.925 -1.5187  0.6113  0.0082
 2523SOL    HW219203   4.383   2.554   9.888 -0.9794 -1.4415 -0.9672
 2524SOL     OW19204   2.345   3.196   5.779  0.2449  0.3598  0.1503
 2524SOL    HW119205   2.261   3.222   5.741 -0.4772 -1.3215  0.5917
 2524SOL    HW219206   2.308   3.112   5.807  1.4720 -0.2769 -0.1435
 2525SOL     OW19207   1.707   2.290   5.966 -0.6421  0.2192 -0.6916
 2525SOL    HW119208   1.709   2.367   5.909  0.0107  0.3570 -0.4774
 2525SOL    HW219209   1.631   2.323   6.014  1.6069  2.1390  1.4922
 2526SOL     OW19210   1.202   4.384  10.137 -0.0016  0.4973 -0.4579
 2526SOL    HW119211   1.210   4.415  10.227 -0.2388 -0.3382 -0.1537
 2526SOL    HW219212   1.179   4.466  10.093  0.7989 -0.0003 -1.7835
 2527SOL     OW19213   0.623   0.136   2.836  0.1137 -0.6048  0.2359
 2527SOL    HW119214   0.567   0.192   2.891  1.2424  0.7604 -0.0012
 2527SOL    HW219215   0.609   0.165   2.746 -4.3450 -0.5243  0.9399
 2528SOL     OW19216   3.525   0.180   8.150 -0.2909  0.0741 -0.1273
 2528SOL    HW119217   3.533   0.146   8.061 -0.9772  1.0968 -0.5698
 2528SOL    HW219218   3.616   0.189   8.179 -0.2499  2.1684 -0.9567
 2529SOL     OW19219   0.821   2.825  16.436 -0.0051  0.0625 -0.6719
 2529SOL    HW119220   0.881   2.753  16.420  0.4874  0.9979 -3.1131
 2529SOL    HW219221   0.787   2.839  16.347 -0.1182  2.2104 -0.2850
 2530SOL     OW19222   0.101   4.255   5.680  0.2429  0.1642  0.0567
 2530SOL    HW119223   0.040   4.305   5.626 -0.2817  0.0457  0.5435
 2530SOL    HW219224   0.119   4.315   5.753  3.3724 -2.6978  1.6599
 2531SOL     OW19225   4.249   2.583   2.707 -0.1757  0.4791 -0.0552
 2531SOL    HW119226   4.265   2.671   2.738 -0.6919  0.6879 -0.3858
 2531SOL    HW219227   4.157   2.578   2.731 -0.2466 -1.1052 -0.6448
 2532SOL     OW19228   0.905   3.454   4.820  0.6292  0.6434  0.0606
 2532SOL    HW119229   0.929   3.379   4.875 -1.1175  1.8495  2.4537
 2532SOL    HW219230   0.818   3.424   4.794  1.0703 -0.0591 -0.5965
 2533SOL     OW19231   2.855   2.270   7.789  0.2990  0.2084  0.2766
 2533SOL    HW119232   2.797   2.209   7.743 -0.2910 -1.0825  2.7667
 2533SOL    HW219233   2.843   2.344   7.729  0.7874 -0.7471 -1.0041
 2534SOL     OW19234   2.657   3.445   1.796 -0.0267 -0.6848 -0.0340
 2534SOL    HW119235   2.638   3.451   1.702  1.9830 -2.8910 -0.5707
 2534SOL    HW219236   2.591   3.507   1.828 -1.3500 -3.1408  1.9750
 2535SOL     OW19237   2.816   0.620   9.100 -0.1274 -0.0110  0.1778
 2535SOL    HW119238   2.824   0.525   9.098 -0.5054 -0.0339 -0.2145
 2535SOL    HW219239   2.858   0.646   9.018 -0.9781  0.6777 -0.0340
 2536SOL     OW19240   2.739   4.510  17.669 -0.1882  0.3540  0.2885
 2536SOL    HW119241   2.792   4.545  17.598  1.3360  0.8463  1.6600
 2536SOL    HW219242   2.764   4.418  17.675 -0.7537  0.1279 -0.8143
 2537SOL     OW19243   4.441   2.820   8.616 -0.5990  0.0634 -0.1412
 2537SOL    HW119244   4.507   2.805   8.549 -0.2188  0.2651  0.1927
 2537SOL    HW219245   4.377   2.754   8.591 -0.8232 -0.0549  0.7375
 2538SOL     OW19246   1.261   3.070   0.357  0.3658  0.2590 -0.2602
 2538SOL    HW119247   1.236   3.007   0.289 -1.9341 -2.0627  2.7707
 2538SOL    HW219248   1.350   3.098   0.334  0.7745 -1.1012 -0.3099
 2539SOL     OW19249   0.561   2.057  14.568 -0.3214  0.0834 -0.1624
 2539SOL    HW119250   0.501   1.991  14.604 -0.4368 -0.5777 -1.5933
 2539SOL    HW219251   0.596   2.016  14.489  0.3910 -0.6113  0.5145
 2540SOL     OW19252   1.184   0.207   9.421 -0.2068  0.8769  0.3644
 2540SOL    HW119253   1.216   0.293   9.395  0.2294  0.6822  0.2657
 2540SOL    HW219254   1.258   0.151   9.401  0.6250  1.0868  2.8573
 2541SOL     OW19255   1.634   3.703   3.011 -0.1121 -0.1186  0.0327
 2541SOL    HW119256   1.710   3.647   2.992 -1.8507 -2.4650  0.1234
 2541SOL    HW219257   1.676   3.790   3.010  0.3203 -0.3383 -2.1208
 2542SOL     OW19258   0.225   3.428   5.486 -0.2822 -0.0791  0.0338
 2542SOL    HW119259   0.183   3.366   5.426  0.8543  0.6194 -1.4656
 2542SOL    HW219260   0.162   3.405   5.555 -2.0321  2.9967 -0.5293
 2543SOL     OW19261   2.728   4.195   4.622  0.4982  0.5742  0.3190
 2543SOL    HW119262   2.804   4.145   4.595  0.7808  2.7558 -2.8839
 2543SOL    HW219263   2.730   4.198   4.718  1.0392 -2.4104  0.4131
 2544SOL     OW19264   4.492   4.196   4.587  0.1218  0.2495 -0.4251
 2544SOL    HW119265   4.508   4.289   4.574  1.0605 -0.3003 -3.1362
 2544SOL    HW219266   4.543   4.155   4.517 -1.5000 -1.1054 -0.8029
 2545SOL     OW19267   1.705   0.940   3.899  0.0015 -0.2074 -0.7464
 2545SOL    HW119268   1.646   0.916   3.827 -1.8840 -1.7907  1.3266
 2545SOL    HW219269   1.721   1.030   3.873 -0.0781 -0.0547 -0.2642
 2546SOL     OW19270   0.436   0.745   6.169  0.3650  0.5999  0.4525
 2546SOL    HW119271   0.444   0.659   6.210 -2.2134  0.4406  0.6299
 2546SOL    HW219272   0.515   0.787   6.202  0.8751 -1.0119  1.2416
 2547SOL     OW19273   4.534   3.445   6.360 -0.5019  0.0172 -0.1598
 2547SOL    HW119274   4.575   3.408   6.281  0.6059  0.3046  0.2734
 2547SOL    HW219275   4.605   3.501   6.392  0.9927 -2.1377  0.2870
 2548SOL     OW19276   3.327   1.503   6.002 -0.1659  0.1391  0.1948
 2548SOL    HW119277   3.370   1.417   5.998  0.2160  0.3663 -0.6571
 2548SOL    HW219278   3.239   1.492   6.036 -0.1842 -2.6040 -0.6750
 2549SOL     OW19279   2.593   2.492   4.211 -0.3512 -0.7955  0.3947
 2549SOL    HW119280   2.527   2.462   4.274 -1.2863 -1.3881 -0.8739
 2549SOL    HW219281   2.649   2.415   4.217  1.0300  0.3605  2.3558
 2550SOL     OW19282   4.012   4.509   8.949 -0.4303  0.0516  0.5263
 2550SOL    HW119283   3.975   4.436   8.899  1.6824 -1.4420  1.1582
 2550SOL    HW219284   3.991   4.586   8.897 -0.0215 -0.4795 -0.4411
 2551SOL     OW19285   4.194   3.234   8.631 -0.1123  0.5304  0.0231
 2551SOL    HW119286   4.287   3.217   8.614 -0.3620  0.1374 -0.9707
 2551SOL    HW219287   4.175   3.172   8.701  2.3639 -1.8873 -1.4401
 2552SOL     OW19288   4.644   2.571   6.407  0.2358  0.0038  0.3351
 2552SOL    HW119289   4.700   2.501   6.443  1.4624  0.2321 -1.1369
 2552SOL    HW219290   4.691   2.642   6.450 -0.6641  1.7550 -1.6091
 2553SOL     OW19291   3.724   4.004  11.134  0.3872  0.3050  0.3899
 2553SOL    HW119292   3.784   4.013  11.208  0.9273  1.8118 -0.2357
 2553SOL    HW219293   3.672   4.083  11.148 -1.6701 -1.4107  2.4406
 2554SOL     OW19294   0.830   4.301  14.958 -0.5684  0.0811 -0.2369
 2554SOL    HW119295   0.916   4.334  14.983  0.0176 -1.1490 -0.6372
 2554SOL    HW219296   0.850   4.217  14.917  1.7492  0.4438  0.1611
 2555SOL     OW19297   2.682   0.105   5.835 -0.3906 -0.3655  0.4182
 2555SOL    HW119298   2.626   0.142   5.904  0.4437 -0.0243  0.9097
 2555SOL    HW219299   2.658   0.157   5.758 -1.7684 -2.6260 -0.6915
 2556SOL     OW19300   1.779   1.800   3.637  0.6687  0.6975  0.0924
 2556SOL    HW119301   1.791   1.889   3.671 -0.0107 -0.4389  3.3390
 2556SOL    HW219302   1.698   1.770   3.679  0.2684  0.0817 -1.1194
 2557SOL     OW19303   4.612   4.457  12.252 -0.4704 -0.2248 -0.5862
 2557SOL    HW119304   4.584   4.490  12.337  1.9502 -1.8373  0.8396
 2557SOL    HW219305   4.527   4.453  12.210  0.3394  0.5344 -2.2747
 2558SOL     OW19306   0.965   2.710   7.582 -0.2391  0.0721 -0.0648
 2558SOL    HW119307   0.968   2.729   7.676 -1.7811 -0.5345  0.1114
 2558SOL    HW219308   1.051   2.744   7.556 -0.4191  0.5152 -0.0792
 2559SOL     OW19309   2.495   2.237   0.963  0.0410 -0.1210 -0.8443
 2559SOL    HW119310   2.419   2.243   0.905  0.4338 -0.7865 -1.4322
 2559SOL    HW219311   2.477   2.172   1.031 -0.3004  0.2360 -0.5961
 2560SOL     OW19312   0.218   3.614  13.475 -0.0196  0.0384 -0.0731
 2560SOL    HW119313   0.245   3.524  13.454  3.0222  0.4529  2.0747
 2560SOL    HW219314   0.268   3.626  13.556  1.6543 -0.8295 -0.9840
 2561SOL     OW19315   3.641   3.395  11.325  0.5534  0.6090  0.2321
 2561SOL    HW119316   3.640   3.387  11.420  0.4702 -1.8401  0.0097
 2561SOL    HW219317   3.691   3.317  11.302 -0.4725  0.0031  0.0922
 2562SOL     OW19318   2.213   0.898   7.343 -0.3911  0.2284  0.3070
 2562SOL    HW119319   2.253   0.979   7.375 -1.0781  0.4945  0.4721
 2562SOL    HW219320   2.133   0.899   7.396 -1.0137 -2.4965 -0.6087
 2563SOL     OW19321   1.872   0.141   2.719  0.0777 -0.0002 -0.1015
 2563SOL    HW119322   1.944   0.101   2.768  0.1305 -1.4905 -1.4326
 2563SOL    HW219323   1.879   0.089   2.640 -0.3772 -0.2020 -0.0047
 2564SOL     OW19324   1.026   2.268  10.319  0.4564 -0.4112 -0.0846
 2564SOL    HW119325   0.934   2.287  10.334  0.2323 -0.4587 -1.4003
 2564SOL    HW219326   1.058   2.252  10.408  0.5117  3.0372  0.5258
 2565SOL     OW19327   1.604   0.857   3.663 -0.0085 -0.0992  0.3022
 2565SOL    HW119328   1.638   0.788   3.606  1.3559  0.8519 -0.0438
 2565SOL    HW219329   1.630   0.934   3.612  0.7528  0.3771  1.4143
 2566SOL     OW19330   2.512   3.573  14.184 -0.2165 -0.0296  0.1285
 2566SOL    HW119331   2.493   3.635  14.113  3.1212  1.5928  0.6729
 2566SOL    HW219332   2.581   3.627  14.223 -2.2296  1.4153  1.7061
 2567SOL     OW19333   1.999   4.388   7.568 -0.4207 -0.0493  0.0197
 2567SOL    HW119334   2.043   4.307   7.593  1.2370  0.3097 -1.8186
 2567SOL    HW219335   1.976   4.367   7.478  0.3577 -0.8837  0.0145
 2568SOL     OW19336   2.319   4.413  11.164 -0.1677  0.6196  0.2680
 2568SOL    HW119337   2.321   4.327  11.206  1.5595  0.2633 -0.5683
 2568SOL    HW219338   2.329   4.391  11.071 -1.0802 -0.1595  0.3488
 2569SOL     OW19339   2.451   3.110  11.872 -0.7615  0.2869  0.8304
 2569SOL    HW119340   2.465   3.119  11.778 -1.6987 -0.5468  0.6024
 2569SOL    HW219341   2.364   3.149  11.882 -1.6223 -1.1057 -1.0865
 2570SOL     OW19342   4.042   2.800   4.524 -0.0315 -0.2505 -0.2780
 2570SOL    HW119343   3.988   2.851   4.463 -1.3095  1.0375  1.9269
 2570SOL    HW219344   3.995   2.717   4.539 -0.3521 -0.1663 -0.8152
 2571SOL     OW19345   0.697   2.425   2.327  0.0412 -0.3662  0.0928
 2571SOL    HW119346   0.616   2.449   2.283 -0.3093 -2.3410 -0.3405
 2571SOL    HW219347   0.770   2.449   2.271  1.1331  0.0494  1.6812
 2572SOL     OW19348   4.324   2.812   9.422 -0.7188  0.1725  0.5415
 2572SOL    HW119349   4.398   2.859   9.460 -1.0757  1.3401 -0.2061
 2572SOL    HW219350   4.292   2.761   9.496 -2.8031 -1.1566 -1.2768
 2573SOL     OW19351   3.048   4.598   8.342  0.3158  0.3345  0.3238
 2573SOL    HW119352   3.121   4.650   8.310  0.9681 -0.5545  0.3575
 2573SOL    HW219353   3.036   4.641   8.427  2.3366 -0.5741  1.0595
 2574SOL     OW19354   0.879   3.851   4.297 -0.0512  0.2748 -0.2550
 2574SOL    HW119355   0.930   3.779   4.334  0.2742  0.9989  0.7243
 2574SOL    HW219356   0.822   3.801   4.239 -1.2690 -0.6372  1.7296
 2575SOL     OW19357   1.476   2.946  11.989  0.3356  0.4223  0.1669
 2575SOL    HW119358   1.395   2.994  11.977  0.5316  0.3222 -1.5700
 2575SOL    HW219359   1.490   2.964  12.082  1.0184  3.7113 -0.5764
 2576SOL     OW19360   4.178   2.940   8.307  0.0554  0.3060  0.3280
 2576SOL    HW119361   4.209   2.877   8.242  0.3328  0.0853  0.6709
 2576SOL    HW219362   4.233   3.018   8.298  1.0487 -0.6173 -1.5861
 2577SOL     OW19363   3.997   1.013   1.361  0.7475  0.5628  0.2284
 2577SOL    HW119364   4.016   1.105   1.345 -0.3786  0.7215 -0.2281
 2577SOL    HW219365   3.959   0.991   1.276  2.1488 -1.7721  0.2215
 2578SOL     OW19366   3.678   4.136   5.092 -0.1098 -0.4192 -0.3996
 2578SOL    HW119367   3.698   4.103   5.179  0.8648  0.7492 -0.1740
 2578SOL    HW219368   3.588   4.105   5.081 -1.0579  2.0685  0.3001
 2579SOL     OW19369   1.372   3.393   8.961  0.2276  0.2663 -0.0428
 2579SOL    HW119370   1.384   3.432   9.048  4.2428 -0.7956 -0.1293
 2579SOL    HW219371   1.414   3.456   8.903 -1.6385 -0.6103 -2.3767
 2580SOL     OW19372   3.596   1.906   6.715  0.0738  0.1812  0.3627
 2580SOL    HW119373   3.579   1.814   6.735  0.3563 -0.0858 -0.6104
 2580SOL    HW219374   3.548   1.942   6.790  0.9936 -2.9370  2.4538
 2581SOL     OW19375   1.332   2.812   7.142  0.1354 -0.4500  0.0362
 2581SOL    HW119376   1.259   2.757   7.114  0.1631 -0.7216  0.4816
 2581SOL    HW219377   1.292   2.852   7.220 -1.5100  0.1606 -1.1329
 2582SOL     OW19378   0.535   4.580   1.328 -0.5214  0.0330 -0.3067
 2582SOL    HW119379   0.464   4.562   1.267  1.6673 -0.5170 -2.6890
 2582SOL    HW219380   0.606   4.553   1.270  0.2876  0.0580  0.6740
 2583SOL     OW19381   2.951   1.658   5.336 -0.3106  0.3732 -0.0114
 2583SOL    HW119382   2.897   1.655   5.415  0.8975 -1.1378  0.7348
 2583SOL    HW219383   2.916   1.586   5.282  1.6277  1.0057 -2.1134
 2584SOL     OW19384   1.463   1.903   7.588  0.0499  0.2258  1.2237
 2584SOL    HW119385   1.418   1.962   7.648 -1.8025  0.5220 -0.4548
 2584SOL    HW219386   1.393   1.858   7.540 -1.6258  3.0274  1.0622
 2585SOL     OW19387   1.702   4.592   7.161 -0.2345  0.1924 -0.1418
 2585SOL    HW119388   1.740   4.680   7.164 -1.5337  0.7850 -0.9541
 2585SOL    HW219389   1.736   4.563   7.076  0.2200  1.2218 -0.3239
 2586SOL     OW19390   2.056   3.870   5.885  0.2852  0.7235 -0.7426
 2586SOL    HW119391   2.087   3.815   5.957 -1.0728  1.1576  0.1918
 2586SOL    HW219392   2.007   3.940   5.929 -2.1839  0.2498 -2.7248
 2587SOL     OW19393   3.264   0.618  12.060 -0.0708  0.2052 -0.5738
 2587SOL    HW119394   3.227   0.703  12.038  1.4913  1.1147  0.2841
 2587SOL    HW219395   3.186   0.563  12.056 -1.1914  1.7187  0.6803
 2588SOL     OW19396   2.042   0.898   1.656  0.2115 -0.2898  0.3619
 2588SOL    HW119397   1.989   0.883   1.734 -2.5174 -0.5559 -1.5585
 2588SOL    HW219398   1.974   0.890   1.590  0.2867  1.1092  0.1000
 2589SOL     OW19399   1.459   2.942   6.948  0.1880 -0.6443 -0.3856
 2589SOL    HW119400   1.418   3.018   6.907  0.9154  0.3155  0.6392
 2589SOL    HW219401   1.396   2.920   7.016  0.8153 -0.2222  0.3311
 2590SOL     OW19402   0.449   3.605   0.114  0.4951 -0.5642 -0.5246
 2590SOL    HW119403   0.366   3.650   0.100  1.7365  1.9207  0.1884
 2590SOL    HW219404   0.444   3.584   0.207  1.7283 -2.0363 -0.7821
 2591SOL     OW19405   3.744   0.817   7.238  0.4136 -0.2763 -0.4021
 2591SOL    HW119406   3.824   0.810   7.185 -2.5523 -0.7009 -4.7942
 2591SOL    HW219407   3.781   0.843   7.323  2.8373 -0.1731 -1.4880
 2592SOL     OW19408   4.018   3.263   4.082  0.1107  0.1886 -0.3883
 2592SOL    HW119409   4.094   3.321   4.075  0.2096  0.3303  1.8009
 2592SOL    HW219410   4.062   3.178   4.076 -0.8816 -0.4302  1.1498
 2593SOL     OW19411   3.366   3.522   0.806 -0.2726  0.4155 -0.0501
 2593SOL    HW119412   3.406   3.552   0.725 -1.1760  0.5292 -0.4567
 2593SOL    HW219413   3.301   3.591   0.821  2.0745  2.8064 -0.9873
 2594SOL     OW19414   3.926   1.369   3.482  0.2139  0.1873  0.2446
 2594SOL    HW119415   3.846   1.410   3.448 -1.2292 -0.3826  2.9370
 2594SOL    HW219416   3.994   1.398   3.422  0.0470 -0.8508 -0.4459
 2595SOL     OW19417   0.514   2.103   5.861  0.7142  0.0791 -0.2533
 2595SOL    HW119418   0.545   2.036   5.923 -0.1269 -0.6214 -0.5936
 2595SOL    HW219419   0.512   2.040   5.789 -0.5074 -1.3326  1.0282
 2596SOL     OW19420   1.074   1.062   1.987  0.3510 -0.4171  0.0017
 2596SOL    HW119421   1.002   1.081   2.047  0.1598 -0.2237 -0.2882
 2596SOL    HW219422   1.036   1.087   1.903  1.0795 -1.7599 -0.7168
 2597SOL     OW19423   2.936   4.327  11.739  0.4296 -0.0084  0.1027
 2597SOL    HW119424   2.921   4.367  11.824  1.4232  0.1080  0.2168
 2597SOL    HW219425   2.989   4.390  11.690  0.3151  0.8738  1.1027
 2598SOL     OW19426   2.132   0.584   6.667  0.1604  0.0432 -0.1760
 2598SOL    HW119427   2.214   0.536   6.667  0.1957  0.1077 -0.8080
 2598SOL    HW219428   2.075   0.519   6.626 -0.4702 -0.5598  1.6348
 2599SOL     OW19429   4.603   3.809   6.132 -0.2194 -0.5154 -0.1349
 2599SOL    HW119430   4.692   3.776   6.122 -0.1755 -0.6161  0.5787
 2599SOL    HW219431   4.565   3.745   6.191 -0.2470 -0.3318  0.0480
 2600SOL     OW19432   0.833   2.958   5.055  0.1314  0.0511  0.8437
 2600SOL    HW119433   0.814   2.866   5.074  0.3218 -0.2882 -0.6262
 2600SOL    HW219434   0.793   2.964   4.969 -0.1030  1.8343  1.0847
 2601SOL     OW19435   1.810   0.303   6.305 -0.1141  0.3084 -0.1248
 2601SOL    HW119436   1.765   0.385   6.285 -0.1530 -0.1602 -1.9145
 2601SOL    HW219437   1.865   0.288   6.228 -1.5418  0.4654 -1.1706
 2602SOL     OW19438   2.449   3.790  11.020 -0.2002  0.1842 -0.2419
 2602SOL    HW119439   2.364   3.761  10.986 -1.1513  1.5334  0.9940
 2602SOL    HW219440   2.489   3.787  10.933  0.0962  0.6386 -0.1209
 2603SOL     OW19441   2.714   3.337  14.280 -0.1468 -0.4508  0.1275
 2603SOL    HW119442   2.719   3.408  14.216 -0.3586 -0.0394  0.5688
 2603SOL    HW219443   2.727   3.387  14.361  0.8836  1.4163 -1.1819
 2604SOL     OW19444   3.992   3.939   1.363  0.5848 -0.4820  0.0997
 2604SOL    HW119445   3.947   3.889   1.295 -2.0947 -0.0826  1.5682
 2604SOL    HW219446   4.062   3.983   1.314  2.2009 -1.1306  1.8642
 2605SOL     OW19447   1.266   0.382  17.493 -0.2592 -0.1903  0.2148
 2605SOL    HW119448   1.302   0.402  17.579  1.8997  1.3138 -1.0264
 2605SOL    HW219449   1.306   0.298  17.469  1.2456  0.3883  0.6798
 2606SOL     OW19450   4.090   4.585   1.390 -0.1005  0.0466 -0.3972
 2606SOL    HW119451   4.021   4.577   1.325 -0.7199 -0.0803  0.2701
 2606SOL    HW219452   4.070   4.668   1.433 -1.3952 -1.4925  1.9894
 2607SOL     OW19453   1.837   1.782  10.700 -0.4164  0.3906 -0.0028
 2607SOL    HW119454   1.821   1.842  10.772  1.1668  1.3340 -0.4241
 2607SOL    HW219455   1.926   1.753  10.717 -0.7155 -0.4805  0.0682
 2608SOL     OW19456   1.569   0.854   7.290  0.0233  0.6025  0.1381
 2608SOL    HW119457   1.572   0.811   7.376  1.0719  1.4087  0.5153
 2608SOL    HW219458   1.507   0.919   7.323 -1.7101 -2.0255  2.1153
 2609SOL     OW19459   1.134   3.010   4.323 -0.2435 -0.1463  0.1745
 2609SOL    HW119460   1.115   3.076   4.257 -3.6878 -0.2968  1.0309
 2609SOL    HW219461   1.047   2.984   4.353 -0.5156 -1.4098 -1.7303
 2610SOL     OW19462   4.526   3.536   7.697  0.1403 -0.7173  0.2440
 2610SOL    HW119463   4.598   3.516   7.637  0.3317 -1.0194  0.5742
 2610SOL    HW219464   4.463   3.563   7.630  0.9588 -1.3217 -0.7565
 2611SOL     OW19465   2.164   1.373   2.545  0.2690 -0.0630  0.6033
 2611SOL    HW119466   2.226   1.442   2.568 -0.5979  0.5499  1.1107
 2611SOL    HW219467   2.085   1.414   2.510 -1.3708 -1.5889  2.5121
 2612SOL     OW19468   2.211   0.996   2.792 -0.1749 -0.3352 -0.0748
 2612SOL    HW119469   2.159   0.937   2.738 -2.3513  2.2684 -0.8326
 2612SOL    HW219470   2.142   1.052   2.826  1.0517  1.7816 -1.0561
 2613SOL     OW19471   1.303   3.501   7.697  0.5498 -0.5356  0.8123
 2613SOL    HW119472   1.366   3.476   7.629 -1.3671 -0.5809 -0.9424
 2613SOL    HW219473   1.350   3.573   7.739  0.0137  0.1425  0.2468
 2614SOL     OW19474   2.128   2.574   6.437  0.2334 -0.0138 -0.6001
 2614SOL    HW119475   2.209   2.530   6.410  0.4542  0.7883 -1.2315
 2614SOL    HW219476   2.071   2.582   6.360 -1.4256 -0.2625  0.6091
 2615SOL     OW19477   0.490   3.271  14.711 -0.1193 -0.1179  0.2584
 2615SOL    HW119478   0.558   3.329  14.744  0.6482 -1.3028  0.7385
 2615SOL    HW219479   0.409   3.314  14.738 -1.4415 -1.1012 -2.1371
 2616SOL     OW19480   1.693   3.946   6.251 -0.4009 -0.3956  0.1720
 2616SOL    HW119481   1.647   4.005   6.309 -0.4191 -0.6839  0.4516
 2616SOL    HW219482   1.770   3.997   6.226 -1.2164  1.3727  1.3353
 2617SOL     OW19483   3.319   4.191   9.880 -0.1065  0.5338  0.0523
 2617SOL    HW119484   3.368   4.125   9.830  1.0800  0.7173  0.9795
 2617SOL    HW219485   3.307   4.159   9.969 -0.9812  1.0103  0.1046
 2618SOL     OW19486   2.730   2.769   7.548 -0.3354  0.3351 -0.0316
 2618SOL    HW119487   2.803   2.831   7.544 -1.0298  1.0119 -2.4919
 2618SOL    HW219488   2.678   2.793   7.624 -1.0853  1.0894 -0.7963
 2619SOL     OW19489   3.929   4.328  15.175  0.7297  0.6400 -0.0899
 2619SOL    HW119490   3.993   4.275  15.126 -0.6264  0.2911 -1.4899
 2619SOL    HW219491   3.976   4.345  15.257 -2.6558 -1.3254  2.2290
 2620SOL     OW19492   3.117   4.566  11.084 -0.0672 -0.4467  0.2758
 2620SOL    HW119493   3.032   4.560  11.040  0.0883  0.2142 -0.1141
 2620SOL    HW219494   3.151   4.653  11.065 -1.3075  0.2150  1.1279
 2621SOL     OW19495   0.206   3.775   2.084 -0.7431  0.1538  0.1800
 2621SOL    HW119496   0.232   3.717   2.013  0.4487  0.4347  0.3876
 2621SOL    HW219497   0.190   3.857   2.037  0.6508 -0.7539 -1.8433
 2622SOL     OW19498   2.983   1.430  15.110 -0.8918 -0.1011 -0.3222
 2622SOL    HW119499   3.068   1.474  15.117 -1.3763  0.7182  0.4344
 2622SOL    HW219500   2.952   1.482  15.036 -0.0475 -0.2821 -0.8008
 2623SOL     OW19501   0.634   1.734   5.493  0.1133 -0.0802  0.0646
 2623SOL    HW119502   0.613   1.760   5.583  0.3494 -0.0081  0.0978
 2623SOL    HW219503   0.726   1.758   5.483  0.7176 -1.7893  1.3570
 2624SOL     OW19504   0.520   1.169   2.772 -0.5902 -0.0159 -0.5757
 2624SOL    HW119505   0.473   1.091   2.743  0.5954 -1.0324  0.2731
 2624SOL    HW219506   0.541   1.147   2.863 -0.7292 -1.0593 -0.8045
 2625SOL     OW19507   2.391   0.399  10.323  0.1830 -0.3590 -0.2547
 2625SOL    HW119508   2.359   0.390  10.413  0.3597  1.0662 -0.0499
 2625SOL    HW219509   2.474   0.353  10.334 -1.0357 -2.8007 -1.4651
 2626SOL     OW19510   4.503   3.767   3.530 -0.3481  0.2961 -0.4319
 2626SOL    HW119511   4.493   3.709   3.454  1.7305  0.1615 -0.6045
 2626SOL    HW219512   4.525   3.710   3.603 -2.0241 -1.9754 -1.6828
 2627SOL     OW19513   1.108   1.057   7.320 -0.5116  0.2933 -0.0218
 2627SOL    HW119514   1.046   1.131   7.317 -1.5609 -0.4837  2.8953
 2627SOL    HW219515   1.113   1.053   7.224  1.0267 -0.8297  0.1185
 2628SOL     OW19516   1.241   3.618   3.030 -0.2050  0.6123  0.2588
 2628SOL    HW119517   1.226   3.652   2.941  1.3907 -0.0586 -0.2607
 2628SOL    HW219518   1.181   3.544   3.024  1.0142 -0.4045  0.7002
 2629SOL     OW19519   0.088   2.257   3.775  0.2905 -0.4159  0.3139
 2629SOL    HW119520   0.140   2.183   3.808  0.3860 -2.2085 -3.8470
 2629SOL    HW219521   0.009   2.212   3.745 -0.3436  0.3814  0.7845
 2630SOL     OW19522   4.419   0.624   9.279  0.0987 -0.2508  0.5176
 2630SOL    HW119523   4.354   0.575   9.329 -2.7518  1.2476 -1.7794
 2630SOL    HW219524   4.488   0.610   9.344  1.0451 -0.1280 -0.4623
 2631SOL     OW19525   2.497   3.877   5.981  0.1960 -0.0659 -0.3457
 2631SOL    HW119526   2.481   3.804   5.921 -0.3687 -0.4815  0.3061
 2631SOL    HW219527   2.417   3.857   6.031 -0.1463 -0.8283 -1.1795
 2632SOL     OW19528   4.690   1.961  15.569 -0.5741  0.0764 -0.1164
 2632SOL    HW119529   0.025   1.934  15.624 -0.8227  1.9332  1.1068
 2632SOL    HW219530   4.721   1.928  15.485 -1.3127 -0.4124 -0.2045
 2633SOL     OW19531   3.387   4.087   4.092 -0.0445 -0.6523 -0.1882
 2633SOL    HW119532   3.475   4.124   4.085 -0.4586  0.4921  0.7058
 2633SOL    HW219533   3.368   4.103   4.184 -0.9442  0.9405 -0.6611
 2634SOL     OW19534   4.339   3.280   6.964  0.1206 -0.4578  0.1560
 2634SOL    HW119535   4.356   3.374   6.972 -2.0266 -0.1157  0.7368
 2634SOL    HW219536   4.414   3.257   6.909 -0.2473  0.2460 -0.6394
 2635SOL     OW19537   2.814   0.602   7.869  0.1061  0.7756  0.4163
 2635SOL    HW119538   2.740   0.644   7.824  0.7498  0.5367 -0.8551
 2635SOL    HW219539   2.852   0.558   7.794 -1.3259 -1.7111  1.1523
 2636SOL     OW19540   0.343   1.025   6.809 -0.1573 -0.3107  0.2455
 2636SOL    HW119541   0.311   0.949   6.762 -0.9733 -0.7361  1.5044
 2636SOL    HW219542   0.419   0.989   6.855 -2.5510 -0.7765  3.8548
 2637SOL     OW19543   1.447   2.852  11.385 -0.6217  0.3315  0.2999
 2637SOL    HW119544   1.446   2.944  11.411 -1.2856  0.5417 -0.4744
 2637SOL    HW219545   1.457   2.812  11.472 -2.8285  0.8669  0.8015
 2638SOL     OW19546   2.355   3.049   9.800  0.3456  0.2001 -0.1166
 2638SOL    HW119547   2.433   3.049   9.855 -0.0663  1.9820  0.4468
 2638SOL    HW219548   2.326   2.958   9.811  1.2101 -0.0454  0.1883
 2639SOL     OW19549   2.025   0.934  12.467  0.2824  0.0513  0.3104
 2639SOL    HW119550   1.942   0.974  12.439  1.4854  0.6252 -2.3644
 2639SOL    HW219551   2.043   0.971  12.554  0.3123  0.5995  0.0676
 2640SOL     OW19552   0.364   2.994   8.665  0.6412  0.4895 -0.2267
 2640SOL    HW119553   0.353   3.069   8.606  1.2605  1.3424  0.7545
 2640SOL    HW219554   0.282   2.948   8.646  0.2165  1.6143 -1.1469
 2641SOL     OW19555   3.234   4.266  10.729  0.2505  0.6796  0.4192
 2641SOL    HW119556   3.310   4.280  10.671 -0.4353  0.0701 -0.6326
 2641SOL    HW219557   3.285   4.278  10.809  1.8439  1.9722 -0.7812
 2642SOL     OW19558   4.090   0.954  13.776  0.1158 -0.1121  0.3679
 2642SOL    HW119559   4.058   1.021  13.836  2.9693 -1.3438  3.3122
 2642SOL    HW219560   4.039   0.881  13.812 -0.9246  0.8857  0.9242
 2643SOL     OW19561   3.871   3.508  13.824  0.2162 -0.3652 -0.1637
 2643SOL    HW119562   3.807   3.546  13.763 -0.6349 -2.1221 -0.3405
 2643SOL    HW219563   3.849   3.554  13.905  0.3434 -0.0221 -0.3238
 2644SOL     OW19564   1.821   2.848   6.254  0.0947  0.3377 -0.2826
 2644SOL    HW119565   1.892   2.812   6.201  0.3015  1.2359 -0.6111
 2644SOL    HW219566   1.858   2.888   6.333 -1.2949  0.2355  0.4213
 2645SOL     OW19567   0.496   3.559   1.103  0.1344  0.4119  0.1775
 2645SOL    HW119568   0.532   3.486   1.053  0.8458 -0.4106  1.8860
 2645SOL    HW219569   0.545   3.555   1.185 -1.2834  0.5195  1.0413
 2646SOL     OW19570   2.680   0.608   5.252  0.2490  0.1996  0.2657
 2646SOL    HW119571   2.667   0.663   5.175 -0.2872 -0.5305 -0.1574
 2646SOL    HW219572   2.598   0.559   5.246  0.2757  0.4790 -2.3043
 2647SOL     OW19573   3.983   4.209   2.850 -0.1530  0.0846 -0.7703
 2647SOL    HW119574   4.061   4.191   2.903  1.5883 -2.4293 -4.2224
 2647SOL    HW219575   4.013   4.290   2.808  0.1979 -0.0032 -0.6871
 2648SOL     OW19576   1.723   3.360   7.685  0.0791  0.4525  0.4607
 2648SOL    HW119577   1.810   3.394   7.708  0.0152  1.1996 -0.4060
 2648SOL    HW219578   1.677   3.442   7.666 -1.4115  0.2548  3.3024
 2649SOL     OW19579   1.256   1.230   3.722 -0.2060  0.1552 -0.6292
 2649SOL    HW119580   1.192   1.227   3.652 -0.7088  0.5356 -0.1856
 2649SOL    HW219581   1.333   1.240   3.666 -2.4255  0.5374 -3.5821
 2650SOL     OW19582   2.803   4.548   5.123 -0.0959  0.3935  0.1938
 2650SOL    HW119583   2.828   4.580   5.036 -1.4815 -0.2597 -0.4336
 2650SOL    HW219584   2.834   4.458   5.128 -0.2595  0.2368 -1.6335
 2651SOL     OW19585   1.743   3.329   6.675  0.2932 -0.0443 -0.1329
 2651SOL    HW119586   1.789   3.407   6.645  1.2591 -0.4611  0.2509
 2651SOL    HW219587   1.734   3.279   6.593 -0.8414 -0.3599  0.1926
 2652SOL     OW19588   2.866   0.900   8.531  0.0947 -0.2280  0.3524
 2652SOL    HW119589   2.855   0.995   8.539  1.3384 -0.0310 -0.3921
 2652SOL    HW219590   2.841   0.878   8.621 -0.4176  0.1596  0.3078
 2653SOL     OW19591   4.036   0.559  17.032 -0.2718  0.2369 -0.4133
 2653SOL    HW119592   3.963   0.603  16.989  0.0300  0.7591 -0.4012
 2653SOL    HW219593   4.009   0.468  17.037  0.4059  0.0377 -0.3808
 2654SOL     OW19594   0.662   2.989   3.095 -0.1217  0.2493 -0.6883
 2654SOL    HW119595   0.684   2.937   3.172 -1.9044 -2.2124 -1.7931
 2654SOL    HW219596   0.638   2.918   3.034  0.4087  0.5255 -1.2148
 2655SOL     OW19597   2.954   3.073   6.951 -0.1691  0.2182 -0.3539
 2655SOL    HW119598   3.004   3.112   6.878  2.2758  0.7059  1.5776
 2655SOL    HW219599   2.946   3.146   7.013 -3.3157 -0.1262 -0.3694
 2656SOL     OW19600   0.550   3.961  11.885 -0.5766 -0.0158 -0.3763
 2656SOL    HW119601   0.640   3.988  11.903 -0.8279  0.3252  0.3695
 2656SOL    HW219602   0.560   3.866  11.893  1.3309  0.1300 -0.9948
 2657SOL     OW19603   3.125   2.979   3.657  0.3121 -0.4607 -0.0050
 2657SOL    HW119604   3.041   3.024   3.648  0.0284 -0.8850  0.5351
 2657SOL    HW219605   3.111   2.897   3.610  2.5635 -0.1320 -1.2690
 2658SOL     OW19606   0.610   2.359   2.703 -0.4117 -0.0313  0.2698
 2658SOL    HW119607   0.544   2.367   2.771  0.4555  1.5166  0.9280
 2658SOL    HW219608   0.662   2.287   2.738 -1.2624 -2.4952 -3.4238
 2659SOL     OW19609   2.590   4.611   2.216 -0.3133  0.1981  0.0867
 2659SOL    HW119610   2.579   4.517   2.203 -1.8947  0.1179  2.0352
 2659SOL    HW219611   2.513   4.627   2.271 -0.7442 -1.6630  0.0374
 2660SOL     OW19612   4.263   0.255   2.007  0.2294 -0.0972  0.8088
 2660SOL    HW119613   4.285   0.347   2.021  1.2258 -0.6070  2.6207
 2660SOL    HW219614   4.285   0.220   2.094  1.5921 -0.7679  0.2021
 2661SOL     OW19615   1.258   2.886  12.719  0.0287 -0.2688  0.2460
 2661SOL    HW119616   1.247   2.812  12.779  3.5202 -1.6690 -0.8794
 2661SOL    HW219617   1.214   2.956  12.767  4.5668  1.8575  1.2743
 2662SOL     OW19618   2.841   0.726   2.172  0.4024  0.5842  0.2799
 2662SOL    HW119619   2.770   0.784   2.199 -0.6110 -0.9376  0.9000
 2662SOL    HW219620   2.914   0.773   2.212 -0.1230  1.7018 -0.0822
 2663SOL     OW19621   0.744   2.354  12.600 -0.5237 -0.2035 -0.0602
 2663SOL    HW119622   0.767   2.264  12.624  0.1831  0.1850  0.7007
 2663SOL    HW219623   0.650   2.345  12.614 -0.0048 -0.8709  2.8100
 2664SOL     OW19624   4.667   1.872   2.700  0.1135  0.2445 -0.0507
 2664SOL    HW119625   4.673   1.778   2.720  0.2351 -0.4115 -3.2061
 2664SOL    HW219626   4.574   1.895   2.708  0.1074 -0.4959  1.9999
 2665SOL     OW19627   4.341   3.503   1.690  0.6667  0.2120 -0.4575
 2665SOL    HW119628   4.372   3.580   1.738 -0.3662 -0.3967  1.1870
 2665SOL    HW219629   4.403   3.432   1.710  0.5548 -0.2084 -1.5944
 2666SOL     OW19630   1.455   0.037   9.620 -0.3930 -0.4999  0.3379
 2666SOL    HW119631   1.491   0.078   9.698 -2.8062  0.3928  0.9969
 2666SOL    HW219632   1.418   4.701   9.667  2.7491 -0.4503  2.8568
 2667SOL     OW19633   1.189   3.233   9.793  0.7647 -0.2853  0.0108
 2667SOL    HW119634   1.261   3.227   9.855  0.0856 -1.0750  0.7306
 2667SOL    HW219635   1.218   3.319   9.765  0.3607 -0.3102 -0.4855
 2668SOL     OW19636   2.094   2.976  14.209  0.6977  0.1555 -0.5117
 2668SOL    HW119637   2.090   2.919  14.132  0.0607  1.9140 -1.7833
 2668SOL    HW219638   2.172   2.945  14.256 -0.3896  0.3911  1.4196
 2669SOL     OW19639   0.667   2.873   5.897  0.1122 -0.4136  0.1494
 2669SOL    HW119640   0.595   2.859   5.958  0.7860  0.9350  1.2485
 2669SOL    HW219641   0.737   2.820   5.935 -0.3432 -1.4926 -0.5131
 2670SOL     OW19642   3.262   0.364   5.242 -0.0114  0.0883  0.5744
 2670SOL    HW119643   3.317   0.318   5.305  0.1505 -0.8025 -0.2165
 2670SOL    HW219644   3.293   0.455   5.232 -0.8684  0.1959 -1.0684
 2671SOL     OW19645   1.702   2.220   5.457 -0.3064  0.2501  0.1830
 2671SOL    HW119646   1.685   2.127   5.439  0.1181  0.3702 -0.8127
 2671SOL    HW219647   1.641   2.240   5.529 -1.8615  0.1153 -1.0888
 2672SOL     OW19648   1.668   2.658   5.287 -0.1879  0.7530  0.0795
 2672SOL    HW119649   1.599   2.714   5.253 -2.1403 -3.6026 -3.0535
 2672SOL    HW219650   1.682   2.594   5.217 -1.0047  0.4291  0.2149
 2673SOL     OW19651   2.812   4.574  10.478  0.6428  0.5748 -0.0286
 2673SOL    HW119652   2.727   4.602  10.445  0.0336  0.3555  1.3654
 2673SOL    HW219653   2.863   4.645  10.440  0.1917  1.3378  0.7955
 2674SOL     OW19654   4.377   2.987   5.296 -0.2643 -0.3453 -0.2127
 2674SOL    HW119655   4.320   2.980   5.219 -0.4278  1.7042 -0.2868
 2674SOL    HW219656   4.455   2.941   5.265 -0.9175 -0.1053 -2.2521
 2675SOL     OW19657   0.903   0.967   3.579 -0.3111  0.1051  0.4605
 2675SOL    HW119658   0.865   0.885   3.547  2.0976 -1.1354  0.7584
 2675SOL    HW219659   0.988   0.981   3.538  0.2134 -1.2271  1.0922
 2676SOL     OW19660   1.818   1.440   5.781 -0.1128 -0.0483  0.7975
 2676SOL    HW119661   1.847   1.374   5.844 -0.9915  0.3153  1.5914
 2676SOL    HW219662   1.741   1.479   5.823  1.4655  1.9727  1.7856
 2677SOL     OW19663   0.550   1.592   6.274  0.0117  0.6799 -0.0714
 2677SOL    HW119664   0.478   1.652   6.292 -1.1649 -0.3844 -1.1922
 2677SOL    HW219665   0.576   1.563   6.361  2.2669 -0.1615 -1.0172
 2678SOL     OW19666   0.316   1.951  15.458  0.4483 -0.1157  0.2298
 2678SOL    HW119667   0.255   2.018  15.427 -0.2587  0.0236  1.9033
 2678SOL    HW219668   0.278   1.879  15.408  0.0316  0.5279 -0.3843
 2679SOL     OW19669   2.454   1.090   5.810 -0.1748 -0.1685 -0.3600
 2679SOL    HW119670   2.402   1.169   5.821 -1.4235 -1.0500  0.1829
 2679SOL    HW219671   2.538   1.132   5.824  0.9726 -1.5940 -3.0221
 2680SOL     OW19672   0.965   4.001   5.392 -0.3868 -0.2419 -0.0786
 2680SOL    HW119673   0.880   4.030   5.425  0.6328  1.6750  0.8603
 2680SOL    HW219674   0.946   3.957   5.309  0.4188  0.6962 -0.7549
 2681SOL     OW19675   0.770   1.151   3.258  0.0900 -0.5678 -0.2095
 2681SOL    HW119676   0.805   1.065   3.282  0.8638 -0.6404 -1.5986
 2681SOL    HW219677   0.836   1.217   3.279  0.6286 -1.2203  0.1512
 2682SOL     OW19678   0.115   3.976   2.262 -0.1882 -0.3606 -0.5780
 2682SOL    HW119679   0.144   3.891   2.230 -0.0168 -1.4364  2.4691
 2682SOL    HW219680   0.038   3.957   2.316  0.6294  0.0898  0.7299
 2683SOL     OW19681   4.472   4.450   0.752  0.3250  0.7573 -0.0385
 2683SOL    HW119682   4.418   4.372   0.764  0.5859  0.4197 -1.0639
 2683SOL    HW219683   4.534   4.431   0.682  2.8864  1.7572  1.9706
 2684SOL     OW19684   2.997   1.358   4.977  0.1781  0.0028  0.2379
 2684SOL    HW119685   3.086   1.361   5.014 -0.1415  1.0124  0.9122
 2684SOL    HW219686   2.962   1.436   5.017  0.2528 -0.5903  1.4556
 2685SOL     OW19687   1.156   1.270   4.337  0.2230  0.1198  0.3431
 2685SOL    HW119688   1.238   1.316   4.355 -0.5071  0.6996  2.1627
 2685SOL    HW219689   1.137   1.301   4.248 -0.7041 -0.2923  0.3992
 2686SOL     OW19690   3.450   3.443   3.506  0.1391 -0.3132  0.9942
 2686SOL    HW119691   3.422   3.515   3.450  3.2302  1.3296  1.5527
 2686SOL    HW219692   3.369   3.393   3.514 -1.5114  2.3978  0.9103
 2687SOL     OW19693   4.448   0.981   5.040 -0.0924  0.0528  0.6246
 2687SOL    HW119694   4.518   1.033   5.079  0.8215 -1.2843  0.7825
 2687SOL    HW219695   4.489   0.894   5.035  0.1591  0.1221  1.3714
 2688SOL     OW19696   2.409   0.346   4.997  0.4085  0.2392  0.2400
 2688SOL    HW119697   2.474   0.415   4.980  1.6823 -0.5154  2.0486
 2688SOL    HW219698   2.440   0.304   5.077 -0.6435 -1.0943 -0.0595
 2689SOL     OW19699   4.049   0.481   4.615 -0.1293 -0.4116 -0.3103
 2689SOL    HW119700   4.075   0.533   4.691 -2.4259  0.1698  0.0646
 2689SOL    HW219701   4.068   0.530   4.535 -0.6828  1.8845  0.9586
 2690SOL     OW19702   3.113   4.666  12.442 -0.0601  0.3785  0.3779
 2690SOL    HW119703   3.087   4.737  12.500 -0.7332 -0.2606  0.8660
 2690SOL    HW219704   3.026   4.634  12.417  0.4900 -1.8447  1.3265
 2691SOL     OW19705   3.363   3.465   0.306 -0.5630 -0.5408 -0.3648
 2691SOL    HW119706   3.322   3.413   0.375  1.0772 -0.2915  0.7977
 2691SOL    HW219707   3.431   3.405   0.277 -0.7828 -1.0610  0.1963
 2692SOL     OW19708   4.383   2.849  10.069 -0.2129 -0.2675  0.0338
 2692SOL    HW119709   4.465   2.817  10.033 -0.4136  1.3686 -1.8983
 2692SOL    HW219710   4.323   2.777  10.053  1.9882 -1.6696 -1.8610
 2693SOL     OW19711   2.849   2.460   8.973  0.0514  0.0772  0.4486
 2693SOL    HW119712   2.915   2.404   9.014  1.0456  1.0348  0.1614
 2693SOL    HW219713   2.773   2.444   9.029 -0.9502  3.6831  0.0623
 2694SOL     OW19714   1.906   2.043   9.166 -0.2593  0.1258  0.3304
 2694SOL    HW119715   1.897   1.989   9.245 -2.5160 -0.2084 -0.1437
 2694SOL    HW219716   1.966   2.112   9.195 -1.3451  2.5877 -3.3396
 2695SOL     OW19717   2.311   2.324   2.024  0.1833  0.0234  0.1235
 2695SOL    HW119718   2.379   2.319   2.092 -0.1796  0.0483  0.4903
 2695SOL    HW219719   2.324   2.253   1.962 -1.5206  0.7587 -1.0995
 2696SOL     OW19720   3.514   1.080   7.434  0.0148 -0.3663  0.0104
 2696SOL    HW119721   3.489   0.989   7.450  0.9604 -0.9272 -1.6386
 2696SOL    HW219722   3.607   1.079   7.412 -0.1069  0.4032 -0.5051
 2697SOL     OW19723   0.407   3.361   9.144 -0.7919  0.2109 -0.0365
 2697SOL    HW119724   0.498   3.370   9.114 -1.0825  0.4285 -0.8666
 2697SOL    HW219725   0.386   3.451   9.169  0.7560  0.0711  1.7651
 2698SOL     OW19726   1.135   1.749   6.680  0.1910 -0.1022  0.1380
 2698SOL    HW119727   1.215   1.781   6.722 -0.9969 -0.1278  2.4361
 2698SOL    HW219728   1.085   1.830   6.692 -0.4215 -0.4988  0.2682
 2699SOL     OW19729   2.641   3.941   0.872 -0.1174  0.0208  0.1816
 2699SOL    HW119730   2.616   3.849   0.881  1.9618 -0.3130  2.6347
 2699SOL    HW219731   2.609   3.972   0.788 -3.1573  0.5612  1.5567
 2700SOL     OW19732   1.881   3.333  16.510  0.4987 -0.0070 -0.0952
 2700SOL    HW119733   1.921   3.402  16.458 -1.2642  0.3024 -1.0667
 2700SOL    HW219734   1.942   3.260  16.502  1.8932  1.0818  0.7622
 2701SOL     OW19735   2.034   1.504   5.645 -0.5541  0.0932  0.9130
 2701SOL    HW119736   1.960   1.474   5.699 -1.4314  1.9926  0.7650
 2701SOL    HW219737   2.058   1.582   5.695 -1.4396 -0.8128  2.7787
 2702SOL     OW19738   2.119   1.661   4.338 -0.4071  0.0166 -0.2800
 2702SOL    HW119739   2.164   1.674   4.421  1.5249 -2.6636 -0.9035
 2702SOL    HW219740   2.059   1.735   4.332 -1.6465 -1.0335 -0.9779
 2703SOL     OW19741   2.733   2.456   1.224 -0.6601 -0.4746 -0.6934
 2703SOL    HW119742   2.821   2.477   1.254 -0.5832  0.6280 -1.6827
 2703SOL    HW219743   2.753   2.445   1.131  0.6387 -0.7888 -0.3690
 2704SOL     OW19744   3.945   3.353  11.868 -0.5362  0.0337  0.0983
 2704SOL    HW119745   4.031   3.311  11.865  1.1481  3.2902  2.2453
 2704SOL    HW219746   3.895   3.282  11.829 -1.0488 -0.6158  1.9615
 2705SOL     OW19747   3.640   4.552  10.609 -0.1423 -0.0194 -0.0870
 2705SOL    HW119748   3.606   4.632  10.648 -0.7309 -0.5615  0.5208
 2705SOL    HW219749   3.580   4.489  10.649 -0.9680  0.4396 -0.5987
 2706SOL     OW19750   4.722   2.318   6.463 -0.0732  0.9056  0.5504
 2706SOL    HW119751   4.696   2.325   6.555  0.4269 -2.0110  0.8936
 2706SOL    HW219752   0.003   2.225   6.459  0.9826  1.1610 -0.0156
 2707SOL     OW19753   3.206   4.549   5.243 -0.4557  0.3850 -0.0648
 2707SOL    HW119754   3.295   4.584   5.249 -0.3601  0.2480 -0.7390
 2707SOL    HW219755   3.157   4.629   5.223  1.5108  1.5254 -0.2433
 2708SOL     OW19756   2.013   0.832   2.700  0.0487  0.2802  0.2839
 2708SOL    HW119757   2.013   0.740   2.728  0.3089  0.8276  2.0567
 2708SOL    HW219758   2.050   0.820   2.612  0.4026  1.9720  0.1990
 2709SOL     OW19759   0.598   1.988   6.157  0.2374  0.6116 -0.0376
 2709SOL    HW119760   0.592   2.063   6.216 -3.0453  1.1841 -1.1177
 2709SOL    HW219761   0.658   1.929   6.202 -2.7391 -0.1103  3.0271
 2710SOL     OW19762   3.184   0.666   1.780 -0.1145 -0.2173  0.0141
 2710SOL    HW119763   3.208   0.587   1.829 -1.3097 -0.6321 -0.0730
 2710SOL    HW219764   3.089   0.663   1.772  0.1867 -2.2013 -2.6225
 2711SOL     OW19765   4.581   4.032   6.322  0.2137  0.2448  0.0647
 2711SOL    HW119766   4.670   4.006   6.346  0.2979  0.3750 -0.1038
 2711SOL    HW219767   4.574   3.978   6.243  0.2186  1.3942 -0.7113
 2712SOL     OW19768   4.403   1.945  15.300 -0.4153 -0.1078 -0.3251
 2712SOL    HW119769   4.401   2.016  15.236 -0.7420  1.7453  1.7447
 2712SOL    HW219770   4.451   1.981  15.375  2.7212 -2.4318 -1.2765
 2713SOL     OW19771   0.629   0.706   3.207 -0.1007 -0.5457 -0.1266
 2713SOL    HW119772   0.703   0.655   3.174  0.1968  0.8454 -1.6618
 2713SOL    HW219773   0.687   0.764   3.257  2.3820 -2.0882 -1.2536
 2714SOL     OW19774   4.314   2.640   9.647 -0.7184 -0.1757  0.1206
 2714SOL    HW119775   4.377   2.711   9.656 -1.1547  0.3287 -0.7802
 2714SOL    HW219776   4.362   2.564   9.679  1.8547  0.7079 -1.6337
 2715SOL     OW19777   3.342   2.757  15.735 -0.3520  0.6492 -0.0511
 2715SOL    HW119778   3.271   2.704  15.771  0.9997 -1.3269 -0.2972
 2715SOL    HW219779   3.288   2.830  15.705  0.8516  1.0268 -1.2665
 2716SOL     OW19780   0.887   1.228   0.625 -0.2162  0.4830 -0.2482
 2716SOL    HW119781   0.821   1.158   0.632 -1.0585  1.4346  1.4116
 2716SOL    HW219782   0.874   1.256   0.534 -2.5171 -0.7551 -0.3000
 2717SOL     OW19783   2.449   2.893   4.141  0.2987  0.3092 -0.3606
 2717SOL    HW119784   2.405   2.808   4.143 -0.2351  0.5888 -0.1093
 2717SOL    HW219785   2.536   2.853   4.142  0.5131  0.7430 -2.3517
 2718SOL     OW19786   4.062   1.722   1.926  0.5281  0.1851  0.2298
 2718SOL    HW119787   4.039   1.692   2.014 -0.4506 -1.7830 -0.6985
 2718SOL    HW219788   4.082   1.814   1.945  1.8251  0.4014 -2.1749
 2719SOL     OW19789   3.679   3.903   4.709  0.2816 -0.6657  0.0102
 2719SOL    HW119790   3.708   3.960   4.781 -0.3140  0.4550 -0.6380
 2719SOL    HW219791   3.628   3.837   4.755 -1.3311  0.4366 -0.1794
 2720SOL     OW19792   1.461   4.727   5.387 -0.1480 -0.4009  0.3052
 2720SOL    HW119793   1.418   4.681   5.458  0.3870 -1.6213 -0.1702
 2720SOL    HW219794   1.454   4.673   5.309 -0.7225 -0.0659  0.1275
 2721SOL     OW19795   4.494   4.433   6.786 -0.3697  0.3539 -0.3957
 2721SOL    HW119796   4.486   4.524   6.758 -1.2073  1.3304  2.9992
 2721SOL    HW219797   4.581   4.411   6.753 -0.0769 -0.7606  1.1183
 2722SOL     OW19798   1.313   3.477   4.851  0.2439  0.0908  0.4610
 2722SOL    HW119799   1.248   3.542   4.825  1.8765  0.7563 -1.9009
 2722SOL    HW219800   1.270   3.415   4.910 -1.4954 -0.6778 -1.6130
 2723SOL     OW19801   3.626   3.150   5.876 -0.2930  0.0985 -0.6241
 2723SOL    HW119802   3.538   3.149   5.838 -0.5722 -0.9419  0.0587
 2723SOL    HW219803   3.607   3.124   5.966 -1.7584  1.3698 -0.5530
 2724SOL     OW19804   4.057   3.908   0.074  0.3328 -0.5339  0.1062
 2724SOL    HW119805   4.086   3.841   0.135 -2.1842 -3.1970 -1.6368
 2724SOL    HW219806   3.965   3.886   0.059  0.1971  0.3014 -0.2625
 2725SOL     OW19807   2.400   2.794  11.570 -0.0419  0.2633 -0.1474
 2725SOL    HW119808   2.449   2.739  11.509  2.4067  0.4534  1.6731
 2725SOL    HW219809   2.349   2.727  11.614 -0.2789 -0.5587 -1.6772
 2726SOL     OW19810   0.096   3.095   5.171  0.2768 -0.1314 -0.0626
 2726SOL    HW119811   0.171   3.080   5.228 -0.4277  2.3955  1.5046
 2726SOL    HW219812   0.035   3.025   5.196 -3.4600  2.7580 -1.0504
 2727SOL     OW19813   0.869   3.676   6.751 -0.3531  0.0486  0.2245
 2727SOL    HW119814   0.870   3.599   6.808  3.2753  0.5540  0.8817
 2727SOL    HW219815   0.963   3.693   6.747 -0.9440  2.7267 -1.7943
 2728SOL     OW19816   3.125   4.176   5.893  0.1590  0.0137 -0.3131
 2728SOL    HW119817   3.144   4.233   5.818  1.6660  0.9293  0.7680
 2728SOL    HW219818   3.059   4.122   5.848  0.6926 -0.2718 -0.7565
 2729SOL     OW19819   0.391   4.312   5.247  0.1859  0.1954  0.2005
 2729SOL    HW119820   0.372   4.280   5.336 -0.1467  1.2369  0.5004
 2729SOL    HW219821   0.305   4.302   5.206  1.1230 -1.0138 -1.4484
 2730SOL     OW19822   1.425   0.344  15.873 -0.4810  0.5156 -0.9013
 2730SOL    HW119823   1.389   0.259  15.899 -1.1837  0.5177 -1.8822
 2730SOL    HW219824   1.341   0.389  15.868  0.3479  2.2118  0.2150
 2731SOL     OW19825   3.984   2.097   1.716  0.1653 -0.3509 -0.6969
 2731SOL    HW119826   4.073   2.089   1.750 -0.1342  0.2423  0.2118
 2731SOL    HW219827   3.990   2.025   1.653  1.6002 -1.8533  1.1899
 2732SOL     OW19828   4.430   2.840   0.794 -0.9259 -0.0628  0.0845
 2732SOL    HW119829   4.440   2.850   0.889 -1.7665 -1.3165  0.3044
 2732SOL    HW219830   4.371   2.764   0.790 -2.2042  1.0828 -2.6230
 2733SOL     OW19831   3.600   1.676   5.167 -0.0852 -0.0722  0.0963
 2733SOL    HW119832   3.573   1.744   5.105 -0.1886 -1.0139 -0.8971
 2733SOL    HW219833   3.522   1.621   5.172  0.2353 -0.9124 -3.4764
 2734SOL     OW19834   1.883   1.275   3.109 -0.0615 -0.2579  0.1636
 2734SOL    HW119835   1.846   1.351   3.154  0.9346 -0.3912  1.2297
 2734SOL    HW219836   1.802   1.253   3.065  0.1958 -1.6702  0.3975
 2735SOL     OW19837   3.610   0.217  11.438 -0.2580  1.0920  0.2348
 2735SOL    HW119838   3.621   0.238  11.345  0.2108 -2.7743 -0.5603
 2735SOL    HW219839   3.550   0.143  11.427  1.0718  0.4629 -2.7009
 2736SOL     OW19840   1.857   2.803   4.939  0.1218  0.0479  0.4342
 2736SOL    HW119841   1.927   2.823   5.001 -0.2159 -1.0968  1.1758
 2736SOL    HW219842   1.901   2.814   4.855  0.0554 -1.3867  0.2085
 2737SOL     OW19843   4.568   4.373   7.838  0.1917 -0.3435 -0.1131
 2737SOL    HW119844   4.578   4.285   7.875 -0.0327  0.2809  1.4643
 2737SOL    HW219845   4.490   4.401   7.886  0.9989  2.6884 -0.5389
 2738SOL     OW19846   0.386   3.557  13.223 -0.4447  0.2786  0.6375
 2738SOL    HW119847   0.337   3.615  13.281 -1.7188  1.6632 -1.8477
 2738SOL    HW219848   0.339   3.570  13.141  1.1715  1.2078 -0.1504
 2739SOL     OW19849   2.053   3.034  15.158  0.3176  0.0432 -0.1944
 2739SOL    HW119850   1.994   3.002  15.090 -1.0264  0.3917  0.8120
 2739SOL    HW219851   2.037   3.128  15.151 -1.6532 -0.0999  2.3797
 2740SOL     OW19852   1.540   4.245   6.105 -0.6455  0.0899  0.4041
 2740SOL    HW119853   1.535   4.188   6.181  0.3197 -0.1851  0.2516
 2740SOL    HW219854   1.478   4.315   6.128 -1.5046  0.1615 -2.0766
 2741SOL     OW19855   4.472   1.226  14.892 -0.3494 -0.1385 -0.2435
 2741SOL    HW119856   4.457   1.238  14.986 -0.8323 -0.4708 -0.2777
 2741SOL    HW219857   4.548   1.168  14.888  1.0712  1.6968  0.5200
 2742SOL     OW19858   2.643   2.493   5.094 -0.2684  0.1238  0.1401
 2742SOL    HW119859   2.710   2.557   5.116 -1.8730  1.5519  0.9449
 2742SOL    HW219860   2.585   2.492   5.170  1.8090 -1.1326  1.6909
 2743SOL     OW19861   1.124   2.049   2.879 -0.0399 -0.0030 -0.0034
 2743SOL    HW119862   1.109   1.985   2.810 -0.8508 -0.6540  0.7713
 2743SOL    HW219863   1.179   2.120   2.847  0.7290 -0.2347  0.7930
 2744SOL     OW19864   2.786   3.167   5.777 -0.1999 -0.0957 -0.2657
 2744SOL    HW119865   2.728   3.110   5.727 -0.6117 -0.0855  0.2038
 2744SOL    HW219866   2.861   3.109   5.762 -0.4622  0.5609 -4.1080
 2745SOL     OW19867   0.176   2.259   9.651 -0.6993 -0.3390 -0.4428
 2745SOL    HW119868   0.179   2.330   9.715 -0.2303 -0.9333  0.1853
 2745SOL    HW219869   0.254   2.273   9.598 -1.3243  0.6790 -1.1037
 2746SOL     OW19870   1.416   4.538  16.233  0.3924  0.5232  0.0202
 2746SOL    HW119871   1.334   4.544  16.282 -0.1529 -0.9203 -0.7167
 2746SOL    HW219872   1.468   4.604  16.279  0.0167  0.5279  0.4380
 2747SOL     OW19873   4.438   4.637   7.377  0.0500  0.6194  0.3475
 2747SOL    HW119874   4.410   4.548   7.398  0.7718  1.3419  4.2436
 2747SOL    HW219875   4.502   4.659   7.445  1.4003  0.0769 -0.7397
 2748SOL     OW19876   2.849   4.040   1.682 -0.5312 -0.0663  0.2519
 2748SOL    HW119877   2.902   4.039   1.762  0.0816 -1.5640 -0.1672
 2748SOL    HW219878   2.774   3.990   1.714  1.0321 -1.7120  1.3365
 2749SOL     OW19879   3.281   1.949   0.481  0.1878  0.2022 -0.1701
 2749SOL    HW119880   3.235   1.895   0.417 -0.6638 -1.3763  1.7453
 2749SOL    HW219881   3.312   2.021   0.427 -1.3266  0.8619 -0.1529
 2750SOL     OW19882   0.231   3.852   4.994 -0.0412 -0.5753  0.3361
 2750SOL    HW119883   0.298   3.793   4.960  1.1661  0.7248  0.4407
 2750SOL    HW219884   0.281   3.926   5.029 -0.2629 -0.7929  1.1128
 2751SOL     OW19885   2.400   2.821   1.957 -0.1828  0.0888  0.2126
 2751SOL    HW119886   2.353   2.765   2.020 -1.5704  1.3431  0.2910
 2751SOL    HW219887   2.328   2.857   1.905  0.2124  0.3372 -0.1605
 2752SOL     OW19888   3.307   0.360  13.033 -0.0075 -0.1089 -0.3333
 2752SOL    HW119889   3.230   0.398  12.990  0.2073 -1.4904 -1.9389
 2752SOL    HW219890   3.383   0.372  12.976  0.9700 -1.5481  0.6601
 2753SOL     OW19891   0.063   4.523   0.343  0.1607  0.2182  0.2679
 2753SOL    HW119892   0.055   4.616   0.320 -0.0074  0.2459  0.4360
 2753SOL    HW219893   0.131   4.523   0.411  1.2382 -0.4313 -0.7956
 2754SOL     OW19894   1.210   3.152  15.726  0.6541  0.4353 -0.3643
 2754SOL    HW119895   1.209   3.217  15.797  3.3506  2.4653 -2.1809
 2754SOL    HW219896   1.227   3.215  15.656 -0.9982  0.7117 -0.5225
 2755SOL     OW19897   0.660   4.140   3.136  0.0893 -0.2587 -0.1144
 2755SOL    HW119898   0.633   4.170   3.049 -1.5883 -2.3525 -0.3251
 2755SOL    HW219899   0.668   4.045   3.121  1.3022 -0.1967  0.1471
 2756SOL     OW19900   3.171   0.986   9.550  0.3347 -0.2471  0.0832
 2756SOL    HW119901   3.128   0.915   9.596 -2.7887  0.8078 -1.2117
 2756SOL    HW219902   3.173   0.958   9.458 -1.6432  0.4379 -0.1659
 2757SOL     OW19903   0.884   1.227   5.275 -0.1056  0.2202 -0.0953
 2757SOL    HW119904   0.871   1.319   5.252  0.7724 -0.0491 -1.6373
 2757SOL    HW219905   0.950   1.193   5.215 -0.7126 -2.6387  0.8681
 2758SOL     OW19906   1.406   0.392   8.264 -0.2001  0.3904  0.1245
 2758SOL    HW119907   1.393   0.437   8.347 -2.5109  1.0950 -0.6235
 2758SOL    HW219908   1.321   0.350   8.251 -0.2196 -0.6361  3.6273
 2759SOL     OW19909   2.531   2.208  12.782 -0.1064 -0.4113  0.3608
 2759SOL    HW119910   2.625   2.228  12.783 -0.4442  1.1359  0.2709
 2759SOL    HW219911   2.496   2.270  12.719  0.2101 -0.9584 -0.3434
 2760SOL     OW19912   2.610   2.302  14.999 -0.4450 -0.0049  0.0628
 2760SOL    HW119913   2.603   2.318  15.093  0.5706  0.4617  0.0600
 2760SOL    HW219914   2.703   2.278  14.993 -0.6572 -0.8240  0.0633
 2761SOL     OW19915   3.933   4.435   2.235 -0.2148 -0.1321  0.1134
 2761SOL    HW119916   3.982   4.448   2.154 -0.8426  1.7220  0.0131
 2761SOL    HW219917   3.942   4.521   2.277  0.8311 -0.3484  0.3418
 2762SOL     OW19918   0.063   4.492   2.591  0.0723 -0.5721 -0.3559
 2762SOL    HW119919   0.029   4.575   2.556 -0.6521 -1.4098 -1.6218
 2762SOL    HW219920   0.142   4.508   2.539 -0.0728 -0.3620 -0.5145
 2763SOL     OW19921   2.042   4.557   3.020 -0.0404  0.2193  0.6402
 2763SOL    HW119922   2.028   4.561   3.115  0.0586  0.4076  0.6464
 2763SOL    HW219923   1.970   4.495   3.006 -1.0718  1.7220 -0.6304
 2764SOL     OW19924   3.985   0.160   3.699 -0.3868 -0.0703 -0.2125
 2764SOL    HW119925   4.001   0.207   3.618  1.8258 -0.5786 -0.0770
 2764SOL    HW219926   3.903   0.197   3.732 -1.6668 -3.4976  0.5074
 2765SOL     OW19927   3.646   1.659   2.697 -1.0774  0.0587  0.1504
 2765SOL    HW119928   3.556   1.690   2.709 -1.0401 -0.0312  0.6717
 2765SOL    HW219929   3.639   1.596   2.625  2.1053 -0.4646  0.2998
 2766SOL     OW19930   4.497   3.142   4.231 -0.0541  0.7482  0.2730
 2766SOL    HW119931   4.446   3.191   4.168  1.0242  0.2592 -0.9805
 2766SOL    HW219932   4.450   3.060   4.247 -0.3439  1.1418  1.4654
 2767SOL     OW19933   1.443   1.657   2.748 -0.2818 -0.0360  0.4687
 2767SOL    HW119934   1.471   1.566   2.756 -0.1814 -0.2948 -2.7976
 2767SOL    HW219935   1.391   1.654   2.668  2.3288  2.4184 -1.3180
 2768SOL     OW19936   2.701   1.246   5.910  0.3295  0.4417  0.3401
 2768SOL    HW119937   2.692   1.321   5.969 -1.0688  1.6405 -1.3887
 2768SOL    HW219938   2.766   1.275   5.846 -0.3161  0.7103 -0.2072
 2769SOL     OW19939   0.939   2.950  12.759 -0.6315 -0.0139  0.3170
 2769SOL    HW119940   0.855   2.984  12.791  0.0466  2.0993 -0.1289
 2769SOL    HW219941   0.999   3.018  12.791  1.7719 -1.0416 -2.0458
 2770SOL     OW19942   1.245   0.738   5.565 -0.1715  0.3378  0.3951
 2770SOL    HW119943   1.308   0.807   5.543  0.3769  0.8102  3.4034
 2770SOL    HW219944   1.228   0.759   5.657 -1.7343  1.2877 -0.1152
 2771SOL     OW19945   4.362   3.630   7.332 -0.0163 -0.0944 -0.0727
 2771SOL    HW119946   4.386   3.538   7.338  0.8009  0.0405 -1.0775
 2771SOL    HW219947   4.272   3.623   7.300 -0.9918  1.7918  2.2751
 2772SOL     OW19948   0.265   0.957   5.198  0.3608 -0.2565  0.1571
 2772SOL    HW119949   0.264   0.965   5.293  3.5854  1.4902  0.0250
 2772SOL    HW219950   0.358   0.958   5.178  0.2304 -0.6846 -0.4941
 2773SOL     OW19951   4.233   2.527   1.776 -0.0492  0.2231  0.0385
 2773SOL    HW119952   4.306   2.532   1.714  1.3383  1.1187  1.7519
 2773SOL    HW219953   4.184   2.595   1.729  2.0003  1.3108 -0.5239
 2774SOL     OW19954   1.235   3.355  17.472 -0.0389  0.2322 -0.3839
 2774SOL    HW119955   1.146   3.331  17.448 -1.3561  2.3466  2.4023
 2774SOL    HW219956   1.248   3.429  17.413 -0.9048  0.9978  0.3910
 2775SOL     OW19957   1.821   3.639   2.234 -0.3885  0.0236  0.2910
 2775SOL    HW119958   1.748   3.700   2.239  0.2264  0.6781  1.2419
 2775SOL    HW219959   1.900   3.691   2.224  0.7969 -1.8217 -0.0216
 2776SOL     OW19960   1.586   0.260   1.734 -0.1900 -0.0525 -0.2013
 2776SOL    HW119961   1.659   0.233   1.791 -1.5946 -0.0961  1.5670
 2776SOL    HW219962   1.631   0.327   1.682  0.8040 -1.7369 -1.5111
 2777SOL     OW19963   0.975   2.011   4.362 -0.9534 -0.2102  0.3173
 2777SOL    HW119964   0.954   1.983   4.451  1.1949  1.6427  1.3852
 2777SOL    HW219965   1.029   1.939   4.331  0.2942  0.4847  0.8897
 2778SOL     OW19966   2.471   1.064   4.805  0.2924  0.1331  0.1961
 2778SOL    HW119967   2.483   1.144   4.755  0.7643  0.6503  1.1382
 2778SOL    HW219968   2.544   1.004   4.788  0.7427  0.0891  2.2724
 2779SOL     OW19969   0.505   1.416   8.336  0.6696  0.1398 -1.1241
 2779SOL    HW119970   0.428   1.385   8.288  0.5324 -1.2503 -0.0040
 2779SOL    HW219971   0.519   1.339   8.392 -0.4668 -0.4306 -1.6183
 2780SOL     OW19972   0.067   2.053   6.379 -0.2586  0.4640 -0.3012
 2780SOL    HW119973   0.142   2.041   6.438 -1.5259  2.8729  1.7857
 2780SOL    HW219974   0.103   2.107   6.307  1.5198 -0.3786 -0.0557
 2781SOL     OW19975   2.353   0.011   2.075  0.1468 -0.0360  0.2470
 2781SOL    HW119976   2.320   0.021   2.165  2.0951  2.4773  0.6839
 2781SOL    HW219977   2.444   0.035   2.089  0.4537 -1.3179  0.4322
 2782SOL     OW19978   2.014   4.413   6.345  0.1389  0.3021 -0.6219
 2782SOL    HW119979   2.056   4.405   6.260  1.3505  0.1665 -0.0072
 2782SOL    HW219980   2.090   4.405   6.403 -0.0937 -0.5654 -0.4337
 2783SOL     OW19981   0.454   4.675   4.062  0.4420 -0.0529 -0.1125
 2783SOL    HW119982   0.512   4.644   4.132  0.5277  2.4631  0.9132
 2783SOL    HW219983   0.507   4.634   3.993  1.8615  2.4648 -0.5234
 2784SOL     OW19984   0.394   0.873  13.683 -0.3066  0.5968 -0.8696
 2784SOL    HW119985   0.451   0.811  13.729 -1.8123  0.0450  0.2603
 2784SOL    HW219986   0.444   0.902  13.607  0.4079 -1.3813 -1.1652
 2785SOL     OW19987   2.189   2.172   6.596  0.3865 -0.2700 -0.5625
 2785SOL    HW119988   2.111   2.116   6.602  0.0626  0.4154  1.8589
 2785SOL    HW219989   2.209   2.184   6.503 -0.4748  2.2769 -0.4451
 2786SOL     OW19990   3.348   3.550   7.560  0.0275  0.4273  0.1085
 2786SOL    HW119991   3.341   3.624   7.620  1.0061 -0.9543  1.9167
 2786SOL    HW219992   3.369   3.483   7.624  0.7971  0.3855 -0.1917
 2787SOL     OW19993   2.382   3.665   5.146 -0.1824  0.4229  0.0808
 2787SOL    HW119994   2.468   3.706   5.144  1.2589 -2.5827  0.9224
 2787SOL    HW219995   2.400   3.588   5.093 -0.0009  0.4821  0.0576
 2788SOL     OW19996   0.455   2.049  12.975 -0.1606 -0.6572  0.5899
 2788SOL    HW119997   0.400   1.987  12.927 -1.3706  0.3642  0.6594
 2788SOL    HW219998   0.405   2.047  13.057  0.6601 -1.5975  1.0657
 2789SOL     OW19999   0.400   4.587  14.146  0.2234  0.1417 -0.0401
 2789SOL    HW120000   0.444   4.617  14.226 -0.5561  2.1361 -0.3655
 2789SOL    HW220001   0.470   4.544  14.098  1.1964  0.0041  1.5135
 2790SOL     OW20002   0.701   4.265  12.660  0.2290  0.1679  0.2237
 2790SOL    HW120003   0.727   4.305  12.743 -0.2386 -1.6185  1.2458
 2790SOL    HW220004   0.644   4.195  12.692 -1.4453  1.3305 -0.1922
 2791SOL     OW20005   3.308   2.754  14.345 -0.5835  0.5159 -0.1638
 2791SOL    HW120006   3.285   2.682  14.285  1.0926 -0.2547  0.1193
 2791SOL    HW220007   3.281   2.714  14.427 -0.1120  3.0677  1.2143
 2792SOL     OW20008   0.359   0.597  13.017 -0.3424 -0.4446  0.1525
 2792SOL    HW120009   0.286   0.586  12.957  0.4122 -1.1387 -0.6416
 2792SOL    HW220010   0.339   0.532  13.085 -0.5324 -1.5262 -0.9426
 2793SOL     OW20011   0.470   3.165   7.548  0.1804 -0.1076  0.0565
 2793SOL    HW120012   0.491   3.254   7.575 -0.4307  0.0288  0.0817
 2793SOL    HW220013   0.480   3.129   7.636 -1.7565 -0.6842  0.0341
 2794SOL     OW20014   2.032   1.347   4.000 -0.1937  0.0603 -0.0802
 2794SOL    HW120015   1.988   1.409   3.941 -1.2580 -2.0202 -1.4799
 2794SOL    HW220016   2.010   1.381   4.087  2.8000  1.3292  0.1646
 2795SOL     OW20017   0.306   1.502   9.177  0.2751  0.0835 -0.5658
 2795SOL    HW120018   0.371   1.512   9.246 -0.5804 -0.0763  0.2624
 2795SOL    HW220019   0.242   1.568   9.204  0.9818  0.8104 -0.6656
 2796SOL     OW20020   3.878   2.061   8.665  0.3341  0.0390  0.5002
 2796SOL    HW120021   3.938   2.020   8.727 -0.9333 -2.9470 -0.2660
 2796SOL    HW220022   3.843   2.131   8.721 -1.6221  0.6889 -1.5362
 2797SOL     OW20023   0.470   0.487  13.657  0.0548 -0.7098  0.2885
 2797SOL    HW120024   0.415   0.488  13.735 -0.0735 -0.2134  0.1937
 2797SOL    HW220025   0.528   0.559  13.680 -0.5434 -0.2463  0.3624
 2798SOL     OW20026   3.922   0.267   2.806 -0.0786  0.0440  0.1322
 2798SOL    HW120027   3.853   0.287   2.869  0.9749  1.2034  0.9183
 2798SOL    HW220028   3.861   0.246   2.734 -2.4821 -0.7438  2.3902
 2799SOL     OW20029   2.537   0.601   9.770  0.1824 -0.1367  0.0884
 2799SOL    HW120030   2.552   0.575   9.861  2.1579 -1.1060 -0.5098
 2799SOL    HW220031   2.469   0.668   9.774  1.3360  0.9414  1.6102
 2800SOL     OW20032   0.082   0.243   8.113 -0.3003 -0.5242 -0.1689
 2800SOL    HW120033   0.012   0.286   8.063  1.5478  2.5300 -0.1451
 2800SOL    HW220034   0.157   0.257   8.055 -2.6062  3.2555 -2.2633
 2801SOL     OW20035   2.310   2.737  11.273 -0.1009  0.0745 -0.1378
 2801SOL    HW120036   2.384   2.688  11.308  0.3684  0.4656 -0.5801
 2801SOL    HW220037   2.243   2.744  11.341 -0.8324 -1.3452 -0.7101
 2802SOL     OW20038   1.652   3.869   4.340 -0.3848  0.0562  0.0630
 2802SOL    HW120039   1.582   3.933   4.352 -0.0482  0.4960 -0.3059
 2802SOL    HW220040   1.732   3.922   4.341  0.1984 -0.8556  1.7300
 2803SOL     OW20041   0.637   3.843  15.041  0.4605 -0.0680 -0.0993
 2803SOL    HW120042   0.637   3.937  15.058  2.8985 -0.2153  0.7246
 2803SOL    HW220043   0.555   3.837  14.991 -0.2727  1.0583  0.9806
 2804SOL     OW20044   0.303   3.693   6.650 -0.7892  0.1350 -0.3147
 2804SOL    HW120045   0.322   3.751   6.577 -1.7800 -0.9579 -1.4458
 2804SOL    HW220046   0.389   3.695   6.693 -0.7844  0.0074 -0.3157
 2805SOL     OW20047   1.862   2.854   2.932  0.6110  0.3447 -0.1392
 2805SOL    HW120048   1.815   2.908   2.869  1.1889  1.8833  0.7530
 2805SOL    HW220049   1.810   2.860   3.012  2.4451 -2.1507  1.2699
 2806SOL     OW20050   2.089   2.911   7.787 -0.3397 -0.6520 -0.4365
 2806SOL    HW120051   2.123   2.951   7.707 -1.6791  0.4337 -0.4465
 2806SOL    HW220052   1.998   2.938   7.786 -0.4864 -1.1782 -2.1513
 2807SOL     OW20053   3.277   0.644  12.337  0.6593 -0.7880 -0.5186
 2807SOL    HW120054   3.365   0.608  12.342  1.6280  1.4935 -1.1343
 2807SOL    HW220055   3.249   0.612  12.252 -0.4755 -1.3627  0.0700
 2808SOL     OW20056   3.369   1.736   0.250  0.2924  0.0543 -0.4372
 2808SOL    HW120057   3.429   1.778   0.311 -0.6000 -0.5689  0.8587
 2808SOL    HW220058   3.422   1.658   0.231 -0.6153 -0.5891 -0.3415
 2809SOL     OW20059   3.088   4.029   3.096  0.0393  0.7106 -0.3823
 2809SOL    HW120060   3.020   4.014   3.030  0.6984 -2.7159 -0.2915
 2809SOL    HW220061   3.157   3.967   3.072 -0.5645 -1.0837  2.4961
 2810SOL     OW20062   2.441   1.668  12.317 -0.2091 -0.3607  0.7230
 2810SOL    HW120063   2.376   1.724  12.359 -0.2139 -0.1742  0.4658
 2810SOL    HW220064   2.512   1.711  12.365 -1.3497  0.7095  1.4238
 2811SOL     OW20065   1.501   4.400  13.837  0.4873  0.0604 -0.3592
 2811SOL    HW120066   1.436   4.459  13.876  0.8276  0.5747 -0.5749
 2811SOL    HW220067   1.582   4.437  13.871  0.7247  0.4732 -1.3605
 2812SOL     OW20068   3.917   0.738   0.293  0.3532 -0.2895  0.1160
 2812SOL    HW120069   3.964   0.764   0.214 -0.1420 -0.4911 -0.2461
 2812SOL    HW220070   3.939   0.797   0.365  0.8658 -0.3851  0.0365
 2813SOL     OW20071   2.225   3.635  10.971  0.0711 -0.3637 -0.7739
 2813SOL    HW120072   2.269   3.611  10.890 -1.2999 -0.7889 -1.4018
 2813SOL    HW220073   2.223   3.552  11.019 -0.6350 -0.1707 -0.4619
 2814SOL     OW20074   1.801   3.475   7.350  0.2733 -0.0225  0.8114
 2814SOL    HW120075   1.788   3.562   7.387  0.7290  0.2030  0.4565
 2814SOL    HW220076   1.720   3.448   7.306  1.3225 -0.5053 -0.8508
 2815SOL     OW20077   2.226   0.177   7.993  0.5734  0.0019  0.3055
 2815SOL    HW120078   2.271   0.163   7.910  1.8814  0.4141  0.9470
 2815SOL    HW220079   2.263   0.258   8.029 -0.1279  0.1319  0.7424
 2816SOL     OW20080   0.592   3.938   1.769 -0.7544  0.3128  0.1053
 2816SOL    HW120081   0.646   3.950   1.848  0.3845  0.8974 -0.7640
 2816SOL    HW220082   0.588   4.031   1.746  0.1828  0.7366  1.6462
 2817SOL     OW20083   0.976   2.694   2.005  1.0779 -0.6352  0.0646
 2817SOL    HW120084   0.968   2.751   1.929  0.5799 -0.0336  0.5700
 2817SOL    HW220085   1.058   2.718   2.048  0.6171  0.0599  0.5481
 2818SOL     OW20086   3.650   3.721   3.162  0.0553 -0.4319 -0.0212
 2818SOL    HW120087   3.602   3.721   3.245  1.0717 -0.9026  0.5697
 2818SOL    HW220088   3.590   3.707   3.089  2.0782  0.8328 -1.9510
 2819SOL     OW20089   2.975   4.298   4.583 -0.6019 -0.1014 -0.2613
 2819SOL    HW120090   3.016   4.212   4.590 -0.9858 -0.3259 -0.7307
 2819SOL    HW220091   3.046   4.353   4.614 -0.9062  0.4140 -0.4659
 2820SOL     OW20092   0.893   4.658   2.634 -0.4998  0.8446 -0.0745
 2820SOL    HW120093   0.908   4.711   2.556  1.7636  0.2552 -0.0683
 2820SOL    HW220094   0.926   4.719   2.700 -0.6664 -1.5042  2.2088
 2821SOL     OW20095   2.380   1.131   8.018  0.0442 -0.6341 -0.2089
 2821SOL    HW120096   2.385   1.152   8.111 -1.0707 -0.4609 -0.1857
 2821SOL    HW220097   2.300   1.169   7.983  0.1584 -0.6067 -0.4413
 2822SOL     OW20098   1.003   4.373  17.154  0.1592  0.2394  0.4456
 2822SOL    HW120099   0.987   4.463  17.126  0.6281  0.7459  1.8357
 2822SOL    HW220100   1.086   4.382  17.199 -0.3207 -0.3186  1.4435
 2823SOL     OW20101   0.425   3.013   0.454  0.2376  0.8818  0.1727
 2823SOL    HW120102   0.465   2.991   0.538  1.4940 -0.2225 -0.7252
 2823SOL    HW220103   0.456   3.102   0.437  1.2299  0.6460  0.7870
 2824SOL     OW20104   0.737   2.627   9.018  0.0355  0.3842  0.3448
 2824SOL    HW120105   0.803   2.613   9.086  1.4853  1.4248 -0.8462
 2824SOL    HW220106   0.792   2.682   8.962 -0.4321  1.9779  1.4127
 2825SOL     OW20107   0.203   4.058   4.465 -0.3343 -0.1232 -0.6860
 2825SOL    HW120108   0.255   4.101   4.397  1.2286 -1.0452 -0.0762
 2825SOL    HW220109   0.270   4.027   4.526 -0.6001  0.1302 -0.2560
 2826SOL     OW20110   3.810   3.257  17.324  0.6336  0.3475 -0.1591
 2826SOL    HW120111   3.719   3.258  17.294  0.7661  0.6790 -0.5636
 2826SOL    HW220112   3.813   3.170  17.363 -2.3856  1.0492  1.6133
 2827SOL     OW20113   0.899   2.976   0.663 -0.1221  0.0948 -0.2245
 2827SOL    HW120114   0.861   2.990   0.750 -0.3724 -0.3161 -0.2691
 2827SOL    HW220115   0.866   3.052   0.615 -0.8461  1.5686  2.6063
 2828SOL     OW20116   3.493   2.681   1.192  0.0224 -0.5700  0.1839
 2828SOL    HW120117   3.518   2.767   1.159 -1.5230 -0.8732 -1.7615
 2828SOL    HW220118   3.446   2.641   1.119 -0.5761  0.2707  0.1136
 2829SOL     OW20119   0.473   2.788   8.771 -0.1957 -0.2853  0.2624
 2829SOL    HW120120   0.450   2.863   8.715  0.4259  0.3811  0.8937
 2829SOL    HW220121   0.543   2.749   8.717 -0.3644  1.6806 -1.3766
 2830SOL     OW20122   1.945   4.695   4.905 -0.4742  0.3523 -0.4293
 2830SOL    HW120123   2.003   0.032   4.916 -0.3794  0.1510  0.4579
 2830SOL    HW220124   1.977   4.667   4.819  2.4882 -0.2176  0.8302
 2831SOL     OW20125   1.844   2.223   6.685  0.6832 -0.6597 -0.0487
 2831SOL    HW120126   1.865   2.298   6.630 -2.1404  0.1849  0.0362
 2831SOL    HW220127   1.893   2.253   6.762 -1.3878  0.4203  0.8283
 2832SOL     OW20128   2.787   1.853   2.418  0.0157  0.8580 -0.0371
 2832SOL    HW120129   2.789   1.877   2.326  1.4026 -0.6355 -0.4125
 2832SOL    HW220130   2.724   1.917   2.450 -1.7958 -0.8942 -0.0820
 2833SOL     OW20131   2.195   1.403   4.506  0.2634  0.0606  0.3370
 2833SOL    HW120132   2.168   1.343   4.575  0.8842  0.6241  1.0699
 2833SOL    HW220133   2.232   1.471   4.563  0.6487  1.8312 -2.0360
 2834SOL     OW20134   0.929   2.871   1.793 -0.6243 -0.5026  0.2695
 2834SOL    HW120135   0.857   2.880   1.730 -1.1992  0.6262  1.0865
 2834SOL    HW220136   0.966   2.959   1.801 -1.1915 -0.0654 -1.9513
 2835SOL     OW20137   2.183   0.120   3.236 -0.1554 -0.7041  0.4168
 2835SOL    HW120138   2.239   0.112   3.159 -2.3628  0.1255 -1.2791
 2835SOL    HW220139   2.242   0.112   3.311  0.4434  1.2838  0.1496
 2836SOL     OW20140   0.647   2.946  17.615 -0.6903  0.8085  0.0780
 2836SOL    HW120141   0.618   2.920  17.528  1.7805  1.6853 -1.0081
 2836SOL    HW220142   0.717   3.006  17.590  0.3872  0.3667  2.0022
 2837SOL     OW20143   2.240   4.067  14.313 -0.1745  0.2770 -0.2294
 2837SOL    HW120144   2.261   4.049  14.221  0.1182 -1.4108  0.1754
 2837SOL    HW220145   2.249   3.980  14.352 -1.3225 -0.5590 -1.8137
 2838SOL     OW20146   0.831   4.647   6.790 -0.1743  0.0958  0.1435
 2838SOL    HW120147   0.914   4.688   6.765 -0.4172 -0.5220 -1.6587
 2838SOL    HW220148   0.876   4.567   6.816 -0.4810  0.1130  0.7268
 2839SOL     OW20149   1.273   2.258   7.098 -0.6738 -0.0455  0.3404
 2839SOL    HW120150   1.318   2.333   7.136 -0.9093 -0.8624  2.2382
 2839SOL    HW220151   1.284   2.195   7.170 -3.0278  0.8747  1.4924
 2840SOL     OW20152   2.166   3.393   8.331  0.0020 -0.2858 -0.5265
 2840SOL    HW120153   2.195   3.470   8.380 -0.4432 -1.2734  1.2923
 2840SOL    HW220154   2.247   3.343   8.336  1.0155  1.2334 -2.0975
 2841SOL     OW20155   1.895   2.126   0.574  0.1078 -0.3653 -0.1928
 2841SOL    HW120156   1.961   2.057   0.579 -0.1908 -0.3838  3.4243
 2841SOL    HW220157   1.950   2.201   0.553  0.6911 -1.2606 -1.8245
 2842SOL     OW20158   2.402   4.375   1.162 -0.2334  0.0198  0.3900
 2842SOL    HW120159   2.424   4.298   1.109 -0.1202  0.2671  0.0801
 2842SOL    HW220160   2.475   4.370   1.224 -0.0993 -0.1441  0.2186
 2843SOL     OW20161   0.986   4.536   8.290 -0.6687  0.2018 -0.6311
 2843SOL    HW120162   0.953   4.589   8.363 -2.1809 -0.1916 -1.0303
 2843SOL    HW220163   1.075   4.567   8.303 -0.2721 -0.7067 -1.2059
 2844SOL     OW20164   1.476   1.904   6.672  0.1016 -0.5189 -0.1606
 2844SOL    HW120165   1.463   1.895   6.577 -3.8924  0.6928  0.2799
 2844SOL    HW220166   1.471   1.998   6.690 -2.4836 -0.5669 -0.6919
 2845SOL     OW20167   4.211   2.449   2.295 -0.0246 -0.4648  0.1697
 2845SOL    HW120168   4.264   2.510   2.346 -0.4285  0.8512 -0.9906
 2845SOL    HW220169   4.127   2.447   2.341 -0.0546  0.8481  0.1735
 2846SOL     OW20170   0.268   0.817   3.934  0.1635  0.1034 -0.2767
 2846SOL    HW120171   0.233   0.834   4.022 -0.2037  0.0993 -0.4246
 2846SOL    HW220172   0.282   0.723   3.929 -0.7197 -0.0760  0.5918
 2847SOL     OW20173   3.841   2.366   7.283  0.2581  0.0899  0.1249
 2847SOL    HW120174   3.799   2.386   7.367  0.1550 -0.7405  0.2705
 2847SOL    HW220175   3.803   2.280   7.267  2.2940 -1.1880  2.2113
 2848SOL     OW20176   2.501   1.170   0.707 -0.0653  0.3562  0.3777
 2848SOL    HW120177   2.539   1.209   0.628  0.6611 -0.0962  0.5015
 2848SOL    HW220178   2.579   1.151   0.759  0.1427 -1.1366 -0.4757
 2849SOL     OW20179   3.356   2.086   3.393  0.4826  0.3459  0.1041
 2849SOL    HW120180   3.408   2.006   3.401 -0.1824 -0.3886 -2.8522
 2849SOL    HW220181   3.276   2.075   3.444  0.9440 -0.5852  0.6138
 2850SOL     OW20182   0.639   2.371   7.468 -0.6345  0.1860 -0.7540
 2850SOL    HW120183   0.706   2.414   7.522  0.0594 -1.0921 -0.6034
 2850SOL    HW220184   0.566   2.376   7.530 -1.0065  0.7380 -1.2456
 2851SOL     OW20185   1.280   0.832   7.667  0.5580  0.3801 -0.4509
 2851SOL    HW120186   1.226   0.804   7.593  0.2158 -0.4799  0.1125
 2851SOL    HW220187   1.300   0.758   7.725  2.7566 -0.2330 -2.0091
 2852SOL     OW20188   2.388   2.344  11.578  0.8562 -0.1483 -0.0633
 2852SOL    HW120189   2.379   2.286  11.653  0.0396 -0.9242 -0.7495
 2852SOL    HW220190   2.434   2.417  11.619 -2.2827  1.2142  1.0262
 2853SOL     OW20191   1.674   4.184  16.159  0.1399 -0.1146  0.3797
 2853SOL    HW120192   1.592   4.229  16.138 -0.0271 -0.1156  1.0356
 2853SOL    HW220193   1.701   4.227  16.240 -0.6210  2.8487 -0.9320
 2854SOL     OW20194   0.938   0.042   3.274  0.5643  0.3806  0.2265
 2854SOL    HW120195   1.014   0.074   3.226  0.8325 -0.9426 -0.2198
 2854SOL    HW220196   0.879   0.017   3.203  0.8700 -0.8169  0.4087
 2855SOL     OW20197   3.904   1.814   2.913  0.0729 -0.4857  0.0405
 2855SOL    HW120198   3.848   1.746   2.948 -0.7346  0.1019 -0.1110
 2855SOL    HW220199   3.946   1.850   2.991 -0.3568 -0.2330  0.1552
 2856SOL     OW20200   2.481   2.674   1.050  0.2241 -0.3884 -0.4096
 2856SOL    HW120201   2.549   2.672   1.117 -0.6631 -1.5173  0.4483
 2856SOL    HW220202   2.526   2.734   0.991  2.4275 -1.6983 -0.0276
 2857SOL     OW20203   2.575   3.410   8.470 -0.6323 -0.3216  0.5512
 2857SOL    HW120204   2.485   3.434   8.448  0.1666  2.3620  0.2915
 2857SOL    HW220205   2.559   3.347   8.540  1.9710 -1.2946  0.2780
 2858SOL     OW20206   1.740   4.407   8.457  0.1151 -0.5144 -0.1721
 2858SOL    HW120207   1.776   4.482   8.411  0.3592 -0.8079 -0.4607
 2858SOL    HW220208   1.786   4.407   8.541 -1.7996 -1.9110  0.8969
 2859SOL     OW20209   4.377   4.676  16.554 -0.2119 -0.1925  0.4283
 2859SOL    HW120210   4.437   4.698  16.483 -0.6176 -1.6745 -0.3915
 2859SOL    HW220211   4.384   0.014  16.611 -2.5902  0.6929 -0.4573
 2860SOL     OW20212   3.481   3.306   5.092 -0.4061 -0.4003  0.2764
 2860SOL    HW120213   3.488   3.274   5.002  1.5150 -0.7732  0.5589
 2860SOL    HW220214   3.562   3.282   5.137 -0.4789 -0.7939  0.2002
 2861SOL     OW20215   1.807   4.624  11.114  0.0930  0.1015 -0.4253
 2861SOL    HW120216   1.824   4.684  11.187 -0.5826  0.2629 -0.3908
 2861SOL    HW220217   1.818   4.675  11.034 -0.3985  1.8922  0.6352
 2862SOL     OW20218   3.350   1.696   9.656  0.0827  0.6173  0.4133
 2862SOL    HW120219   3.302   1.778   9.637 -0.2195  0.3171 -0.1202
 2862SOL    HW220220   3.439   1.727   9.644 -0.0873  1.6529  1.8347
 2863SOL     OW20221   4.086   0.564   8.496 -0.8787  0.4668  0.9792
 2863SOL    HW120222   4.037   0.631   8.447  0.4699  2.0054  1.7051
 2863SOL    HW220223   4.160   0.625   8.505 -1.0908  1.2363 -2.2431
 2864SOL     OW20224   1.233   4.228   7.015  0.3325  0.0953  0.1740
 2864SOL    HW120225   1.267   4.317   7.030  0.5987  0.2527 -1.4228
 2864SOL    HW220226   1.171   4.224   7.088 -0.3612 -0.6186 -0.4617
 2865SOL     OW20227   2.203   2.572   2.106 -0.3972  0.4256  0.3401
 2865SOL    HW120228   2.212   2.499   2.045  0.1182  0.9303 -0.1954
 2865SOL    HW220229   2.271   2.542   2.167  0.4081  1.4381 -0.0479
 2866SOL     OW20230   4.041   0.672   4.846  0.0746  0.6250 -0.5579
 2866SOL    HW120231   4.130   0.706   4.850 -1.0664  3.2870  1.9996
 2866SOL    HW220232   4.039   0.620   4.926  2.7112 -1.3162 -1.7179
 2867SOL     OW20233   4.273   3.840  11.972 -0.2155  0.0498 -0.0682
 2867SOL    HW120234   4.363   3.859  11.944 -1.0607  1.2741 -1.9511
 2867SOL    HW220235   4.244   3.777  11.907 -0.2656  0.2171 -0.2062
 2868SOL     OW20236   0.334   3.364   4.274  0.4624 -0.2997  0.1245
 2868SOL    HW120237   0.420   3.380   4.312  0.1424 -0.6427  0.9922
 2868SOL    HW220238   0.340   3.411   4.191  0.4057 -0.8168 -0.1700
 2869SOL     OW20239   0.249   3.342   1.559 -0.4239  0.7917 -0.2812
 2869SOL    HW120240   0.288   3.420   1.522 -0.1158  0.2694 -1.0616
 2869SOL    HW220241   0.286   3.340   1.647  1.2766 -0.1223 -1.0293
 2870SOL     OW20242   3.348   1.831  11.010  0.1265 -0.3416  0.2431
 2870SOL    HW120243   3.380   1.918  11.034  2.4869 -0.9778 -0.5919
 2870SOL    HW220244   3.422   1.799  10.958 -1.6677 -0.7783 -2.0479
 2871SOL     OW20245   3.037   0.768   6.664  0.2231  0.1039 -0.1669
 2871SOL    HW120246   3.047   0.780   6.758  1.1984  0.6343 -0.3377
 2871SOL    HW220247   3.084   0.687   6.645 -1.0585 -0.7983  0.5395
 2872SOL     OW20248   1.774   1.477   4.224 -0.2739 -0.4204 -0.2931
 2872SOL    HW120249   1.743   1.511   4.308  3.5841 -0.2585  1.0318
 2872SOL    HW220250   1.858   1.437   4.246 -0.5150 -1.3822 -1.1043
 2873SOL     OW20251   4.144   1.596   7.614 -0.1966 -0.1135  0.3601
 2873SOL    HW120252   4.224   1.596   7.667  0.0068 -1.1691  0.0526
 2873SOL    HW220253   4.081   1.642   7.669 -1.3341 -0.9865 -0.2248
 2874SOL     OW20254   2.331   3.947   4.982  0.0531 -0.2712  0.2294
 2874SOL    HW120255   2.287   3.991   4.910 -0.0209  0.1525  0.5301
 2874SOL    HW220256   2.374   3.873   4.939 -0.2348 -0.3218  0.0329
 2875SOL     OW20257   1.086   1.114   9.241  0.1249 -0.2280  0.6072
 2875SOL    HW120258   0.999   1.084   9.212  0.1896 -0.1230  0.3067
 2875SOL    HW220259   1.078   1.100   9.336 -1.2816  0.6317  0.6110
 2876SOL     OW20260   2.538   2.625   6.610 -0.0359  0.3789  0.0512
 2876SOL    HW120261   2.563   2.571   6.685 -0.4180 -0.4606 -0.4394
 2876SOL    HW220262   2.603   2.601   6.544 -0.3174  0.9353 -0.4339
 2877SOL     OW20263   3.835   0.151   3.313 -0.5494 -0.3798  0.2835
 2877SOL    HW120264   3.802   0.089   3.378 -1.5788 -0.1807 -0.0612
 2877SOL    HW220265   3.790   0.114   3.237 -0.8603  0.1196  0.2251
 2878SOL     OW20266   4.288   3.388   8.138 -0.7900 -0.5474  0.1244
 2878SOL    HW120267   4.305   3.310   8.192  1.5997  0.2371  0.4837
 2878SOL    HW220268   4.347   3.377   8.063  1.0735 -0.2232  1.5549
 2879SOL     OW20269   0.538   3.467  15.010 -0.2757 -0.2083  0.1988
 2879SOL    HW120270   0.466   3.403  15.014 -2.4393  2.3818  2.9194
 2879SOL    HW220271   0.513   3.520  14.934 -1.4694  0.2808  0.9256
 2880SOL     OW20272   0.849   3.700   1.367  0.1029 -0.1088  0.2109
 2880SOL    HW120273   0.852   3.730   1.457 -0.0569  1.3564 -0.2721
 2880SOL    HW220274   0.888   3.614   1.383  0.3994  0.1094  0.6490
 2881SOL     OW20275   0.199   3.256  10.817  0.0891  0.1596 -0.4822
 2881SOL    HW120276   0.225   3.348  10.810 -2.4420  1.0372  1.9412
 2881SOL    HW220277   0.253   3.225  10.889  0.9616 -0.0987 -1.2390
 2882SOL     OW20278   4.028   3.962   3.146  0.2721  0.3010 -0.5039
 2882SOL    HW120279   3.938   3.985   3.123  0.4346  0.9230 -0.5321
 2882SOL    HW220280   4.021   3.899   3.218  3.3388  0.7912  0.2355
 2883SOL     OW20281   3.873   2.334   1.667 -0.2430 -0.1942 -0.0620
 2883SOL    HW120282   3.910   2.253   1.703  0.1290  0.2925  0.6445
 2883SOL    HW220283   3.906   2.330   1.577  1.4635  0.0717  0.5496
 2884SOL     OW20284   3.674   2.122  11.795  0.1787 -0.2593  0.8256
 2884SOL    HW120285   3.667   2.115  11.700 -1.0411  0.5203  0.8633
 2884SOL    HW220286   3.767   2.137  11.811 -0.1921  1.6077  1.2990
 2885SOL     OW20287   0.486   2.460   8.421  0.1080 -0.1234 -0.3654
 2885SOL    HW120288   0.419   2.528   8.430  1.3272  0.9443  0.7560
 2885SOL    HW220289   0.498   2.402   8.496 -1.3995  3.1210  2.4013
 2886SOL     OW20290   2.346   4.206   3.886  0.5297 -0.3972 -0.3223
 2886SOL    HW120291   2.284   4.140   3.856 -0.2515 -0.7263  2.0306
 2886SOL    HW220292   2.435   4.170   3.876  0.2155 -1.6563  1.4633
 2887SOL     OW20293   2.508   1.017  11.325  0.4296 -0.7580  0.2591
 2887SOL    HW120294   2.562   0.978  11.394  1.3883 -0.0354 -0.0848
 2887SOL    HW220295   2.519   1.111  11.332  0.4049 -0.5618 -2.3478
 2888SOL     OW20296   3.506   1.062   4.440 -0.1765  0.2908 -0.2834
 2888SOL    HW120297   3.585   1.106   4.409 -0.5821  0.7014 -0.7358
 2888SOL    HW220298   3.449   1.137   4.419 -2.1520 -0.5098  2.2211
 2889SOL     OW20299   4.709   3.333   1.560 -0.7149 -0.1330 -0.0181
 2889SOL    HW120300   0.063   3.353   1.543 -0.5807 -0.2871  0.5391
 2889SOL    HW220301   4.705   3.243   1.529  1.5691  0.1910 -1.2237
 2890SOL     OW20302   3.398   2.203   1.689 -0.4081 -0.4182  0.3850
 2890SOL    HW120303   3.485   2.238   1.671 -1.1666  1.5014  0.5215
 2890SOL    HW220304   3.391   2.136   1.620 -0.7934  3.3735 -3.2439
 2891SOL     OW20305   4.464   1.199   8.140 -0.2244 -0.0603 -0.1281
 2891SOL    HW120306   4.398   1.268   8.147 -0.3684 -0.2777  0.6259
 2891SOL    HW220307   4.401   1.128   8.149 -2.5033  1.8996 -0.5033
 2892SOL     OW20308   0.410   2.100   9.314  0.1740 -0.4931  0.1156
 2892SOL    HW120309   0.494   2.136   9.283 -0.4064  1.3968  0.7040
 2892SOL    HW220310   0.346   2.170   9.299 -0.6525 -1.2595  0.0756
 2893SOL     OW20311   1.050   0.529   8.557 -0.4095 -0.6683  0.0203
 2893SOL    HW120312   1.120   0.480   8.602 -0.4768 -0.0185  0.8378
 2893SOL    HW220313   0.976   0.481   8.595  0.8576 -2.5909  0.0729
 2894SOL     OW20314   4.153   3.257   5.272 -0.6377 -0.5970  0.0387
 2894SOL    HW120315   4.204   3.314   5.215  0.2071 -0.7707  0.6158
 2894SOL    HW220316   4.169   3.172   5.231  1.8147  0.2344 -0.7274
 2895SOL     OW20317   2.042   0.077   2.913 -0.1633 -0.2219 -0.3760
 2895SOL    HW120318   2.038   4.728   2.952  1.3228 -0.8057 -1.5200
 2895SOL    HW220319   2.017   0.136   2.984  2.6435  1.1898 -0.5501
 2896SOL     OW20320   0.235   0.448   2.444 -0.2028 -0.0664 -0.0322
 2896SOL    HW120321   0.244   0.392   2.367 -1.0658  0.4478 -0.5101
 2896SOL    HW220322   0.221   0.384   2.514  0.2061  1.5730  1.5556
 2897SOL     OW20323   2.453   0.194   7.438 -0.0840  0.2312 -0.3248
 2897SOL    HW120324   2.470   0.134   7.510 -0.4717  0.4709 -0.0391
 2897SOL    HW220325   2.466   0.130   7.368 -0.1542 -1.4551  1.2034
 2898SOL     OW20326   1.569   0.788   9.976 -0.1014  0.1193 -0.7931
 2898SOL    HW120327   1.571   0.705   9.928 -1.5836  0.8293 -2.0523
 2898SOL    HW220328   1.573   0.761  10.068  0.8385 -1.1009 -1.1829
 2899SOL     OW20329   3.037   2.098   6.805 -0.4409  0.3868  0.1384
 2899SOL    HW120330   3.121   2.052   6.804 -0.5986  0.0936  0.3692
 2899SOL    HW220331   3.064   2.178   6.760  3.3189 -1.3833 -0.7907
 2900SOL     OW20332   2.119   0.415   5.420 -0.3485  0.7155  0.3888
 2900SOL    HW120333   2.159   0.341   5.466 -0.2555  1.2188  1.0973
 2900SOL    HW220334   2.069   0.374   5.349 -0.3786 -0.6667  1.2043
 2901SOL     OW20335   0.831   2.799   7.306 -0.3287  0.3443  0.6423
 2901SOL    HW120336   0.881   2.735   7.357  1.1221  0.2387 -0.9300
 2901SOL    HW220337   0.771   2.809   7.380 -0.3930 -0.3746  0.6906
 2902SOL     OW20338   3.231   0.662   5.547  0.3030  0.2103 -0.0294
 2902SOL    HW120339   3.326   0.660   5.559  0.5346 -1.0144 -2.0305
 2902SOL    HW220340   3.211   0.731   5.610  1.0282 -1.1834  1.7352
 2903SOL     OW20341   0.251   2.684   6.303 -0.2179 -0.1312 -0.0652
 2903SOL    HW120342   0.295   2.615   6.353 -2.1442  0.0442  1.8823
 2903SOL    HW220343   0.208   2.633   6.234 -2.2465  0.9991  0.3310
 2904SOL     OW20344   3.084   3.634   5.278 -0.4447  0.2286  0.3525
 2904SOL    HW120345   3.072   3.598   5.367  0.6190 -1.0620 -0.0241
 2904SOL    HW220346   3.148   3.578   5.233 -0.1042  0.4436  0.5720
 2905SOL     OW20347   3.004   1.804   3.986  0.0387  0.4083 -0.3908
 2905SOL    HW120348   2.979   1.820   3.895  1.0345  0.9709 -0.5693
 2905SOL    HW220349   3.069   1.872   4.004  2.8948 -1.6355 -3.1831
 2906SOL     OW20350   4.021   3.621   2.461  0.4517  0.6143  0.0703
 2906SOL    HW120351   3.971   3.540   2.445  1.8492 -0.2572  0.1213
 2906SOL    HW220352   3.978   3.648   2.542 -1.1624 -2.1007  0.1438
 2907SOL     OW20353   3.296   2.909   1.852 -0.0994  0.0303 -0.5016
 2907SOL    HW120354   3.274   2.850   1.924  0.8024  2.4040  1.7579
 2907SOL    HW220355   3.215   2.954   1.829 -1.2314 -2.3294 -1.1324
 2908SOL     OW20356   2.149   0.059   5.237  0.5169  1.1093  0.4883
 2908SOL    HW120357   2.173   0.084   5.326  0.6388  2.0841  0.1716
 2908SOL    HW220358   2.216   0.100   5.184  1.9075  0.0446  1.4119
 2909SOL     OW20359   4.182   2.628   5.892 -0.3925  0.1314 -0.4239
 2909SOL    HW120360   4.098   2.659   5.860  0.2605  2.0749 -0.2870
 2909SOL    HW220361   4.184   2.663   5.981  0.2232 -0.2039 -0.3030
 2910SOL     OW20362   4.137   0.137  17.664  0.2675  0.3102 -0.4195
 2910SOL    HW120363   4.070   0.188  17.710 -0.1403  0.8720 -1.6323
 2910SOL    HW220364   4.194   0.113  17.736 -0.3061 -1.2104 -0.4882
 2911SOL     OW20365   0.653   0.752  15.167  0.0293 -0.1841 -0.0914
 2911SOL    HW120366   0.727   0.745  15.106  1.2153 -0.0017  1.3433
 2911SOL    HW220367   0.587   0.705  15.116 -1.9742  1.4468  1.0110
 2912SOL     OW20368   4.702   4.315   0.153  0.3948 -0.1551  0.0665
 2912SOL    HW120369   0.007   4.381   0.207 -1.2196  0.7284  0.2599
 2912SOL    HW220370   0.008   4.236   0.183  0.0158 -0.6673 -0.7384
 2913SOL     OW20371   4.052   3.397   2.066  0.3577 -0.3740 -0.0678
 2913SOL    HW120372   4.103   3.458   2.120 -4.2006  1.2206  2.4153
 2913SOL    HW220373   4.128   3.369   2.015  2.3348  1.5945  1.8289
 2914SOL     OW20374   4.292   3.659   4.682  0.2801 -0.3439  0.3706
 2914SOL    HW120375   4.256   3.668   4.770 -0.0805  0.6458  0.1261
 2914SOL    HW220376   4.316   3.748   4.657  0.3823 -0.5489 -0.2588
 2915SOL     OW20377   3.617   4.378   0.930 -0.3420  0.0356 -0.4069
 2915SOL    HW120378   3.686   4.363   0.865  1.5136  1.3641  1.2205
 2915SOL    HW220379   3.546   4.412   0.875 -1.1501  0.0171  0.6296
 2916SOL     OW20380   0.936   2.701   0.603 -0.0662 -0.0079  0.2644
 2916SOL    HW120381   0.901   2.787   0.627  0.2432 -0.9633  4.1834
 2916SOL    HW220382   1.031   2.709   0.616  0.0292  0.6891 -0.9266
 2917SOL     OW20383   1.882   3.667  16.127  0.0426 -0.1898  0.3153
 2917SOL    HW120384   1.817   3.658  16.057 -0.0583 -0.5791  0.4574
 2917SOL    HW220385   1.831   3.631  16.200  0.7647  1.0297  1.4417
 2918SOL     OW20386   0.734   1.840  15.959  1.0477  0.5358  0.0909
 2918SOL    HW120387   0.702   1.850  16.049  1.6238  1.0105  0.2405
 2918SOL    HW220388   0.716   1.928  15.927  0.9579  0.4382 -0.1284
 2919SOL     OW20389   4.342   3.487  15.967  0.2919 -0.4453  0.1479
 2919SOL    HW120390   4.344   3.559  15.904 -0.7298  0.8856  1.6268
 2919SOL    HW220391   4.406   3.426  15.932 -0.1156 -0.5465 -0.4156
 2920SOL     OW20392   1.992   1.179   6.537 -0.1756  0.2856 -0.0595
 2920SOL    HW120393   2.049   1.103   6.529 -0.2702  0.2737 -0.5912
 2920SOL    HW220394   1.917   1.145   6.489  1.1474 -0.4783 -1.5437
 2921SOL     OW20395   2.622   0.404  15.900 -0.3067  0.2370 -0.0571
 2921SOL    HW120396   2.553   0.415  15.834  0.2536 -1.9024 -1.0251
 2921SOL    HW220397   2.598   0.472  15.962 -0.9104 -1.7099  1.8411
 2922SOL     OW20398   4.521   0.258   3.911 -0.2479 -0.0612  0.6310
 2922SOL    HW120399   4.604   0.215   3.930  1.4274  3.2259  0.6428
 2922SOL    HW220400   4.535   0.352   3.904 -2.1248  0.0048 -1.9172
 2923SOL     OW20401   0.026   0.584   4.074  0.3780 -0.3044 -0.0187
 2923SOL    HW120402   4.718   0.642   4.135  1.0164 -2.3976  2.4642
 2923SOL    HW220403   0.084   0.544   4.139  2.1491 -0.7657 -1.8892
 2924SOL     OW20404   1.411   0.900   8.327 -0.4573  0.1830 -0.4159
 2924SOL    HW120405   1.340   0.837   8.319 -0.0343 -0.0341 -2.4567
 2924SOL    HW220406   1.384   0.940   8.245 -1.1406  0.3613 -0.1008
 2925SOL     OW20407   2.322   2.437   6.263 -0.3333 -0.1154 -0.0944
 2925SOL    HW120408   2.266   2.371   6.306  0.4285  0.5257  1.9003
 2925SOL    HW220409   2.408   2.423   6.302 -0.3265 -1.3545 -0.5715
 2926SOL     OW20410   3.107   3.743   6.398  0.1232  0.3367 -0.4886
 2926SOL    HW120411   3.050   3.739   6.322 -1.0904 -1.5803  0.5394
 2926SOL    HW220412   3.051   3.699   6.462  0.1762  1.0544  0.0587
 2927SOL     OW20413   0.082   2.095   4.107  1.3493 -0.0195  0.5036
 2927SOL    HW120414   0.131   2.168   4.145  1.7309 -0.8298  1.5703
 2927SOL    HW220415   0.154   2.074   4.048  1.3871  2.0044 -0.1753
 2928SOL     OW20416   3.326   2.639   5.237  0.1589  0.0981  0.2709
 2928SOL    HW120417   3.299   2.727   5.211  0.6335  1.0942  3.1376
 2928SOL    HW220418   3.386   2.666   5.306  0.7815 -0.0772 -0.1989
 2929SOL     OW20419   0.582   3.015   0.694 -0.5256  0.0239 -0.9724
 2929SOL    HW120420   0.597   3.084   0.759  3.2047  0.4122 -2.2218
 2929SOL    HW220421   0.592   2.934   0.743  1.0352  0.9822  0.3034
 2930SOL     OW20422   3.042   1.104  16.122  0.5497  0.7629  1.3187
 2930SOL    HW120423   3.001   1.147  16.047  1.4053  1.1589  1.0819
 2930SOL    HW220424   3.040   1.177  16.184  0.5334  1.1845  0.8143
 2931SOL     OW20425   0.673   4.040   3.451 -0.5326  0.0303  0.6046
 2931SOL    HW120426   0.597   3.982   3.459  0.6558 -1.9491 -2.4497
 2931SOL    HW220427   0.668   4.051   3.356  0.8939 -0.6023  0.4548
 2932SOL     OW20428   1.781   1.779  14.380 -0.0429  0.1015  0.2551
 2932SOL    HW120429   1.717   1.848  14.363  0.7905  0.5681 -1.0174
 2932SOL    HW220430   1.843   1.811  14.315 -1.0757 -3.1729 -2.3632
 2933SOL     OW20431   2.120   3.484   6.225 -1.0755 -0.0608 -0.5473
 2933SOL    HW120432   2.103   3.390   6.217  0.6214 -0.4516  0.4215
 2933SOL    HW220433   2.207   3.496   6.185 -0.3742 -0.7766  0.7688
 2934SOL     OW20434   3.080   2.494  10.097 -0.0123 -0.5586 -0.0733
 2934SOL    HW120435   3.017   2.440  10.049  0.0779 -1.9088  1.3526
 2934SOL    HW220436   3.057   2.458  10.182 -1.4522  0.4406 -0.0422
 2935SOL     OW20437   3.825   1.547   5.840 -0.2175 -0.2680 -0.6696
 2935SOL    HW120438   3.909   1.584   5.866 -2.0290  1.4156  2.7759
 2935SOL    HW220439   3.777   1.557   5.922 -0.0719 -0.2926 -0.5819
 2936SOL     OW20440   3.988   1.559  11.383 -0.3938 -0.1650  0.4866
 2936SOL    HW120441   3.984   1.655  11.383 -0.0254 -0.1487  2.5013
 2936SOL    HW220442   4.043   1.554  11.461 -0.6948 -0.3513  0.6847
 2937SOL     OW20443   1.487   2.521   0.490  0.6302 -0.1504 -0.0921
 2937SOL    HW120444   1.492   2.568   0.574  1.2766  0.4325 -0.4568
 2937SOL    HW220445   1.423   2.574   0.443 -0.4321  2.2378  4.0658
 2938SOL     OW20446   4.431   2.713   4.404 -0.7633  0.2514 -0.2951
 2938SOL    HW120447   4.446   2.690   4.312  0.9887  0.4894 -0.0618
 2938SOL    HW220448   4.515   2.702   4.448 -2.0807 -0.0198  2.1731
 2939SOL     OW20449   1.465   1.044   4.807 -0.0505 -0.0364 -0.1288
 2939SOL    HW120450   1.545   1.041   4.753  0.2453 -0.1150  0.3133
 2939SOL    HW220451   1.477   1.135   4.835  1.2383 -0.5014  0.8742
 2940SOL     OW20452   2.908   2.065   7.033 -0.1803  0.3636  0.3419
 2940SOL    HW120453   2.882   2.151   7.068  1.6437  1.2921 -0.5674
 2940SOL    HW220454   2.928   2.088   6.942  0.7260  1.1121  0.7393
 2941SOL     OW20455   3.799   3.193   2.531  0.0884 -0.2741 -0.0231
 2941SOL    HW120456   3.719   3.164   2.575  1.0919 -2.6924  0.2135
 2941SOL    HW220457   3.787   3.149   2.447 -0.3543 -0.0091 -0.0945
 2942SOL     OW20458   0.469   3.701   3.522  0.1059  0.6694  0.0869
 2942SOL    HW120459   0.382   3.732   3.498 -0.4184  0.3272  1.5838
 2942SOL    HW220460   0.505   3.725   3.436  1.6170 -2.0054 -0.0114
 2943SOL     OW20461   2.890   4.589   2.770  0.1078 -0.0137  0.5520
 2943SOL    HW120462   2.956   4.628   2.712  0.8279 -1.4203  0.4263
 2943SOL    HW220463   2.932   4.512   2.809  0.5000 -0.8458 -1.5041
 2944SOL     OW20464   2.101   1.008   2.199 -0.4979 -0.4419 -0.4547
 2944SOL    HW120465   2.147   1.082   2.239  1.2233 -0.5034 -2.3307
 2944SOL    HW220466   2.159   0.991   2.126  1.5420  2.0030  0.5751
 2945SOL     OW20467   1.249   4.111  17.326 -0.2529 -0.1149  0.2326
 2945SOL    HW120468   1.202   4.038  17.286 -0.5449  0.3951 -0.3585
 2945SOL    HW220469   1.202   4.191  17.303 -1.3407 -1.6568 -2.8921
 2946SOL     OW20470   3.046   1.117   2.989 -0.2317 -0.5173  0.2652
 2946SOL    HW120471   3.134   1.119   3.026 -0.0125  2.1186 -0.3488
 2946SOL    HW220472   3.003   1.147   3.069 -2.5565  3.0671 -2.3195
 2947SOL     OW20473   0.869   3.829   9.680  0.1625  0.2149 -0.4798
 2947SOL    HW120474   0.841   3.769   9.749 -2.4181 -0.3724 -2.0612
 2947SOL    HW220475   0.849   3.918   9.710 -0.8709 -0.4221  0.7173
 2948SOL     OW20476   0.961   4.389   9.116 -0.3710 -0.3690 -0.0022
 2948SOL    HW120477   0.882   4.415   9.164  0.8312  0.4763  1.5018
 2948SOL    HW220478   0.950   4.294   9.113 -0.2266 -0.3919  0.2521
 2949SOL     OW20479   3.501   4.727  17.150  0.1779  0.1436 -0.1606
 2949SOL    HW120480   3.416   4.712  17.191 -0.8733  0.4950 -2.2132
 2949SOL    HW220481   3.551   0.027  17.222 -0.2505  2.3933 -1.0543
 2950SOL     OW20482   2.371   3.575   6.160  0.0879 -0.1218 -0.2299
 2950SOL    HW120483   2.386   3.482   6.174 -0.0544 -0.4119 -2.0189
 2950SOL    HW220484   2.459   3.605   6.182 -0.5709 -0.4293  2.7704
 2951SOL     OW20485   3.713   2.253   8.305  0.1850 -0.0487  0.5295
 2951SOL    HW120486   3.773   2.254   8.231 -1.3079 -2.7244 -0.6896
 2951SOL    HW220487   3.651   2.187   8.273 -0.2340  0.6628 -0.1214
 2952SOL     OW20488   2.565   3.252   8.679  0.1846 -0.2493  0.0720
 2952SOL    HW120489   2.636   3.271   8.740  0.4719  1.6620 -0.8776
 2952SOL    HW220490   2.596   3.167   8.648 -0.2879 -0.8465  1.2180
 2953SOL     OW20491   2.709   1.167  15.917 -0.3577  0.3578  0.5806
 2953SOL    HW120492   2.802   1.146  15.913 -0.3088  0.6752  0.0774
 2953SOL    HW220493   2.709   1.199  16.007 -0.1619 -0.4832  0.8752
 2954SOL     OW20494   2.630   0.109  10.786 -0.0468 -0.4120  0.3874
 2954SOL    HW120495   2.613   0.158  10.866 -0.0144  0.1762  0.0346
 2954SOL    HW220496   2.574   0.033  10.804 -2.0888  1.0882  0.2516
 2955SOL     OW20497   3.952   0.834  14.687  0.4524 -0.0273 -0.1215
 2955SOL    HW120498   4.046   0.821  14.679  0.5581  1.1772 -0.7582
 2955SOL    HW220499   3.949   0.906  14.750 -0.8686 -1.9137  1.9646
 2956SOL     OW20500   4.204   0.073   0.167  0.1870  0.5864 -0.3126
 2956SOL    HW120501   4.294   0.083   0.199  0.5896  1.4785 -1.7378
 2956SOL    HW220502   4.153   0.129   0.225 -2.0086 -1.5916 -0.1214
 2957SOL     OW20503   0.938   3.316   9.798 -0.1966 -0.4300 -0.1042
 2957SOL    HW120504   1.032   3.298   9.799  0.1451  1.4087  0.8402
 2957SOL    HW220505   0.919   3.384   9.733  1.4427  1.8713  1.8735
 2958SOL     OW20506   4.219   4.510   0.023 -0.4408  0.2510 -0.4836
 2958SOL    HW120507   4.302   4.528  17.731  0.7254  0.1658  1.7613
 2958SOL    HW220508   4.216   4.586   0.081 -1.6433  1.0256 -1.5446
 2959SOL     OW20509   0.119   2.905  14.105 -0.0285  0.0121 -0.0597
 2959SOL    HW120510   0.058   2.921  14.033 -1.8346 -0.6402  1.3340
 2959SOL    HW220511   0.066   2.884  14.182 -0.0032  0.6944  0.1412
 2960SOL     OW20512   3.403   4.180   5.297 -0.3317 -0.2510 -0.5447
 2960SOL    HW120513   3.410   4.140   5.211  0.1064 -0.9116 -0.2047
 2960SOL    HW220514   3.384   4.104   5.354  0.9648 -1.1690 -1.3271
 2961SOL     OW20515   1.631   0.721  17.359 -0.1711  0.6545  0.9045
 2961SOL    HW120516   1.603   0.802  17.316 -0.0218  0.6793  0.8573
 2961SOL    HW220517   1.548   0.690  17.397 -0.9894 -0.6476 -1.9796
 2962SOL     OW20518   2.670   4.146   0.207 -0.8374  0.3990 -0.2773
 2962SOL    HW120519   2.655   4.055   0.230  0.1987  0.5555  0.9810
 2962SOL    HW220520   2.621   4.204   0.265  0.8026  2.3198 -0.8025
 2963SOL     OW20521   3.512   4.553   2.423 -0.5650 -0.2030  0.4448
 2963SOL    HW120522   3.453   4.485   2.392 -1.1766 -0.0106  1.1802
 2963SOL    HW220523   3.574   4.500   2.474  2.4255  3.0536  0.2028
 2964SOL     OW20524   4.308   4.425   7.136 -0.1708 -0.1473  0.1473
 2964SOL    HW120525   4.249   4.416   7.210  1.4627  1.6516  1.6580
 2964SOL    HW220526   4.393   4.447   7.174  0.0848 -2.9460  1.1588
 2965SOL     OW20527   0.147   2.311   4.538 -0.1868 -0.2979  0.1521
 2965SOL    HW120528   0.068   2.265   4.510 -1.8945  1.3614  2.1320
 2965SOL    HW220529   0.169   2.264   4.618 -0.7173 -1.3806 -0.3375
 2966SOL     OW20530   4.642   4.317  13.586  0.2645  0.2751 -0.6634
 2966SOL    HW120531   4.602   4.360  13.511 -1.3969 -0.3975 -0.1561
 2966SOL    HW220532   4.578   4.339  13.654  1.8742 -1.0297  1.2780
 2967SOL     OW20533   0.016   0.634  11.921 -0.3777  0.2453 -0.1619
 2967SOL    HW120534   4.685   0.677  11.972  1.6829  0.5533  2.3518
 2967SOL    HW220535   0.069   0.592  11.988  1.8224  2.9313 -0.2473
 2968SOL     OW20536   3.559   3.254   8.393 -0.3543 -0.2939  0.8726
 2968SOL    HW120537   3.629   3.219   8.337 -0.0567  2.6023 -0.5392
 2968SOL    HW220538   3.513   3.312   8.333 -0.1193 -2.6242 -1.6112
 2969SOL     OW20539   0.159   1.712   0.454 -0.2944  0.2242 -0.5632
 2969SOL    HW120540   0.162   1.711   0.358  3.5154 -3.1392 -0.4018
 2969SOL    HW220541   0.226   1.647   0.474 -0.1242  0.4408 -0.4275
 2970SOL     OW20542   0.866   3.460   3.385  0.4916  0.4183  0.3058
 2970SOL    HW120543   0.890   3.368   3.374  0.5273  0.2474  1.8250
 2970SOL    HW220544   0.835   3.461   3.475 -1.5298 -1.2676 -0.3538
 2971SOL     OW20545   4.049   3.804  17.562  0.3518  0.2315 -0.0578
 2971SOL    HW120546   4.088   3.728  17.604 -1.9814 -0.5880  0.5955
 2971SOL    HW220547   4.075   3.877  17.618  0.9775 -0.2825  0.3149
 2972SOL     OW20548   0.859   3.406  10.072  0.1582 -0.4695  0.2562
 2972SOL    HW120549   0.899   3.393   9.987  1.2736  0.4802  0.6435
 2972SOL    HW220550   0.772   3.428  10.038 -0.0606  1.5203  2.1241
 2973SOL     OW20551   2.068   2.662   2.933  0.3253 -0.5201  0.1672
 2973SOL    HW120552   2.001   2.729   2.946  2.5433  1.5450  1.0134
 2973SOL    HW220553   2.014   2.584   2.931 -2.1382  1.1556  1.1385
 2974SOL     OW20554   2.344   0.728   7.115  0.0103 -0.3553 -0.0756
 2974SOL    HW120555   2.279   0.782   7.160  0.3973 -0.6967  0.8877
 2974SOL    HW220556   2.304   0.728   7.028  1.8538 -0.6211 -0.9244
 2975SOL     OW20557   0.434   3.124   1.501  0.2342  0.0249  0.0634
 2975SOL    HW120558   0.346   3.156   1.523 -0.4373 -0.3401 -2.0610
 2975SOL    HW220559   0.435   3.036   1.539 -1.7863 -0.5634 -1.2282
 2976SOL     OW20560   2.981   3.434   1.272  0.8462  0.7366  0.0864
 2976SOL    HW120561   3.039   3.488   1.219 -1.6600  0.6279 -2.7580
 2976SOL    HW220562   2.988   3.490   1.350  3.2177  0.0769  0.3521
 2977SOL     OW20563   2.145   3.738   1.845  0.1179 -0.2200  0.2016
 2977SOL    HW120564   2.113   3.744   1.756  0.5573  1.2957  0.1450
 2977SOL    HW220565   2.179   3.826   1.858 -0.7781  0.2006 -0.3631
 2978SOL     OW20566   2.124   4.379   5.290  0.3765  0.1190  0.5205
 2978SOL    HW120567   2.150   4.307   5.233  0.4878  0.6950 -0.1597
 2978SOL    HW220568   2.083   4.438   5.227 -0.1121 -1.5537 -0.7111
 2979SOL     OW20569   4.340   3.373  15.236 -0.1534  0.6670 -0.2699
 2979SOL    HW120570   4.412   3.435  15.244  1.7605 -1.3836 -1.5390
 2979SOL    HW220571   4.282   3.434  15.190 -2.3814 -2.4444 -1.5876
 2980SOL     OW20572   1.320   2.101  11.697  0.0961 -0.0271  0.2708
 2980SOL    HW120573   1.259   2.127  11.628  0.5298 -0.8870 -0.4255
 2980SOL    HW220574   1.271   2.132  11.773  0.2334  0.2662  0.2405
 2981SOL     OW20575   3.350   4.224   1.392 -0.3539 -0.5053 -0.3598
 2981SOL    HW120576   3.321   4.305   1.435 -1.2017  0.3684 -2.5621
 2981SOL    HW220577   3.290   4.231   1.318  1.4775  0.3292 -1.7752
 2982SOL     OW20578   3.013   2.119   7.946  0.1309  0.3897 -0.7180
 2982SOL    HW120579   2.972   2.032   7.953  1.9909 -0.6620 -3.0479
 2982SOL    HW220580   2.963   2.165   7.879 -2.2784 -0.1888  0.6826
 2983SOL     OW20581   1.093   0.489  14.307 -0.2757  0.0412  0.3006
 2983SOL    HW120582   1.134   0.497  14.221 -1.2928 -0.3962 -0.2223
 2983SOL    HW220583   1.158   0.539  14.357  0.1119 -1.2226  1.0828
 2984SOL     OW20584   3.472   0.072   3.259 -0.4576  0.0160  0.1014
 2984SOL    HW120585   3.529   4.736   3.239  0.1950 -0.1286  2.4819
 2984SOL    HW220586   3.500   0.109   3.343  1.3248  0.1112 -0.5425
 2985SOL     OW20587   2.250   1.615   6.846 -0.8207  0.7286  0.5197
 2985SOL    HW120588   2.340   1.637   6.821 -0.4960 -0.0701  0.9748
 2985SOL    HW220589   2.223   1.563   6.770  0.3354  2.2931 -0.9672
 2986SOL     OW20590   4.244   4.408   4.465  0.3821  0.0394 -0.3300
 2986SOL    HW120591   4.195   4.457   4.531  1.8556  0.3012  0.5691
 2986SOL    HW220592   4.327   4.455   4.461  2.3808 -3.5599 -0.8968
 2987SOL     OW20593   2.020   2.109   4.386 -0.2005 -0.0902 -0.5230
 2987SOL    HW120594   2.115   2.099   4.394  0.0773  0.6012 -3.0592
 2987SOL    HW220595   2.008   2.199   4.415  1.2064  0.2003 -0.8555
 2988SOL     OW20596   2.117   1.551   3.773 -0.2183  0.8637 -0.1205
 2988SOL    HW120597   2.060   1.513   3.706 -0.1091 -1.5135  1.1319
 2988SOL    HW220598   2.175   1.482   3.803 -1.0218  0.0753 -0.3778
 2989SOL     OW20599   4.668   2.092  15.148  0.1314 -0.3861  0.4500
 2989SOL    HW120600   4.619   2.130  15.221  1.1742  1.5184  0.1578
 2989SOL    HW220601   4.598   2.099  15.082 -0.5896  1.1164  1.3701
 2990SOL     OW20602   1.663   1.904   6.275  0.3339  0.4705  0.1810
 2990SOL    HW120603   1.607   1.831   6.250 -1.7604  1.1159  2.9475
 2990SOL    HW220604   1.601   1.946   6.335 -0.8599 -1.1803  0.0972
 2991SOL     OW20605   3.087   3.268   9.895 -0.5714 -0.3156 -0.2121
 2991SOL    HW120606   3.162   3.316   9.861 -1.6282  1.5956  0.1879
 2991SOL    HW220607   3.125   3.234   9.976  1.0152  1.5441 -0.1805
 2992SOL     OW20608   4.174   0.125   4.504 -0.5616  0.4109  0.5800
 2992SOL    HW120609   4.145   0.089   4.420  0.3421 -1.2695  0.9962
 2992SOL    HW220610   4.094   0.122   4.556 -0.1144  2.1368  1.3625
 2993SOL     OW20611   0.540   3.313  15.354  0.2564 -0.3085 -0.3581
 2993SOL    HW120612   0.469   3.275  15.302  0.2274 -0.8472  0.0854
 2993SOL    HW220613   0.549   3.256  15.430  1.8742  0.0000 -0.3143
 2994SOL     OW20614   3.559   3.942   0.286 -0.2378 -0.1919 -0.2899
 2994SOL    HW120615   3.624   3.994   0.333 -1.8562  0.7503  0.9245
 2994SOL    HW220616   3.522   4.005   0.224 -0.3194 -0.9574 -1.0234
 2995SOL     OW20617   2.943   4.535   5.969 -0.0191 -0.5037 -0.2730
 2995SOL    HW120618   2.942   4.561   6.061 -0.0566  0.6879 -0.6080
 2995SOL    HW220619   2.915   4.444   5.969 -0.3878 -0.3916  0.2870
 2996SOL     OW20620   0.936   0.124   9.525  0.2559 -0.1151 -0.4922
 2996SOL    HW120621   1.021   0.152   9.490  0.0559  0.4302 -0.5399
 2996SOL    HW220622   0.962   0.061   9.591  0.0907  1.2626  0.8887
 2997SOL     OW20623   2.312   4.061   2.648 -0.0076  0.4788 -0.0803
 2997SOL    HW120624   2.381   4.115   2.687  0.0965 -0.3714  0.9041
 2997SOL    HW220625   2.325   3.980   2.696  2.5476  1.4072  0.7929
 2998SOL     OW20626   2.848   2.940   5.395 -0.2276  0.2136  0.1197
 2998SOL    HW120627   2.920   2.877   5.395 -0.1374  0.3137 -0.2874
 2998SOL    HW220628   2.892   3.024   5.400 -2.0921  1.1525  0.6815
 2999SOL     OW20629   1.935   0.508   4.257 -0.8702 -0.2269 -0.3825
 2999SOL    HW120630   1.955   0.494   4.165  0.0451 -0.6002 -0.1255
 2999SOL    HW220631   1.950   0.602   4.267 -0.7734 -0.2583 -0.2303
 3000SOL     OW20632   2.023   3.170  12.735  0.1408 -0.0572  0.5145
 3000SOL    HW120633   1.931   3.165  12.708  0.5989 -0.0239 -1.0033
 3000SOL    HW220634   2.058   3.245  12.688  0.2838  1.3232  2.8090
 3001SOL     OW20635   3.090   0.975   5.700 -0.5858  0.6927 -0.2604
 3001SOL    HW120636   3.150   1.027   5.647  0.1190  1.3183  1.1742
 3001SOL    HW220637   3.155   0.931   5.754 -2.1868 -1.5479 -0.1666
 3002SOL     OW20638   3.598   0.288  14.496 -0.0705  0.2767 -0.1110
 3002SOL    HW120639   3.620   0.220  14.559  0.2374 -1.3062 -1.9086
 3002SOL    HW220640   3.504   0.299  14.511  0.3051  0.5729  2.0761
 3003SOL     OW20641   2.894   4.628   1.817 -0.1973 -0.1881 -0.1798
 3003SOL    HW120642   2.907   4.596   1.906  2.3728  0.1361 -0.4147
 3003SOL    HW220643   2.975   4.603   1.771  0.2361  0.2137  0.3568
 3004SOL     OW20644   1.823   0.864   0.224  0.2120 -0.1121 -0.3698
 3004SOL    HW120645   1.892   0.800   0.206  0.7679  1.2542 -3.0715
 3004SOL    HW220646   1.876   0.943   0.218  1.8618 -1.2028 -0.2830
 3005SOL     OW20647   2.373   3.173   1.892 -0.1180 -0.5070  0.0986
 3005SOL    HW120648   2.383   3.175   1.987 -0.3704 -2.5499  0.1582
 3005SOL    HW220649   2.280   3.194   1.891  0.0679  0.4209  2.1234
 3006SOL     OW20650   2.278   3.393   2.730 -0.7960  0.3577 -0.1845
 3006SOL    HW120651   2.239   3.475   2.699  1.0600  1.7613  1.2542
 3006SOL    HW220652   2.310   3.424   2.815  1.4252  0.3570 -1.0169
 3007SOL     OW20653   4.454   2.243   8.897 -0.3482  0.4259 -0.4707
 3007SOL    HW120654   4.426   2.320   8.948 -1.7759 -1.2751  1.3103
 3007SOL    HW220655   4.413   2.173   8.947 -1.2882  0.0600 -1.7866
 3008SOL     OW20656   0.700   0.350   7.979 -0.3229  1.1527 -0.2162
 3008SOL    HW120657   0.628   0.401   7.941 -1.2790  0.4494  0.6652
 3008SOL    HW220658   0.747   0.326   7.900  1.4574 -0.9038  1.4808
 3009SOL     OW20659   2.764   1.857   5.101 -0.1167 -0.3524 -0.2495
 3009SOL    HW120660   2.684   1.893   5.061 -0.8076 -2.9230 -1.1518
 3009SOL    HW220661   2.729   1.790   5.159  0.3732 -0.9693 -0.6679
 3010SOL     OW20662   2.478   3.955   7.641 -0.5367 -0.1521 -0.2406
 3010SOL    HW120663   2.438   3.977   7.725 -0.4598 -2.2119  0.3274
 3010SOL    HW220664   2.398   3.966   7.588 -0.2749 -2.5871 -1.1485
 3011SOL     OW20665   3.513   1.014   8.943 -0.3002  0.3098  0.1590
 3011SOL    HW120666   3.519   0.923   8.972 -0.2216  0.2685  0.0096
 3011SOL    HW220667   3.560   1.063   9.011 -2.1543  0.6592  1.1861
 3012SOL     OW20668   4.353   3.977   5.617 -0.2972 -0.0771  0.0415
 3012SOL    HW120669   4.357   3.882   5.605  1.8057 -0.1097  1.0614
 3012SOL    HW220670   4.329   4.011   5.531 -0.5132  0.4134  0.2969
 3013SOL     OW20671   3.266   4.016   6.561 -0.6121 -0.5283  0.1852
 3013SOL    HW120672   3.306   4.028   6.648  0.3405  0.3088 -0.3592
 3013SOL    HW220673   3.260   3.921   6.568 -0.9830 -0.4644  0.7802
 3014SOL     OW20674   0.014   4.261   7.492 -0.3914 -0.6796  0.1243
 3014SOL    HW120675   0.039   4.253   7.400  0.9998  0.2949  0.4213
 3014SOL    HW220676   4.692   4.187   7.496  0.8418 -1.6440  0.6934
 3015SOL     OW20677   1.342   2.251   7.681 -0.6303 -0.0831 -0.7093
 3015SOL    HW120678   1.371   2.191   7.749 -0.4150  0.4238 -0.3491
 3015SOL    HW220679   1.247   2.252   7.689 -0.5465 -1.7639  0.2825
 3016SOL     OW20680   2.540   3.110   2.642 -0.1496  0.3782 -0.5111
 3016SOL    HW120681   2.492   3.044   2.592  0.1797  0.3408 -0.7781
 3016SOL    HW220682   2.589   3.045   2.692 -2.6564 -0.0432  1.3901
 3017SOL     OW20683   3.304   3.451   9.804  0.2961  0.5700  0.4621
 3017SOL    HW120684   3.359   3.502   9.863 -0.6507 -0.2113  2.0064
 3017SOL    HW220685   3.364   3.436   9.731  1.1510  1.6723  0.9352
 3018SOL     OW20686   0.817   0.940  16.767 -0.6079  0.1996  0.1523
 3018SOL    HW120687   0.888   1.003  16.752 -2.8547  2.0455 -2.6138
 3018SOL    HW220688   0.794   0.921  16.676  2.0448  0.9173 -0.6781
 3019SOL     OW20689   3.453   3.065   5.407 -0.1086  0.3390  0.6354
 3019SOL    HW120690   3.530   3.076   5.463  0.2318 -0.8889  0.4047
 3019SOL    HW220691   3.413   3.152   5.402 -2.5691 -0.8319 -0.0851
 3020SOL     OW20692   1.896   4.695   1.864 -0.5457 -0.5714  0.8245
 3020SOL    HW120693   1.910   0.038   1.814  0.5059 -1.6622 -0.6536
 3020SOL    HW220694   1.943   4.632   1.810  2.8488  0.4413  2.6002
 3021SOL     OW20695   1.314   4.712   1.233 -0.4697  0.0666 -0.9295
 3021SOL    HW120696   1.247   4.666   1.284  1.0526 -0.9835  0.1208
 3021SOL    HW220697   1.395   4.697   1.281 -1.5962 -0.1676  0.9034
 3022SOL     OW20698   3.454   2.636  12.257  0.5470  0.0101 -1.2156
 3022SOL    HW120699   3.522   2.694  12.290 -0.9188 -0.0492  1.9494
 3022SOL    HW220700   3.472   2.552  12.299  0.8348  0.3611 -0.6373
 3023SOL     OW20701   3.522   4.727   4.009 -0.3039 -0.2498  0.6031
 3023SOL    HW120702   3.487   0.067   4.052 -0.6711  0.8615 -1.7115
 3023SOL    HW220703   3.521   4.673   4.088 -0.8023 -0.4826  0.4436
 3024SOL     OW20704   0.010   1.063   8.763 -0.5455  0.3771 -0.4175
 3024SOL    HW120705   0.045   1.048   8.675 -0.3958  0.0950 -0.3088
 3024SOL    HW220706   0.055   1.147   8.776  0.9045 -0.5126  0.2227
 3025SOL     OW20707   0.187   3.674   0.073  0.0812  0.2805 -0.1626
 3025SOL    HW120708   0.131   3.752   0.073  0.8000  0.7979  1.4583
 3025SOL    HW220709   0.114   3.613   0.065 -0.2039  0.5540  0.3962
 3026SOL     OW20710   2.279   4.715   0.074 -0.1195 -0.1058 -0.0609
 3026SOL    HW120711   2.275   0.065   0.110  1.8235  1.0186 -2.6279
 3026SOL    HW220712   2.364   4.686   0.107 -0.4376  0.9070  1.6812
 3027SOL     OW20713   0.426   3.533   9.786  0.4689 -0.5768 -0.3667
 3027SOL    HW120714   0.379   3.476   9.726  0.1631 -0.4241 -0.2746
 3027SOL    HW220715   0.365   3.542   9.859 -1.4885  0.5187 -2.1256
 3028SOL     OW20716   3.529   1.574   6.452  0.0307 -0.9409  0.5163
 3028SOL    HW120717   3.474   1.595   6.528 -1.5651 -1.0220 -0.6277
 3028SOL    HW220718   3.458   1.577   6.388 -1.2908  0.8888  2.0835
 3029SOL     OW20719   0.236   3.585  12.985  0.5313  0.4105 -0.8135
 3029SOL    HW120720   0.265   3.628  12.904  1.0868  0.2680 -0.6884
 3029SOL    HW220721   0.154   3.541  12.965  1.9854 -1.3011 -3.0111
 3030SOL     OW20722   0.333   2.056  10.949  0.0186 -0.6029 -0.0359
 3030SOL    HW120723   0.342   2.140  10.993 -1.8713  1.2173 -3.0981
 3030SOL    HW220724   0.316   1.997  11.022 -0.8284  0.7622  0.8699
 3031SOL     OW20725   2.598   1.391   6.790  0.2154 -0.3398 -0.1729
 3031SOL    HW120726   2.508   1.358   6.795 -0.4311  1.3851 -0.1959
 3031SOL    HW220727   2.582   1.477   6.828  1.8478  1.2226 -3.0225
 3032SOL     OW20728   0.692   3.523  13.487  0.2648  0.9154 -0.1028
 3032SOL    HW120729   0.688   3.602  13.432  0.9378 -0.0333 -1.5036
 3032SOL    HW220730   0.736   3.565  13.561 -1.1772  2.1246  0.0563
 3033SOL     OW20731   1.755   4.561   7.843  0.7664  0.5923 -0.1067
 3033SOL    HW120732   1.774   4.468   7.854  0.7839  0.3129 -2.6695
 3033SOL    HW220733   1.780   4.576   7.752  0.7490 -0.9253 -0.3652
 3034SOL     OW20734   2.949   2.215  10.441  0.2422 -1.0006 -0.6799
 3034SOL    HW120735   2.978   2.126  10.424 -0.4207 -1.9377  3.0617
 3034SOL    HW220736   2.856   2.198  10.429  0.1897  1.2265 -3.3581
 3035SOL     OW20737   2.637   0.258   9.714  0.2669 -0.0497  0.2184
 3035SOL    HW120738   2.609   0.249   9.805 -0.6410 -1.6869 -0.2225
 3035SOL    HW220739   2.568   0.315   9.679  0.8625 -1.3153 -2.9706
 3036SOL     OW20740   0.601   0.278   4.044 -0.2380 -0.0961 -0.0960
 3036SOL    HW120741   0.618   0.189   4.012 -0.3489 -0.0304 -0.3438
 3036SOL    HW220742   0.681   0.314   4.082 -0.5577 -1.7698  2.1377
 3037SOL     OW20743   0.461   3.851   7.441  0.3186 -0.0887 -0.1317
 3037SOL    HW120744   0.450   3.800   7.361 -1.5491 -0.0312  0.0893
 3037SOL    HW220745   0.386   3.814   7.487  1.2359  0.6772  1.9753
 3038SOL     OW20746   3.503   3.238   4.840  0.5617 -0.4240  0.2507
 3038SOL    HW120747   3.502   3.318   4.787 -0.5426  0.9747  2.3595
 3038SOL    HW220748   3.529   3.178   4.771  2.1328 -0.3927  0.8142
 3039SOL     OW20749   3.167   2.303   4.079  0.2661 -0.7049  0.2900
 3039SOL    HW120750   3.162   2.226   4.135  0.4710 -1.8378 -1.2401
 3039SOL    HW220751   3.172   2.375   4.141  2.4347 -0.8813  0.3340
 3040SOL     OW20752   2.633   4.607   1.855  0.2520  0.1284 -0.1503
 3040SOL    HW120753   2.650   4.579   1.945  0.1566  0.7771  0.0700
 3040SOL    HW220754   2.724   4.624   1.829  0.4547  1.7559  1.6168
 3041SOL     OW20755   0.785   1.829  16.713 -0.1648  0.7481 -0.1070
 3041SOL    HW120756   0.796   1.796  16.803 -0.5703 -1.1665 -0.7575
 3041SOL    HW220757   0.802   1.923  16.719  0.0916  0.5639  2.2949
 3042SOL     OW20758   1.217   0.758  11.834 -0.1354  0.5241 -0.7180
 3042SOL    HW120759   1.278   0.715  11.775 -0.8282  0.4476 -1.3759
 3042SOL    HW220760   1.158   0.684  11.846  0.0817 -0.1401 -3.7478
 3043SOL     OW20761   0.328   3.875  11.738  0.1800 -0.3469 -0.2518
 3043SOL    HW120762   0.301   3.805  11.798 -1.6140 -0.6043 -1.3570
 3043SOL    HW220763   0.406   3.903  11.785 -0.6098 -2.1415  2.1391
 3044SOL     OW20764   3.765   2.641   6.650 -0.6338 -0.1684  0.5006
 3044SOL    HW120765   3.718   2.656   6.568  0.6101 -0.7447 -0.3187
 3044SOL    HW220766   3.813   2.724   6.658  1.1776 -0.8383 -3.3363
 3045SOL     OW20767   3.469   1.546   3.259  0.1249 -1.1144 -0.3348
 3045SOL    HW120768   3.389   1.494   3.251  1.3501 -3.1598  0.7839
 3045SOL    HW220769   3.473   1.590   3.174 -1.5620  0.3583  0.3572
 3046SOL     OW20770   0.108   1.733   8.684 -0.5666  0.2755 -0.0851
 3046SOL    HW120771   0.152   1.817   8.686  0.2290 -0.1757  1.3269
 3046SOL    HW220772   0.183   1.676   8.703 -1.9076 -1.8652 -1.1115
 3047SOL     OW20773   2.181   2.514  12.123 -0.3798 -0.3676  0.0982
 3047SOL    HW120774   2.177   2.609  12.119 -0.3164 -0.3830 -0.3900
 3047SOL    HW220775   2.227   2.489  12.043 -0.2616 -2.0328  0.6957
 3048SOL     OW20776   3.127   3.203   3.228  0.4718  0.1869 -1.1021
 3048SOL    HW120777   3.206   3.250   3.203  0.4916  0.9414  0.3858
 3048SOL    HW220778   3.115   3.153   3.147 -0.2555 -0.2973 -0.7042
 3049SOL     OW20779   1.397   2.075   2.083  0.0983  0.3000  0.1743
 3049SOL    HW120780   1.413   2.089   1.990  0.2786 -0.9447  0.0253
 3049SOL    HW220781   1.390   2.165   2.115 -0.6468  0.4813 -0.4983
 3050SOL     OW20782   1.134   0.226   8.618  0.0143 -0.2260  0.1242
 3050SOL    HW120783   1.151   0.260   8.706  1.0954 -0.4680  0.0115
 3050SOL    HW220784   1.040   0.240   8.606  0.2586  1.1291 -0.1430
 3051SOL     OW20785   0.851   4.584   1.557 -0.0314  0.1217  0.0396
 3051SOL    HW120786   0.902   4.636   1.495 -1.0212  0.2727 -0.6569
 3051SOL    HW220787   0.831   4.515   1.494 -1.7790  2.0443 -1.5108
 3052SOL     OW20788   3.328   3.517   5.169 -0.0065 -0.1868  0.5310
 3052SOL    HW120789   3.382   3.451   5.125 -0.9912 -0.5269 -0.1674
 3052SOL    HW220790   3.396   3.572   5.208  0.1914 -0.6003  0.7660
 3053SOL     OW20791   2.379   3.220  17.215  0.4817  0.8417 -0.0867
 3053SOL    HW120792   2.287   3.204  17.234 -0.0197  2.5405 -1.0839
 3053SOL    HW220793   2.381   3.311  17.185  0.4386  0.4556 -1.2413
 3054SOL     OW20794   1.536   1.288   2.607  0.0758 -0.2390 -0.5258
 3054SOL    HW120795   1.568   1.322   2.691  0.1238 -0.7560 -0.3315
 3054SOL    HW220796   1.455   1.244   2.634 -1.5787  3.1096 -0.0279
 3055SOL     OW20797   1.868   2.375  16.910  0.3404 -0.2774 -0.4966
 3055SOL    HW120798   1.790   2.368  16.965  0.3134 -1.1192 -0.6379
 3055SOL    HW220799   1.904   2.457  16.945 -1.8181  1.1432 -1.6476
 3056SOL     OW20800   3.375   1.275   3.740 -0.1333 -0.7522 -0.8530
 3056SOL    HW120801   3.295   1.224   3.741  0.9666 -2.4589 -0.1993
 3056SOL    HW220802   3.332   1.360   3.750  3.2206  0.8918 -0.3083
 3057SOL     OW20803   2.883   0.784   4.684  0.0104 -0.4372  0.0395
 3057SOL    HW120804   2.838   0.727   4.622  0.9439 -0.0039 -1.0357
 3057SOL    HW220805   2.899   0.870   4.646  2.0829 -1.2660 -0.9369
 3058SOL     OW20806   3.258   3.606   3.361 -0.4284 -0.0346 -0.0225
 3058SOL    HW120807   3.171   3.600   3.322  0.3094  0.1006 -1.6809
 3058SOL    HW220808   3.246   3.669   3.432  1.6509  0.4805 -0.1411
 3059SOL     OW20809   1.739   4.462   5.592 -0.1373  0.1550  0.6858
 3059SOL    HW120810   1.709   4.543   5.632 -0.4355 -0.3869  1.5448
 3059SOL    HW220811   1.835   4.468   5.592 -0.2061  1.2294 -0.8937
 3060SOL     OW20812   0.957   4.527   3.536  0.8458 -0.1945  0.4460
 3060SOL    HW120813   0.992   4.607   3.496  0.5609  0.1306  0.8465
 3060SOL    HW220814   0.889   4.502   3.474  1.1133  0.8591 -0.2880
 3061SOL     OW20815   4.500   4.658  13.128  0.1532  0.3359  0.5893
 3061SOL    HW120816   4.560   4.722  13.168  0.1861  0.2058  0.7491
 3061SOL    HW220817   4.437   4.709  13.078 -0.0701  0.5090  1.0404
 3062SOL     OW20818   1.601   0.793   4.223  0.1799 -0.4042 -0.4578
 3062SOL    HW120819   1.509   0.815   4.231  0.2718  0.1455 -0.9192
 3062SOL    HW220820   1.590   0.712   4.174 -1.3188 -0.2408 -0.3772
 3063SOL     OW20821   1.682   1.239   5.009  0.1436 -0.6373  0.3795
 3063SOL    HW120822   1.656   1.181   5.081  2.5236 -0.7637  1.1164
 3063SOL    HW220823   1.594   1.257   4.976 -0.0852 -1.3492  0.5875
 3064SOL     OW20824   3.192   3.608   0.186  0.3767 -0.4157  0.2412
 3064SOL    HW120825   3.247   3.600   0.264  1.5533 -1.5387 -0.6945
 3064SOL    HW220826   3.222   3.688   0.144  3.8370 -1.7386  0.1531
 3065SOL     OW20827   4.537   0.713   6.281 -0.3994  0.1907 -0.0974
 3065SOL    HW120828   4.529   0.786   6.220  2.5072 -0.9257 -1.8154
 3065SOL    HW220829   4.458   0.723   6.334  0.2579  0.5513  0.8250
 3066SOL     OW20830   1.141   2.939  16.054 -0.0813  0.0136 -0.2936
 3066SOL    HW120831   1.129   2.929  16.149 -1.6195  3.8019 -0.0904
 3066SOL    HW220832   1.167   3.031  16.061  0.0593  0.0441 -1.3052
 3067SOL     OW20833   2.682   3.789  17.240 -0.1699  0.4411  0.0130
 3067SOL    HW120834   2.730   3.853  17.187 -0.1955  0.7644  0.3761
 3067SOL    HW220835   2.601   3.806  17.192  0.0238 -0.4950 -0.6518
 3068SOL     OW20836   1.391   2.937   3.500  0.1277 -0.9500  0.0298
 3068SOL    HW120837   1.389   2.966   3.409 -0.0407  0.7810  0.5829
 3068SOL    HW220838   1.443   2.858   3.482  0.4947 -1.0265  1.4399
 3069SOL     OW20839   3.000   3.776   8.290  0.1983 -0.0777 -0.1743
 3069SOL    HW120840   2.949   3.726   8.354 -1.7756  1.8104 -0.2907
 3069SOL    HW220841   2.921   3.816   8.254 -0.5792 -2.2137 -0.8196
 3070SOL     OW20842   0.967   3.776   8.008  0.2453  0.4425  0.1633
 3070SOL    HW120843   0.962   3.776   8.104 -0.5948 -0.2694  0.1180
 3070SOL    HW220844   0.878   3.791   7.975  0.1247 -1.4182 -0.3507
 3071SOL     OW20845   1.500   3.026  10.804 -0.3153  0.2001  0.6970
 3071SOL    HW120846   1.459   2.950  10.847  0.6263 -1.8648 -2.0357
 3071SOL    HW220847   1.578   2.984  10.768 -0.8974 -0.5708  0.3252
 3072SOL     OW20848   3.961   0.886   4.308  0.9404 -0.6996  0.3566
 3072SOL    HW120849   3.894   0.890   4.377  0.4451 -0.3404 -0.1382
 3072SOL    HW220850   3.925   0.965   4.268 -0.5941 -0.0778  2.9411
 3073SOL     OW20851   0.516   3.707   9.019 -0.4306  0.1719 -0.4507
 3073SOL    HW120852   0.522   3.627   8.967  3.5896  1.2964 -1.7766
 3073SOL    HW220853   0.438   3.681   9.069  0.9566 -0.9892  1.1289
 3074SOL     OW20854   4.562   4.362  17.382  0.1772  0.3702 -0.2190
 3074SOL    HW120855   4.543   4.443  17.429  2.0510 -1.3510  3.5354
 3074SOL    HW220856   4.474   4.324  17.387  0.4870 -0.0857  1.7936
 3075SOL     OW20857   4.384   4.149  17.218  0.1103  0.0197  0.1158
 3075SOL    HW120858   4.408   4.062  17.185 -2.6533 -1.4521  1.9302
 3075SOL    HW220859   4.319   4.143  17.288 -0.2726 -1.3722 -0.3571
 3076SOL     OW20860   1.648   1.889   4.539 -0.0555  0.0142 -0.2237
 3076SOL    HW120861   1.720   1.925   4.590 -0.2712  0.4407 -0.2180
 3076SOL    HW220862   1.567   1.880   4.589  0.2565  0.1553  0.2973
 3077SOL     OW20863   3.117   0.099   6.514 -0.1923  0.1062 -0.2319
 3077SOL    HW120864   3.055   0.043   6.561  0.6040 -0.9370 -0.4311
 3077SOL    HW220865   3.056   0.144   6.455 -2.4051 -0.2349  1.7855
 3078SOL     OW20866   0.453   4.479  17.042  0.1675  0.2319  0.2768
 3078SOL    HW120867   0.458   4.515  16.954  0.5722 -3.6736 -1.3047
 3078SOL    HW220868   0.360   4.495  17.057 -0.1263 -0.2267 -1.0529
 3079SOL     OW20869   1.173   3.219   6.035  0.1111 -0.2137  0.1212
 3079SOL    HW120870   1.246   3.280   6.041 -1.0860  1.3364 -1.2312
 3079SOL    HW220871   1.205   3.195   5.948 -0.5267  0.3692 -0.2696
 3080SOL     OW20872   2.090   0.694   3.715 -0.0630 -0.0893  0.0066
 3080SOL    HW120873   2.121   0.705   3.625  1.0752  0.5510  0.4722
 3080SOL    HW220874   2.170   0.678   3.764 -0.3713 -1.7611 -0.0559
 3081SOL     OW20875   1.376   3.974   6.088 -0.0715  0.3867  0.3207
 3081SOL    HW120876   1.448   3.917   6.063 -0.8292  0.2811 -1.6382
 3081SOL    HW220877   1.417   4.058   6.066 -2.1921  1.1513 -0.7870
 3082SOL     OW20878   0.027   1.450   5.204 -0.4925  0.1521 -0.7381
 3082SOL    HW120879   0.038   1.361   5.238  0.8326  0.2554 -0.9163
 3082SOL    HW220880   4.689   1.484   5.252 -0.3810  0.7514 -0.9883
 3083SOL     OW20881   4.379   3.076   5.642  0.1964 -0.1832  0.3067
 3083SOL    HW120882   4.289   3.108   5.649  0.3167 -0.2684  2.0318
 3083SOL    HW220883   4.372   2.987   5.676  2.4767 -0.5012 -0.1049
 3084SOL     OW20884   2.478   2.545   8.141  0.4097 -0.1013  0.7444
 3084SOL    HW120885   2.536   2.472   8.119  0.7405  0.1885  0.6475
 3084SOL    HW220886   2.522   2.590   8.213 -1.1420 -0.4038  1.8842
 3085SOL     OW20887   1.608   2.703  16.164 -0.0232  0.2247  0.1510
 3085SOL    HW120888   1.652   2.641  16.223  0.4004  0.6548  0.2913
 3085SOL    HW220889   1.589   2.780  16.217  1.5690 -0.2887  1.4974
 3086SOL     OW20890   4.403   2.453  10.952 -0.4985 -0.0645 -0.4278
 3086SOL    HW120891   4.377   2.368  10.915 -0.3623  0.0464 -0.7696
 3086SOL    HW220892   4.344   2.449  11.028 -0.6178 -1.7484 -0.5932
 3087SOL     OW20893   3.722   1.161   3.239 -0.4012 -0.3268  0.1263
 3087SOL    HW120894   3.670   1.204   3.171 -0.8435 -0.5045  0.3543
 3087SOL    HW220895   3.757   1.231   3.294 -1.5082  1.4126 -1.3831
 3088SOL     OW20896   2.764   2.691  15.010  0.0246 -1.1115  0.3295
 3088SOL    HW120897   2.772   2.613  14.954  1.7376 -1.7355  1.4179
 3088SOL    HW220898   2.673   2.713  14.993  0.2457  0.8633  1.6502
 3089SOL     OW20899   3.061   2.246  15.723 -0.3694 -0.5763  0.5934
 3089SOL    HW120900   3.118   2.248  15.800 -0.0379  0.7782  0.3148
 3089SOL    HW220901   3.058   2.153  15.700  0.9929 -1.3553  3.5851
 3090SOL     OW20902   0.738   2.828   2.020  0.7043 -0.0500  0.0881
 3090SOL    HW120903   0.823   2.802   1.985  1.0170  1.7029 -0.4614
 3090SOL    HW220904   0.685   2.750   2.004  1.7986 -0.5895 -0.9166
 3091SOL     OW20905   3.161   2.332   4.805 -0.1718 -0.1733  0.0663
 3091SOL    HW120906   3.159   2.236   4.801 -3.6664 -0.0097 -2.1255
 3091SOL    HW220907   3.228   2.339   4.873 -0.1177 -1.6701  0.1755
 3092SOL     OW20908   4.659   4.075   4.395 -0.3269  0.1023 -0.2828
 3092SOL    HW120909   0.011   4.082   4.424 -0.6530  2.0801  0.2750
 3092SOL    HW220910   4.669   4.054   4.302  1.1769  0.9676 -0.3236
 3093SOL     OW20911   3.392   0.820  10.961 -0.3351  0.0821  0.1011
 3093SOL    HW120912   3.341   0.845  11.038 -0.5476 -0.3747  0.1120
 3093SOL    HW220913   3.469   0.798  11.013 -1.0157 -1.0265  0.6549
 3094SOL     OW20914   0.738   4.141   6.209  0.4133  0.1416 -0.1579
 3094SOL    HW120915   0.815   4.186   6.243 -1.0252  2.6286 -0.2003
 3094SOL    HW220916   0.787   4.081   6.152  1.4644  2.4256 -1.6453
 3095SOL     OW20917   3.061   1.534  11.733 -0.8652 -0.1119  0.2730
 3095SOL    HW120918   2.997   1.512  11.800 -0.7810  0.4269  0.5353
 3095SOL    HW220919   3.011   1.603  11.690 -0.0232  0.0915 -0.3990
 3096SOL     OW20920   2.416   2.415  12.957 -0.0330 -0.6474  0.4467
 3096SOL    HW120921   2.493   2.359  12.955  0.9639  0.8073 -1.8106
 3096SOL    HW220922   2.446   2.503  12.933 -0.9733 -0.3653  0.2914
 3097SOL     OW20923   0.976   0.125   5.832 -0.1417 -0.2102 -0.0318
 3097SOL    HW120924   1.007   0.074   5.906  1.3214  0.3163 -0.2855
 3097SOL    HW220925   1.011   0.076   5.758  1.3177  1.5741 -0.5036
 3098SOL     OW20926   0.780   1.282   2.763 -0.3087  0.5091 -0.0891
 3098SOL    HW120927   0.794   1.291   2.669  0.1377 -1.2590 -0.1952
 3098SOL    HW220928   0.695   1.240   2.771 -0.0309  0.2007  1.3381
 3099SOL     OW20929   2.525   0.674   8.649 -0.1404 -0.2900 -0.2619
 3099SOL    HW120930   2.594   0.611   8.667  0.6137  0.4390 -0.6080
 3099SOL    HW220931   2.448   0.617   8.651  0.0709 -0.5586  0.0879
 3100SOL     OW20932   2.823   3.038   2.909 -0.1363 -0.2963 -0.5244
 3100SOL    HW120933   2.753   3.000   2.856 -0.9615 -1.4916  1.4116
 3100SOL    HW220934   2.834   3.117   2.857  2.3054 -0.7719 -0.6964
 3101SOL     OW20935   2.714   0.079  17.506  0.3405 -0.3093 -0.7609
 3101SOL    HW120936   2.787   0.059  17.447  0.0840 -2.2536 -0.4226
 3101SOL    HW220937   2.698   4.725  17.526  0.8639 -0.4559 -1.0024
 3102SOL     OW20938   2.018   3.252   9.468  0.1838  0.1979 -0.0379
 3102SOL    HW120939   2.099   3.205   9.453  0.2716  0.2774  0.1885
 3102SOL    HW220940   1.964   3.194   9.415  1.3944 -2.3647  1.5520
 3103SOL     OW20941   4.378   1.380   4.777  0.3394  0.2356  0.5736
 3103SOL    HW120942   4.387   1.472   4.750  0.4108  0.3153  0.8732
 3103SOL    HW220943   4.283   1.376   4.792  0.3843 -2.6291  0.0486
 3104SOL     OW20944   1.460   0.081   6.889 -0.4285  0.2926 -0.0937
 3104SOL    HW120945   1.368   0.106   6.889 -0.4290  0.2529  1.5699
 3104SOL    HW220946   1.501   0.118   6.967 -1.2379 -0.2207  0.5723
 3105SOL     OW20947   2.584   0.408   3.667  0.1956 -0.2957  0.7896
 3105SOL    HW120948   2.632   0.328   3.648 -3.1302 -2.1686  0.2538
 3105SOL    HW220949   2.577   0.394   3.761 -0.5407 -1.3423  0.5751
 3106SOL     OW20950   3.469   0.735   9.358  0.3941 -0.3167  0.5037
 3106SOL    HW120951   3.387   0.725   9.405 -1.0275  2.6103 -1.3276
 3106SOL    HW220952   3.533   0.725   9.428  0.1440 -1.3179  0.5946
 3107SOL     OW20953   3.023   3.270   9.503  0.0091  0.2041 -0.2028
 3107SOL    HW120954   3.089   3.338   9.516 -0.6768  0.9822 -0.8200
 3107SOL    HW220955   2.945   3.313   9.469  0.5018  0.2253 -1.3181
 3108SOL     OW20956   2.610   2.284   6.060 -0.0789  0.3586 -0.0544
 3108SOL    HW120957   2.532   2.335   6.038  0.6993  1.5800  0.0723
 3108SOL    HW220958   2.629   2.233   5.981  0.2770  1.2696 -0.5480
 3109SOL     OW20959   0.741   1.501   4.890  0.4323  0.0378 -0.0315
 3109SOL    HW120960   0.684   1.550   4.830 -0.4433 -0.1363  0.6502
 3109SOL    HW220961   0.676   1.451   4.939  0.1929  1.7788  1.4217
 3110SOL     OW20962   4.466   3.201   8.855 -0.1027  0.3258  0.8001
 3110SOL    HW120963   4.418   3.283   8.843 -1.7298 -0.4584  1.8480
 3110SOL    HW220964   4.494   3.199   8.947  0.9239  0.6149  0.4950
 3111SOL     OW20965   1.410   2.413   5.238 -0.6866 -0.1063  0.0426
 3111SOL    HW120966   1.396   2.388   5.329 -1.0883 -0.1151 -0.0224
 3111SOL    HW220967   1.445   2.502   5.245 -0.9459 -0.1432  1.9477
 3112SOL     OW20968   3.904   0.878   4.765  0.4596 -0.1571  0.6372
 3112SOL    HW120969   3.942   0.796   4.796 -0.4377 -1.6237 -2.1615
 3112SOL    HW220970   3.976   0.909   4.709 -0.4220  0.2182 -0.2735
 3113SOL     OW20971   3.498   4.268   4.552  0.3860  0.3798  0.3443
 3113SOL    HW120972   3.461   4.181   4.535 -0.3271  0.6291  0.6705
 3113SOL    HW220973   3.537   4.249   4.637  1.0350 -0.3882 -0.1201
 3114SOL     OW20974   2.824   4.609   2.095 -0.1350 -0.5605  0.0468
 3114SOL    HW120975   2.872   4.574   2.170 -1.4077  0.1413  1.1962
 3114SOL    HW220976   2.739   4.611   2.140 -0.9630 -1.9560 -1.4448
 3115SOL     OW20977   0.495   4.678   7.382  0.2019 -0.2183 -0.5010
 3115SOL    HW120978   0.573   4.698   7.330  0.9345  1.0630  1.1105
 3115SOL    HW220979   0.449   0.023   7.390  0.1334 -0.4587  1.4015
 3116SOL     OW20980   2.622   4.212  17.016  0.3107  0.1548 -0.0656
 3116SOL    HW120981   2.546   4.236  17.068 -1.5628 -4.0871 -0.7816
 3116SOL    HW220982   2.578   4.188  16.934 -3.3562  1.3197  1.5842
 3117SOL     OW20983   4.626   3.600   3.718 -0.3240 -0.4841 -0.2353
 3117SOL    HW120984   4.589   3.511   3.716 -2.6313  0.4240  0.8523
 3117SOL    HW220985   4.716   3.576   3.738 -0.0747 -0.6281 -1.5186
 3118SOL     OW20986   1.650   0.641   8.970  0.2061 -0.7633 -0.5517
 3118SOL    HW120987   1.609   0.642   9.056  1.0232  0.3136 -0.1755
 3118SOL    HW220988   1.701   0.722   8.974  1.3768 -1.6082  1.1600
 3119SOL     OW20989   2.147   0.950  17.119  0.4637  0.0620  0.1046
 3119SOL    HW120990   2.089   0.963  17.194 -0.4381 -2.1527 -0.2147
 3119SOL    HW220991   2.227   0.990  17.153 -0.0440 -1.3737  2.9993
 3120SOL     OW20992   2.934   3.975   0.558  0.5086 -0.0046 -0.4465
 3120SOL    HW120993   3.017   3.971   0.510  0.4610 -0.1154 -0.5197
 3120SOL    HW220994   2.883   3.901   0.525 -1.2698  1.0440  0.0020
 3121SOL     OW20995   4.659   2.899   1.973  0.0624 -0.3999 -0.0407
 3121SOL    HW120996   4.631   2.951   2.049  1.1369 -1.1125  0.8397
 3121SOL    HW220997   4.630   2.814   2.005 -0.8512  0.2349  0.8149
 3122SOL     OW20998   2.996   2.426   1.256 -0.1714  0.3436  0.6492
 3122SOL    HW120999   3.067   2.365   1.275  0.1403  0.1455 -1.0933
 3122SOL    HW221000   3.050   2.494   1.215  0.0683 -0.7486 -0.8573
 3123SOL     OW21001   3.052   3.673   3.723 -0.5639  0.1229 -0.0968
 3123SOL    HW121002   3.038   3.583   3.692  2.6060 -1.0737  2.0020
 3123SOL    HW221003   3.048   3.656   3.817 -2.7297  2.3714  0.2024
 3124SOL     OW21004   4.125   2.316  14.834  0.5887  0.2315 -0.0303
 3124SOL    HW121005   4.127   2.228  14.797  2.7509  1.3801 -2.5940
 3124SOL    HW221006   4.097   2.294  14.923  0.3737  1.0631  0.1073
 3125SOL     OW21007   4.632   3.545  15.745  0.1221 -0.1875 -0.3274
 3125SOL    HW121008   4.617   3.614  15.810  1.5169  0.1876 -0.3930
 3125SOL    HW221009   4.604   3.469  15.794  0.5426 -0.1754 -0.0653
 3126SOL     OW21010   0.324   2.427   9.371 -0.3313 -0.0304 -0.6709
 3126SOL    HW121011   0.409   2.405   9.333  0.6191  0.2004  1.3178
 3126SOL    HW221012   0.350   2.494   9.434  0.5318 -0.5133 -0.5240
 3127SOL     OW21013   0.803   4.527  13.865 -0.5247 -0.2032 -0.8033
 3127SOL    HW121014   0.758   4.597  13.817  0.4336 -0.0193 -1.4353
 3127SOL    HW221015   0.856   4.490  13.795 -1.2578  2.3235 -2.6946
 3128SOL     OW21016   2.555   2.487   1.447  0.2171  0.6947  0.0148
 3128SOL    HW121017   2.606   2.500   1.367  1.2963  0.8342  0.7261
 3128SOL    HW221018   2.505   2.568   1.440 -0.4741  0.2368 -0.2543
 3129SOL     OW21019   1.550   0.231   9.189 -0.3566  0.4088  0.1649
 3129SOL    HW121020   1.573   0.303   9.249  0.8537 -0.0485  0.2440
 3129SOL    HW221021   1.542   0.157   9.249  1.3785 -0.1621 -0.3076
 3130SOL     OW21022   2.000   4.024   4.828  0.2962  0.1223  0.0400
 3130SOL    HW121023   1.985   3.964   4.900 -1.1591  0.1752 -0.2361
 3130SOL    HW221024   1.976   4.108   4.866  0.6655 -0.2372  1.0715
 3131SOL     OW21025   4.301   3.126   9.901  0.1769 -0.1013 -0.1171
 3131SOL    HW121026   4.333   3.159   9.985 -0.1093  1.0554 -0.4610
 3131SOL    HW221027   4.232   3.064   9.921  1.6208 -1.6739  0.0088
 3132SOL     OW21028   0.028   3.239   2.278 -0.2858 -0.3330  0.3014
 3132SOL    HW121029   0.038   3.221   2.371  1.9108 -2.3961 -0.3206
 3132SOL    HW221030   0.018   3.334   2.281  0.3378 -0.3106  1.5868
 3133SOL     OW21031   3.598   0.176  16.393 -0.0739  0.5999 -0.2475
 3133SOL    HW121032   3.644   0.234  16.332  0.2137 -0.3005 -0.8845
 3133SOL    HW221033   3.666   0.111  16.408  0.0061  0.3850 -1.5493
 3134SOL     OW21034   3.719   3.634  13.636 -0.2841 -0.1636 -0.0181
 3134SOL    HW121035   3.803   3.672  13.611 -0.1155 -0.8118 -0.4357
 3134SOL    HW221036   3.672   3.717  13.636  0.8980  0.5035 -1.2703
 3135SOL     OW21037   1.245   0.759   8.040 -0.2298 -0.0025 -0.5079
 3135SOL    HW121038   1.219   0.766   8.132 -1.8981 -1.0856 -0.9087
 3135SOL    HW221039   1.226   0.666   8.025  0.1961 -0.1875  0.0619
 3136SOL     OW21040   2.922   1.157   3.225  0.1374  0.0056  0.2313
 3136SOL    HW121041   2.894   1.134   3.313  0.6871 -0.0285  0.3969
 3136SOL    HW221042   2.881   1.243   3.214 -0.6634  0.1095  4.0864
 3137SOL     OW21043   4.689   3.642   8.153  0.2335 -0.1898  0.2067
 3137SOL    HW121044   0.017   3.707   8.176  0.6770  0.5229 -3.0438
 3137SOL    HW221045   4.659   3.670   8.066  2.1079  1.6379  0.1477
 3138SOL     OW21046   3.039   3.449  14.263  0.1713 -0.0894  0.0731
 3138SOL    HW121047   3.106   3.395  14.305 -0.3004 -0.6466  0.1041
 3138SOL    HW221048   3.075   3.538  14.266 -0.5851  0.2057  0.2038
 3139SOL     OW21049   0.248   4.054   7.732 -0.2473  0.2155 -0.2562
 3139SOL    HW121050   0.155   4.033   7.738  0.0748 -1.0512  0.2185
 3139SOL    HW221051   0.277   4.060   7.823 -1.6979 -0.9918  0.2828
 3140SOL     OW21052   3.195   0.848   8.783 -0.5633 -0.0596 -0.0341
 3140SOL    HW121053   3.272   0.885   8.740 -1.5995  1.2928 -0.6962
 3140SOL    HW221054   3.148   0.928   8.807 -0.5869 -0.3714  0.9645
 3141SOL     OW21055   0.701   1.956   4.332  0.1865  0.4102  0.3679
 3141SOL    HW121056   0.685   2.005   4.251  1.9235  1.3131  0.5713
 3141SOL    HW221057   0.794   1.978   4.331  0.6057 -1.3321  0.3781
 3142SOL     OW21058   0.032   1.076   6.623  0.0599  0.4114  0.0177
 3142SOL    HW121059   0.078   1.152   6.658  0.1782  0.4564 -0.2404
 3142SOL    HW221060   0.026   1.024   6.704 -2.5907  0.7392  0.0251
 3143SOL     OW21061   4.389   2.826   6.455  0.2320 -0.4089 -0.3701
 3143SOL    HW121062   4.463   2.885   6.452  1.1786 -1.5646  0.1769
 3143SOL    HW221063   4.356   2.842   6.543 -1.0282 -1.6722 -0.5962
 3144SOL     OW21064   2.123   0.021   7.443 -0.5891  0.5411  0.1952
 3144SOL    HW121065   2.142   0.093   7.384 -1.7934  0.3302 -0.4573
 3144SOL    HW221066   2.132   4.676   7.396  0.8860  1.5809 -1.3651
 3145SOL     OW21067   1.375   1.715   4.970 -0.1202 -0.6776  0.1165
 3145SOL    HW121068   1.314   1.643   4.984 -0.5451 -0.0415  1.4922
 3145SOL    HW221069   1.317   1.792   4.972 -1.8394 -1.9102 -2.0179
 3146SOL     OW21070   2.331   4.417   8.576 -0.2258 -0.3451 -0.3152
 3146SOL    HW121071   2.268   4.382   8.639  2.5647 -1.4666  1.8789
 3146SOL    HW221072   2.286   4.396   8.494 -0.0731 -2.2162  0.0676
 3147SOL     OW21073   1.962   3.063   4.223 -0.5063 -0.2252 -0.0375
 3147SOL    HW121074   2.018   3.006   4.171 -2.0340 -2.8135  1.1607
 3147SOL    HW221075   2.022   3.075   4.298 -0.1219  1.0566 -0.5511
 3148SOL     OW21076   3.981   4.205   5.667 -0.1086  0.0918  0.3063
 3148SOL    HW121077   4.009   4.168   5.751  0.4788 -0.0905  0.0287
 3148SOL    HW221078   3.885   4.212   5.675 -0.1692  0.0328 -0.3646
 3149SOL     OW21079   0.827   0.220   3.682  0.5132 -0.0885  0.0138
 3149SOL    HW121080   0.816   0.174   3.765  2.2464  0.4682  0.5423
 3149SOL    HW221081   0.768   0.171   3.625  1.8103 -0.8413 -0.6678
 3150SOL     OW21082   2.234   3.948   3.762  0.5029 -0.4072 -0.0360
 3150SOL    HW121083   2.158   3.894   3.781 -0.1118  0.5927  0.3396
 3150SOL    HW221084   2.282   3.894   3.699  1.3148 -1.1996  1.2625
 3151SOL     OW21085   2.354   2.954  12.081 -0.2037  0.5181 -0.0556
 3151SOL    HW121086   2.372   2.986  11.993 -0.1309  1.7746  0.4017
 3151SOL    HW221087   2.282   2.893  12.069  0.7749 -0.0379 -3.0129
 3152SOL     OW21088   3.790   3.007   8.057 -0.4818  0.5355  0.0878
 3152SOL    HW121089   3.777   3.079   8.119  1.0951 -1.0060  2.2380
 3152SOL    HW221090   3.868   3.039   8.011  0.5683 -0.0041  1.4735
 3153SOL     OW21091   1.205   0.955   4.775 -0.2306  0.0957 -0.1790
 3153SOL    HW121092   1.288   1.002   4.765  0.3967 -0.7415  1.1844
 3153SOL    HW221093   1.221   0.885   4.838 -1.3757 -1.2160 -1.3260
 3154SOL     OW21094   2.407   0.421  12.131 -0.4594  0.5893 -0.6293
 3154SOL    HW121095   2.361   0.415  12.047 -3.3287  0.0417  1.0026
 3154SOL    HW221096   2.342   0.455  12.192 -1.6660  0.7788 -2.0027
 3155SOL     OW21097   1.297   4.075   2.425  0.1468  0.5600 -0.3089
 3155SOL    HW121098   1.360   4.100   2.492  0.6235 -1.5473  0.0153
 3155SOL    HW221099   1.226   4.076   2.489  0.1107  0.8943 -0.3535
 3156SOL     OW21100   0.315   1.707   5.308  0.0287 -0.1132  0.3529
 3156SOL    HW121101   0.293   1.759   5.385  0.7846  0.1456  0.3892
 3156SOL    HW221102   0.355   1.773   5.252 -0.7821  0.8757  0.9342
 3157SOL     OW21103   1.957   0.478   3.868 -0.2524  0.5051  0.1360
 3157SOL    HW121104   2.027   0.524   3.821 -0.1110  0.2924  0.1363
 3157SOL    HW221105   1.899   0.545   3.903  1.1494  1.0506  1.4317
 3158SOL     OW21106   1.093   0.508   5.129 -0.1099 -0.3672  0.1670
 3158SOL    HW121107   1.115   0.591   5.171 -3.2547  0.6153 -0.1252
 3158SOL    HW221108   0.999   0.524   5.125  0.1913  1.7635  1.3942
 3159SOL     OW21109   0.316   3.627  14.544 -0.3564 -0.1374 -0.0449
 3159SOL    HW121110   0.259   3.569  14.492 -0.1271 -1.4757  1.1859
 3159SOL    HW221111   0.368   3.661  14.471  1.6881 -2.6262  0.2593
 3160SOL     OW21112   1.195   2.819   7.523 -0.2736  0.0184 -0.6175
 3160SOL    HW121113   1.151   2.899   7.495  0.3023  1.4765  2.6902
 3160SOL    HW221114   1.230   2.846   7.607 -1.7703  3.3541 -1.0698
 3161SOL     OW21115   1.501   1.707   3.402  0.2613 -0.2791 -0.0561
 3161SOL    HW121116   1.463   1.703   3.315  0.7342  1.2376 -0.3336
 3161SOL    HW221117   1.509   1.801   3.414 -1.1645  0.0540 -1.7366
 3162SOL     OW21118   2.469   3.067  13.132  0.1990  0.0465 -0.3376
 3162SOL    HW121119   2.500   3.154  13.108  0.3918  0.1975  0.4434
 3162SOL    HW221120   2.460   3.015  13.052 -1.1675 -0.7850  0.3360
 3163SOL     OW21121   0.935   2.528   9.183 -0.1813 -0.8966  0.3847
 3163SOL    HW121122   1.019   2.560   9.149 -0.0204 -1.2345  0.4601
 3163SOL    HW221123   0.911   2.451   9.132 -0.8367  0.6343 -1.5955
 3164SOL     OW21124   1.812   1.330   6.759  0.0358 -0.2919  0.0831
 3164SOL    HW121125   1.841   1.312   6.848 -1.3686  0.4989  0.6906
 3164SOL    HW221126   1.894   1.316   6.711  0.2231 -0.6952  0.5201
 3165SOL     OW21127   4.524   3.566   2.935  0.5590 -0.1570 -0.5841
 3165SOL    HW121128   4.447   3.618   2.910 -0.7305 -1.3310  0.9398
 3165SOL    HW221129   4.486   3.520   3.010 -0.1116  0.8426 -0.3232
 3166SOL     OW21130   0.742   3.951   3.693  0.6252 -0.1503 -0.0514
 3166SOL    HW121131   0.710   4.019   3.634  3.6550  0.2001 -1.3139
 3166SOL    HW221132   0.803   3.917   3.627  0.3185 -1.8326  0.5332
 3167SOL     OW21133   0.551   2.525   5.278  0.2429  0.2230 -0.7299
 3167SOL    HW121134   0.578   2.611   5.312 -0.0754  0.5507 -1.3110
 3167SOL    HW221135   0.632   2.489   5.315 -0.4806 -0.3592  0.2929
 3168SOL     OW21136   0.167   2.003   9.177 -0.3405  0.2467 -0.4168
 3168SOL    HW121137   0.254   2.036   9.152 -0.4549 -1.4826 -3.1105
 3168SOL    HW221138   0.127   2.077   9.223  0.0065  1.8769 -2.7005
 3169SOL     OW21139   2.323   1.604   5.750  0.5660  0.0406 -0.0493
 3169SOL    HW121140   2.416   1.614   5.732  0.5282  2.2978  1.0685
 3169SOL    HW221141   2.320   1.585   5.844  0.4855 -1.5137 -0.3600
 3170SOL     OW21142   3.608   4.389   8.875 -0.0318 -0.2254  0.1552
 3170SOL    HW121143   3.646   4.301   8.869 -1.1617 -0.5245 -2.6768
 3170SOL    HW221144   3.617   4.410   8.968 -1.1157 -0.3706  0.2985
 3171SOL     OW21145   0.575   4.666   3.435 -0.7224 -0.1961 -0.6632
 3171SOL    HW121146   0.488   4.684   3.398  0.3620  2.7592 -1.7276
 3171SOL    HW221147   0.614   4.626   3.358  0.3175 -2.1418  0.8766
 3172SOL     OW21148   0.318   2.333   6.423  0.1518 -0.5694  0.0905
 3172SOL    HW121149   0.375   2.406   6.449  0.3554 -0.8667  0.4704
 3172SOL    HW221150   0.243   2.379   6.384  0.2044 -0.1356  0.5036
 3173SOL     OW21151   0.480   3.855   9.664 -0.3694  0.4224 -0.5921
 3173SOL    HW121152   0.413   3.922   9.675  0.7944  1.4753  0.1396
 3173SOL    HW221153   0.477   3.820   9.753  0.8596 -1.3614 -1.2728
 3174SOL     OW21154   2.962   0.967   7.226 -0.2678  0.1199 -0.4880
 3174SOL    HW121155   3.013   0.952   7.306 -0.8880  0.0862 -0.0964
 3174SOL    HW221156   3.022   1.021   7.175  0.0854  0.5587  0.3899
 3175SOL     OW21157   3.829   1.421   1.939 -0.1352  0.4907  0.4896
 3175SOL    HW121158   3.794   1.364   2.008  1.2087 -2.1252 -0.9709
 3175SOL    HW221159   3.788   1.388   1.858 -0.3424 -1.3222  1.3332
 3176SOL     OW21160   3.304   3.987  11.223 -0.2375 -0.6720 -0.3657
 3176SOL    HW121161   3.236   3.921  11.223 -1.3708  0.4832  1.2672
 3176SOL    HW221162   3.383   3.935  11.236  0.7841  1.3546  1.5735
 3177SOL     OW21163   3.792   0.811   7.915  0.1368 -0.5628  0.0359
 3177SOL    HW121164   3.789   0.797   8.009 -1.2240 -0.8919 -0.0502
 3177SOL    HW221165   3.883   0.784   7.906  0.0880 -0.2609 -1.4513
 3178SOL     OW21166   1.037   2.211   9.215 -0.2702  0.4943 -0.6436
 3178SOL    HW121167   1.069   2.222   9.305  0.0807  1.1969 -0.8541
 3178SOL    HW221168   1.059   2.118   9.208 -0.9618  0.3310 -0.6136
 3179SOL     OW21169   3.137   3.193   5.788  0.0819  0.0275 -0.5528
 3179SOL    HW121170   3.083   3.121   5.755 -2.0054  0.4856  1.8039
 3179SOL    HW221171   3.133   3.250   5.712 -2.0985  1.9040  0.9587
 3180SOL     OW21172   1.047   0.779   3.021  0.5802 -0.3106  0.1287
 3180SOL    HW121173   1.097   0.701   3.048  2.8880  1.7482  1.7688
 3180SOL    HW221174   0.986   0.742   2.957  0.7323 -0.9484  0.3510
 3181SOL     OW21175   1.063   2.453   1.921 -0.3250 -0.0427  0.2107
 3181SOL    HW121176   0.996   2.438   1.854  0.0313 -0.4645 -0.0557
 3181SOL    HW221177   1.043   2.544   1.941 -1.6266 -0.0131 -1.2205
 3182SOL     OW21178   0.782   0.948   2.569  0.3164  0.3785  0.6118
 3182SOL    HW121179   0.731   0.946   2.650  0.5512  1.7992  0.8068
 3182SOL    HW221180   0.729   0.882   2.525  2.1868 -1.0275  0.4337
 3183SOL     OW21181   3.605   3.823  15.328  0.1163  0.3777 -0.1239
 3183SOL    HW121182   3.527   3.855  15.284 -2.5229 -3.0485  1.9483
 3183SOL    HW221183   3.573   3.736  15.355  0.9186  0.3074  0.6300
 3184SOL     OW21184   0.347   2.287   2.840  0.7374 -0.0860  0.2076
 3184SOL    HW121185   0.290   2.307   2.914 -0.4955  1.5145 -1.1684
 3184SOL    HW221186   0.397   2.216   2.880 -0.4449 -0.6807  0.6163
 3185SOL     OW21187   0.568   3.831   8.732 -0.2417 -0.2942  0.5253
 3185SOL    HW121188   0.546   3.830   8.825  0.1059  2.6500  0.6636
 3185SOL    HW221189   0.484   3.850   8.690  0.2456  2.2144  0.6732
 3186SOL     OW21190   3.991   3.558   5.871 -0.3914 -0.0092 -0.2711
 3186SOL    HW121191   3.960   3.480   5.826 -1.2216  0.4500 -0.4913
 3186SOL    HW221192   3.928   3.550   5.943  2.3729  0.8149  2.2451
 3187SOL     OW21193   3.730   1.991  16.855 -0.4564 -0.0965 -0.5928
 3187SOL    HW121194   3.693   1.913  16.894 -0.1592  0.3149  0.5023
 3187SOL    HW221195   3.650   2.031  16.819 -0.3356 -0.1242 -0.8964
 3188SOL     OW21196   2.826   3.485   8.484  0.1076  0.5428 -0.3660
 3188SOL    HW121197   2.735   3.457   8.477 -0.3445  1.6232  1.5293
 3188SOL    HW221198   2.829   3.576   8.456 -0.8381  0.6351 -0.1509
 3189SOL     OW21199   2.648   0.399   7.965 -0.9594 -0.8294 -0.7292
 3189SOL    HW121200   2.695   0.481   7.982 -1.6149 -1.2716  3.3202
 3189SOL    HW221201   2.717   0.334   7.977 -0.5483  0.3518  3.1695
 3190SOL     OW21202   2.704   4.196  10.754 -0.3847 -0.4609  0.1110
 3190SOL    HW121203   2.654   4.238  10.824 -0.0827  1.5966 -0.9179
 3190SOL    HW221204   2.734   4.112  10.789 -2.0998 -0.8029  0.7676
 3191SOL     OW21205   4.364   4.160   3.254 -0.1403  0.2140  0.4153
 3191SOL    HW121206   4.369   4.100   3.328 -0.7715 -0.9591 -0.4915
 3191SOL    HW221207   4.438   4.220   3.265 -0.3067  0.3574  0.7516
 3192SOL     OW21208   3.260   3.802   9.953 -0.5231 -0.5661 -0.4379
 3192SOL    HW121209   3.263   3.887   9.996 -1.6567 -0.0890 -1.2913
 3192SOL    HW221210   3.305   3.814   9.869  0.7321 -0.0937  0.3162
 3193SOL     OW21211   2.318   4.560   7.126  0.4018  0.2890 -0.9111
 3193SOL    HW121212   2.299   4.498   7.056 -0.9660 -0.6238  0.2666
 3193SOL    HW221213   2.287   4.638   7.080 -2.1186 -0.8171 -1.0792
 3194SOL     OW21214   1.034   1.884  12.210 -0.1813 -0.4488 -0.0214
 3194SOL    HW121215   1.073   1.805  12.173 -0.5959 -0.1172 -1.1731
 3194SOL    HW221216   0.945   1.866  12.178 -0.4354  3.4541 -1.5175
 3195SOL     OW21217   4.132   2.620   8.874 -0.5184 -0.0021  0.0732
 3195SOL    HW121218   4.214   2.667   8.861 -0.9328  1.1932  1.6700
 3195SOL    HW221219   4.165   2.531   8.863  0.7766  0.3949  0.7403
 3196SOL     OW21220   2.454   3.109   2.242  0.1708  0.0523 -0.6007
 3196SOL    HW121221   2.406   3.068   2.314  0.3899  2.3036  0.8425
 3196SOL    HW221222   2.406   3.192   2.233 -0.3674  0.1862  3.5303
 3197SOL     OW21223   3.231   4.656   9.542  0.2499  0.5758  0.0987
 3197SOL    HW121224   3.154   4.709   9.561  0.0286  0.7930 -1.3883
 3197SOL    HW221225   3.259   4.616   9.624 -1.8418  0.1169  0.5789
 3198SOL     OW21226   2.785   0.649   4.477 -0.1800  0.5414 -0.2639
 3198SOL    HW121227   2.734   0.641   4.396  0.7595  0.6232 -0.8761
 3198SOL    HW221228   2.764   0.566   4.520  0.7333  1.1520  1.3705
 3199SOL     OW21229   4.319   3.435  17.322 -0.6774 -0.1350  0.5871
 3199SOL    HW121230   4.376   3.493  17.372  0.6323 -1.8272  1.0592
 3199SOL    HW221231   4.310   3.360  17.381  4.1664 -0.6440  0.6500
 3200SOL     OW21232   0.005   4.168   1.375  0.0002  0.1248  0.8988
 3200SOL    HW121233   4.666   4.135   1.330  0.5766 -0.4478  0.3293
 3200SOL    HW221234   4.709   4.186   1.463  1.6414  0.2851  1.5134
 3201SOL     OW21235   3.222   1.992  11.591 -0.1074  0.7325  0.3270
 3201SOL    HW121236   3.173   2.066  11.556 -2.4313 -1.6795 -1.4878
 3201SOL    HW221237   3.180   1.917  11.548  0.8135  0.3267  0.1272
 3202SOL     OW21238   2.096   1.229   4.699 -0.5426 -0.5216  1.1083
 3202SOL    HW121239   2.069   1.139   4.719  0.6900 -1.0168  0.5309
 3202SOL    HW221240   2.060   1.281   4.771 -1.3251 -2.1940  1.9440
 3203SOL     OW21241   4.498   0.216   8.685  0.9070  0.4951  0.5419
 3203SOL    HW121242   4.462   0.247   8.769 -1.6043  1.7689 -1.0083
 3203SOL    HW221243   4.533   0.139   8.728  2.2342  0.3524 -0.8012
 3204SOL     OW21244   1.483   4.041   7.120 -0.2358  0.0241  0.3434
 3204SOL    HW121245   1.434   4.007   7.044 -1.4672  1.6377  0.4254
 3204SOL    HW221246   1.499   4.131   7.092  0.5896  0.0045  0.7434
 3205SOL     OW21247   1.603   2.960  12.605  0.1289 -0.2716 -0.0311
 3205SOL    HW121248   1.609   3.055  12.601 -1.0802 -0.3148 -2.5301
 3205SOL    HW221249   1.686   2.949  12.650 -0.9963  0.8180  2.3323
 3206SOL     OW21250   1.032   4.172  16.763 -0.6661 -0.2808 -0.2789
 3206SOL    HW121251   1.006   4.166  16.672 -3.6987 -2.0763  0.7374
 3206SOL    HW221252   1.035   4.267  16.770  1.9697 -0.4463  1.1360
 3207SOL     OW21253   2.227   1.749  14.121 -0.5989 -0.4613  0.9192
 3207SOL    HW121254   2.271   1.663  14.114 -1.7213 -1.1803  2.8070
 3207SOL    HW221255   2.301   1.800  14.153 -0.9411 -0.5373  1.8153
 3208SOL     OW21256   3.057   3.515   6.046 -0.0800  0.3706 -0.9271
 3208SOL    HW121257   3.090   3.602   6.065  0.8153 -0.5716  1.7859
 3208SOL    HW221258   2.966   3.525   6.074 -0.0370 -2.1421  0.1475
 3209SOL     OW21259   4.435   0.941   3.126 -0.4702  0.1269  0.1723
 3209SOL    HW121260   4.417   0.997   3.201 -0.2359 -0.3852  0.6050
 3209SOL    HW221261   4.349   0.903   3.105 -0.5669  0.8233 -0.6807
 3210SOL     OW21262   4.132   3.908   7.364 -0.4770 -0.0268 -0.3353
 3210SOL    HW121263   4.049   3.957   7.362  0.2247  1.0994 -1.5078
 3210SOL    HW221264   4.105   3.819   7.344  0.6454 -0.5684  0.5479
 3211SOL     OW21265   2.303   2.170   1.487  0.0156 -0.1367 -0.2110
 3211SOL    HW121266   2.360   2.225   1.433  1.6899 -0.0022  1.7280
 3211SOL    HW221267   2.220   2.219   1.484 -0.8685 -1.4206  4.2595
 3212SOL     OW21268   4.049   0.930   2.872 -0.0701 -0.1120  0.2627
 3212SOL    HW121269   4.134   0.974   2.869  0.8025 -1.8317 -0.1384
 3212SOL    HW221270   4.003   0.973   2.944  0.8360  1.0765  0.1378
 3213SOL     OW21271   3.712   1.566  12.395  0.1710  0.2753 -0.0930
 3213SOL    HW121272   3.685   1.575  12.304 -1.9109 -2.4759  0.2326
 3213SOL    HW221273   3.631   1.548  12.442  0.8392  0.3992  1.1316
 3214SOL     OW21274   0.626   4.007   2.832 -0.6794 -0.3329  0.2391
 3214SOL    HW121275   0.672   4.091   2.835  0.2125 -0.8924  2.3523
 3214SOL    HW221276   0.586   4.005   2.746  1.5054 -0.2161 -0.7918
 3215SOL     OW21277   3.791   2.346  11.445  0.0425 -0.6312 -0.2255
 3215SOL    HW121278   3.847   2.420  11.469 -0.3429 -1.0613  2.0546
 3215SOL    HW221279   3.713   2.367  11.496 -0.6804  0.5914 -1.8479
 3216SOL     OW21280   3.324   1.823  15.238 -0.4799 -0.0910  0.2106
 3216SOL    HW121281   3.372   1.906  15.244 -0.0670 -0.3301  0.1919
 3216SOL    HW221282   3.301   1.812  15.331  0.5412  0.5745  0.5411
 3217SOL     OW21283   0.999   4.467   8.697 -0.5111  0.0266  0.3079
 3217SOL    HW121284   0.935   4.526   8.737  1.0126  1.8086  0.1245
 3217SOL    HW221285   1.074   4.523   8.677  0.2585 -0.8919  0.6200
 3218SOL     OW21286   2.143   4.167  12.445  0.7740 -0.5647  0.2773
 3218SOL    HW121287   2.198   4.223  12.391  0.2490 -0.1193  0.2093
 3218SOL    HW221288   2.064   4.220  12.443  1.4604  0.3548 -2.4437
 3219SOL     OW21289   2.576   0.859   5.639  0.2845  0.7112 -0.4931
 3219SOL    HW121290   2.543   0.910   5.713 -1.1880  4.7453 -3.9320
 3219SOL    HW221291   2.671   0.862   5.650  0.1626 -1.0220  0.9314
 3220SOL     OW21292   1.287   3.300  17.738 -0.1250 -0.2766  0.0278
 3220SOL    HW121293   1.222   3.364   0.017 -0.1404  0.0438 -0.6705
 3220SOL    HW221294   1.249   3.281  17.652 -0.1554  1.1849 -0.2868
 3221SOL     OW21295   1.232   3.066   7.245  0.6729  0.8971 -0.4672
 3221SOL    HW121296   1.158   3.050   7.303 -0.1898 -3.0931 -2.6806
 3221SOL    HW221297   1.179   3.081   7.167 -0.0182  1.6718  0.1505
 3222SOL     OW21298   4.377   1.653   0.468  0.4661 -0.1734 -0.0741
 3222SOL    HW121299   4.444   1.663   0.536  0.1111 -1.5749  0.4726
 3222SOL    HW221300   4.430   1.663   0.389  1.8095 -1.3722  0.6787
 3223SOL     OW21301   3.557   0.970   6.531  0.2376 -0.3852  0.0492
 3223SOL    HW121302   3.637   0.925   6.559  0.4618 -0.2432 -0.3720
 3223SOL    HW221303   3.556   1.046   6.589 -0.6643 -0.1402 -0.2950
 3224SOL     OW21304   1.903   2.258   6.991 -0.1747  0.1945  0.1828
 3224SOL    HW121305   1.895   2.344   6.948  4.5648  0.5505  0.0210
 3224SOL    HW221306   1.811   2.242   7.010 -0.4694  1.1608 -0.4231
 3225SOL     OW21307   1.119   0.046  13.527 -0.2795  0.0649 -0.4082
 3225SOL    HW121308   1.197   0.100  13.541 -1.2425  1.3495  0.0979
 3225SOL    HW221309   1.095   0.040  13.619  0.4540  0.6615 -0.1797
 3226SOL     OW21310   3.396   3.891   3.811  0.6122  0.4570 -0.0600
 3226SOL    HW121311   3.330   3.918   3.875 -0.3387  0.1598 -0.9051
 3226SOL    HW221312   3.477   3.926   3.848  0.6422 -2.3703  2.6072
 3227SOL     OW21313   0.132   0.062   4.784  0.7174 -0.0308 -0.4582
 3227SOL    HW121314   0.211   0.014   4.759 -0.4790 -1.8349 -0.7746
 3227SOL    HW221315   0.162   0.129   4.845  1.8796 -0.7648 -0.2262
 3228SOL     OW21316   4.546   3.519  17.464 -0.0767 -0.1191  0.0170
 3228SOL    HW121317   4.588   3.438  17.493 -0.1682  0.2053  1.0458
 3228SOL    HW221318   4.600   3.532  17.386 -0.2336 -0.6204 -0.1749
 3229SOL     OW21319   2.754   3.458   5.271 -0.1266  0.2883  0.0298
 3229SOL    HW121320   2.680   3.398   5.282 -0.6523  1.0695  0.7863
 3229SOL    HW221321   2.788   3.445   5.359 -1.4721  0.7812  0.6205
 3230SOL     OW21322   2.294   2.389   6.683  0.5690 -0.4026  0.4991
 3230SOL    HW121323   2.257   2.305   6.656  0.1126  0.6120 -2.0629
 3230SOL    HW221324   2.230   2.414   6.750  0.4568 -0.0702  0.2714
 3231SOL     OW21325   4.140   1.193   4.511 -0.1455 -0.3008 -0.3232
 3231SOL    HW121326   4.211   1.214   4.450  1.0066  0.5933  1.2815
 3231SOL    HW221327   4.071   1.187   4.446 -0.0352  1.0357 -0.5624
 3232SOL     OW21328   0.542   0.537   7.862  0.1293 -0.1218  0.1176
 3232SOL    HW121329   0.593   0.611   7.895 -0.2848  0.8096 -1.3252
 3232SOL    HW221330   0.457   0.576   7.883 -1.7086 -1.7233 -4.1991
 3233SOL     OW21331   1.215   3.295   2.011 -0.4571  0.1619 -0.3213
 3233SOL    HW121332   1.256   3.375   2.045 -1.8356  0.4532  0.6631
 3233SOL    HW221333   1.205   3.235   2.084  2.5599  0.5092  0.3937
 3234SOL     OW21334   3.147   2.329   2.046  0.0411 -0.2508  0.4670
 3234SOL    HW121335   3.176   2.405   2.096 -0.2052  0.1291  0.0232
 3234SOL    HW221336   3.177   2.250   2.093  0.9764  0.9940  1.9760
 3235SOL     OW21337   1.462   0.355   4.455  0.6676 -0.3200  0.0976
 3235SOL    HW121338   1.552   0.386   4.460 -0.0204  1.5421  0.7359
 3235SOL    HW221339   1.436   0.392   4.370  1.7642 -0.2003 -0.1766
 3236SOL     OW21340   3.640   3.419   5.368  0.1294  0.5617  0.1131
 3236SOL    HW121341   3.699   3.363   5.318  0.2604  2.8321 -2.2343
 3236SOL    HW221342   3.677   3.410   5.456  0.8812  2.0141 -0.0568
 3237SOL     OW21343   0.532   2.090  11.775 -0.0884 -0.3164 -0.5907
 3237SOL    HW121344   0.530   2.178  11.813 -0.8211 -0.5355 -0.1172
 3237SOL    HW221345   0.615   2.079  11.729  1.4854  1.6526  1.7624
 3238SOL     OW21346   1.436   1.879   8.389  0.1328 -0.3292 -0.0509
 3238SOL    HW121347   1.503   1.841   8.333  0.4947  0.7536 -0.3438
 3238SOL    HW221348   1.432   1.826   8.469  0.4005  0.3320  0.3974
 3239SOL     OW21349   2.636   0.108  14.676 -0.5352 -0.8193 -0.1092
 3239SOL    HW121350   2.638   0.113  14.772  2.6950  0.4428 -0.2569
 3239SOL    HW221351   2.650   0.013  14.668 -0.8691 -0.8458 -0.3684
 3240SOL     OW21352   0.339   1.503  13.578 -0.8575  0.9291 -0.2779
 3240SOL    HW121353   0.323   1.439  13.509  0.1389  0.0154  0.3345
 3240SOL    HW221354   0.309   1.589  13.548 -0.7572  0.6176 -1.2527
 3241SOL     OW21355   3.584   4.600  17.383  0.4339 -0.3054 -0.1259
 3241SOL    HW121356   3.647   4.551  17.437  1.8811  0.0597 -1.4721
 3241SOL    HW221357   3.585   4.543  17.307 -1.8199  1.0807 -1.1809
 3242SOL     OW21358   2.051   2.416   5.700  0.0087 -0.4139 -0.7807
 3242SOL    HW121359   2.107   2.345   5.670 -1.6643 -2.2839  0.5860
 3242SOL    HW221360   2.052   2.488   5.637  1.6036 -0.9475 -1.3605
 3243SOL     OW21361   3.095   0.356   3.259  0.1507 -0.1274 -0.1405
 3243SOL    HW121362   3.145   0.405   3.325 -3.3119  2.0210  0.9045
 3243SOL    HW221363   3.157   0.286   3.237  1.1512  0.6700  0.1450
 3244SOL     OW21364   0.783   3.149   1.336 -0.1773  0.0521 -0.6708
 3244SOL    HW121365   0.833   3.169   1.257  1.9986  1.0568  0.9662
 3244SOL    HW221366   0.805   3.063   1.372 -1.1784  0.0130 -0.1544
 3245SOL     OW21367   3.234   1.431  11.963  0.0223 -0.1899 -0.3984
 3245SOL    HW121368   3.194   1.477  11.889  0.6210 -1.3712 -1.4689
 3245SOL    HW221369   3.212   1.493  12.033 -1.9321 -0.7858 -0.4673
 3246SOL     OW21370   3.464   4.107   5.705  0.2604 -0.4834  0.0224
 3246SOL    HW121371   3.394   4.048   5.732  1.0057 -0.5682  1.7925
 3246SOL    HW221372   3.432   4.195   5.727 -1.2161 -1.2039  0.6838
 3247SOL     OW21373   4.401   1.971   2.719 -0.0646  0.0541  0.3094
 3247SOL    HW121374   4.352   1.949   2.797 -1.3623  0.8885 -0.2662
 3247SOL    HW221375   4.349   1.949   2.642 -0.7577 -1.0725  1.1111
 3248SOL     OW21376   2.401   0.443   8.870  0.2631  0.0125  0.1100
 3248SOL    HW121377   2.320   0.396   8.850  0.5268  0.6392 -2.5162
 3248SOL    HW221378   2.381   0.531   8.837  0.1557 -0.1546 -0.2685
 3249SOL     OW21379   1.182   1.645   5.794  0.2389 -0.0990 -0.1916
 3249SOL    HW121380   1.199   1.584   5.722  2.9898  0.2229  0.1851
 3249SOL    HW221381   1.207   1.599   5.874  2.5538  0.5919 -0.5152
 3250SOL     OW21382   2.875   1.244   9.221  0.5892  0.1088  0.3306
 3250SOL    HW121383   2.809   1.290   9.273  0.3320 -0.9350  0.9310
 3250SOL    HW221384   2.884   1.165   9.273  0.3033 -0.6793 -0.8018
 3251SOL     OW21385   0.797   2.224   2.515  0.0016  1.0205 -0.5040
 3251SOL    HW121386   0.817   2.266   2.432  0.1519  1.7511 -0.1013
 3251SOL    HW221387   0.736   2.291   2.548 -0.8424 -0.2945  0.5918
 3252SOL     OW21388   2.137   2.633   4.365 -0.0703  0.6234 -0.1023
 3252SOL    HW121389   2.193   2.710   4.372  0.7591  0.0997 -0.8806
 3252SOL    HW221390   2.055   2.681   4.351 -0.5841  0.3601  2.0403
 3253SOL     OW21391   2.916   3.179  17.136  0.5607  0.2378 -0.1992
 3253SOL    HW121392   2.830   3.148  17.162  1.0024  2.2441  3.6061
 3253SOL    HW221393   2.974   3.154  17.209 -0.1560 -1.5188 -0.2149
 3254SOL     OW21394   2.600   3.866   4.585 -0.0234  0.1575  0.2585
 3254SOL    HW121395   2.555   3.826   4.510  2.3994 -1.8115 -0.1392
 3254SOL    HW221396   2.580   3.959   4.589  0.8978  0.4002 -0.8919
 3255SOL     OW21397   3.410   4.613   4.953  0.7812  0.5578 -0.0309
 3255SOL    HW121398   3.315   4.618   4.940  0.8733 -0.3433 -1.0049
 3255SOL    HW221399   3.451   4.631   4.868  0.2807  0.1252 -0.3590
 3256SOL     OW21400   3.826   0.472   6.191  0.1943  0.1511  0.3825
 3256SOL    HW121401   3.773   0.394   6.208 -0.7811  0.7726  0.2011
 3256SOL    HW221402   3.882   0.446   6.118 -0.5181  0.8509 -0.4188
 3257SOL     OW21403   2.871   2.426  11.075 -0.5067 -0.1096 -0.1677
 3257SOL    HW121404   2.954   2.469  11.055 -0.0391 -0.7017  0.4935
 3257SOL    HW221405   2.905   2.346  11.115 -1.3442 -1.8260 -2.9613
 3258SOL     OW21406   3.756   3.990   3.099  0.3849  0.1097  0.0187
 3258SOL    HW121407   3.758   3.895   3.092 -0.8842  0.0683  0.2835
 3258SOL    HW221408   3.684   4.019   3.155 -0.5398 -0.7141 -0.7256
 3259SOL     OW21409   1.287   2.749   2.771  0.3665 -0.0191 -0.1670
 3259SOL    HW121410   1.318   2.720   2.856  0.8380 -0.0659 -0.3554
 3259SOL    HW221411   1.304   2.679   2.708  1.5409  0.2679 -0.1697
 3260SOL     OW21412   3.182   3.565   2.978  0.5271 -0.0194 -0.0058
 3260SOL    HW121413   3.126   3.568   3.055  1.0285 -0.6048  0.3829
 3260SOL    HW221414   3.236   3.489   2.998 -0.1781 -0.2766  0.8995
 3261SOL     OW21415   4.602   4.072   4.917  0.2696  0.0104  0.7751
 3261SOL    HW121416   4.626   4.000   4.976 -1.0615  0.5683  1.9800
 3261SOL    HW221417   4.629   4.055   4.827 -2.0623  0.2246  0.0380
 3262SOL     OW21418   4.550   2.476  15.231 -0.9446 -0.1459  0.2534
 3262SOL    HW121419   4.598   2.451  15.152  1.1484  1.8078  0.9067
 3262SOL    HW221420   4.619   2.522  15.278  0.1592 -0.6724 -0.8503
 3263SOL     OW21421   2.067   4.341  11.749  0.1158 -0.0043 -0.1050
 3263SOL    HW121422   2.159   4.336  11.726  0.5903  0.1592  1.7917
 3263SOL    HW221423   2.065   4.320  11.842 -3.1050 -3.0689 -0.8510
 3264SOL     OW21424   0.911   1.213   2.176 -0.2913  0.1144 -0.0198
 3264SOL    HW121425   0.825   1.244   2.204  0.4612  2.7895 -0.6475
 3264SOL    HW221426   0.952   1.296   2.150 -0.7978  0.6920  1.0186
 3265SOL     OW21427   3.400   0.937   8.291  0.5916 -0.5867 -0.2645
 3265SOL    HW121428   3.327   0.915   8.234  0.2554  0.9608 -0.4440
 3265SOL    HW221429   3.357   1.002   8.347  1.2459 -2.5092  2.4405
 3266SOL     OW21430   3.341   2.544   6.571  0.4556 -0.4583  0.3556
 3266SOL    HW121431   3.359   2.533   6.665 -0.4657  2.1292  0.8390
 3266SOL    HW221432   3.351   2.639   6.569 -1.9125 -0.1967  0.3005
 3267SOL     OW21433   4.062   3.534   3.313 -0.1040 -0.8346  0.2651
 3267SOL    HW121434   4.127   3.488   3.366 -2.0469 -0.4560  2.9469
 3267SOL    HW221435   4.021   3.454   3.279 -0.2392 -0.7674  0.2687
 3268SOL     OW21436   3.296   2.625   1.656 -0.4869  0.0016 -0.4110
 3268SOL    HW121437   3.352   2.660   1.725  1.5000  0.4675 -2.2418
 3268SOL    HW221438   3.334   2.671   1.581  1.2033  0.3130  0.6392
 3269SOL     OW21439   1.710   1.387  16.946  0.4664 -0.0284 -1.2529
 3269SOL    HW121440   1.642   1.321  16.935 -0.8367  1.1783 -0.5179
 3269SOL    HW221441   1.757   1.347  17.019  0.2242 -0.4675 -1.3382
 3270SOL     OW21442   0.035   3.947   1.092 -0.0929 -0.1646 -0.3485
 3270SOL    HW121443   4.708   3.987   1.149  0.4742  0.6439 -0.2666
 3270SOL    HW221444   0.043   3.861   1.134 -1.5951 -1.1499 -2.1099
 3271SOL     OW21445   1.980   4.095   8.118  0.1738 -0.3032 -0.4088
 3271SOL    HW121446   1.887   4.114   8.108  0.3099 -1.1284 -3.2878
 3271SOL    HW221447   1.975   4.026   8.185  3.3345  1.3225  1.5187
 3272SOL     OW21448   2.218   4.613   4.198 -0.0179 -0.7536 -0.4301
 3272SOL    HW121449   2.128   4.603   4.168  0.4864 -1.3202 -1.7803
 3272SOL    HW221450   2.274   4.591   4.124  0.7361  0.6638 -0.2870
 3273SOL     OW21451   1.837   3.168  14.981  0.2230  0.0301  0.1241
 3273SOL    HW121452   1.907   3.230  15.000 -0.8156  1.0961  0.4650
 3273SOL    HW221453   1.795   3.151  15.066  2.6954 -1.6689  0.9972
 3274SOL     OW21454   0.677   3.341   2.176  0.2439  0.0279  0.4030
 3274SOL    HW121455   0.693   3.278   2.105  2.6323 -0.7118  1.5987
 3274SOL    HW221456   0.582   3.353   2.169  0.3335  0.2021 -0.4932
 3275SOL     OW21457   3.874   3.819  11.487 -0.0328  0.0062  0.1380
 3275SOL    HW121458   3.835   3.894  11.532  0.5382 -0.0287  0.6887
 3275SOL    HW221459   3.873   3.741  11.543 -0.7911  0.8407  1.2948
 3276SOL     OW21460   1.682   2.834  12.376  0.1212  0.2806  0.2610
 3276SOL    HW121461   1.664   2.885  12.455  0.0088  1.4193 -0.4892
 3276SOL    HW221462   1.608   2.774  12.382  0.1525  0.2661  0.4972
 3277SOL     OW21463   0.972   1.800   4.889 -0.1216 -0.3115 -0.1735
 3277SOL    HW121464   0.893   1.829   4.842 -0.6290 -0.6083  0.4921
 3277SOL    HW221465   1.036   1.797   4.818 -1.0839 -0.3160 -1.0387
 3278SOL     OW21466   4.089   1.667   2.723  0.4284  0.2316 -0.7529
 3278SOL    HW121467   4.029   1.730   2.763  1.3791  0.5436  0.1807
 3278SOL    HW221468   4.033   1.590   2.714  2.2998 -1.3615  1.2177
 3279SOL     OW21469   2.694   0.456   8.646 -0.1975  0.1004  0.2316
 3279SOL    HW121470   2.781   0.426   8.620 -0.9013 -0.8523 -1.0066
 3279SOL    HW221471   2.641   0.408   8.583  0.0352  0.7488 -0.4609
 3280SOL     OW21472   0.368   2.881  14.172  0.2643  0.0851 -0.3933
 3280SOL    HW121473   0.273   2.882  14.164  0.0237  1.7635  2.3016
 3280SOL    HW221474   0.386   2.881  14.078  0.0462  1.2619 -0.4372
 3281SOL     OW21475   2.570   2.148   4.131 -0.7816  0.3860  0.0564
 3281SOL    HW121476   2.530   2.224   4.089  1.3764  1.6933  0.3728
 3281SOL    HW221477   2.555   2.094   4.054 -0.6216  0.2452  0.1219
 3282SOL     OW21478   0.975   2.636  17.385  0.0573 -0.3717  0.7009
 3282SOL    HW121479   0.897   2.624  17.332  0.8670  2.8779 -1.2627
 3282SOL    HW221480   0.939   2.675  17.465  0.4217  1.3531  0.0442
 3283SOL     OW21481   3.149   3.972   0.420  0.5939  0.3565  0.2940
 3283SOL    HW121482   3.232   3.958   0.466  0.2305 -0.5097  0.6956
 3283SOL    HW221483   3.178   3.970   0.329 -2.9814 -0.3935 -0.8210
 3284SOL     OW21484   3.147   4.674   1.700 -0.3517  0.0403 -0.5094
 3284SOL    HW121485   3.100   0.019   1.701 -2.9250 -1.4040 -0.3010
 3284SOL    HW221486   3.208   4.699   1.630 -1.1345  1.7555 -0.5746
 3285SOL     OW21487   1.554   2.391   3.032 -0.6425  0.0045  0.0955
 3285SOL    HW121488   1.609   2.322   2.997 -1.4515 -1.1711  1.1400
 3285SOL    HW221489   1.473   2.345   3.052  0.0929 -1.6956 -0.8710
 3286SOL     OW21490   3.959   4.010   6.877  0.4363 -0.3390 -0.2803
 3286SOL    HW121491   3.989   3.921   6.856 -1.1620 -1.0542  0.4296
 3286SOL    HW221492   3.928   4.036   6.790 -2.3970 -0.3584  0.7012
 3287SOL     OW21493   1.358   3.384   1.770  0.1022  0.0904 -0.2983
 3287SOL    HW121494   1.324   3.322   1.835  1.5991 -1.3161 -0.8775
 3287SOL    HW221495   1.311   3.361   1.690  0.0283 -0.4176 -0.1102
 3288SOL     OW21496   3.708   4.577   0.473  0.2427 -0.0004 -0.4491
 3288SOL    HW121497   3.796   4.601   0.446 -0.2496  2.1728 -0.0864
 3288SOL    HW221498   3.723   4.613   0.560 -2.2902 -0.0647  0.0180
 3289SOL     OW21499   1.357   2.618   2.370  0.0625  0.1370 -0.1036
 3289SOL    HW121500   1.410   2.582   2.299 -0.7305 -1.1965 -0.0229
 3289SOL    HW221501   1.415   2.678   2.417 -1.7023  0.8525  1.1321
 3290SOL     OW21502   3.448   1.118  11.256 -0.8276  0.6934 -0.3983
 3290SOL    HW121503   3.438   1.150  11.346 -0.9007 -1.8230  0.4877
 3290SOL    HW221504   3.498   1.188  11.215 -0.9269  1.2077  0.3505
 3291SOL     OW21505   2.616   2.144  16.726  0.3397 -0.0918  0.1548
 3291SOL    HW121506   2.656   2.147  16.813 -0.8289  0.9726  0.6551
 3291SOL    HW221507   2.561   2.221  16.737  0.3908 -0.3205  2.0863
 3292SOL     OW21508   4.383   0.659   7.736  0.4242 -0.0056  0.1659
 3292SOL    HW121509   4.310   0.635   7.793 -0.1060  0.2162 -0.4241
 3292SOL    HW221510   4.332   0.704   7.669  1.3594  2.2451  0.9638
 3293SOL     OW21511   4.120   3.516   7.024 -0.1117 -0.2803 -0.3995
 3293SOL    HW121512   4.094   3.427   7.002  1.1118 -0.0107 -2.9025
 3293SOL    HW221513   4.212   3.496   7.044  0.3022  3.6343  1.6342
 3294SOL     OW21514   4.052   4.383   3.185  0.1418  0.4569  0.4610
 3294SOL    HW121515   4.143   4.358   3.195  0.1619  0.8098  1.1645
 3294SOL    HW221516   4.014   4.362   3.270 -2.1940  0.6469 -0.5204
 3295SOL     OW21517   0.195   4.628   6.584 -0.0590 -0.3426 -0.7760
 3295SOL    HW121518   0.241   4.682   6.648 -2.0607  0.6707 -0.1954
 3295SOL    HW221519   0.266   4.571   6.554  0.3595  1.3218 -2.9222
 3296SOL     OW21520   0.451   2.464   3.822 -0.6647  0.3238 -0.1089
 3296SOL    HW121521   0.500   2.382   3.834 -0.2639  0.2023 -2.5405
 3296SOL    HW221522   0.465   2.485   3.729  1.0240  0.4438  0.1733
 3297SOL     OW21523   1.041   4.176   9.654 -0.3498 -0.2229  0.0211
 3297SOL    HW121524   1.057   4.222   9.736 -1.1321  1.0236 -0.5291
 3297SOL    HW221525   0.947   4.188   9.641 -0.6637 -1.2474  1.3306
 3298SOL     OW21526   4.537   3.319   1.765 -0.4175 -0.4521  0.4174
 3298SOL    HW121527   4.576   3.344   1.681  0.4617  1.4604  1.3727
 3298SOL    HW221528   4.543   3.225   1.751  2.4714 -0.2352  0.0780
 3299SOL     OW21529   1.899   1.635  11.370  0.6485 -0.4522 -0.6372
 3299SOL    HW121530   1.905   1.543  11.395  1.4585  0.1023  1.1997
 3299SOL    HW221531   1.839   1.666  11.438  0.1128 -1.6601 -0.5631
 3300SOL     OW21532   0.190   2.761   1.064 -0.1331  0.2622 -0.2438
 3300SOL    HW121533   0.249   2.710   1.008 -0.0322 -0.0006  0.1051
 3300SOL    HW221534   0.256   2.827   1.082 -1.1375  1.5814 -1.3712
 3301SOL     OW21535   3.168   4.244   3.834 -0.2787  0.1784  0.1139
 3301SOL    HW121536   3.183   4.257   3.928 -0.5796  0.6548  0.0922
 3301SOL    HW221537   3.255   4.217   3.804  0.0437 -0.7634  1.8952
 3302SOL     OW21538   2.684   4.484  10.721  0.4176 -0.0173  0.8417
 3302SOL    HW121539   2.701   4.390  10.722 -1.1800 -0.3046 -2.4217
 3302SOL    HW221540   2.769   4.518  10.691  0.7679 -1.1558  0.5346
 3303SOL     OW21541   2.623   4.696  13.046 -0.3494 -0.2375  0.3395
 3303SOL    HW121542   2.709   4.686  13.085  1.1905  2.0374 -2.5529
 3303SOL    HW221543   2.577   4.672  13.127 -0.2738 -0.2810  0.3691
 3304SOL     OW21544   3.510   1.284  12.951  0.3772 -0.2738  0.3582
 3304SOL    HW121545   3.426   1.318  12.982 -0.2879 -0.0535 -1.6784
 3304SOL    HW221546   3.506   1.199  12.994 -0.6094  0.1321  1.0665
 3305SOL     OW21547   2.996   2.496   4.638  0.7571 -0.2651  0.4391
 3305SOL    HW121548   3.064   2.563   4.637  0.5816 -0.1208 -1.0188
 3305SOL    HW221549   3.048   2.428   4.681  0.2383 -0.2335  1.1302
 3306SOL     OW21550   3.320   2.631  10.157  0.1074 -0.4381  0.0272
 3306SOL    HW121551   3.350   2.653  10.068 -0.0335 -0.1624  0.0492
 3306SOL    HW221552   3.231   2.598  10.147  0.7473 -1.7697 -1.2740
 3307SOL     OW21553   4.108   4.131   7.117  0.4968  0.1837  0.0857
 3307SOL    HW121554   4.044   4.065   7.142 -1.2353  1.2711 -1.4188
 3307SOL    HW221555   4.092   4.129   7.023  0.7189 -1.8372  0.1089
 3308SOL     OW21556   3.289   0.930   4.304 -0.3639  0.2551  0.3613
 3308SOL    HW121557   3.372   0.958   4.344  1.8089 -1.5453 -2.9803
 3308SOL    HW221558   3.242   1.013   4.294 -1.2441 -0.0174  2.0921
 3309SOL     OW21559   1.701   1.912   3.087 -0.9358  0.0884 -0.2357
 3309SOL    HW121560   1.615   1.872   3.075 -0.3434 -0.7895 -1.6461
 3309SOL    HW221561   1.705   1.933   3.180 -1.1977  0.4286 -0.3022
 3310SOL     OW21562   2.061   0.501  11.966 -0.7748  0.2769 -0.3339
 3310SOL    HW121563   2.155   0.515  11.950 -1.2068  1.7862 -1.5166
 3310SOL    HW221564   2.072   0.487  12.060 -0.4394 -2.2461 -0.7455
 3311SOL     OW21565   4.228   2.890   2.494  0.0355 -1.0237 -0.2360
 3311SOL    HW121566   4.289   2.863   2.562  0.2916  2.2712  0.8694
 3311SOL    HW221567   4.143   2.882   2.536  1.0398 -1.2585  1.7194
 3312SOL     OW21568   3.764   4.212  17.707  0.4184  0.1487 -0.4504
 3312SOL    HW121569   3.783   4.179  17.619 -0.6393  0.7684 -0.9104
 3312SOL    HW221570   3.691   4.153  17.729  2.1836 -1.5154  0.9411
 3313SOL     OW21571   4.329   2.947  17.480 -0.7459 -0.5357 -0.2766
 3313SOL    HW121572   4.319   2.867  17.428  2.4644 -0.7103 -0.6226
 3313SOL    HW221573   4.236   2.962  17.493 -0.1373  2.4633  0.6708
 3314SOL     OW21574   4.129   4.124   6.090 -0.2781  0.0073  0.5929
 3314SOL    HW121575   4.145   4.087   6.003  0.1238 -1.0171  1.1041
 3314SOL    HW221576   4.217   4.161   6.099 -0.3990 -0.0135  1.9505
 3315SOL     OW21577   0.413   4.104   7.999 -0.0582 -0.4058 -0.5958
 3315SOL    HW121578   0.486   4.130   7.942 -0.6850  1.0383 -0.7165
 3315SOL    HW221579   0.390   4.191   8.030 -2.5130 -0.7552 -1.5230
 3316SOL     OW21580   1.042   2.518  10.430 -0.0628 -0.3564  0.3971
 3316SOL    HW121581   1.054   2.554  10.342 -1.6547 -1.2088 -0.1706
 3316SOL    HW221582   0.979   2.448  10.411 -1.0409  0.1300  1.8314
 3317SOL     OW21583   2.671   4.242   9.164 -0.6426 -0.6529  0.1155
 3317SOL    HW121584   2.664   4.259   9.070 -0.4970  4.1914  1.0002
 3317SOL    HW221585   2.642   4.152   9.180 -2.7655 -0.2861 -1.6501
 3318SOL     OW21586   0.408   2.864   5.363  0.1564 -0.2422 -0.2849
 3318SOL    HW121587   0.358   2.789   5.396 -0.4616  0.2335 -0.1446
 3318SOL    HW221588   0.499   2.833   5.366  0.6254  1.0688 -0.9156
 3319SOL     OW21589   3.482   3.207   0.915 -0.3365 -0.2745  0.1628
 3319SOL    HW121590   3.491   3.255   0.997  2.6296 -0.3695 -0.1056
 3319SOL    HW221591   3.556   3.242   0.866  0.4964 -2.3434 -0.0967
 3320SOL     OW21592   1.601   3.274  16.457  0.3347 -0.4961  0.1240
 3320SOL    HW121593   1.574   3.186  16.481  1.5772 -0.0698  3.2011
 3320SOL    HW221594   1.690   3.261  16.490 -0.4649  1.0475  2.9195
 3321SOL     OW21595   0.088   3.641   0.600  0.4619  0.2096 -0.1174
 3321SOL    HW121596   0.118   3.714   0.545 -0.0331  0.5538  0.0681
 3321SOL    HW221597   0.018   3.603   0.547  0.2524  0.4736 -0.0318
 3322SOL     OW21598   3.603   3.910   1.752  0.1495  0.4578 -0.0142
 3322SOL    HW121599   3.540   3.924   1.682  1.6395  0.4148 -1.3685
 3322SOL    HW221600   3.686   3.892   1.708  1.2198  0.7667  1.8612
 3323SOL     OW21601   4.258   1.752  10.013  0.1571 -0.0591  0.1861
 3323SOL    HW121602   4.201   1.738   9.938 -0.6916  1.1452  0.6054
 3323SOL    HW221603   4.283   1.661  10.027 -1.6991 -0.4960  0.6709
 3324SOL     OW21604   1.737   3.093   5.442  0.2351 -0.1505 -0.0750
 3324SOL    HW121605   1.646   3.124   5.443  1.5738  3.7367 -0.5721
 3324SOL    HW221606   1.748   3.050   5.526 -1.0507  0.8658  0.6081
 3325SOL     OW21607   2.091   3.681   9.201 -0.4676 -0.0123  0.1268
 3325SOL    HW121608   2.033   3.692   9.126  1.1675  1.6751 -0.9041
 3325SOL    HW221609   2.137   3.603   9.170  0.5216 -0.1493  1.9423
 3326SOL     OW21610   1.517   2.841   5.567 -0.4400 -0.8776 -0.0874
 3326SOL    HW121611   1.444   2.781   5.587 -1.9774  0.4922 -1.5963
 3326SOL    HW221612   1.592   2.792   5.600 -0.5286 -1.4852 -0.7631
 3327SOL     OW21613   3.078   0.037   5.167 -0.1823 -0.2545 -0.1341
 3327SOL    HW121614   3.090   0.108   5.230  0.3880 -1.1004  0.6910
 3327SOL    HW221615   3.000   0.073   5.123  0.8909  0.8174 -1.1632
 3328SOL     OW21616   4.443   0.432  10.858 -0.3238  0.0296 -0.0606
 3328SOL    HW121617   4.430   0.346  10.819  0.7411 -0.9167  1.6574
 3328SOL    HW221618   4.365   0.445  10.912 -0.6281 -0.5994 -0.3535
 3329SOL     OW21619   1.741   2.536   5.026  0.0506  0.1445  0.2144
 3329SOL    HW121620   1.781   2.618   4.998  0.1274 -0.4854 -1.5139
 3329SOL    HW221621   1.664   2.530   4.970  0.2032  0.2276 -0.0012
 3330SOL     OW21622   0.434   3.718   4.937 -0.6957 -0.1830 -0.6163
 3330SOL    HW121623   0.529   3.725   4.935 -0.7277  0.2251 -0.6824
 3330SOL    HW221624   0.415   3.650   4.872 -0.8541 -0.7804  0.0486
 3331SOL     OW21625   1.770   1.222   2.092  0.3802  0.4393 -0.1675
 3331SOL    HW121626   1.770   1.318   2.094  0.2268  0.4398 -0.1707
 3331SOL    HW221627   1.723   1.200   2.173 -2.6174 -1.4205 -2.4111
 3332SOL     OW21628   2.525   2.278   8.688  0.2809 -0.2138 -0.0908
 3332SOL    HW121629   2.596   2.339   8.668 -0.7390  1.1888  0.6354
 3332SOL    HW221630   2.582   2.216   8.733 -1.1690 -0.8780  0.8284
 3333SOL     OW21631   2.683   1.910   5.822 -0.0537  0.3109  0.8748
 3333SOL    HW121632   2.746   1.843   5.848 -2.7646 -1.7830  2.1413
 3333SOL    HW221633   2.693   1.907   5.726 -0.7174 -0.0738  0.8133
 3334SOL     OW21634   2.305   1.891   4.384 -0.2311  0.1009  0.1753
 3334SOL    HW121635   2.298   1.840   4.464  2.9466  0.2726  0.5881
 3334SOL    HW221636   2.241   1.961   4.399 -0.9229 -0.8656  1.7566
 3335SOL     OW21637   0.363   3.187   5.619 -0.7465 -0.4019  0.1195
 3335SOL    HW121638   0.393   3.103   5.654  1.4791  0.3063 -0.0826
 3335SOL    HW221639   0.269   3.193   5.635 -0.8071 -0.3994 -0.2471
 3336SOL     OW21640   4.174   0.286  17.257 -0.1901  0.0643 -0.1933
 3336SOL    HW121641   4.211   0.304  17.170 -0.1159  1.4088  0.1202
 3336SOL    HW221642   4.182   0.374  17.295  1.0139  0.2828 -0.9511
 3337SOL     OW21643   2.390   1.220  15.952  0.1523  0.1611 -0.6874
 3337SOL    HW121644   2.408   1.305  15.993  0.7203 -1.4367  2.4173
 3337SOL    HW221645   2.480   1.209  15.921  0.0241 -3.4143  0.2906
 3338SOL     OW21646   3.344   1.742   2.472 -0.0227 -0.6570 -0.6173
 3338SOL    HW121647   3.249   1.749   2.478  0.2070  0.1813  2.1157
 3338SOL    HW221648   3.364   1.734   2.565  1.1399  1.6898 -0.6524
 3339SOL     OW21649   0.940   1.832   6.108 -0.3044  0.0572  0.4612
 3339SOL    HW121650   0.866   1.818   6.168  1.4801 -1.9651  2.2007
 3339SOL    HW221651   1.006   1.842   6.177  1.3176 -1.4481 -0.8721
 3340SOL     OW21652   2.423   0.549   6.828  1.1640  0.5165 -0.0707
 3340SOL    HW121653   2.491   0.615   6.813 -0.1762  1.7760 -0.5511
 3340SOL    HW221654   2.350   0.604   6.857  0.1936  0.1057 -1.7306
 3341SOL     OW21655   2.801   1.624   9.157 -0.1920  0.4813  0.0453
 3341SOL    HW121656   2.894   1.629   9.177 -0.4725 -0.9782  1.6568
 3341SOL    HW221657   2.786   1.564   9.229  0.8955  0.5028  0.2866
 3342SOL     OW21658   4.289   3.620   8.450  0.4133  0.3649  0.0789
 3342SOL    HW121659   4.264   3.582   8.535  0.7559  0.9404  0.4378
 3342SOL    HW221660   4.239   3.701   8.444 -0.6087 -0.1574  1.3494
 3343SOL     OW21661   1.137   2.120  11.945 -0.0628 -0.1342 -0.4380
 3343SOL    HW121662   1.169   2.114  12.035  1.6116 -2.7487 -1.2058
 3343SOL    HW221663   1.122   2.032  11.910  2.5203  0.1905 -2.3726
 3344SOL     OW21664   1.134   4.391   1.912  0.5324  0.0897  0.4779
 3344SOL    HW121665   1.133   4.485   1.930  2.7513  0.0645  0.8364
 3344SOL    HW221666   1.053   4.384   1.862  1.4257  1.0781 -1.1092
 3345SOL     OW21667   3.947   4.038   8.680 -0.1444  0.3507 -0.5094
 3345SOL    HW121668   4.042   4.027   8.670 -0.1776 -0.2189 -0.2147
 3345SOL    HW221669   3.922   3.946   8.682 -4.1547  1.4465 -0.1595
 3346SOL     OW21670   0.560   2.569   4.363  0.2133 -0.6220 -0.1936
 3346SOL    HW121671   0.560   2.607   4.274  1.1706  0.0492  0.0960
 3346SOL    HW221672   0.653   2.585   4.380 -0.3918  1.3062  1.2522
 3347SOL     OW21673   4.484   4.710   0.231  0.3478 -0.3732 -0.8744
 3347SOL    HW121674   4.480   4.704   0.135  0.0807 -0.1016 -0.8794
 3347SOL    HW221675   4.572   0.005   0.246 -0.1202 -0.2012  1.5269
 3348SOL     OW21676   0.798   1.670   9.055  0.0374  0.1840  0.1075
 3348SOL    HW121677   0.816   1.603   9.121  1.1725 -0.6879 -1.0802
 3348SOL    HW221678   0.795   1.753   9.102 -1.0304 -0.4605  1.1648
 3349SOL     OW21679   2.295   2.229   6.957 -0.3070  0.0945 -0.2007
 3349SOL    HW121680   2.265   2.143   6.929 -0.4400 -1.1272  3.7648
 3349SOL    HW221681   2.378   2.197   6.992 -1.0676 -0.9209  0.6722
 3350SOL     OW21682   2.517   0.554   9.485  0.5972  0.4530 -0.3316
 3350SOL    HW121683   2.434   0.527   9.447 -0.4731  2.9069  0.2511
 3350SOL    HW221684   2.483   0.540   9.573 -0.0778  3.3517 -0.1218
 3351SOL     OW21685   0.074   0.192  11.989 -0.1190 -0.0610  0.6368
 3351SOL    HW121686   0.141   0.232  12.043  0.3993  0.8385 -0.6711
 3351SOL    HW221687   0.121   0.196  11.906 -1.0449 -0.3012  0.0966
 3352SOL     OW21688   2.639   3.263   7.244  0.1135  0.1415 -0.2521
 3352SOL    HW121689   2.635   3.176   7.284 -0.6413 -0.3206 -1.3212
 3352SOL    HW221690   2.569   3.313   7.287 -0.9536 -0.8353 -0.8525
 3353SOL     OW21691   0.984   1.326  15.374 -0.1611 -0.9027 -0.1808
 3353SOL    HW121692   0.932   1.396  15.414  1.2299 -0.1307  0.2576
 3353SOL    HW221693   0.915   1.267  15.342 -0.4668 -1.2194  1.0859
 3354SOL     OW21694   0.702   1.540   0.353  0.3803  0.1804 -0.0069
 3354SOL    HW121695   0.617   1.528   0.311  0.9649 -2.2772 -0.4625
 3354SOL    HW221696   0.721   1.449   0.376 -1.4244 -0.4820 -1.1636
 3355SOL     OW21697   1.110   1.621   4.289  0.1468  0.3526  0.5367
 3355SOL    HW121698   1.117   1.544   4.233  1.3868 -0.0394  1.2178
 3355SOL    HW221699   1.018   1.641   4.271  0.0468 -0.9586 -0.3958
 3356SOL     OW21700   3.348   1.222   7.301  0.5347  0.6892  0.6582
 3356SOL    HW121701   3.305   1.252   7.381 -0.0823 -2.0365  1.3398
 3356SOL    HW221702   3.399   1.151   7.340  1.2478  0.5610 -0.5114
 3357SOL     OW21703   4.617   3.332   3.643  0.0298 -0.9009 -0.3981
 3357SOL    HW121704   4.550   3.272   3.611 -0.2805 -0.3863 -0.7278
 3357SOL    HW221705   4.682   3.331   3.573 -0.3048 -1.3602 -0.7018
 3358SOL     OW21706   3.433   0.059   8.610  0.0018 -0.4951  0.0335
 3358SOL    HW121707   3.520   0.071   8.572 -0.0644  1.0389  0.3607
 3358SOL    HW221708   3.449   0.054   8.704 -0.8519 -0.7505  0.1645
 3359SOL     OW21709   2.497   1.406   3.892  0.1793  0.1251  0.2046
 3359SOL    HW121710   2.438   1.464   3.939 -0.3810 -0.5381  0.3206
 3359SOL    HW221711   2.448   1.325   3.906  0.3600  0.1251  0.8415
 3360SOL     OW21712   3.449   3.232   6.201 -0.3231 -0.1181  0.0382
 3360SOL    HW121713   3.478   3.150   6.161 -0.6139  0.6318 -1.7196
 3360SOL    HW221714   3.367   3.238   6.152 -1.6084  0.1106  2.1956
 3361SOL     OW21715   0.876   2.697   7.863  1.1160 -0.4222  0.1785
 3361SOL    HW121716   0.796   2.736   7.900  0.6399 -1.2206 -0.0044
 3361SOL    HW221717   0.929   2.670   7.938  2.3674  0.3789 -0.4235
 3362SOL     OW21718   0.827   2.268   5.065 -0.6701 -0.7640 -0.1832
 3362SOL    HW121719   0.765   2.199   5.043  0.1456 -1.2551 -0.9148
 3362SOL    HW221720   0.848   2.245   5.156  0.6625  0.4649 -0.1617
 3363SOL     OW21721   2.008   3.981   7.444  0.1180  0.6145  0.5040
 3363SOL    HW121722   2.088   3.947   7.403  1.0951  0.0389  2.8729
 3363SOL    HW221723   2.037   4.011   7.530 -3.2037  2.8704  0.8249
 3364SOL     OW21724   2.181   2.500   7.648  0.0211  0.3230  0.0479
 3364SOL    HW121725   2.196   2.594   7.656 -2.6637  0.7375  0.1947
 3364SOL    HW221726   2.101   2.477   7.695  0.4078 -0.4269  0.3303
 3365SOL     OW21727   2.302   3.531   8.752 -0.1507 -0.1474  0.2048
 3365SOL    HW121728   2.294   3.602   8.815  0.8607  0.0125  0.1547
 3365SOL    HW221729   2.353   3.474   8.810 -0.4730 -0.6266  0.0180
 3366SOL     OW21730   4.700   3.528  13.211 -0.6046  0.5790  0.3716
 3366SOL    HW121731   4.718   3.439  13.241 -0.2181  0.6360  0.3040
 3366SOL    HW221732   4.725   3.530  13.118 -1.9496  0.3047  0.0056
 3367SOL     OW21733   3.553   4.713  16.743 -0.0278  0.8889 -0.6683
 3367SOL    HW121734   3.485   4.669  16.692  0.1222 -0.7605  0.5473
 3367SOL    HW221735   3.508   0.058  16.751  0.0621  0.8748 -0.0309
 3368SOL     OW21736   1.013   0.921  15.452 -0.6478 -0.6494 -0.0909
 3368SOL    HW121737   0.986   0.998  15.402 -1.0755 -0.6165  0.1891
 3368SOL    HW221738   1.105   0.945  15.467 -1.6342  4.2026 -1.7618
 3369SOL     OW21739   3.573   1.237   3.567  0.2333  0.2650  0.9789
 3369SOL    HW121740   3.502   1.247   3.630 -0.2538 -0.3738  0.5318
 3369SOL    HW221741   3.545   1.163   3.513 -0.1087  0.7841  0.4449
 3370SOL     OW21742   3.803   3.857   2.508  0.1799  0.1559  0.0627
 3370SOL    HW121743   3.893   3.845   2.540 -0.6583 -2.6420  1.3573
 3370SOL    HW221744   3.797   3.775   2.459  0.2368  0.6200 -0.7135
 3371SOL     OW21745   0.866   3.245   0.204 -0.7549  0.3690 -0.1112
 3371SOL    HW121746   0.941   3.253   0.263 -1.7201  1.1898  1.0196
 3371SOL    HW221747   0.806   3.312   0.238 -0.2839  1.1264 -0.7683
 3372SOL     OW21748   3.695   4.738   3.124  0.5656  0.7058  0.1450
 3372SOL    HW121749   3.657   4.729   3.037  1.1506  1.2638 -0.1651
 3372SOL    HW221750   3.736   4.652   3.136 -0.1068  0.2228 -1.0556
 3373SOL     OW21751   0.943   3.655  11.225 -0.3765 -0.0661  0.1528
 3373SOL    HW121752   0.938   3.701  11.309  1.8540  1.4555 -0.5598
 3373SOL    HW221753   0.858   3.686  11.196  0.1150  1.5913  0.4708
 3374SOL     OW21754   0.654   3.290   1.549 -0.5311 -0.2635  0.4507
 3374SOL    HW121755   0.578   3.234   1.531 -0.7029  0.4366 -1.0047
 3374SOL    HW221756   0.717   3.263   1.482 -1.5354 -2.0107  0.1838
 3375SOL     OW21757   3.918   3.934   3.767 -0.0091 -0.3213 -0.0031
 3375SOL    HW121758   3.932   3.969   3.855  1.2442 -1.4291  0.2343
 3375SOL    HW221759   4.007   3.912   3.738  0.3301  2.1765 -0.9060
 3376SOL     OW21760   3.184   2.031   5.326  0.1735  0.6868 -0.4928
 3376SOL    HW121761   3.090   2.041   5.316 -0.2722 -2.0690  1.0920
 3376SOL    HW221762   3.193   1.941   5.358  0.8811  1.4253  1.4506
 3377SOL     OW21763   2.871   2.211   1.127  0.6319 -0.7369  0.0040
 3377SOL    HW121764   2.907   2.280   1.182 -2.1332  1.2430 -0.6864
 3377SOL    HW221765   2.837   2.265   1.056 -3.8446 -1.1179  1.8595
 3378SOL     OW21766   3.272   0.431   4.116 -0.1907  0.2686 -0.2569
 3378SOL    HW121767   3.221   0.490   4.060 -0.8696 -2.3051 -2.3557
 3378SOL    HW221768   3.314   0.492   4.177 -0.8212 -0.3835  0.8302
 3379SOL     OW21769   2.868   1.747  13.355  0.0976 -0.9597  0.7648
 3379SOL    HW121770   2.799   1.760  13.290 -1.2259  1.8945  2.7634
 3379SOL    HW221771   2.878   1.652  13.345 -0.2932 -0.9144 -0.0070
 3380SOL     OW21772   1.804   2.633   2.477  0.0586  0.2231  0.1711
 3380SOL    HW121773   1.889   2.590   2.478  0.6868  1.3685 -2.6809
 3380SOL    HW221774   1.799   2.652   2.383  0.6994  0.8995  0.2742
 3381SOL     OW21775   3.438   3.429  11.884 -0.2359  0.4904 -0.0371
 3381SOL    HW121776   3.506   3.393  11.826  0.4670  0.8968  0.5344
 3381SOL    HW221777   3.495   3.457  11.956 -1.1005  0.2402  0.7387
 3382SOL     OW21778   0.498   2.881   4.524 -0.0301 -0.1762  0.1180
 3382SOL    HW121779   0.466   2.791   4.534  0.2560 -0.3229 -0.2884
 3382SOL    HW221780   0.417   2.931   4.512  0.4965  0.6201 -0.0961
 3383SOL     OW21781   2.100   0.956   7.673  0.1971 -0.1535 -0.1562
 3383SOL    HW121782   2.178   0.976   7.622  2.3442 -3.8152  1.6694
 3383SOL    HW221783   2.129   0.964   7.764  3.0839  0.1957 -1.1327
 3384SOL     OW21784   1.201   1.045   3.053  0.4186  0.4430 -0.2403
 3384SOL    HW121785   1.145   0.973   3.026  2.9637 -0.3162 -3.4822
 3384SOL    HW221786   1.155   1.122   3.019  2.0893  2.7191  2.6307
 3385SOL     OW21787   0.567   4.527   8.168  0.0026  0.6452 -0.0282
 3385SOL    HW121788   0.544   4.619   8.180 -2.4642 -0.0803  0.6761
 3385SOL    HW221789   0.656   4.537   8.203  0.7920  1.7292 -2.3800
 3386SOL     OW21790   3.248   2.372   6.005  0.0184 -0.1329  0.2930
 3386SOL    HW121791   3.331   2.324   5.998 -0.1245 -0.0767 -1.6855
 3386SOL    HW221792   3.228   2.373   5.911 -1.6487 -2.0710  0.6178
 3387SOL     OW21793   2.403   3.975   8.347  0.0206 -0.6816  0.3735
 3387SOL    HW121794   2.382   3.955   8.439 -0.7282  0.9361  0.5594
 3387SOL    HW221795   2.492   3.999   8.370 -0.0655  1.3679 -1.4046
 3388SOL     OW21796   1.059   1.969   9.059 -0.4013  0.3793  0.0186
 3388SOL    HW121797   1.028   2.034   8.997  0.7808 -1.2207 -2.2341
 3388SOL    HW221798   1.150   1.973   9.032  0.3826 -2.9499  2.1138
 3389SOL     OW21799   4.663   0.079  13.305 -0.6777 -0.2364  0.0941
 3389SOL    HW121800   4.729   0.102  13.370  0.0902 -0.2497 -0.6763
 3389SOL    HW221801   4.615   0.159  13.327  0.8878  0.4065  1.1295
 3390SOL     OW21802   3.511   1.614  10.485  0.3912 -0.2417  0.2749
 3390SOL    HW121803   3.568   1.538  10.500 -0.9993 -1.3121  0.2253
 3390SOL    HW221804   3.550   1.663  10.413  0.2400 -0.9033 -0.2635
 3391SOL     OW21805   0.957   3.137   3.715 -0.8418 -0.6461 -0.0366
 3391SOL    HW121806   1.005   3.122   3.633 -0.3885  1.9545 -0.2475
 3391SOL    HW221807   1.028   3.109   3.773 -1.5080  1.2771  1.7311
 3392SOL     OW21808   3.191   0.452   2.129  0.1474 -0.1745 -0.4134
 3392SOL    HW121809   3.152   0.402   2.058  0.6613  0.3336 -1.0543
 3392SOL    HW221810   3.284   0.444   2.107  0.3723  0.3539  0.3301
 3393SOL     OW21811   3.541   1.840  13.835  0.0342  0.0694 -0.6898
 3393SOL    HW121812   3.532   1.772  13.768  0.6470 -0.4094 -0.2892
 3393SOL    HW221813   3.564   1.796  13.916 -1.1250 -0.3708 -0.6078
 3394SOL     OW21814   2.218   0.190   8.384  0.2750 -0.1233 -0.0428
 3394SOL    HW121815   2.289   0.130   8.406  0.0444 -0.7471 -1.0178
 3394SOL    HW221816   2.261   0.272   8.358 -0.8522 -0.5592 -3.2778
 3395SOL     OW21817   3.232   0.980  11.150  0.0124  0.1459 -0.2391
 3395SOL    HW121818   3.300   1.008  11.211  1.2409 -3.1075 -0.0989
 3395SOL    HW221819   3.163   0.961  11.215 -2.2683  1.2769 -2.3338
 3396SOL     OW21820   2.048   0.462   7.006  0.2361  0.4866  0.2175
 3396SOL    HW121821   2.061   0.508   7.089 -1.5660  2.0325 -0.3728
 3396SOL    HW221822   2.107   0.390   7.030 -0.0637  0.2352  0.2012
 3397SOL     OW21823   1.401   2.046  16.511  0.1319 -0.1277  0.0127
 3397SOL    HW121824   1.404   1.963  16.559  1.0995 -0.7183 -1.0821
 3397SOL    HW221825   1.495   2.065  16.509  0.2737 -0.6197  1.9192
 3398SOL     OW21826   0.054   0.798   3.335  0.1727 -0.1935  0.1014
 3398SOL    HW121827   4.701   0.810   3.359 -0.1854  0.9456 -1.8287
 3398SOL    HW221828   0.087   0.756   3.415 -1.8612  0.8144  1.4564
 3399SOL     OW21829   1.490   1.032  10.171 -0.2033  0.5698  0.2874
 3399SOL    HW121830   1.574   1.006  10.210  0.1961  0.9234 -0.3335
 3399SOL    HW221831   1.479   0.952  10.119 -2.0018  1.0861 -0.1131
 3400SOL     OW21832   3.633   2.772   7.265  0.6612  0.3767  0.4250
 3400SOL    HW121833   3.549   2.775   7.219  0.1931 -0.0560  1.2548
 3400SOL    HW221834   3.631   2.684   7.302 -0.0385 -0.2803 -1.1695
 3401SOL     OW21835   0.836   3.216   7.472 -0.2458 -0.3724  0.4800
 3401SOL    HW121836   0.787   3.260   7.541 -0.5599 -0.1720  0.1334
 3401SOL    HW221837   0.854   3.295   7.420 -0.5173 -1.2342 -0.9368
 3402SOL     OW21838   0.479   2.563   3.269 -0.0627 -0.4510  0.5964
 3402SOL    HW121839   0.489   2.584   3.176 -0.4727 -0.6540  0.5027
 3402SOL    HW221840   0.455   2.470   3.265 -1.9287 -0.0230  2.1106
 3403SOL     OW21841   3.685   3.894   8.332 -0.0560 -0.1736  0.2367
 3403SOL    HW121842   3.619   3.908   8.264  1.0103  1.0127 -0.5497
 3403SOL    HW221843   3.632   3.897   8.412  0.8400  1.1838  0.7766
 3404SOL     OW21844   2.834   1.241  10.070  0.3032 -0.5860  0.2209
 3404SOL    HW121845   2.902   1.296  10.032 -0.3503  0.2971  0.3237
 3404SOL    HW221846   2.815   1.284  10.153  0.0793  1.1200 -0.7009
 3405SOL     OW21847   0.495   2.792   7.397 -0.0511 -0.5576 -0.2274
 3405SOL    HW121848   0.558   2.826   7.460 -0.2463 -0.5136 -0.0546
 3405SOL    HW221849   0.540   2.722   7.350  0.5064 -2.7433  3.5225
 3406SOL     OW21850   4.577   3.830   6.800  0.4161 -0.1813 -0.2149
 3406SOL    HW121851   4.532   3.830   6.885  1.4963  1.9423  0.3379
 3406SOL    HW221852   4.607   3.920   6.789 -0.9350  0.5913  2.3810
 3407SOL     OW21853   4.044   1.397  16.098 -0.4675  0.3341  0.1516
 3407SOL    HW121854   4.005   1.312  16.080 -2.0439  0.5321  2.6622
 3407SOL    HW221855   4.135   1.368  16.092  0.2778  2.6236  0.2531
 3408SOL     OW21856   1.853   3.369   2.205  0.5526 -0.5451  0.2257
 3408SOL    HW121857   1.940   3.368   2.245  2.1110  1.9994 -3.1795
 3408SOL    HW221858   1.832   3.462   2.213 -0.7537 -0.6675 -1.9214
 3409SOL     OW21859   3.929   2.974   2.135  0.0385  0.3178 -0.7100
 3409SOL    HW121860   3.942   2.885   2.103 -1.1543  0.0255 -0.3630
 3409SOL    HW221861   3.943   3.024   2.054 -3.2660 -2.2773 -2.8968
 3410SOL     OW21862   4.498   3.133  10.243  0.9175 -0.7732 -0.3908
 3410SOL    HW121863   4.506   3.154  10.335  0.7507  0.6915 -0.7157
 3410SOL    HW221864   4.431   3.200  10.229 -0.0907 -1.9131 -1.0692
 3411SOL     OW21865   4.082   4.521   4.644  0.1627  0.0165 -0.5936
 3411SOL    HW121866   3.986   4.523   4.643  0.1478  0.2932  0.5533
 3411SOL    HW221867   4.099   4.574   4.722  1.0172 -0.6860 -0.3007
 3412SOL     OW21868   3.131   3.186   2.511 -0.1781 -0.0535 -0.0762
 3412SOL    HW121869   3.106   3.278   2.501 -3.7362 -0.7019  2.6032
 3412SOL    HW221870   3.219   3.188   2.475 -0.0423  0.5095  0.2934
 3413SOL     OW21871   1.126   3.629   4.082 -0.0307 -0.2417  0.0301
 3413SOL    HW121872   1.191   3.587   4.027  0.6499  1.4691 -0.4764
 3413SOL    HW221873   1.047   3.588   4.047  0.5166 -0.6018 -0.7758
 3414SOL     OW21874   3.611   3.076   2.860  0.5204 -0.2036  0.2242
 3414SOL    HW121875   3.583   2.985   2.866 -1.4860  0.2209 -2.7184
 3414SOL    HW221876   3.589   3.089   2.768  0.7922 -0.9674  0.0584
 3415SOL     OW21877   1.601   3.619   3.917  0.4481  0.2196 -0.3504
 3415SOL    HW121878   1.681   3.670   3.904  1.1187 -0.6292  0.3775
 3415SOL    HW221879   1.573   3.618   3.826 -0.7747 -1.2147  0.0302
 3416SOL     OW21880   0.683   3.226   5.123 -0.5291  0.1105 -0.3558
 3416SOL    HW121881   0.625   3.275   5.182  0.7025  0.9053  0.1913
 3416SOL    HW221882   0.639   3.142   5.110 -0.6006 -0.2918  2.5935
 3417SOL     OW21883   1.740   4.134   4.678  0.0130 -0.4581 -0.6272
 3417SOL    HW121884   1.826   4.176   4.682  0.2941 -0.9728 -1.1587
 3417SOL    HW221885   1.693   4.184   4.744 -0.5197  0.5442 -1.7720
 3418SOL     OW21886   1.686   2.299   1.443 -0.3789  0.2196 -0.1876
 3418SOL    HW121887   1.594   2.294   1.420  0.1423 -1.6659 -1.8621
 3418SOL    HW221888   1.694   2.352   1.522 -0.4664  0.2113 -0.1736
 3419SOL     OW21889   3.713   2.865  10.784  0.0384  0.0676  0.3081
 3419SOL    HW121890   3.641   2.829  10.732  0.7868 -1.6857  0.4623
 3419SOL    HW221891   3.689   2.958  10.784 -0.5983 -0.0736 -2.9390
 3420SOL     OW21892   2.048   0.195   2.371 -0.7025 -0.1244  0.3087
 3420SOL    HW121893   1.968   0.248   2.366 -1.3641 -1.1330  0.2323
 3420SOL    HW221894   2.012   0.109   2.350 -2.4270  0.1534  2.1004
 3421SOL     OW21895   1.600   1.209   3.848 -0.7611  0.1780  0.1854
 3421SOL    HW121896   1.600   1.283   3.909  0.7919 -0.0187  0.4228
 3421SOL    HW221897   1.578   1.243   3.761 -1.2492  0.9494  0.6172
 3422SOL     OW21898   2.010   3.887   9.442  0.2646 -0.6068  0.1076
 3422SOL    HW121899   2.092   3.871   9.396  0.9736  0.1644  1.1103
 3422SOL    HW221900   1.982   3.796   9.448 -0.3631 -0.3783  0.7878
 3423SOL     OW21901   4.515   2.934  12.817  0.1822  0.3542  0.1055
 3423SOL    HW121902   4.434   2.920  12.866  0.2268  2.8330  0.9089
 3423SOL    HW221903   4.524   2.853  12.767 -0.8782  0.0142  0.4543
 3424SOL     OW21904   0.380   4.489  15.064 -0.2061 -0.4006 -0.2611
 3424SOL    HW121905   0.311   4.423  15.056  1.5739 -2.0784 -1.5769
 3424SOL    HW221906   0.447   4.448  15.119 -0.7097 -0.4060  0.3493
 3425SOL     OW21907   3.121   0.467   6.225  0.2662 -0.2725  0.3338
 3425SOL    HW121908   3.204   0.512   6.211 -0.4297  1.3150  1.3376
 3425SOL    HW221909   3.127   0.414   6.145 -0.0216  0.0707  0.0818
 3426SOL     OW21910   4.081   1.201   5.995  0.1927 -0.0811  0.4638
 3426SOL    HW121911   4.097   1.111   6.023 -0.4620 -0.1235  0.6878
 3426SOL    HW221912   4.169   1.236   5.979  1.9988 -3.6536  2.4800
 3427SOL     OW21913   3.188   0.190  10.754  0.5700 -0.1309  0.5908
 3427SOL    HW121914   3.181   0.103  10.715 -2.6938  0.8428 -0.9702
 3427SOL    HW221915   3.159   0.243  10.680  1.9921  0.8379  0.7139
 3428SOL     OW21916   3.757   1.922   9.184  0.0366  0.1663  0.3843
 3428SOL    HW121917   3.815   1.934   9.259 -0.4641 -1.1915  0.9865
 3428SOL    HW221918   3.679   1.882   9.223  1.0880 -4.1932 -2.0229
 3429SOL     OW21919   4.286   4.418   5.046  0.8363  0.0639 -0.2159
 3429SOL    HW121920   4.351   4.357   5.012  0.5449  1.2894 -2.9493
 3429SOL    HW221921   4.211   4.363   5.023 -0.8917  2.4593 -0.3482
 3430SOL     OW21922   3.953   0.938   8.801 -0.2092 -0.2362  0.5817
 3430SOL    HW121923   3.860   0.923   8.821 -0.6629  2.1906  0.2465
 3430SOL    HW221924   3.950   1.030   8.777  0.3064 -0.2129  0.6116
 3431SOL     OW21925   1.264   2.156   4.409 -0.3843 -0.3935 -0.0465
 3431SOL    HW121926   1.217   2.177   4.329 -2.5432 -2.7394  0.5965
 3431SOL    HW221927   1.229   2.067   4.420 -0.3104 -0.4463 -0.2495
 3432SOL     OW21928   1.833   2.984   7.695 -0.3035  0.5014  0.4989
 3432SOL    HW121929   1.801   3.005   7.607 -0.4940  0.7319  0.6255
 3432SOL    HW221930   1.772   3.033   7.750 -0.2120  0.4371  0.6565
 3433SOL     OW21931   3.356   4.390   5.470 -0.3793  0.1623  0.0406
 3433SOL    HW121932   3.378   4.325   5.402 -0.2912 -1.3993  1.5703
 3433SOL    HW221933   3.327   4.338   5.545 -0.1374  1.0026  0.7122
 3434SOL     OW21934   1.573   4.499   5.136  0.5729 -0.2975 -0.3913
 3434SOL    HW121935   1.640   4.470   5.198 -0.4067 -1.1858  0.2333
 3434SOL    HW221936   1.504   4.433   5.135  0.8027 -0.5243 -5.5368
 3435SOL     OW21937   2.947   0.680   8.855 -0.1037  0.0034 -0.1312
 3435SOL    HW121938   2.903   0.763   8.838 -1.7364 -0.9582 -0.6485
 3435SOL    HW221939   3.037   0.711   8.863  0.7684 -2.7307  0.7254
 3436SOL     OW21940   2.883   0.989  10.151  0.5181 -0.0512 -0.0976
 3436SOL    HW121941   2.847   1.071  10.119 -3.0481 -0.9338  1.5568
 3436SOL    HW221942   2.799   0.943  10.157  1.9736 -2.6041  0.9195
 3437SOL     OW21943   4.707   4.638  13.880  0.0147  0.3172  0.6681
 3437SOL    HW121944   4.725   4.651  13.787  1.7552  1.9209  1.2476
 3437SOL    HW221945   0.019   4.559  13.902 -0.3483  0.6113  2.6224
 3438SOL     OW21946   4.241   3.624   4.326  0.8783 -0.4353  0.5550
 3438SOL    HW121947   4.334   3.639   4.338  0.2827  1.2666  2.9511
 3438SOL    HW221948   4.198   3.703   4.357 -1.6123 -1.1018 -1.1511
 3439SOL     OW21949   2.974   2.600   4.938 -0.2660  0.1674  0.0092
 3439SOL    HW121950   3.033   2.525   4.927 -1.1030 -0.2574 -1.5003
 3439SOL    HW221951   2.948   2.594   4.846 -0.8743  1.4248  0.1080
 3440SOL     OW21952   1.660   0.250  11.418 -0.2310  0.4858  0.3594
 3440SOL    HW121953   1.733   0.212  11.467 -1.5070 -1.4719  0.7390
 3440SOL    HW221954   1.706   0.293  11.346  0.1045  0.2835  0.4537
 3441SOL     OW21955   1.357   2.696  16.047  0.0686 -0.1020  0.5604
 3441SOL    HW121956   1.452   2.703  16.055  0.3314 -2.6844 -0.3100
 3441SOL    HW221957   1.344   2.788  16.072 -1.1116  0.5572 -2.4023
 3442SOL     OW21958   0.747   2.717  11.640  0.5938  0.2977  0.0924
 3442SOL    HW121959   0.748   2.760  11.554 -1.3118 -3.5259 -1.8402
 3442SOL    HW221960   0.812   2.777  11.677 -0.9406  1.3820  1.0280
 3443SOL     OW21961   1.268   2.402   8.362  0.2439  0.3754  0.0301
 3443SOL    HW121962   1.263   2.442   8.275 -2.2046  0.9860  0.4657
 3443SOL    HW221963   1.239   2.314   8.338  2.9710 -0.4475 -0.2848
 3444SOL     OW21964   2.322   3.492   6.693  0.2703  0.0572 -0.0442
 3444SOL    HW121965   2.237   3.505   6.652 -0.3688  0.3148  1.3951
 3444SOL    HW221966   2.307   3.428   6.762  0.8307 -1.0653 -0.9580
 3445SOL     OW21967   1.131   2.971  16.336  0.0932  0.2183 -0.1157
 3445SOL    HW121968   1.212   2.971  16.387 -1.2797 -0.1823  2.0672
 3445SOL    HW221969   1.065   3.004  16.397 -0.6849 -3.5217  1.0850
 3446SOL     OW21970   3.858   2.562  15.007 -0.3468 -0.1281 -0.3292
 3446SOL    HW121971   3.910   2.543  14.929 -1.4297 -2.8134 -0.4034
 3446SOL    HW221972   3.853   2.479  15.056  1.2505  0.3377  0.6119
 3447SOL     OW21973   1.427   4.566   5.870 -0.0891 -0.0951 -0.0871
 3447SOL    HW121974   1.441   4.660   5.880 -2.8539  0.3858 -0.7040
 3447SOL    HW221975   1.408   4.563   5.776  0.2517 -1.4868 -0.1051
 3448SOL     OW21976   4.329   2.007   6.264  0.2216 -0.0970  0.5286
 3448SOL    HW121977   4.259   1.958   6.308 -0.7336 -0.1607 -1.0545
 3448SOL    HW221978   4.319   2.089   6.313 -1.6973 -0.2167  0.3320
 3449SOL     OW21979   2.399   3.061  13.998 -0.4420  0.3915  0.6712
 3449SOL    HW121980   2.481   3.095  13.961 -0.2695  0.0404  0.7215
 3449SOL    HW221981   2.380   3.142  14.045  0.0598  1.0861 -0.3316
 3450SOL     OW21982   3.261   2.825   3.111  0.6698 -0.3192  0.2589
 3450SOL    HW121983   3.216   2.903   3.143  0.1175 -0.8122  0.7077
 3450SOL    HW221984   3.296   2.785   3.190  0.0106 -0.7953  0.3125
 3451SOL     OW21985   2.687   2.555   9.577 -0.6680  0.2270 -0.0429
 3451SOL    HW121986   2.747   2.553   9.652  0.1974 -2.2551 -0.7969
 3451SOL    HW221987   2.621   2.612   9.617 -0.6226  2.1172 -2.6507
 3452SOL     OW21988   4.699   2.860  10.899  0.1065 -0.1482  0.0597
 3452SOL    HW121989   4.604   2.875  10.892  0.2315  0.3908 -0.4748
 3452SOL    HW221990   4.726   2.892  10.985  1.7139 -1.6926  0.1321
 3453SOL     OW21991   3.705   1.440   9.241  0.0864 -0.1442 -0.3082
 3453SOL    HW121992   3.775   1.503   9.228  0.4685 -0.8334 -1.6373
 3453SOL    HW221993   3.632   1.487   9.200 -0.9202 -1.0244  0.4735
 3454SOL     OW21994   3.547   4.451  16.888 -0.2512 -0.2942  0.2331
 3454SOL    HW121995   3.523   4.535  16.849 -2.5028 -1.2719 -0.4613
 3454SOL    HW221996   3.622   4.473  16.944  0.0903 -0.6498 -0.0898
 3455SOL     OW21997   1.074   3.064   7.471 -0.1897  0.4703  0.6362
 3455SOL    HW121998   0.987   3.102   7.463  0.0388  0.2600 -2.7522
 3455SOL    HW221999   1.089   3.077   7.565  1.7799 -1.0729  0.5323
 3456SOL     OW22000   1.997   1.539   9.126  0.2778 -0.8038  0.2016
 3456SOL    HW122001   1.936   1.537   9.200 -0.7763  2.5781 -0.5823
 3456SOL    HW222002   2.001   1.632   9.105  0.4494 -1.0329 -0.7742
 3457SOL     OW22003   3.090   4.236   7.403 -0.0104 -0.2986 -0.2981
 3457SOL    HW122004   3.113   4.249   7.495 -0.9257  0.1897 -0.1410
 3457SOL    HW222005   3.170   4.204   7.360  0.1064  2.7631 -2.4011
 3458SOL     OW22006   0.348   4.128   6.750  0.2556 -0.2419 -0.0349
 3458SOL    HW122007   0.424   4.073   6.734 -0.8002 -1.7946  0.3859
 3458SOL    HW222008   0.300   4.070   6.809 -0.3122  0.0210 -0.2376
 3459SOL     OW22009   3.133   2.962   9.945  0.0259  0.3446 -0.2968
 3459SOL    HW122010   3.074   2.924   9.880 -2.3530 -0.1113  2.1077
 3459SOL    HW222011   3.073   2.987  10.016 -1.2812  0.8084 -1.5838
 3460SOL     OW22012   0.264   2.472  17.546 -0.1523  0.5607  0.1498
 3460SOL    HW122013   0.346   2.495  17.501  0.5956 -0.4029  1.0286
 3460SOL    HW222014   0.212   2.543  17.508 -1.4181  0.1525  1.1510
 3461SOL     OW22015   3.280   1.368  10.547 -0.0721  0.0745 -0.1871
 3461SOL    HW122016   3.251   1.285  10.585 -1.0627  0.5176  0.0417
 3461SOL    HW222017   3.324   1.336  10.469  0.0304  1.5075 -0.7196
 3462SOL     OW22018   2.852   1.207   2.574  0.2681  0.0831  0.7455
 3462SOL    HW122019   2.819   1.200   2.663  0.7950  0.8221  0.9887
 3462SOL    HW222020   2.767   1.225   2.534  0.3654  0.4125  0.6872
 3463SOL     OW22021   2.271   2.472  10.309 -0.0009 -0.3041 -0.0065
 3463SOL    HW122022   2.293   2.540  10.373  3.5875 -1.3945 -0.0825
 3463SOL    HW222023   2.315   2.398  10.351 -0.6564  0.5721  2.2127
 3464SOL     OW22024   0.074   2.061   1.505 -0.0225 -0.4251 -0.4320
 3464SOL    HW122025   0.024   2.007   1.566 -0.9583  1.3085  0.3453
 3464SOL    HW222026   0.120   2.122   1.563 -1.0496  1.8420 -2.0142
 3465SOL     OW22027   2.779   0.292   8.344 -0.1457 -0.1613  0.1375
 3465SOL    HW122028   2.836   0.275   8.419  0.1799  0.8232  0.1068
 3465SOL    HW222029   2.844   0.327   8.282  0.7961 -1.7176  0.2364
 3466SOL     OW22030   0.092   4.386   2.991 -0.6033  0.0320  0.3077
 3466SOL    HW122031   0.129   4.409   3.077  1.0591 -1.1693 -0.0684
 3466SOL    HW222032   0.007   4.429   2.994 -0.8731 -0.4084 -0.8477
 3467SOL     OW22033   4.624   3.553   0.429 -0.0664  0.0215  0.0821
 3467SOL    HW122034   4.605   3.646   0.413 -0.6187  0.1832  1.7078
 3467SOL    HW222035   4.541   3.519   0.398 -1.3841  1.8663  1.5589
 3468SOL     OW22036   1.107   3.633   4.828 -0.3697 -0.6354  0.5476
 3468SOL    HW122037   1.097   3.718   4.784  2.7887  1.5943  4.0865
 3468SOL    HW222038   1.020   3.594   4.817 -0.0458 -0.7847 -1.4965
 3469SOL     OW22039   3.916   3.636   6.884  0.2599 -0.2817  0.1362
 3469SOL    HW122040   3.966   3.578   6.941 -1.5055 -0.7496  1.2223
 3469SOL    HW222041   3.912   3.583   6.805  1.8112 -0.3156  0.0785
 3470SOL     OW22042   1.566   2.889   7.513 -0.1303 -0.1493  0.2684
 3470SOL    HW122043   1.520   2.879   7.597  0.0859 -1.0667  0.2764
 3470SOL    HW222044   1.555   2.798   7.484  0.3116 -0.9221  2.5039
 3471SOL     OW22045   0.877   2.234   1.061 -0.4158  0.4466 -1.0950
 3471SOL    HW122046   0.828   2.302   1.014  1.7569  2.0830 -0.9636
 3471SOL    HW222047   0.887   2.163   0.997 -2.1399 -1.3645  0.6468
 3472SOL     OW22048   1.452   2.698  12.209 -0.4414 -0.1021  0.4088
 3472SOL    HW122049   1.518   2.630  12.221 -1.1333 -0.8838 -0.1229
 3472SOL    HW222050   1.450   2.728  12.118 -0.0233 -1.4608 -0.0419
 3473SOL     OW22051   2.785   2.945   6.077  0.1528  0.4183 -0.3369
 3473SOL    HW122052   2.739   2.871   6.117 -0.1428  0.7295 -0.1126
 3473SOL    HW222053   2.867   2.898   6.062 -0.8302 -1.1803 -0.7185
 3474SOL     OW22054   2.964   4.674   8.642 -0.4174 -0.3429 -0.0084
 3474SOL    HW122055   3.056   4.668   8.617 -1.3684 -0.2517 -3.4166
 3474SOL    HW222056   2.974   4.684   8.737  0.9112 -1.7825  0.0060
 3475SOL     OW22057   2.071   3.796   3.044 -0.1073  0.1341  0.3260
 3475SOL    HW122058   2.120   3.863   2.997 -0.7306  0.5234  0.2300
 3475SOL    HW222059   2.144   3.748   3.084  0.0493 -1.2423 -1.5931
 3476SOL     OW22060   3.309   4.376   2.385  0.4557 -0.0983 -0.5816
 3476SOL    HW122061   3.291   4.294   2.340 -0.4986 -0.3885  0.3345
 3476SOL    HW222062   3.263   4.366   2.468  0.9731  0.2544 -0.2472
 3477SOL     OW22063   4.700   0.735   8.013 -0.0284  0.6252  0.6124
 3477SOL    HW122064   0.030   0.770   8.071 -1.5285  2.2466  1.3916
 3477SOL    HW222065   4.635   0.768   8.075 -0.1921  1.1783  0.1434
 3478SOL     OW22066   2.632   2.223   3.008  0.0408  0.5580 -0.4467
 3478SOL    HW122067   2.612   2.144   2.959 -2.3965  0.8421  0.1136
 3478SOL    HW222068   2.549   2.267   2.992 -0.5203 -0.5325 -0.4637
 3479SOL     OW22069   0.297   2.806   2.046 -0.6240  0.0868 -0.2794
 3479SOL    HW122070   0.372   2.748   2.031 -0.6507  0.1680 -0.7121
 3479SOL    HW222071   0.229   2.750   2.085  1.2375 -1.8327  0.2316
 3480SOL     OW22072   3.885   1.853   8.061 -0.3383  0.4316 -0.3213
 3480SOL    HW122073   3.856   1.763   8.074 -2.0668  0.8292 -1.5307
 3480SOL    HW222074   3.969   1.831   8.021 -0.2345  0.1309  0.0572
 3481SOL     OW22075   2.240   4.406   9.379  0.3929  0.1424 -0.5512
 3481SOL    HW122076   2.204   4.486   9.341 -2.1202 -1.3143 -1.2339
 3481SOL    HW222077   2.327   4.406   9.339  1.4771  0.7280  1.8415
 3482SOL     OW22078   0.262   3.779  10.186  0.1562  0.1059 -0.4657
 3482SOL    HW122079   0.178   3.799  10.226 -0.0139 -0.8673 -0.3245
 3482SOL    HW222080   0.308   3.858  10.214  0.6876 -0.3087 -0.1520
 3483SOL     OW22081   1.205   1.228  11.207 -0.3732  0.0647  0.5803
 3483SOL    HW122082   1.233   1.308  11.252  2.3673  0.2045 -1.3654
 3483SOL    HW222083   1.171   1.173  11.278 -0.8532  0.5710  0.7372
 3484SOL     OW22084   1.936   3.916   5.076 -0.1041  0.4991 -0.0353
 3484SOL    HW122085   1.866   3.851   5.081  0.0935  0.3762  1.4069
 3484SOL    HW222086   1.896   3.996   5.108 -0.5324 -0.2476  1.3044
 3485SOL     OW22087   0.014   0.770   6.476 -0.4520  0.2652 -0.7386
 3485SOL    HW122088   4.667   0.735   6.451 -1.0227  2.5021 -1.9281
 3485SOL    HW222089   0.051   0.809   6.397  0.1759  1.4347  0.1235
 3486SOL     OW22090   3.383   0.866   4.061  0.4514 -0.3017  0.0298
 3486SOL    HW122091   3.394   0.961   4.057 -0.4603 -0.1667  0.8792
 3486SOL    HW222092   3.312   0.854   4.124  0.0389  2.0880  0.0067
 3487SOL     OW22093   0.283   3.487   1.246 -0.4257 -0.4257  0.5697
 3487SOL    HW122094   0.316   3.521   1.329 -1.3384  1.1899  0.2816
 3487SOL    HW222095   0.341   3.527   1.182  0.8676 -3.9264 -0.4692
 3488SOL     OW22096   1.269   3.729   6.202  0.5340  0.1310 -0.2058
 3488SOL    HW122097   1.298   3.819   6.194  0.4189  0.1449 -0.4492
 3488SOL    HW222098   1.258   3.714   6.108 -1.9386 -0.6144  0.1857
 3489SOL     OW22099   1.281   1.257   3.418 -0.2251  0.0316 -0.1159
 3489SOL    HW122100   1.310   1.260   3.327 -2.6447 -0.8776 -0.9132
 3489SOL    HW222101   1.283   1.352   3.433  0.2739  0.1938 -1.1767
 3490SOL     OW22102   0.845   3.625  16.666 -0.0238  0.3938 -0.0245
 3490SOL    HW122103   0.770   3.582  16.625 -0.1043  0.2546  0.2709
 3490SOL    HW222104   0.810   3.681  16.735 -2.1865 -0.6843 -0.2395
 3491SOL     OW22105   3.357   4.531   8.862 -0.1894 -0.5227 -0.4616
 3491SOL    HW122106   3.293   4.484   8.915 -1.9195 -1.2361 -3.2027
 3491SOL    HW222107   3.432   4.475   8.882 -1.2136 -1.5710  0.4714
 3492SOL     OW22108   0.121   1.239   1.997  0.4803 -0.2138  0.3577
 3492SOL    HW122109   0.178   1.230   2.074  0.3036  1.3777  0.6600
 3492SOL    HW222110   0.054   1.285   2.048 -0.6338 -0.9764 -0.4190
 3493SOL     OW22111   0.925   0.672  11.504 -0.2082  0.1428 -0.3055
 3493SOL    HW122112   1.020   0.667  11.503 -0.0738  2.0849  1.5440
 3493SOL    HW222113   0.907   0.662  11.411 -2.4285 -0.8119  0.2070
 3494SOL     OW22114   2.840   2.323   7.079 -0.3711  0.2586 -0.0714
 3494SOL    HW122115   2.832   2.350   7.170 -2.5162 -0.4928 -0.0433
 3494SOL    HW222116   2.913   2.375   7.047  0.6935  0.9077  3.4710
 3495SOL     OW22117   3.268   1.648   4.250  0.2995  0.0072 -0.5554
 3495SOL    HW122118   3.360   1.630   4.229  0.5712  1.6598 -0.7751
 3495SOL    HW222119   3.265   1.742   4.267 -0.1197  0.0639 -0.9436
 3496SOL     OW22120   3.941   2.786  12.131 -0.1543  0.1666  0.3294
 3496SOL    HW122121   3.910   2.738  12.207  1.7743 -2.9249 -0.8419
 3496SOL    HW222122   3.870   2.772  12.068 -0.6207  1.8051  0.4898
 3497SOL     OW22123   1.917   4.109  10.160  0.2128  0.0001  0.7578
 3497SOL    HW122124   1.910   4.170  10.086  0.0143 -1.4917 -0.4652
 3497SOL    HW222125   2.008   4.086  10.143 -0.2081 -2.7084  2.1356
 3498SOL     OW22126   1.743   4.684  17.462 -0.4794  0.0704 -0.0869
 3498SOL    HW122127   1.773   4.603  17.421  0.8576 -0.0892  1.2240
 3498SOL    HW222128   1.802   4.695  17.537 -1.0920  2.1870  0.0878
 3499SOL     OW22129   1.460   3.602   8.795  0.4626  0.1051 -0.1284
 3499SOL    HW122130   1.545   3.559   8.794 -0.4054 -1.6076 -0.6443
 3499SOL    HW222131   1.458   3.636   8.706  0.1863  0.5475  0.0460
 3500SOL     OW22132   4.514   3.086   3.296  0.4700  0.6379  0.3315
 3500SOL    HW122133   4.428   3.097   3.255  0.5290 -4.0875 -1.0227
 3500SOL    HW222134   4.558   3.056   3.217 -1.1866 -0.4446 -0.1786
 3501SOL     OW22135   0.113   0.676   2.085  0.3581 -0.5273 -0.5457
 3501SOL    HW122136   0.094   0.644   1.997  0.2529 -1.5424 -0.1497
 3501SOL    HW222137   0.086   0.767   2.080 -0.0715 -0.5563  1.3630
 3502SOL     OW22138   4.029   1.271  12.547 -0.3417 -0.7016  0.4901
 3502SOL    HW122139   4.062   1.360  12.547  2.5350 -1.7586 -0.7537
 3502SOL    HW222140   4.110   1.226  12.573  0.1366  1.8298  3.3290
 3503SOL     OW22141   3.589   0.700   4.008 -0.3361 -0.1809 -0.7335
 3503SOL    HW122142   3.522   0.767   4.020 -0.2793 -0.3385  0.4008
 3503SOL    HW222143   3.551   0.639   4.071  2.7308 -0.5830  0.6985
 3504SOL     OW22144   3.797   0.077  11.554  1.1636 -0.0393 -0.4335
 3504SOL    HW122145   3.720   0.123  11.522 -0.1587 -2.7650 -1.1679
 3504SOL    HW222146   3.793   0.010  11.486 -0.6405  0.5841 -0.9551
 3505SOL     OW22147   0.433   2.527   7.075 -0.1162 -0.4115  0.0133
 3505SOL    HW122148   0.409   2.451   7.127 -0.7125  1.0795  1.9200
 3505SOL    HW222149   0.504   2.557   7.132 -0.1816 -0.8833  0.3369
 3506SOL     OW22150   0.327   4.268   5.531 -0.0042  0.3082  0.4336
 3506SOL    HW122151   0.255   4.262   5.593  0.0934 -1.3017  0.3729
 3506SOL    HW222152   0.373   4.350   5.551 -0.1445  0.3310  0.6595
 3507SOL     OW22153   1.791   0.063  16.654 -0.4595 -0.4957  0.4278
 3507SOL    HW122154   1.792   0.157  16.668  1.2066 -0.0543 -2.7749
 3507SOL    HW222155   1.704   0.063  16.616 -0.3733  0.2034  0.2373
 3508SOL     OW22156   2.656   3.412   3.274 -0.2928  0.2962  0.6402
 3508SOL    HW122157   2.723   3.353   3.240  0.4404  0.5819  1.5930
 3508SOL    HW222158   2.589   3.344   3.287  1.4559 -1.1981  1.7301
 3509SOL     OW22159   0.313   1.085   9.401 -0.1564  0.8230 -0.4334
 3509SOL    HW122160   0.253   1.028   9.353  0.9648 -0.0435 -0.8068
 3509SOL    HW222161   0.255   1.106   9.474 -0.9898  1.5225 -1.2974
 3510SOL     OW22162   2.042   0.153   9.967 -0.5089  0.6356  0.0620
 3510SOL    HW122163   2.100   0.167  10.042 -1.9955 -1.4115  1.6042
 3510SOL    HW222164   2.010   0.241   9.949 -0.6683  0.8951  1.6720
 3511SOL     OW22165   0.693   3.837   9.448  0.4562  0.2851  0.0623
 3511SOL    HW122166   0.764   3.846   9.512  1.7051  1.1764 -1.4545
 3511SOL    HW222167   0.621   3.825   9.510 -1.0556  0.5582 -1.6503
 3512SOL     OW22168   2.017   2.507   7.297 -0.0463  0.6249  0.2480
 3512SOL    HW122169   1.950   2.499   7.229  0.5135  1.2027 -0.3739
 3512SOL    HW222170   2.068   2.427   7.282  0.0407  0.8975 -0.8727
 3513SOL     OW22171   4.068   1.968   9.742 -0.2426 -0.0335 -0.0457
 3513SOL    HW122172   4.132   1.907   9.779  1.5399  0.4726 -2.2882
 3513SOL    HW222173   4.090   2.053   9.780  0.4428  0.6928 -2.0572
 3514SOL     OW22174   3.521   0.646  17.572  0.1617 -0.1903 -0.3700
 3514SOL    HW122175   3.609   0.655  17.610 -0.9821  2.1696  1.7417
 3514SOL    HW222176   3.531   0.577  17.507 -0.1197  1.3121 -1.9921
 3515SOL     OW22177   0.900   2.181  11.292 -0.0222 -0.1455 -0.2701
 3515SOL    HW122178   0.935   2.098  11.323  1.0402  1.1579  2.0287
 3515SOL    HW222179   0.970   2.235  11.256  0.1022 -1.3353 -1.8195
 3516SOL     OW22180   2.836   4.299   6.788  0.5221  0.0215  0.2319
 3516SOL    HW122181   2.917   4.263   6.824 -0.6408 -3.3158 -0.5295
 3516SOL    HW222182   2.864   4.390   6.783  2.5795 -0.6863 -1.4208
 3517SOL     OW22183   3.147   0.908   0.610 -0.3261 -0.2434  0.4158
 3517SOL    HW122184   3.089   0.942   0.677  0.8321  1.2579  0.6554
 3517SOL    HW222185   3.121   0.816   0.608  0.9301 -0.5889 -0.3746
 3518SOL     OW22186   1.324   3.217   3.644 -0.4258  0.1403 -0.0659
 3518SOL    HW122187   1.289   3.199   3.731  0.2476  3.1285  0.8420
 3518SOL    HW222188   1.409   3.173   3.643 -0.6412 -0.2864  0.0771
 3519SOL     OW22189   4.426   4.028   3.498 -0.0488  0.2594  0.2091
 3519SOL    HW122190   4.438   3.935   3.479 -1.1553  0.4989 -1.6235
 3519SOL    HW222191   4.514   4.066   3.495  0.2228 -0.4491 -0.8197
 3520SOL     OW22192   3.246   0.779  14.461 -0.1409 -0.3579 -0.0845
 3520SOL    HW122193   3.193   0.730  14.398  2.3389 -3.5139  0.2796
 3520SOL    HW222194   3.192   0.757  14.537 -1.5061 -0.6827 -1.1486
 3521SOL     OW22195   0.920   1.497   2.217 -0.2013 -0.6283  0.1717
 3521SOL    HW122196   0.886   1.489   2.306 -3.6411  1.1709 -0.9621
 3521SOL    HW222197   0.852   1.556   2.186 -0.3055 -1.1873 -0.6658
 3522SOL     OW22198   4.122   1.522   4.471 -0.5629  0.1376  0.3116
 3522SOL    HW122199   4.200   1.476   4.439 -1.3166 -0.2592 -0.9635
 3522SOL    HW222200   4.120   1.485   4.559  0.9872  2.1706  1.2065
 3523SOL     OW22201   3.476   2.952   0.848 -0.2492  0.0870 -0.3504
 3523SOL    HW122202   3.519   2.953   0.934  0.8863  1.7320 -0.9249
 3523SOL    HW222203   3.464   3.047   0.841 -3.3386 -0.4902 -2.7468
 3524SOL     OW22204   1.676   2.519   4.428  0.5092  0.0133 -0.2439
 3524SOL    HW122205   1.604   2.576   4.401  0.0804 -0.2279  0.3890
 3524SOL    HW222206   1.652   2.436   4.386  2.2729 -0.3909 -0.4377
 3525SOL     OW22207   2.801   1.596   2.978  0.5497 -0.4052 -0.3423
 3525SOL    HW122208   2.859   1.572   2.906  1.6176  1.2009 -0.0174
 3525SOL    HW222209   2.818   1.540   3.054 -2.1419 -1.0232 -0.2218
 3526SOL     OW22210   4.616   3.024   7.468 -0.2117  0.3301 -0.4076
 3526SOL    HW122211   4.564   3.039   7.388  0.0222  2.2145 -0.1903
 3526SOL    HW222212   4.647   2.938   7.438  2.7576  1.2911 -0.0208
 3527SOL     OW22213   3.457   3.471   9.550  0.1803 -0.1270 -0.3654
 3527SOL    HW122214   3.492   3.431   9.470  0.0407  2.9826 -1.9821
 3527SOL    HW222215   3.530   3.524   9.580 -0.3702  1.8700 -2.4920
 3528SOL     OW22216   3.493   1.580   9.186 -0.1802 -0.0005 -0.3377
 3528SOL    HW122217   3.503   1.654   9.246 -0.6576 -1.8785  2.0508
 3528SOL    HW222218   3.403   1.549   9.193  0.1975 -1.0119  0.1006
 3529SOL     OW22219   3.980   1.391   2.262 -0.1766  0.3468 -0.3654
 3529SOL    HW122220   4.076   1.382   2.260 -0.1419  0.4360  0.5829
 3529SOL    HW222221   3.955   1.313   2.212 -1.1999  1.0290 -0.9170
 3530SOL     OW22222   3.987   0.933   7.701  0.4452  0.3255  0.0845
 3530SOL    HW122223   4.010   0.875   7.774  0.9441  1.8331  1.1241
 3530SOL    HW222224   3.997   1.023   7.731  0.8670  0.6000 -0.8832
 3531SOL     OW22225   2.903   4.522   1.520  0.4241 -0.1252  0.9439
 3531SOL    HW122226   2.879   4.431   1.537  1.2684 -0.4829  0.2643
 3531SOL    HW222227   2.818   4.560   1.538  0.9891  1.4786  0.2431
 3532SOL     OW22228   3.729   3.510   3.497 -0.0175  0.0140  0.4026
 3532SOL    HW122229   3.781   3.436   3.468  0.8716  0.5734  0.5691
 3532SOL    HW222230   3.639   3.487   3.476  0.3843  0.1030 -1.4400
 3533SOL     OW22231   2.980   2.224  15.328 -0.3323  0.2951  0.1194
 3533SOL    HW122232   2.987   2.297  15.390  1.9871  0.3708 -0.2277
 3533SOL    HW222233   3.011   2.153  15.384  0.7800 -0.2628 -1.2051
 3534SOL     OW22234   0.426   2.539  14.768 -0.0140 -0.6137  0.0676
 3534SOL    HW122235   0.471   2.536  14.852 -0.4873  2.4775  0.4382
 3534SOL    HW222236   0.372   2.617  14.783  2.4062  0.5256  2.7998
 3535SOL     OW22237   3.323   2.760   1.420  0.1366  0.1169 -0.3587
 3535SOL    HW122238   3.406   2.749   1.374 -0.3737  1.3526 -1.5805
 3535SOL    HW222239   3.336   2.843   1.466 -1.3862  1.2423 -1.9544
 3536SOL     OW22240   4.065   2.157   6.429  0.0292 -0.1958  0.0292
 3536SOL    HW122241   4.004   2.172   6.501 -0.7004  2.5145 -1.1647
 3536SOL    HW222242   4.116   2.238   6.424  1.3568 -0.9476  1.4675
 3537SOL     OW22243   1.384   1.031   7.387  0.2664  0.4749  0.0524
 3537SOL    HW122244   1.290   1.015   7.397  0.3876 -0.9617 -1.0846
 3537SOL    HW222245   1.379   1.085   7.309  2.3290 -1.7055 -1.6171
 3538SOL     OW22246   4.646   2.547   3.161 -0.1351 -0.3569  0.3775
 3538SOL    HW122247   4.650   2.579   3.251  1.2328  0.9935 -0.1658
 3538SOL    HW222248   4.714   2.585   3.105 -0.0617  0.8107  1.2578
 3539SOL     OW22249   2.803   2.214  12.736  0.1342  0.2891  0.2990
 3539SOL    HW122250   2.834   2.125  12.752  1.2454  0.4984 -0.6668
 3539SOL    HW222251   2.809   2.219  12.640 -0.0551 -1.5202  0.1931
 3540SOL     OW22252   1.503   3.286   7.558  0.0166 -0.0811 -0.2947
 3540SOL    HW122253   1.533   3.227   7.488 -1.0094 -2.2167  1.0780
 3540SOL    HW222254   1.575   3.298   7.620 -1.1944  1.1487  0.8368
 3541SOL     OW22255   1.195   3.071   6.547 -0.1091 -0.0073 -0.0415
 3541SOL    HW122256   1.166   3.150   6.500 -2.4201  0.1546  1.6145
 3541SOL    HW222257   1.245   3.019   6.485  0.3099  0.2424  0.0830
 3542SOL     OW22258   4.313   0.827  15.919 -0.9049 -0.0110  0.2030
 3542SOL    HW122259   4.338   0.907  15.873 -0.3157  0.2030  0.9022
 3542SOL    HW222260   4.232   0.807  15.872 -0.5933 -0.8155  0.0139
 3543SOL     OW22261   0.302   1.916   4.189  0.0455 -0.0722  0.2139
 3543SOL    HW122262   0.211   1.892   4.174  0.0962 -1.4235  2.0804
 3543SOL    HW222263   0.319   1.875   4.274 -0.6770 -0.0488  0.3736
 3544SOL     OW22264   4.000   2.353  11.682 -0.1204 -0.1257  0.1492
 3544SOL    HW122265   3.974   2.425  11.624 -0.3003 -0.2804  0.0386
 3544SOL    HW222266   4.048   2.283  11.638 -0.2013  0.0565 -0.2298
 3545SOL     OW22267   3.344   2.177  11.735 -0.1009 -0.4977 -0.2130
 3545SOL    HW122268   3.418   2.125  11.765  0.5324 -0.5834 -1.8822
 3545SOL    HW222269   3.305   2.111  11.678 -0.9966  0.2468 -0.4664
 3546SOL     OW22270   3.432   2.965   6.846  0.1692 -0.6831 -0.5812
 3546SOL    HW122271   3.390   3.002   6.923 -0.3627 -0.7681 -0.8315
 3546SOL    HW222272   3.355   2.944   6.793 -0.1222  1.1296 -0.8941
 3547SOL     OW22273   0.843   0.283   5.650  0.6273  0.0242  0.4720
 3547SOL    HW122274   0.905   0.265   5.580  1.2032  0.0727  0.9719
 3547SOL    HW222275   0.891   0.252   5.727  1.3401 -0.2940 -0.1029
 3548SOL     OW22276   2.153   0.571   5.878  0.6615  0.1900 -0.1601
 3548SOL    HW122277   2.151   0.655   5.831 -2.7047  0.9101  1.3129
 3548SOL    HW222278   2.071   0.525   5.860 -0.1055  2.2974 -2.1567
 3549SOL     OW22279   4.569   1.043   4.764 -0.2085  0.3046  0.2447
 3549SOL    HW122280   4.513   0.983   4.813  1.7258 -1.1256  0.6946
 3549SOL    HW222281   4.562   1.116   4.826 -3.2363 -1.7790  2.3433
 3550SOL     OW22282   2.672   1.780   4.364 -0.7550  0.1872  0.1996
 3550SOL    HW122283   2.701   1.870   4.378  4.6329 -1.6849  0.8195
 3550SOL    HW222284   2.588   1.790   4.318  0.0944 -0.1422 -1.4352
 3551SOL     OW22285   1.072   4.387   0.668 -0.3684  0.2388  0.4214
 3551SOL    HW122286   1.018   4.462   0.692 -0.2958  0.1386  0.8935
 3551SOL    HW222287   1.060   4.386   0.573  0.0504  0.8847  0.3564
 3552SOL     OW22288   4.683   2.724  15.202 -0.2131  0.1095  0.6583
 3552SOL    HW122289   4.607   2.737  15.144  1.7126 -0.0100 -1.8867
 3552SOL    HW222290   4.686   2.806  15.252 -1.7950  0.4721  0.1858
 3553SOL     OW22291   2.377   2.724  13.245  0.1555 -0.3286 -0.4389
 3553SOL    HW122292   2.334   2.797  13.200 -3.5306 -0.8607  2.2110
 3553SOL    HW222293   2.314   2.652  13.246 -0.3627  0.1596  3.0521
 3554SOL     OW22294   2.522   4.307  10.967 -0.3444  0.7995  0.1241
 3554SOL    HW122295   2.567   4.348  11.041  0.2805 -0.6532  0.5686
 3554SOL    HW222296   2.496   4.225  11.008  1.6288 -0.6325 -1.4479
 3555SOL     OW22297   2.070   0.035  16.579  0.0045 -0.2078 -0.0377
 3555SOL    HW122298   2.102   4.711  16.644  2.4461  0.8607 -0.2417
 3555SOL    HW222299   1.986   0.060  16.618 -0.5889  1.1144 -2.1856
 3556SOL     OW22300   3.497   3.984  12.293 -0.7472  0.2470  0.3267
 3556SOL    HW122301   3.498   3.936  12.210  2.0069  1.0520 -0.1000
 3556SOL    HW222302   3.551   4.060  12.271  0.0874 -0.6956 -0.8174
 3557SOL     OW22303   2.650   2.070  13.199 -0.1799  0.0484  0.1455
 3557SOL    HW122304   2.721   2.092  13.139 -0.2330  0.1571  0.1204
 3557SOL    HW222305   2.669   1.979  13.220  0.8772  0.5807  1.5047
 3558SOL     OW22306   4.240   4.340   2.829  0.5461  0.1670 -0.0456
 3558SOL    HW122307   4.203   4.371   2.747 -0.2777  0.9028  0.5944
 3558SOL    HW222308   4.222   4.415   2.887 -0.2307 -0.3057  0.3211
 3559SOL     OW22309   0.949   2.121   3.082 -0.3596 -0.2228 -0.3205
 3559SOL    HW122310   1.018   2.130   3.017  0.2900  1.1330  0.5474
 3559SOL    HW222311   0.959   2.205   3.129  0.8674 -0.9117  0.6650
 3560SOL     OW22312   3.165   4.581   5.538  0.5567 -0.3813 -0.2838
 3560SOL    HW122313   3.224   4.526   5.487  2.4051  1.5030 -0.1659
 3560SOL    HW222314   3.202   4.668   5.555  2.0612 -1.3537  1.3084
 3561SOL     OW22315   2.546   0.615   6.521 -0.5174 -0.4120  0.2548
 3561SOL    HW122316   2.629   0.661   6.506 -2.4435  2.1946 -2.4137
 3561SOL    HW222317   2.565   0.526   6.550 -0.2061 -0.3774  0.1528
 3562SOL     OW22318   0.107   0.926   5.693 -0.3216  0.2078 -0.0079
 3562SOL    HW122319   0.029   0.871   5.703 -0.5422  0.0965 -2.3566
 3562SOL    HW222320   0.063   1.009   5.672 -0.0966  0.6025  1.0252
 3563SOL     OW22321   2.185   4.016   1.808  0.3812  1.0263  0.0294
 3563SOL    HW122322   2.128   4.078   1.854 -2.7693 -0.8170 -1.3650
 3563SOL    HW222323   2.248   4.079   1.773 -0.1912  2.5473  1.7313
 3564SOL     OW22324   2.823   2.463   2.730  0.0073 -0.2469  0.2155
 3564SOL    HW122325   2.828   2.450   2.635  2.6560 -0.0446  0.3404
 3564SOL    HW222326   2.893   2.528   2.736  2.0698 -2.5183  0.4424
 3565SOL     OW22327   4.053   0.369   0.245 -0.4840 -0.3322  0.0462
 3565SOL    HW122328   4.122   0.408   0.191 -1.6809  2.2088  0.3303
 3565SOL    HW222329   4.098   0.360   0.328  0.0079 -0.6421 -0.2587
 3566SOL     OW22330   1.051   3.257  13.616  0.0839  0.0242  0.0971
 3566SOL    HW122331   1.112   3.286  13.548 -0.2995  1.6367  0.4382
 3566SOL    HW222332   1.115   3.198  13.656  0.5020 -0.6157 -1.5221
 3567SOL     OW22333   0.827   3.235   5.422  0.5595  0.3805  0.6194
 3567SOL    HW122334   0.786   3.271   5.343  0.3095 -0.5439  0.3205
 3567SOL    HW222335   0.887   3.305   5.448 -1.1497  1.3662  1.9130
 3568SOL     OW22336   4.243   3.489  12.050  0.4507 -0.1971 -0.2378
 3568SOL    HW122337   4.229   3.397  12.069  1.3242 -0.1657  0.5403
 3568SOL    HW222338   4.323   3.492  12.102 -0.2490  1.9475  0.7286
 3569SOL     OW22339   2.089   1.528   0.728 -0.1689 -0.3901  0.1757
 3569SOL    HW122340   1.996   1.507   0.736 -0.1496  0.4692  2.6768
 3569SOL    HW222341   2.084   1.623   0.721 -1.6931 -0.6516 -2.0429
 3570SOL     OW22342   3.392   3.032   5.794 -0.0831  0.6337 -0.0640
 3570SOL    HW122343   3.367   2.953   5.747 -1.8558  2.1658 -1.6793
 3570SOL    HW222344   3.310   3.080   5.800 -0.7064 -0.5606  0.9705
 3571SOL     OW22345   1.727   3.602   1.534  0.5908  0.1582  0.0960
 3571SOL    HW122346   1.686   3.675   1.488 -0.3423 -1.1448 -1.1340
 3571SOL    HW222347   1.683   3.619   1.617 -1.5236 -0.4398 -0.9176
 3572SOL     OW22348   3.427   1.451   7.913  0.5699 -0.3501  0.2312
 3572SOL    HW122349   3.407   1.490   7.828  1.2684  0.3550  0.3946
 3572SOL    HW222350   3.338   1.421   7.935 -0.3973  1.8090 -0.7530
 3573SOL     OW22351   4.721   1.962   2.968 -0.1940 -0.8923 -0.3883
 3573SOL    HW122352   4.693   1.936   2.880  1.1648 -2.0954 -0.4720
 3573SOL    HW222353   4.644   1.947   3.021  1.2061 -0.1741  1.8422
 3574SOL     OW22354   1.684   3.519   3.270  0.9508 -0.2627 -0.1993
 3574SOL    HW122355   1.773   3.526   3.236  1.5021  0.7360  1.4686
 3574SOL    HW222356   1.629   3.508   3.192 -2.0835 -1.4932  2.1171
 3575SOL     OW22357   2.173   0.380  12.640 -0.5917  0.7442 -0.4498
 3575SOL    HW122358   2.108   0.423  12.695  0.1043 -0.1979  1.0843
 3575SOL    HW222359   2.243   0.365  12.703 -1.9721  0.8052  1.1068
 3576SOL     OW22360   1.720   2.209   4.386 -0.8074 -0.4201 -0.2010
 3576SOL    HW122361   1.627   2.235   4.387  0.1327  3.0341 -1.7842
 3576SOL    HW222362   1.742   2.197   4.478  2.3523 -1.4807 -1.1186
 3577SOL     OW22363   3.763   1.892   4.096 -0.2279 -0.0308 -0.0148
 3577SOL    HW122364   3.842   1.914   4.145 -0.4568 -1.7583  1.1307
 3577SOL    HW222365   3.764   1.796   4.092 -1.2720 -0.0410 -0.0266
 3578SOL     OW22366   3.597   3.880   8.953 -0.3782  0.2783 -0.3429
 3578SOL    HW122367   3.594   3.921   9.040 -0.9129  1.6567 -1.0068
 3578SOL    HW222368   3.568   3.790   8.969  0.2632 -0.0715 -1.1731
 3579SOL     OW22369   3.295   3.290   1.669  0.1544 -0.0667  0.3302
 3579SOL    HW122370   3.388   3.269   1.683 -0.1111 -1.4469  0.0704
 3579SOL    HW222371   3.310   3.366   1.612  2.9862 -1.2824 -0.5769
 3580SOL     OW22372   4.107   2.922  11.516  0.1220  0.4383 -0.1887
 3580SOL    HW122373   4.192   2.957  11.544  0.8427 -2.2225  1.0045
 3580SOL    HW222374   4.135   2.863  11.446 -0.4126  0.7199 -0.6384
 3581SOL     OW22375   3.547   2.736   4.948 -0.0503  0.4654  0.1486
 3581SOL    HW122376   3.479   2.740   5.016 -3.2153 -1.9964 -2.8752
 3581SOL    HW222377   3.626   2.751   5.000  1.1520 -1.8094 -1.0655
 3582SOL     OW22378   1.797   2.721  11.703  0.2469 -0.1876  0.3015
 3582SOL    HW122379   1.852   2.665  11.648 -2.9672  0.3839 -3.4724
 3582SOL    HW222380   1.832   2.808  11.683 -0.2022  0.5692  2.7804
 3583SOL     OW22381   0.188   2.654   3.308 -0.0808 -0.7926 -0.2191
 3583SOL    HW122382   0.166   2.744   3.286 -0.4852 -0.5170  1.2750
 3583SOL    HW222383   0.281   2.641   3.290 -0.2070 -2.5182  0.3559
 3584SOL     OW22384   4.169   3.557  17.545 -0.0335 -0.0609  0.0778
 3584SOL    HW122385   4.170   3.561  17.640 -2.0381 -2.1949  0.2022
 3584SOL    HW222386   4.097   3.494  17.534 -0.9866  1.3563 -1.7665
 3585SOL     OW22387   2.269   0.081   6.028 -0.6200 -0.2078  0.5544
 3585SOL    HW122388   2.256   0.152   5.965  1.3236  1.9015  2.5657
 3585SOL    HW222389   2.215   0.012   5.989 -0.9008  0.8237 -0.8846
 3586SOL     OW22390   0.806   1.729   7.532  0.1695 -0.0001 -0.1819
 3586SOL    HW122391   0.868   1.760   7.466 -0.6667  0.2330 -0.8607
 3586SOL    HW222392   0.768   1.815   7.553  1.7236  0.7667 -0.4634
 3587SOL     OW22393   1.486   1.026   8.591  0.0792 -0.5429 -0.2994
 3587SOL    HW122394   1.432   1.104   8.585  1.7107  0.6443  0.4214
 3587SOL    HW222395   1.456   0.987   8.509 -2.9101 -0.1219  0.6154
 3588SOL     OW22396   3.749   2.202   1.963  0.1786  0.1680 -0.6489
 3588SOL    HW122397   3.765   2.261   1.889  0.2262 -0.6681 -1.3076
 3588SOL    HW222398   3.836   2.186   2.001  0.2083  1.7491 -0.0465
 3589SOL     OW22399   1.740   4.366   6.414  0.8472  0.4391 -0.0856
 3589SOL    HW122400   1.772   4.398   6.499 -1.3199 -2.1791  1.7035
 3589SOL    HW222401   1.810   4.403   6.361  1.2842 -0.5430 -0.2033
 3590SOL     OW22402   1.550   4.474   9.708  0.4546  0.8795 -0.0089
 3590SOL    HW122403   1.470   4.430   9.679  0.1929  1.6582 -0.4914
 3590SOL    HW222404   1.611   4.454   9.637  1.3391  0.4036  0.8830
 3591SOL     OW22405   3.457   1.621   5.795 -0.9345 -0.0431 -0.3443
 3591SOL    HW122406   3.510   1.554   5.753 -0.8393  0.7558 -1.4830
 3591SOL    HW222407   3.427   1.582   5.878  1.5681  0.0426  0.6138
 3592SOL     OW22408   4.470   3.830  17.426  0.6287 -0.0747  0.4256
 3592SOL    HW122409   4.398   3.806  17.367 -1.0322 -0.4501  2.5876
 3592SOL    HW222410   4.546   3.841  17.369  1.9597 -0.2209  2.1750
 3593SOL     OW22411   2.318   2.303  12.302 -0.4008 -0.0540  0.4336
 3593SOL    HW122412   2.256   2.307  12.229 -0.5909  1.1921  0.6611
 3593SOL    HW222413   2.337   2.394  12.323 -0.1016 -0.0290  0.0698
 3594SOL     OW22414   4.587   1.648  10.862 -0.5215  0.8425  0.1356
 3594SOL    HW122415   4.540   1.565  10.872 -0.5571  0.8733  0.2340
 3594SOL    HW222416   4.676   1.621  10.885 -0.5144  0.7028 -0.0583
 3595SOL     OW22417   0.921   2.024   4.641  0.2459  0.0174 -0.1000
 3595SOL    HW122418   0.840   1.984   4.670  0.4410  0.4814  1.1054
 3595SOL    HW222419   0.891   2.111   4.613 -1.0774 -1.1766 -2.4257
 3596SOL     OW22420   3.287   3.075   7.589  0.6993  0.2124 -0.5058
 3596SOL    HW122421   3.360   3.122   7.627  0.1612  1.4487 -1.0067
 3596SOL    HW222422   3.337   3.021   7.528  1.4537  0.7075 -0.3186
 3597SOL     OW22423   3.368   4.184   3.224 -0.5946 -0.1267  0.1509
 3597SOL    HW122424   3.309   4.110   3.239 -3.2614  1.5414 -2.1023
 3597SOL    HW222425   3.450   4.140   3.244 -0.4953  0.4829  1.0404
 3598SOL     OW22426   0.146   0.923  13.313  0.0819  0.1042  0.6495
 3598SOL    HW122427   0.055   0.920  13.283 -0.3161  0.4197  1.8073
 3598SOL    HW222428   0.138   0.907  13.407  0.6141  2.2102  1.0593
 3599SOL     OW22429   1.154   0.289   7.889  0.3167 -0.0518  0.3378
 3599SOL    HW122430   1.205   0.210   7.906 -2.5710 -1.8408  0.7759
 3599SOL    HW222431   1.073   0.238   7.882  1.2272 -1.6370  1.3864
 3600SOL     OW22432   1.638   2.255   5.204 -0.4877 -0.4525 -0.3159
 3600SOL    HW122433   1.667   2.243   5.294 -0.8117  0.9792 -0.0307
 3600SOL    HW222434   1.557   2.303   5.221  0.9056  0.8653  2.4917
 3601SOL     OW22435   4.094   3.781   5.768 -0.8286  0.0527 -0.5209
 3601SOL    HW122436   4.123   3.728   5.694 -0.8732 -1.8064  0.7871
 3601SOL    HW222437   4.085   3.707   5.827 -2.2383 -0.0760 -0.8966
 3602SOL     OW22438   2.582   0.316   9.052  0.2857  0.4185 -0.4091
 3602SOL    HW122439   2.510   0.353   9.001 -1.8317 -4.5632 -1.0685
 3602SOL    HW222440   2.585   0.229   9.013 -0.1480  1.4670 -2.7890
 3603SOL     OW22441   1.389   2.871   6.120  0.2134 -0.5332  0.1607
 3603SOL    HW122442   1.469   2.917   6.096 -0.6538  0.0815 -1.5801
 3603SOL    HW222443   1.408   2.792   6.071  0.9745 -0.4717  0.3683
 3604SOL     OW22444   1.262   3.899   9.347 -0.1965 -0.2765 -0.3528
 3604SOL    HW122445   1.196   3.967   9.347  0.3004  0.1996  0.2364
 3604SOL    HW222446   1.229   3.817   9.384 -0.3049  1.3129  3.0304
 3605SOL     OW22447   2.109   1.389  10.465 -0.8751 -1.2005  0.1908
 3605SOL    HW122448   2.114   1.457  10.398 -0.1891 -0.9571  0.4894
 3605SOL    HW222449   2.019   1.400  10.496 -1.2646  2.6948 -2.3776
 3606SOL     OW22450   1.435   1.507   9.212 -0.2045  0.1906  0.0000
 3606SOL    HW122451   1.382   1.568   9.161 -0.1010 -0.7753 -1.2555
 3606SOL    HW222452   1.463   1.569   9.280 -0.1199  1.8296 -1.5212
 3607SOL     OW22453   0.138   1.212  16.856 -0.2208 -0.1137 -0.2535
 3607SOL    HW122454   0.197   1.236  16.784  1.8314 -1.1602  1.0457
 3607SOL    HW222455   0.209   1.197  16.919 -0.0581  1.5564 -0.0421
 3608SOL     OW22456   1.350   3.796   9.014 -0.0672  0.0531  0.3766
 3608SOL    HW122457   1.382   3.811   9.103 -1.2822  1.5557  0.5445
 3608SOL    HW222458   1.409   3.734   8.972  0.4070  1.6083 -1.2373
 3609SOL     OW22459   2.528   1.443   8.019  0.6171 -0.0598 -0.2547
 3609SOL    HW122460   2.553   1.526   7.977 -1.8392  1.4007  1.1846
 3609SOL    HW222461   2.465   1.423   7.949 -2.7747  1.8060  2.2487
 3610SOL     OW22462   4.734   4.218   5.243  0.1572 -0.2034  0.0026
 3610SOL    HW122463   0.010   4.183   5.331  0.3958 -0.9524 -0.3290
 3610SOL    HW222464   4.638   4.209   5.243  0.2727 -1.4075 -0.4330
 3611SOL     OW22465   4.177   3.321  14.970 -0.1752 -0.4271  0.1396
 3611SOL    HW122466   4.145   3.384  14.906  3.4507  0.9797 -0.3191
 3611SOL    HW222467   4.271   3.333  14.954  0.2136 -1.6946  1.4390
 3612SOL     OW22468   1.945   0.830  10.045  0.7128 -0.0173 -0.2363
 3612SOL    HW122469   1.949   0.750  10.098 -0.0753 -0.5079 -0.9173
 3612SOL    HW222470   1.972   0.796   9.959  0.2859  1.3818 -0.9263
 3613SOL     OW22471   3.615   1.784   2.264  0.3295 -0.1515  0.0508
 3613SOL    HW122472   3.669   1.726   2.210  0.6751 -0.1444  0.3929
 3613SOL    HW222473   3.645   1.870   2.236 -0.0403 -0.2669 -0.7010
 3614SOL     OW22474   4.194   0.318   0.474  0.0955 -0.0907  0.4602
 3614SOL    HW122475   4.282   0.308   0.511 -0.2810 -2.4670  0.6787
 3614SOL    HW222476   4.137   0.282   0.542  0.5676  1.7468  1.8479
 3615SOL     OW22477   3.565   3.767   3.425  0.4717 -0.0340 -0.7512
 3615SOL    HW122478   3.631   3.784   3.492 -1.7210  1.7263  0.9439
 3615SOL    HW222479   3.499   3.727   3.481  0.8107 -0.2800 -0.5279
 3616SOL     OW22480   3.931   2.413   8.557  0.2062 -0.4813 -0.7240
 3616SOL    HW122481   3.891   2.500   8.551 -0.4350 -0.7996 -1.1471
 3616SOL    HW222482   3.972   2.412   8.470 -2.0897 -0.5415 -1.8155
 3617SOL     OW22483   1.223   3.068   2.178 -0.9271  0.3300 -0.7675
 3617SOL    HW122484   1.229   3.122   2.257 -0.1313 -1.6404  0.5265
 3617SOL    HW222485   1.196   2.984   2.214 -1.6245  0.2199 -1.5544
 3618SOL     OW22486   3.213   4.628   2.261  0.2371  0.2182  0.4571
 3618SOL    HW122487   3.293   4.674   2.235 -0.8992  1.1248 -1.4347
 3618SOL    HW222488   3.232   4.536   2.243  1.8162  0.4943  0.6920
 3619SOL     OW22489   3.653   2.765   4.148  0.5423  0.6919  0.7693
 3619SOL    HW122490   3.687   2.769   4.059 -1.0619 -0.9431  0.0894
 3619SOL    HW222491   3.622   2.674   4.147 -0.7514  1.1781 -1.7227
 3620SOL     OW22492   0.167   2.279  17.685  0.0741 -0.0759  0.2325
 3620SOL    HW122493   0.223   2.236  17.620  0.9950 -0.9575  1.6161
 3620SOL    HW222494   0.197   2.365  17.656  1.2869 -0.4052  0.4925
 3621SOL     OW22495   0.125   2.093  13.788  0.0677 -0.6988  0.0169
 3621SOL    HW122496   0.157   2.007  13.817  1.2216  0.2173  1.4896
 3621SOL    HW222497   0.050   2.099  13.846 -0.3446 -0.6686 -0.5261
 3622SOL     OW22498   3.571   1.450   9.506  0.2870  0.0237  0.0522
 3622SOL    HW122499   3.639   1.432   9.441  0.4180 -1.4328  0.5953
 3622SOL    HW222500   3.514   1.503   9.451  0.0163 -0.3306 -0.0056
 3623SOL     OW22501   2.377   2.031  14.119 -0.1629 -0.5954 -0.3487
 3623SOL    HW122502   2.454   2.044  14.064  0.3854 -1.4201  0.2331
 3623SOL    HW222503   2.308   2.027  14.052  0.2314  0.0987 -0.8048
 3624SOL     OW22504   0.722   3.479   6.877  0.2794  0.3388  0.2183
 3624SOL    HW122505   0.729   3.391   6.842  0.5708  1.1191 -1.6493
 3624SOL    HW222506   0.756   3.468   6.966 -2.0814 -0.3214  1.0561
 3625SOL     OW22507   1.040   0.918   2.673  0.0271 -0.1876 -0.1921
 3625SOL    HW122508   0.962   0.914   2.617 -0.6506  1.8155  0.5910
 3625SOL    HW222509   1.004   0.864   2.742  0.2007  1.0461  0.8550
 3626SOL     OW22510   4.257   1.800   9.007  0.1481 -0.1194 -0.4876
 3626SOL    HW122511   4.292   1.727   9.058 -0.9741 -0.4649 -0.2109
 3626SOL    HW222512   4.306   1.807   8.925 -0.4333  2.0192 -0.6551
 3627SOL     OW22513   1.274   0.382   8.813  0.4464 -0.1446  0.6137
 3627SOL    HW122514   1.309   0.319   8.877  1.8842  0.7292  0.6818
 3627SOL    HW222515   1.345   0.442   8.793  0.3666  0.0128  0.8074
 3628SOL     OW22516   0.234   1.766   3.803  0.1722  0.0406 -0.1058
 3628SOL    HW122517   0.270   1.678   3.806 -1.7011 -0.7114  0.4263
 3628SOL    HW222518   0.158   1.737   3.752  1.0768 -0.6283 -1.0663
 3629SOL     OW22519   2.522   2.931  13.736 -0.1194  0.1198  0.5003
 3629SOL    HW122520   2.469   2.898  13.663 -0.2211 -0.3405  0.7784
 3629SOL    HW222521   2.489   2.881  13.811 -1.7594  1.1777  0.4729
 3630SOL     OW22522   3.769   1.859   1.889  0.1430  0.3575  0.9624
 3630SOL    HW122523   3.682   1.867   1.852  1.8262 -0.6825 -3.2377
 3630SOL    HW222524   3.807   1.944   1.865  1.2410 -0.0615  1.1757
 3631SOL     OW22525   4.015   2.639   5.589 -0.1934 -0.2328 -0.0134
 3631SOL    HW122526   4.087   2.579   5.568  0.7641  0.4252  1.3969
 3631SOL    HW222527   3.975   2.654   5.504 -2.2934 -0.8247  0.8697
 3632SOL     OW22528   3.726   3.169   8.651  0.1929  0.0652 -0.2232
 3632SOL    HW122529   3.804   3.153   8.599 -1.7149 -0.8433 -2.7865
 3632SOL    HW222530   3.663   3.203   8.587  0.7474 -0.7328 -1.1907
 3633SOL     OW22531   2.772   0.284   9.292 -0.1216 -0.6023  0.2869
 3633SOL    HW122532   2.681   0.300   9.267 -0.0886 -1.7011 -0.5195
 3633SOL    HW222533   2.816   0.298   9.208 -2.5853  0.3244 -0.8662
 3634SOL     OW22534   1.480   3.099   1.863  0.8200 -0.2989  0.1951
 3634SOL    HW122535   1.448   3.083   1.774  0.0243 -0.3697  0.4973
 3634SOL    HW222536   1.408   3.060   1.912 -0.2371 -0.1116 -1.2040
 3635SOL     OW22537   0.537   1.617   6.580  0.2998 -0.3404 -0.2104
 3635SOL    HW122538   0.464   1.678   6.581  0.1706 -0.4679 -1.7293
 3635SOL    HW222539   0.498   1.532   6.558 -2.2832  0.7048  0.3915
 3636SOL     OW22540   3.683   3.675   6.686 -0.3642 -0.0286  0.1507
 3636SOL    HW122541   3.665   3.670   6.592 -0.7027  0.9083  0.1710
 3636SOL    HW222542   3.743   3.602   6.700  0.7348  0.5905 -1.3186
 3637SOL     OW22543   2.083   3.208   6.188  0.1335  0.2663  0.2063
 3637SOL    HW122544   1.987   3.200   6.193  0.0412  0.8903 -0.6271
 3637SOL    HW222545   2.118   3.130   6.230  1.9502  0.6092 -0.6842
 3638SOL     OW22546   1.938   0.142   8.039  0.1324 -0.0779  0.2771
 3638SOL    HW122547   2.034   0.132   8.036  0.3789  2.9809 -1.4068
 3638SOL    HW222548   1.940   0.237   8.030  0.2668 -0.0652  0.4314
 3639SOL     OW22549   3.986   2.234   5.295  0.9550 -0.6683  0.2918
 3639SOL    HW122550   3.928   2.242   5.219  0.5649 -0.9950  0.5550
 3639SOL    HW222551   3.928   2.189   5.356  0.1150 -0.4209 -0.3198
 3640SOL     OW22552   2.099   4.414  12.602  0.5317 -0.5733 -0.5146
 3640SOL    HW122553   2.047   4.387  12.526 -0.3250  0.7873 -0.4314
 3640SOL    HW222554   2.189   4.413  12.569  0.5659  3.4402 -0.6083
 3641SOL     OW22555   3.620   0.107   6.805 -0.3755  0.8744  0.1489
 3641SOL    HW122556   3.634   0.087   6.712 -0.5748  2.7552 -0.3050
 3641SOL    HW222557   3.538   0.061   6.820 -0.9265  1.4665 -1.0500
 3642SOL     OW22558   4.363   3.849  11.578  0.3316  0.1173  0.1851
 3642SOL    HW122559   4.310   3.835  11.656  0.9565 -0.3989  0.5153
 3642SOL    HW222560   4.297   3.857  11.509 -0.2111 -1.6455  0.4858
 3643SOL     OW22561   3.285   2.081   6.243  0.2266 -0.1275 -0.2491
 3643SOL    HW122562   3.321   2.160   6.283 -0.7961 -0.6716  1.7556
 3643SOL    HW222563   3.265   2.038   6.326 -0.0476  0.8190  0.1736
 3644SOL     OW22564   1.415   1.271   9.392 -0.0854  0.1468  0.1081
 3644SOL    HW122565   1.377   1.207   9.331 -2.0291  0.3047  1.1749
 3644SOL    HW222566   1.392   1.355   9.351 -1.4321 -0.1683  0.2118
 3645SOL     OW22567   2.940   4.160   9.006  0.3931  0.1301 -0.0403
 3645SOL    HW122568   2.998   4.155   8.929 -1.2100 -0.5621 -1.2027
 3645SOL    HW222569   2.881   4.235   8.991  1.8395  1.3215  0.1942
 3646SOL     OW22570   1.417   1.674   7.392  0.3449  0.1505 -0.1002
 3646SOL    HW122571   1.388   1.744   7.333  3.0798  0.3168 -1.2414
 3646SOL    HW222572   1.403   1.606   7.327 -0.5998 -0.2074  0.4830
 3647SOL     OW22573   4.148   2.084   1.020 -0.5108  0.2267 -0.3698
 3647SOL    HW122574   4.067   2.099   0.971 -0.3654 -1.0835 -1.0244
 3647SOL    HW222575   4.208   2.054   0.951 -0.8641  0.1213 -0.6331
 3648SOL     OW22576   4.044   2.847   5.040 -0.1508 -0.3385 -0.1189
 3648SOL    HW122577   4.080   2.828   4.953  0.5597 -0.3095  0.1750
 3648SOL    HW222578   4.093   2.927   5.052 -0.3305 -0.5831  2.1687
 3649SOL     OW22579   3.972   3.242   7.190  0.7104  0.4637 -0.1259
 3649SOL    HW122580   3.951   3.156   7.153  3.1387  0.0770 -0.5931
 3649SOL    HW222581   4.049   3.267   7.140 -0.1856  3.5101  0.0020
 3650SOL     OW22582   4.602   0.651  14.623  0.3987  0.0785 -0.0430
 3650SOL    HW122583   4.612   0.579  14.560 -3.3949  0.0626 -0.6687
 3650SOL    HW222584   4.509   0.668  14.639  0.6798  1.3580  0.1407
 3651SOL     OW22585   4.165   1.707  16.239 -0.0852  0.0452 -0.0523
 3651SOL    HW122586   4.187   1.653  16.163  0.4234 -0.1061  0.2013
 3651SOL    HW222587   4.244   1.733  16.287 -1.3969  1.7530  1.1823
 3652SOL     OW22588   2.572   2.893   4.495 -0.2267 -0.1679 -0.0216
 3652SOL    HW122589   2.644   2.831   4.495 -2.0402 -2.2381  1.7522
 3652SOL    HW222590   2.546   2.899   4.587  0.7036  2.3489  0.0860
 3653SOL     OW22591   0.593   2.481   6.148  0.0873 -0.2286 -0.1703
 3653SOL    HW122592   0.668   2.496   6.090  0.8087  0.9383  1.0672
 3653SOL    HW222593   0.517   2.461   6.093  3.3930 -0.2036 -4.7687
 3654SOL     OW22594   2.187   3.957  16.654 -0.3118  0.2025 -0.2078
 3654SOL    HW122595   2.101   3.999  16.666 -0.8052 -0.3756 -1.6643
 3654SOL    HW222596   2.223   4.015  16.587  0.4371 -2.2763 -1.9488
 3655SOL     OW22597   1.030   3.281   9.326  0.0466  0.3287  0.3507
 3655SOL    HW122598   0.990   3.309   9.408 -0.1856  1.1553 -0.0457
 3655SOL    HW222599   1.013   3.354   9.267 -1.7907 -1.0023 -0.7508
 3656SOL     OW22600   0.704   3.709   6.521  0.5222  0.3551  0.8383
 3656SOL    HW122601   0.713   3.804   6.528  2.6825  0.1791  0.4272
 3656SOL    HW222602   0.775   3.682   6.578  1.5747 -1.1126 -1.1860
 3657SOL     OW22603   2.950   2.703  14.782 -0.2532  0.2610 -0.3606
 3657SOL    HW122604   2.902   2.780  14.812  2.2597  0.9505  1.8349
 3657SOL    HW222605   2.969   2.664  14.867  0.3673 -1.3674 -1.2438
 3658SOL     OW22606   2.566   1.402   2.976 -0.4256  0.2521 -0.0370
 3658SOL    HW122607   2.634   1.441   2.920  1.8348 -1.3733  1.5810
 3658SOL    HW222608   2.506   1.358   2.915  0.0627 -0.0818 -0.2756
 3659SOL     OW22609   1.200   0.302   2.893 -0.1147 -0.6134  0.0876
 3659SOL    HW122610   1.295   0.299   2.903 -0.3719 -2.2487  2.0821
 3659SOL    HW222611   1.193   0.331   2.802  1.2074  0.8256  0.4494
 3660SOL     OW22612   2.436   1.406   9.080 -0.3195 -0.5321  0.1250
 3660SOL    HW122613   2.346   1.386   9.108 -0.8441  2.3978  0.5499
 3660SOL    HW222614   2.485   1.394   9.161  2.2665  0.4742 -1.2904
 3661SOL     OW22615   0.006   3.630   4.187 -0.1991 -0.1777  0.1931
 3661SOL    HW122616   0.078   3.600   4.130 -1.2118 -2.4063  0.0798
 3661SOL    HW222617   0.054   3.671   4.258 -0.1193  1.8347 -1.0221
 3662SOL     OW22618   0.019   1.275   7.670 -0.2841 -0.1764 -0.0752
 3662SOL    HW122619   0.026   1.224   7.750  1.2825  2.4820  1.4684
 3662SOL    HW222620   0.010   1.356   7.720 -2.3420 -0.3738 -0.1243
 3663SOL     OW22621   1.888   0.713  17.401 -0.3173 -0.1338  0.4565
 3663SOL    HW122622   1.802   0.710  17.359 -1.3066  3.1351  2.2229
 3663SOL    HW222623   1.860   0.671  17.482  1.4952 -0.1292  1.0792
 3664SOL     OW22624   4.246   3.358  10.097 -0.3144  0.5958  0.3366
 3664SOL    HW122625   4.160   3.330  10.128 -0.5195  1.9198  0.9820
 3664SOL    HW222626   4.294   3.362  10.180  0.3240  0.2738 -0.0136
 3665SOL     OW22627   1.443   1.855  12.855  0.0309 -0.7178 -0.3452
 3665SOL    HW122628   1.461   1.785  12.916 -0.6356 -2.1001 -1.7371
 3665SOL    HW222629   1.392   1.924  12.897  0.6850 -1.3084  1.4114
 3666SOL     OW22630   4.018   1.269   6.426 -0.2814 -0.4269  0.6072
 3666SOL    HW122631   4.006   1.218   6.346  1.2562  0.3069 -0.1043
 3666SOL    HW222632   4.078   1.207   6.466  2.0452  1.4219  0.0157
 3667SOL     OW22633   1.507   2.103   6.026  0.7161 -0.1533 -0.2642
 3667SOL    HW122634   1.583   2.161   6.034  0.1333  0.4968  0.4366
 3667SOL    HW222635   1.542   2.014   6.015 -0.7913 -0.4696 -2.5923
 3668SOL     OW22636   3.513   0.612  10.300 -0.1384 -0.2073  0.4746
 3668SOL    HW122637   3.579   0.588  10.234  0.3898  0.5804  0.7268
 3668SOL    HW222638   3.569   0.656  10.363  1.2630 -1.2351 -0.0361
 3669SOL     OW22639   0.340   1.433   4.747  0.0861 -0.1633 -0.0236
 3669SOL    HW122640   0.274   1.395   4.806 -1.6577  1.9111 -0.6080
 3669SOL    HW222641   0.359   1.509   4.802 -0.4131 -1.0344  1.3615
 3670SOL     OW22642   0.788   0.718  13.033  0.3824 -0.4423  0.2510
 3670SOL    HW122643   0.769   0.775  13.107  0.6577  0.3423 -0.2793
 3670SOL    HW222644   0.750   0.635  13.063 -0.4513 -0.0258  0.3526
 3671SOL     OW22645   2.150   0.573  17.469  0.2958  0.2127 -0.0436
 3671SOL    HW122646   2.076   0.628  17.444  0.9721  1.5063  0.7945
 3671SOL    HW222647   2.101   0.495  17.442  0.7353 -0.6661  1.6517
 3672SOL     OW22648   3.176   1.307   8.857 -0.4473  0.1161 -0.1784
 3672SOL    HW122649   3.203   1.375   8.920 -1.4193 -1.1364  1.5713
 3672SOL    HW222650   3.083   1.303   8.880 -0.4462  0.6088 -0.0774
 3673SOL     OW22651   4.345   2.864   6.138  0.0381 -0.0839  0.2005
 3673SOL    HW122652   4.344   2.857   6.042 -0.9079 -0.0044  0.2094
 3673SOL    HW222653   4.440   2.861   6.150  0.4033 -1.2209 -2.8377
 3674SOL     OW22654   4.357   4.563  17.313 -0.6558 -0.4409 -0.1379
 3674SOL    HW122655   4.319   4.606  17.389 -2.7545 -1.7355 -0.4670
 3674SOL    HW222656   4.385   4.637  17.258 -1.3033  2.2863  3.2157
 3675SOL     OW22657   0.724   2.999   3.595  0.2612  0.5660 -0.1126
 3675SOL    HW122658   0.807   3.046   3.605  0.2578  0.6471 -0.4550
 3675SOL    HW222659   0.712   2.949   3.675 -0.8591 -0.5563 -0.9822
 3676SOL     OW22660   3.244   0.028   5.802  0.5498  0.0955  0.1180
 3676SOL    HW122661   3.243   0.037   5.706 -0.5402  0.7178  0.1911
 3676SOL    HW222662   3.154   4.737   5.814  1.0010 -1.0593  0.6294
 3677SOL     OW22663   3.345   0.250   2.864  0.3688 -0.1064 -0.0092
 3677SOL    HW122664   3.273   0.276   2.807  0.8638 -0.7705 -0.9334
 3677SOL    HW222665   3.428   0.267   2.819  0.8320 -2.6232 -0.1131
 3678SOL     OW22666   1.644   1.544  14.391 -0.3174 -0.2497 -0.1110
 3678SOL    HW122667   1.709   1.510  14.330  0.6536  1.2691  0.0672
 3678SOL    HW222668   1.694   1.623  14.410 -1.6309  0.2816  1.1250
 3679SOL     OW22669   1.625   0.961  13.381 -0.5673  0.3055 -0.1877
 3679SOL    HW122670   1.612   1.032  13.319  0.6496 -1.5782 -2.6236
 3679SOL    HW222671   1.574   0.890  13.343  1.5407 -0.4412 -1.6521
 3680SOL     OW22672   3.706   1.260   8.893 -0.1291 -0.4285  0.5736
 3680SOL    HW122673   3.632   1.316   8.869 -1.5525 -2.3069  0.6192
 3680SOL    HW222674   3.685   1.241   8.985 -0.2807 -2.9236  0.0276
 3681SOL     OW22675   1.038   2.527   5.620 -0.3788 -0.0694 -0.5948
 3681SOL    HW122676   1.025   2.433   5.634 -0.6383  0.1548  0.6037
 3681SOL    HW222677   1.014   2.539   5.528 -0.5499 -0.2576 -0.5741
 3682SOL     OW22678   4.075   0.698   1.895 -0.1300 -0.1335  0.5554
 3682SOL    HW122679   4.040   0.696   1.806 -1.0171 -1.4716  0.9248
 3682SOL    HW222680   4.077   0.787   1.927 -0.3729 -0.5083  1.6099
 3683SOL     OW22681   1.312   1.816   5.325 -0.7866 -0.0349 -0.1071
 3683SOL    HW122682   1.272   1.783   5.245  1.1295 -1.2423 -0.5715
 3683SOL    HW222683   1.334   1.737   5.374 -2.5220  0.6556  1.7973
 3684SOL     OW22684   1.316   1.722   3.920  0.0706 -0.1666  0.0571
 3684SOL    HW122685   1.226   1.733   3.951  0.8678 -0.7754  2.5952
 3684SOL    HW222686   1.297   1.640   3.875  3.1708 -0.1952 -1.2157
 3685SOL     OW22687   1.916   1.269   7.533 -0.7553 -0.0537  0.1165
 3685SOL    HW122688   1.882   1.310   7.613 -0.8071  1.4281 -0.6770
 3685SOL    HW222689   1.881   1.180   7.544  1.1800 -0.7663  0.5101
 3686SOL     OW22690   1.098   3.098   2.816  0.5497 -0.0116 -0.0846
 3686SOL    HW122691   1.064   3.049   2.891 -0.3744 -1.5490 -1.5008
 3686SOL    HW222692   1.024   3.118   2.759  1.3824 -1.3951 -1.7035
 3687SOL     OW22693   2.542   0.110   6.089  0.3027 -0.2836 -0.1383
 3687SOL    HW122694   2.570   0.025   6.123  1.5241 -1.0141 -2.9348
 3687SOL    HW222695   2.447   0.102   6.081  0.1519  0.1912  1.3649
 3688SOL     OW22696   4.332   0.382   5.638 -0.1233  0.2186 -0.4235
 3688SOL    HW122697   4.240   0.405   5.648 -0.6806 -1.5374 -1.4849
 3688SOL    HW222698   4.358   0.466   5.599  2.6276 -0.9897 -1.2454
 3689SOL     OW22699   2.248   0.579   3.921 -0.2156  0.1430 -0.1394
 3689SOL    HW122700   2.227   0.520   3.994 -0.0880  0.1155 -0.1236
 3689SOL    HW222701   2.196   0.657   3.939 -1.3064  0.2422 -3.7884
 3690SOL     OW22702   2.837   3.727   0.448  0.2357 -0.0333  0.7129
 3690SOL    HW122703   2.875   3.754   0.365 -1.5067  1.6248  0.4669
 3690SOL    HW222704   2.852   3.635   0.471  0.3633  0.1193  1.2426
 3691SOL     OW22705   3.137   1.958   7.188  0.0510 -0.2634 -0.2909
 3691SOL    HW122706   3.095   1.983   7.270 -0.9386  1.3792 -1.3099
 3691SOL    HW222707   3.065   1.985   7.132 -1.6444 -2.1290  1.0064
 3692SOL     OW22708   3.421   2.617  13.705 -0.1194 -0.4395 -0.2726
 3692SOL    HW122709   3.396   2.591  13.793  1.7572 -1.4235 -0.0492
 3692SOL    HW222710   3.434   2.710  13.723 -0.0896 -0.3689 -0.6490
 3693SOL     OW22711   1.981   0.733  11.822 -0.0245  0.3235  0.0666
 3693SOL    HW122712   1.951   0.783  11.898 -1.8418 -0.0036 -0.4301
 3693SOL    HW222713   2.008   0.654  11.869 -0.9689 -0.1224 -0.1467
 3694SOL     OW22714   4.356   1.344  12.333 -0.0765  0.5633 -0.2070
 3694SOL    HW122715   4.434   1.369  12.283  0.2043  0.7032  0.3025
 3694SOL    HW222716   4.377   1.367  12.424  0.6614  1.4050 -0.5942
 3695SOL     OW22717   3.314   0.885   2.435  0.2115  0.2079 -0.0569
 3695SOL    HW122718   3.344   0.812   2.380 -1.5362 -0.0297 -0.6720
 3695SOL    HW222719   3.297   0.956   2.373 -1.2260 -0.1169 -0.0384
 3696SOL     OW22720   3.769   1.570   3.777 -0.1391  0.0496  0.1149
 3696SOL    HW122721   3.819   1.555   3.858  0.4050 -2.3137 -0.6576
 3696SOL    HW222722   3.790   1.484   3.741 -2.0271  0.1337 -1.1777
 3697SOL     OW22723   1.282   3.222   3.369  0.0640  0.1932  0.3888
 3697SOL    HW122724   1.229   3.298   3.346 -0.6078  0.1525  1.8686
 3697SOL    HW222725   1.267   3.210   3.462  2.1132 -0.5516  0.6443
 3698SOL     OW22726   4.643   1.516   8.657 -0.0683 -0.3344 -0.0643
 3698SOL    HW122727   4.671   1.512   8.748 -1.4581  0.8835  0.4033
 3698SOL    HW222728   4.662   1.607   8.637  0.8936 -0.7214 -0.9360
 3699SOL     OW22729   2.600   1.609   6.257 -0.4643  0.3920  0.0365
 3699SOL    HW122730   2.627   1.560   6.335  0.2296  1.6920  0.6210
 3699SOL    HW222731   2.553   1.681   6.299  0.9757  1.2572  0.2063
 3700SOL     OW22732   0.945   2.891   9.126 -0.3299  0.3646 -0.1723
 3700SOL    HW122733   0.910   2.925   9.043  0.2300  1.0312 -0.1287
 3700SOL    HW222734   0.862   2.892   9.174  0.4277  0.9295  1.1000
 3701SOL     OW22735   3.362   2.051   7.338 -0.1089  0.1923  0.2261
 3701SOL    HW122736   3.315   2.120   7.385  1.2998  0.7328  0.8167
 3701SOL    HW222737   3.316   2.062   7.255 -1.5200 -0.2920  0.9397
 3702SOL     OW22738   3.628   4.606   6.632 -0.4888  0.1510 -0.1830
 3702SOL    HW122739   3.691   4.552   6.679 -1.8326 -1.8403 -0.6467
 3702SOL    HW222740   3.576   4.534   6.595 -0.2129  0.9193 -2.0747
 3703SOL     OW22741   0.343   4.559   4.892  0.6303  0.1856 -0.4943
 3703SOL    HW122742   0.314   4.601   4.973 -0.4263  0.6517 -1.1035
 3703SOL    HW222743   0.264   4.510   4.869 -0.5867  1.4405  1.0169
 3704SOL     OW22744   0.163   3.503   3.698 -0.4368  0.2749  0.3031
 3704SOL    HW122745   0.237   3.556   3.669 -1.1151  0.4336 -1.1358
 3704SOL    HW222746   0.186   3.417   3.662  0.8664  0.1767  1.3861
 3705SOL     OW22747   2.306   3.130  13.644 -0.2675  0.1299  0.4279
 3705SOL    HW122748   2.390   3.163  13.675 -0.3269  0.5443  0.1489
 3705SOL    HW222749   2.318   3.115  13.551 -0.9494  0.1687  0.3342
 3706SOL     OW22750   1.347   2.022  17.160 -0.2794  0.0216 -0.4905
 3706SOL    HW122751   1.391   2.092  17.112  0.2967  0.5521  0.7990
 3706SOL    HW222752   1.263   2.066  17.176 -1.4685 -1.0493 -3.8745
 3707SOL     OW22753   1.852   2.960  16.224  0.7227 -0.0900 -0.1276
 3707SOL    HW122754   1.896   3.041  16.200 -1.5889  0.4747 -2.4470
 3707SOL    HW222755   1.902   2.892  16.179 -1.5772 -1.5634 -0.4395
 3708SOL     OW22756   3.173   1.745   5.974  0.0693 -0.2069 -0.7971
 3708SOL    HW122757   3.231   1.671   5.988 -1.4099 -1.1224  0.4875
 3708SOL    HW222758   3.110   1.711   5.910 -2.3077  3.4658 -0.4432
 3709SOL     OW22759   0.716   3.237  11.559  0.0413 -0.2422 -0.3823
 3709SOL    HW122760   0.731   3.209  11.469  0.4554 -1.3717  0.0329
 3709SOL    HW222761   0.643   3.295  11.540 -0.0284 -0.6394 -1.3104
 3710SOL     OW22762   4.329   3.023  11.106  0.3056  0.2655 -0.6864
 3710SOL    HW122763   4.314   2.974  11.025  0.3317  2.4294 -2.0072
 3710SOL    HW222764   4.286   3.106  11.087  0.5693  1.2420  3.0052
 3711SOL     OW22765   1.903   3.528   3.740  0.1988  0.3663  0.3971
 3711SOL    HW122766   1.847   3.459   3.704  0.3482  1.7497 -2.5362
 3711SOL    HW222767   1.936   3.483   3.817 -1.3035  0.9650  1.3988
 3712SOL     OW22768   3.776   1.415   5.074  0.1423 -0.4859  0.0801
 3712SOL    HW122769   3.704   1.463   5.114  1.8981  1.6208  0.7203
 3712SOL    HW222770   3.786   1.470   4.997 -0.4712  0.4241  0.6579
 3713SOL     OW22771   3.396   3.700  15.158  0.2755 -0.0229 -0.4011
 3713SOL    HW122772   3.451   3.748  15.096  1.8896  0.9472  1.7547
 3713SOL    HW222773   3.314   3.746  15.141  0.8812  0.7106 -1.3566
 3714SOL     OW22774   2.835   0.875  10.588  0.0223  0.0892  0.0572
 3714SOL    HW122775   2.903   0.891  10.523  1.1325 -1.7363  0.7468
 3714SOL    HW222776   2.765   0.939  10.573  0.4247  0.3350 -0.7596
 3715SOL     OW22777   2.689   3.207   1.928 -0.4477  0.3701  0.4735
 3715SOL    HW122778   2.695   3.291   1.883  2.0688  0.8706  1.7748
 3715SOL    HW222779   2.598   3.179   1.914  0.1637 -1.8485  0.8162
 3716SOL     OW22780   3.982   4.082  10.945 -0.1419  0.6310 -0.1546
 3716SOL    HW122781   4.077   4.071  10.935 -0.4889 -0.7969 -1.9188
 3716SOL    HW222782   3.977   4.134  11.025  1.2884  0.3605  0.1190
 3717SOL     OW22783   2.183   3.719   4.023  0.1110 -0.2022 -0.4481
 3717SOL    HW122784   2.254   3.782   4.010 -2.0522  2.4862  0.7863
 3717SOL    HW222785   2.237   3.648   4.059 -1.5893 -1.4246 -0.2857
 3718SOL     OW22786   1.576   1.372  16.323 -0.6943  0.5531  0.0381
 3718SOL    HW122787   1.625   1.339  16.248 -1.5843 -2.1155  0.6511
 3718SOL    HW222788   1.633   1.328  16.387  0.1148  0.6570 -0.6111
 3719SOL     OW22789   0.476   3.718  13.546  0.6590 -0.7488  0.0928
 3719SOL    HW122790   0.448   3.809  13.550 -2.9070 -2.0508  4.1132
 3719SOL    HW222791   0.571   3.721  13.531  0.7894  2.7820  1.8083
 3720SOL     OW22792   0.424   0.696   5.727  0.0737 -0.3341  0.2106
 3720SOL    HW122793   0.393   0.626   5.669  0.6848 -0.3260 -0.1202
 3720SOL    HW222794   0.514   0.697   5.695 -0.3788 -1.7202 -1.1036
 3721SOL     OW22795   0.880   2.702   8.800  0.4156  0.8604 -0.3866
 3721SOL    HW122796   0.902   2.751   8.721 -1.9446 -0.8624 -2.1282
 3721SOL    HW222797   0.828   2.632   8.760 -2.1899  2.9686 -0.7135
 3722SOL     OW22798   2.647   3.329   5.034  0.0200 -0.0475 -0.0721
 3722SOL    HW122799   2.642   3.296   5.123  0.5673  0.9708  0.3393
 3722SOL    HW222800   2.559   3.365   5.022  0.0751  0.2330  0.3744
 3723SOL     OW22801   2.681   2.969   6.865 -0.3175 -0.5803 -0.3667
 3723SOL    HW122802   2.763   3.002   6.902 -1.6039  0.5773  1.4703
 3723SOL    HW222803   2.644   2.927   6.944  1.3478 -0.9329  0.2166
 3724SOL     OW22804   0.367   2.996   2.305  0.0406 -0.0006  0.0513
 3724SOL    HW122805   0.370   2.956   2.391  0.0341  0.6696  0.3617
 3724SOL    HW222806   0.424   2.940   2.253  1.0407  1.0045  0.0610
 3725SOL     OW22807   4.447   3.215   4.741 -0.0117 -0.3530  1.2708
 3725SOL    HW122808   4.472   3.307   4.752  1.8262 -0.9832  2.3489
 3725SOL    HW222809   4.438   3.218   4.646  0.0240 -0.1026  1.2747
 3726SOL     OW22810   2.891   0.215   8.591 -0.2291  0.4991  0.7735
 3726SOL    HW122811   2.934   0.208   8.676 -0.1990 -1.0490  0.6266
 3726SOL    HW222812   2.870   0.122   8.584  1.4385  0.2860 -1.1430
 3727SOL     OW22813   2.747   0.437   6.351 -0.2547  0.1347 -0.0242
 3727SOL    HW122814   2.677   0.437   6.285 -1.6892 -2.1000  1.5073
 3727SOL    HW222815   2.698   0.415   6.430 -1.3791  3.5326  0.2334
 3728SOL     OW22816   0.482   1.856   9.141  0.0326  0.6733 -0.5079
 3728SOL    HW122817   0.414   1.820   9.085 -0.1194 -1.9501  1.3581
 3728SOL    HW222818   0.431   1.913   9.197 -0.4103 -1.2382  1.0584
 3729SOL     OW22819   3.199   3.334  13.720 -0.0053  0.5083  0.2255
 3729SOL    HW122820   3.265   3.265  13.732 -1.4847 -0.9864 -0.1670
 3729SOL    HW222821   3.216   3.346  13.627 -2.2736 -0.9629 -0.3974
 3730SOL     OW22822   2.829   4.199   6.526  0.1430  0.2801  0.0367
 3730SOL    HW122823   2.845   4.200   6.621 -3.9388 -1.1727  0.7570
 3730SOL    HW222824   2.890   4.128   6.507 -0.1686  0.1426 -0.4384
 3731SOL     OW22825   3.395   2.418   5.073 -0.4236  0.0032 -0.8202
 3731SOL    HW122826   3.436   2.350   5.125 -0.5629  1.4567  1.1987
 3731SOL    HW222827   3.383   2.494   5.130 -1.1138  0.5982 -1.7432
 3732SOL     OW22828   1.227   0.811   6.669  0.1982 -0.0279 -0.0565
 3732SOL    HW122829   1.138   0.839   6.691  0.2785  0.4800 -0.3901
 3732SOL    HW222830   1.274   0.894   6.661  0.8920 -0.3465  0.7072
 3733SOL     OW22831   0.243   4.038   2.828  0.1480  0.3757  0.7038
 3733SOL    HW122832   0.155   4.065   2.802  0.4798  0.9711  0.1925
 3733SOL    HW222833   0.291   4.115   2.797 -2.7153  1.6486 -0.6297
 3734SOL     OW22834   4.151   0.487   6.581  0.1052 -0.4800  0.2297
 3734SOL    HW122835   4.133   0.501   6.488 -1.0381  3.2982  1.0275
 3734SOL    HW222836   4.059   0.494   6.604  0.8428  2.8576  2.2037
 3735SOL     OW22837   0.813   3.188   7.174 -0.5549  0.3309  0.0875
 3735SOL    HW122838   0.835   3.147   7.257  0.4155 -0.0687 -0.3585
 3735SOL    HW222839   0.723   3.205   7.199 -0.4928  0.1844  0.4013
 3736SOL     OW22840   0.886   2.918   0.111 -0.1528 -0.1463  0.5217
 3736SOL    HW122841   0.897   3.012   0.096 -0.2068 -0.0960  0.8105
 3736SOL    HW222842   0.822   2.904   0.181 -0.5633 -0.4421  0.0919
 3737SOL     OW22843   3.094   1.674  10.884  0.3011 -0.2925  0.3078
 3737SOL    HW122844   3.156   1.720  10.940  1.0312 -1.9932  0.9094
 3737SOL    HW222845   3.148   1.600  10.855 -0.4602 -0.5646 -0.4311
 3738SOL     OW22846   0.659   3.408   3.822 -0.3256  0.1227 -0.2117
 3738SOL    HW122847   0.655   3.319   3.858  1.4221  0.9054  1.9365
 3738SOL    HW222848   0.606   3.396   3.743 -1.5369 -1.7790  0.8873
 3739SOL     OW22849   3.473   2.334   7.167  0.0425  0.1723  0.0975
 3739SOL    HW122850   3.425   2.415   7.147 -0.9778 -0.4878 -0.1201
 3739SOL    HW222851   3.501   2.319   7.076 -2.5833 -0.2916 -0.6296
 3740SOL     OW22852   1.622   4.552   4.409 -0.5586 -0.3796  0.0344
 3740SOL    HW122853   1.699   4.543   4.465  0.8587 -1.2715 -2.0610
 3740SOL    HW222854   1.564   4.595   4.472 -1.1953 -1.8324  0.4470
 3741SOL     OW22855   1.488   4.022   2.910 -0.5053 -0.0235 -0.0610
 3741SOL    HW122856   1.539   4.100   2.930 -1.9493  0.9703 -0.2344
 3741SOL    HW222857   1.410   4.035   2.965 -0.6832 -0.2325 -0.2655
 3742SOL     OW22858   2.166   0.514  12.235 -0.0940  0.5972  0.0792
 3742SOL    HW122859   2.118   0.437  12.265  3.1818 -0.2261  3.3032
 3742SOL    HW222860   2.163   0.583  12.300  0.7354  1.1051 -0.4176
 3743SOL     OW22861   3.112   3.060   2.994  0.3004 -0.9052  0.3728
 3743SOL    HW122862   3.190   3.065   2.939  0.0437 -1.0612 -0.0039
 3743SOL    HW222863   3.040   3.059   2.931  0.1034 -2.6168  0.6214
 3744SOL     OW22864   4.641   3.431   7.312  0.4591 -0.3450  0.4453
 3744SOL    HW122865   4.564   3.375   7.300  0.9733 -0.5919 -1.7349
 3744SOL    HW222866   4.700   3.401   7.243  1.3826  0.0073  1.0723
 3745SOL     OW22867   1.438   1.217  17.132  0.1010 -0.2840 -0.6312
 3745SOL    HW122868   1.373   1.259  17.189 -1.6775 -2.7935 -0.7650
 3745SOL    HW222869   1.523   1.242  17.167 -0.6569 -1.8520  2.3876
 3746SOL     OW22870   3.347   0.686   2.230  0.1225  0.1214 -0.2825
 3746SOL    HW122871   3.383   0.613   2.178 -1.0935 -1.0095  0.4532
 3746SOL    HW222872   3.308   0.737   2.159 -1.6123  0.7079  1.1138
 3747SOL     OW22873   2.889   4.679  13.153  0.1553  0.0911  0.1077
 3747SOL    HW122874   2.969   4.729  13.167  0.6434 -0.7054  0.1667
 3747SOL    HW222875   2.915   4.590  13.175 -0.2576 -0.0737 -0.0651
 3748SOL     OW22876   3.628   1.185   9.135  0.7285 -0.0345 -0.1186
 3748SOL    HW122877   3.645   1.258   9.196 -1.2101 -0.2316  0.6565
 3748SOL    HW222878   3.606   1.122   9.204 -0.1059 -0.5208 -0.8308
 3749SOL     OW22879   1.133   3.670   6.691 -0.6611 -0.5627 -0.2664
 3749SOL    HW122880   1.154   3.578   6.676  2.2865  0.1783 -0.5747
 3749SOL    HW222881   1.216   3.714   6.707 -0.7017 -0.4507 -0.3633
 3750SOL     OW22882   1.484   1.958   4.333 -0.4800 -0.5408  0.4685
 3750SOL    HW122883   1.560   1.931   4.384 -0.7406  0.4429  1.3689
 3750SOL    HW222884   1.442   2.017   4.395 -0.8794  0.1182 -0.4274
 3751SOL     OW22885   3.275   1.376   7.023 -0.5636 -0.3864 -0.2207
 3751SOL    HW122886   3.290   1.373   7.118  2.7385 -0.4175 -0.7417
 3751SOL    HW222887   3.330   1.306   6.990  2.3985  1.7158  0.2463
 3752SOL     OW22888   3.461   2.025   4.500  0.1355  0.1863 -0.1320
 3752SOL    HW122889   3.422   1.956   4.554 -1.3370  0.0455 -1.3813
 3752SOL    HW222890   3.409   2.099   4.531  1.8657 -0.1715  3.6524
 3753SOL     OW22891   4.133   0.886   3.344 -0.1337  0.2332  0.1832
 3753SOL    HW122892   4.104   0.819   3.407  1.7175 -0.3185  0.4611
 3753SOL    HW222893   4.182   0.820   3.295 -0.6339 -1.0474  1.3842
 3754SOL     OW22894   3.307   4.410   1.181  0.1352 -0.0643 -0.1786
 3754SOL    HW122895   3.318   4.506   1.181 -1.7686  0.1349  0.8043
 3754SOL    HW222896   3.399   4.384   1.171  0.2322 -0.3580  1.4547
 3755SOL     OW22897   3.596   0.243  11.140 -0.1371  0.1096  0.3395
 3755SOL    HW122898   3.586   0.171  11.076  0.0790 -2.5546  3.3072
 3755SOL    HW222899   3.508   0.280  11.145  0.2782  1.4674 -2.5078
 3756SOL     OW22900   4.638   1.681   0.574 -0.3313 -0.1314  0.5216
 3756SOL    HW122901   4.710   1.708   0.517 -1.0678  0.2306 -0.2424
 3756SOL    HW222902   4.683   1.695   0.657  0.1787  2.3799 -0.1825
 3757SOL     OW22903   0.690   1.358  14.817 -0.7462  0.2227  0.0052
 3757SOL    HW122904   0.742   1.426  14.860  1.0678 -0.2971 -1.3879
 3757SOL    HW222905   0.665   1.404  14.737  0.5354  1.2309  0.1694
 3758SOL     OW22906   0.355   1.478   6.135 -0.4075  0.6181 -0.0888
 3758SOL    HW122907   0.351   1.386   6.163 -0.0711  0.1917 -1.4272
 3758SOL    HW222908   0.443   1.509   6.158  0.9822 -1.8432 -2.0359
 3759SOL     OW22909   0.158   1.678   7.235  0.2185 -0.2929 -0.1476
 3759SOL    HW122910   0.097   1.605   7.242 -1.9781  1.2205 -3.4794
 3759SOL    HW222911   0.140   1.728   7.314  0.7694 -0.7731  0.2814
 3760SOL     OW22912   1.413   2.733   6.791  0.6170 -0.1804 -0.4178
 3760SOL    HW122913   1.331   2.702   6.829 -0.0375 -0.9907 -2.5050
 3760SOL    HW222914   1.436   2.808   6.847 -0.1939 -0.8631  0.8432
 3761SOL     OW22915   2.626   0.281  15.383 -0.2609 -0.3638  0.3805
 3761SOL    HW122916   2.555   0.278  15.448  1.2509 -1.2114  1.9861
 3761SOL    HW222917   2.579   0.253  15.305 -1.9596  0.0659  1.2443
 3762SOL     OW22918   2.259   1.244  13.927  0.7787  0.4425  0.0039
 3762SOL    HW122919   2.304   1.186  13.866 -1.1437 -0.4226 -0.5751
 3762SOL    HW222920   2.278   1.190  14.004  0.2716  0.8175  0.3880
 3763SOL     OW22921   1.526   0.060  16.596 -0.8224  0.8102 -0.0993
 3763SOL    HW122922   1.465   4.733  16.630  1.5996 -1.1882  0.4247
 3763SOL    HW222923   1.553   0.023  16.512  2.1557  0.8158  0.8517
 3764SOL     OW22924   4.666   0.415   3.167 -0.1649 -0.2633  0.3309
 3764SOL    HW122925   4.690   0.363   3.090  0.5790  1.4467 -0.5957
 3764SOL    HW222926   4.641   0.346   3.229 -1.8746  0.2978  0.2577
 3765SOL     OW22927   3.858   2.824  17.134 -0.0779  0.4009  0.3470
 3765SOL    HW122928   3.903   2.741  17.147 -0.5469 -0.2012 -1.7446
 3765SOL    HW222929   3.933   2.882  17.151  0.2944 -0.6516  2.2115
 3766SOL     OW22930   2.493   2.059  13.435  0.5257 -0.0112 -0.1835
 3766SOL    HW122931   2.487   2.147  13.471 -0.1701 -0.7277  1.4625
 3766SOL    HW222932   2.566   2.082  13.378 -0.7897  1.5892 -1.2302
 3767SOL     OW22933   4.112   2.036   5.017 -0.2876 -0.4783  0.4134
 3767SOL    HW122934   4.134   1.967   5.079  1.0532 -0.3608  0.0595
 3767SOL    HW222935   4.033   1.997   4.980 -0.7700 -0.5909  1.5823
 3768SOL     OW22936   4.634   0.415   7.086 -0.0147  0.7801  0.1094
 3768SOL    HW122937   4.646   0.421   6.991  1.0429  1.2326  0.2638
 3768SOL    HW222938   4.702   0.350   7.105 -1.3849 -0.1016  1.9343
 3769SOL     OW22939   4.120   2.622  15.704 -0.5319 -0.1749 -0.1299
 3769SOL    HW122940   4.032   2.649  15.678 -0.6035 -1.8111 -1.6394
 3769SOL    HW222941   4.119   2.630  15.800  1.0930 -1.8127  0.0430
 3770SOL     OW22942   3.047   2.247   8.606 -0.4166 -0.1946 -0.2449
 3770SOL    HW122943   3.055   2.220   8.514  2.1193 -1.8056  0.4491
 3770SOL    HW222944   2.954   2.267   8.618 -0.5432 -0.0064 -1.5194
 3771SOL     OW22945   3.801   0.943  10.831  0.2526 -0.6342  0.4407
 3771SOL    HW122946   3.844   0.875  10.884  0.1906 -0.7875  0.2917
 3771SOL    HW222947   3.752   0.985  10.902  0.7330 -1.3162  1.1863
 3772SOL     OW22948   3.025   0.196   8.840 -0.3214  0.3285  0.1542
 3772SOL    HW122949   3.084   0.269   8.861 -0.2161  0.4927 -0.7085
 3772SOL    HW222950   3.074   0.115   8.827  0.6078  1.1322 -1.3816
 3773SOL     OW22951   3.853   3.312  15.625  0.9416 -0.1230 -0.5486
 3773SOL    HW122952   3.869   3.360  15.544  0.2457  0.5481 -0.3010
 3773SOL    HW222953   3.939   3.280  15.652  2.1603  1.4418 -2.5327
 3774SOL     OW22954   2.052   1.848   3.753  0.4160 -0.1801 -0.1199
 3774SOL    HW122955   2.074   1.755   3.764  1.2276  0.2539  1.9063
 3774SOL    HW222956   1.957   1.835   3.753  0.0114  2.7366 -1.4944
 3775SOL     OW22957   0.433   0.916  16.417  0.3046 -0.0538 -0.2000
 3775SOL    HW122958   0.525   0.930  16.438  0.8320 -0.3558 -2.3151
 3775SOL    HW222959   0.430   0.827  16.382  1.7429  0.3204 -1.2340
 3776SOL     OW22960   0.682   4.271   0.561  0.1453 -0.1804 -0.0014
 3776SOL    HW122961   0.700   4.184   0.525 -1.3100 -1.0718  1.4339
 3776SOL    HW222962   0.594   4.286   0.524  0.7629 -1.8052 -2.1196
 3777SOL     OW22963   4.433   3.242  15.552  0.1471 -0.1093 -0.5305
 3777SOL    HW122964   4.498   3.213  15.616 -2.6019  1.5383  3.0076
 3777SOL    HW222965   4.423   3.163  15.499 -0.3102 -0.6429  0.3436
 3778SOL     OW22966   3.634   2.613   3.755  0.0999  0.0368 -0.0751
 3778SOL    HW122967   3.552   2.586   3.797 -1.2511  1.6345 -1.7069
 3778SOL    HW222968   3.634   2.552   3.682 -1.7353  1.4217 -1.2205
 3779SOL     OW22969   3.192   4.165  14.066 -0.1546  0.1982  0.6215
 3779SOL    HW122970   3.187   4.123  13.980  2.9063  1.9469 -0.4115
 3779SOL    HW222971   3.277   4.207  14.050 -0.0940  0.1623  0.8518
 3780SOL     OW22972   2.343   2.167   9.507 -0.4741  0.0722 -0.4155
 3780SOL    HW122973   2.258   2.135   9.539  0.2785 -1.4890  0.0098
 3780SOL    HW222974   2.387   2.202   9.584  0.8621 -2.5573  0.0087
 3781SOL     OW22975   2.373   2.320   2.921  0.0291 -0.0252  0.2553
 3781SOL    HW122976   2.326   2.236   2.923  2.4148 -1.3725 -0.1872
 3781SOL    HW222977   2.357   2.335   2.828  0.5204 -1.5843 -0.0836
 3782SOL     OW22978   2.744   1.973  17.661  0.6710  0.3395 -0.4828
 3782SOL    HW122979   2.820   1.929  17.699  1.7178  2.4927 -0.0564
 3782SOL    HW222980   2.717   2.017  17.742  3.3872 -0.5025  0.8751
 3783SOL     OW22981   1.039   4.060   9.405  0.9772  0.6213 -0.4739
 3783SOL    HW122982   1.069   4.126   9.341  0.1257  1.3689 -0.1003
 3783SOL    HW222983   1.038   4.104   9.490 -3.3088  1.6546 -1.0542
 3784SOL     OW22984   3.080   3.003  17.346  0.2068 -0.3060 -0.5743
 3784SOL    HW122985   3.147   2.974  17.285  0.0414 -0.6265 -0.6031
 3784SOL    HW222986   3.060   2.928  17.401 -2.1886  0.7998  0.0872
 3785SOL     OW22987   0.063   1.174   9.561  0.0608  0.2229  0.3302
 3785SOL    HW122988   0.026   1.164   9.649  0.6351 -2.7716  0.2636
 3785SOL    HW222989   0.045   1.266   9.543  0.9577  0.5392  1.0096
 3786SOL     OW22990   3.336   4.044  16.896  0.1893 -0.0959 -0.2099
 3786SOL    HW122991   3.342   3.991  16.816  0.5786  1.5037 -1.2298
 3786SOL    HW222992   3.244   4.068  16.885 -0.1103 -0.7497  0.8110
 3787SOL     OW22993   0.344   1.137  17.029 -0.3851 -0.2605  0.3945
 3787SOL    HW122994   0.411   1.205  17.015 -2.2873  1.5503  0.0331
 3787SOL    HW222995   0.389   1.065  16.985  0.2549  0.9242 -0.9198
 3788SOL     OW22996   1.676   1.494   8.445 -0.0901 -0.3160  0.1487
 3788SOL    HW122997   1.679   1.475   8.351  2.6741  0.1292  0.1665
 3788SOL    HW222998   1.762   1.464   8.473  0.4128  3.0048  2.1845
 3789SOL     OW22999   0.456   1.410   7.228  0.0147 -0.3553 -0.3445
 3789SOL    HW123000   0.470   1.431   7.135  2.5322 -1.0115 -0.0970
 3789SOL    HW223001   0.403   1.332   7.214 -1.4326  0.7175 -0.9475
 3790SOL     OW23002   2.281   2.914   9.011  0.0564 -0.2697 -0.1279
 3790SOL    HW123003   2.306   2.866   9.090  1.2221  0.0575 -0.3031
 3790SOL    HW223004   2.222   2.974   9.058  1.1091  1.3896 -0.9191
 3791SOL     OW23005   0.544   0.263   6.905  0.1842  0.0664  0.2021
 3791SOL    HW123006   0.597   0.203   6.853  1.8350  0.5867  1.2888
 3791SOL    HW223007   0.501   0.309   6.833 -0.1122  0.0763  0.3850
 3792SOL     OW23008   3.294   3.829   1.443 -0.8835 -0.6774  0.5063
 3792SOL    HW123009   3.345   3.892   1.494 -0.7193  0.3835 -0.9878
 3792SOL    HW223010   3.238   3.801   1.516 -1.5410  1.7200  0.9139
 3793SOL     OW23011   1.566   4.574   6.877 -0.3515  0.3697 -0.2074
 3793SOL    HW123012   1.636   4.617   6.828  0.2765 -0.8977 -0.4143
 3793SOL    HW223013   1.498   4.641   6.874 -0.2099  0.5214  0.0172
 3794SOL     OW23014   1.240   1.499   3.780 -0.2779 -0.0367  0.3138
 3794SOL    HW123015   1.275   1.435   3.718 -0.2210  3.2843 -3.0672
 3794SOL    HW223016   1.186   1.439   3.832  2.3540 -1.6943  1.1039
 3795SOL     OW23017   1.454   1.461  16.055 -0.0714  0.2074 -0.3441
 3795SOL    HW123018   1.515   1.509  16.111  1.5413 -2.8200  0.4764
 3795SOL    HW223019   1.454   1.378  16.102 -1.1780  0.6818  0.5047
 3796SOL     OW23020   0.871   1.102   8.694  0.2538 -0.0496 -0.1298
 3796SOL    HW123021   0.797   1.068   8.645 -1.6027 -0.0304  2.6604
 3796SOL    HW223022   0.849   1.192   8.717  0.8971  0.5323 -1.8607
 3797SOL     OW23023   4.026   0.406  15.131  0.0517  0.1974  0.5813
 3797SOL    HW123024   3.944   0.357  15.129 -0.1852  0.5561  1.6519
 3797SOL    HW223025   3.997   0.497  15.142 -0.9055  0.3108 -2.9358
 3798SOL     OW23026   1.048   3.580   7.071  0.6597 -0.2887 -0.3289
 3798SOL    HW123027   1.126   3.617   7.113 -0.5249  1.6786  0.1764
 3798SOL    HW223028   1.093   3.530   7.003  0.4212 -2.5206  1.1538
 3799SOL     OW23029   4.077   3.048  14.744 -0.3181  0.1511  0.2008
 3799SOL    HW123030   4.054   3.014  14.658 -0.2912 -0.4238  0.4181
 3799SOL    HW223031   4.029   3.131  14.741  2.3005  1.7025  1.0142
 3800SOL     OW23032   3.106   4.470  11.562 -0.7339  0.1472  0.0598
 3800SOL    HW123033   3.145   4.557  11.558  1.1891 -0.7316 -0.8228
 3800SOL    HW223034   3.092   4.452  11.469  0.5709  1.2666 -0.3426
 3801SOL     OW23035   4.237   0.578  17.210  0.4547 -0.1306 -0.5110
 3801SOL    HW123036   4.157   0.583  17.157 -0.4078 -0.3936  0.7866
 3801SOL    HW223037   4.283   0.522  17.146 -0.8943 -3.1597  1.1749
 3802SOL     OW23038   2.318   0.610  10.167 -0.0608  0.2634  0.5411
 3802SOL    HW123039   2.354   0.552  10.234 -0.1395  2.1731  2.2561
 3802SOL    HW223040   2.363   0.574  10.090  0.2017  1.1074  0.3001
 3803SOL     OW23041   1.969   1.825  14.189 -0.3726  0.0989 -0.0772
 3803SOL    HW123042   1.981   1.920  14.191 -0.6073  0.1696 -1.4162
 3803SOL    HW223043   2.053   1.792  14.157 -0.1299  0.0164  0.6670
 3804SOL     OW23044   3.896   4.141  17.417 -0.1783 -0.7002 -0.3520
 3804SOL    HW123045   3.891   4.204  17.345  0.7548  0.9986  1.0676
 3804SOL    HW223046   3.961   4.080  17.383 -0.4511 -0.9332 -0.4565
 3805SOL     OW23047   2.045   3.228   2.693 -0.7018  0.2106 -0.0229
 3805SOL    HW123048   1.981   3.256   2.759 -0.7977 -0.2856  0.0944
 3805SOL    HW223049   2.121   3.260   2.741 -1.4004 -1.2025  1.9978
 3806SOL     OW23050   4.687   1.556   2.481  0.1466 -0.0848  0.1207
 3806SOL    HW123051   4.621   1.508   2.431 -2.1093  0.0948  2.8954
 3806SOL    HW223052   4.696   1.627   2.417  1.8138  0.9770  1.5667
 3807SOL     OW23053   0.717   3.876   8.187 -0.0112  0.1529 -0.4885
 3807SOL    HW123054   0.629   3.901   8.217 -0.3729  0.1967 -1.5794
 3807SOL    HW223055   0.694   3.905   8.098  0.4901  0.8003 -0.4073
 3808SOL     OW23056   1.004   0.762   5.850 -0.0276  0.2876  0.4046
 3808SOL    HW123057   1.069   0.827   5.825  0.0907  0.2191  0.5327
 3808SOL    HW223058   1.013   0.697   5.781 -0.1092 -0.6774  1.2960
 3809SOL     OW23059   0.715   3.846   0.599  0.2117 -0.2445 -0.1798
 3809SOL    HW123060   0.686   3.867   0.688  1.9952 -0.9792  0.5922
 3809SOL    HW223061   0.784   3.786   0.628  0.2929 -0.7786 -1.4961
 3810SOL     OW23062   1.017   3.628  10.170  0.0705  0.1575  0.3074
 3810SOL    HW123063   0.943   3.582  10.128  0.4058  0.5693 -0.7301
 3810SOL    HW223064   1.006   3.714  10.130  0.9852  0.3986  0.5963
 3811SOL     OW23065   3.137   1.031   9.918 -0.0587 -0.2017 -0.4826
 3811SOL    HW123066   3.056   1.072   9.950 -0.3096 -0.5361 -0.6887
 3811SOL    HW223067   3.104   0.947   9.888 -1.2054  0.0584  0.0370
 3812SOL     OW23068   1.179   1.159  10.430 -0.4427 -0.5627  0.1271
 3812SOL    HW123069   1.112   1.109  10.384  0.6040  0.7131 -2.8332
 3812SOL    HW223070   1.169   1.128  10.520  1.4126  1.6353  1.0959
 3813SOL     OW23071   3.879   0.516   6.619  0.0013 -0.3598 -0.9751
 3813SOL    HW123072   3.824   0.512   6.697  0.1083 -1.7828 -0.9816
 3813SOL    HW223073   3.834   0.456   6.559  0.9462 -2.4749  0.4397
 3814SOL     OW23074   4.167   3.320  16.859 -0.2234 -0.2829  0.1628
 3814SOL    HW123075   4.237   3.268  16.899 -0.5050  0.3706  1.5112
 3814SOL    HW223076   4.090   3.290  16.908 -1.3135  0.1315 -1.3274
 3815SOL     OW23077   3.707   4.196   6.530  0.2397 -0.6239 -0.1685
 3815SOL    HW123078   3.782   4.147   6.496 -1.2544 -1.3134 -2.4423
 3815SOL    HW223079   3.658   4.207   6.449 -0.1942  0.5761  0.2477
 3816SOL     OW23080   2.670   2.071   7.962 -0.0256 -0.2607 -0.1477
 3816SOL    HW123081   2.592   2.020   7.985  0.3234 -0.8519 -0.2575
 3816SOL    HW223082   2.721   2.069   8.043 -1.2076  0.6258  0.6135
 3817SOL     OW23083   3.520   1.323   5.388  0.3123 -0.5129 -0.3916
 3817SOL    HW123084   3.597   1.353   5.436  0.1120 -1.4549  0.5238
 3817SOL    HW223085   3.536   1.228   5.387 -1.4907 -0.8361  1.8962
 3818SOL     OW23086   3.715   4.690   8.943 -0.0070  0.0861 -0.3977
 3818SOL    HW123087   3.687   4.618   9.000  0.5067 -0.7934 -1.2620
 3818SOL    HW223088   3.688   0.028   8.994  1.8087 -0.8724  2.0456
 3819SOL     OW23089   1.595   4.562   3.573 -0.0110  1.2445 -0.2648
 3819SOL    HW123090   1.559   4.476   3.550 -1.4112  1.9808 -0.8462
 3819SOL    HW223091   1.685   4.538   3.553  0.2062  2.0048 -0.2173
 3820SOL     OW23092   4.114   2.469   4.838  0.4598  0.1999  0.3861
 3820SOL    HW123093   4.184   2.535   4.846 -1.0128  1.5478  2.0176
 3820SOL    HW223094   4.151   2.386   4.868  0.3179 -1.0682 -2.9850
 3821SOL     OW23095   1.516   2.299   4.764  0.2078  0.0369  0.4200
 3821SOL    HW123096   1.513   2.382   4.813  0.3248  1.1931 -1.5316
 3821SOL    HW223097   1.493   2.242   4.838 -0.8359  1.1336  0.9441
 3822SOL     OW23098   3.530   2.940   8.385 -0.2016 -0.2194  0.1541
 3822SOL    HW123099   3.494   2.858   8.418  3.0737 -1.5559  0.3243
 3822SOL    HW223100   3.541   2.980   8.472  0.0952  0.0145  0.0097
 3823SOL     OW23101   2.210   0.729   6.884 -0.4259  0.1431  0.1777
 3823SOL    HW123102   2.170   0.683   6.810  0.9560  0.0937 -0.5480
 3823SOL    HW223103   2.129   0.748   6.932 -0.0700  2.5659 -0.1862
 3824SOL     OW23104   4.549   4.206   8.045 -0.1705  0.0261  0.7271
 3824SOL    HW123105   4.562   4.292   8.085  0.9226 -1.0473  2.6667
 3824SOL    HW223106   4.563   4.143   8.116 -1.3447 -0.0190  0.9264
 3825SOL     OW23107   1.243   2.632   9.699  0.3362 -0.3271  0.1712
 3825SOL    HW123108   1.187   2.643   9.776 -0.3888 -1.7014 -0.1542
 3825SOL    HW223109   1.326   2.595   9.728  0.2526 -0.6431  0.0107
 3826SOL     OW23110   0.956   4.430   2.779 -0.1187  0.2915  0.0732
 3826SOL    HW123111   0.943   4.494   2.709 -2.9855  1.8046  2.0195
 3826SOL    HW223112   0.971   4.481   2.858 -1.3903 -1.9658  1.7567
 3827SOL     OW23113   3.774   0.230   2.582  0.0397 -0.2098  0.1096
 3827SOL    HW123114   3.726   0.309   2.557  1.7042  0.0710 -2.2239
 3827SOL    HW223115   3.718   0.165   2.540 -2.0921  0.6679  1.5644
 3828SOL     OW23116   2.370   0.041   2.991  0.3011 -0.3471  0.3541
 3828SOL    HW123117   2.333   4.693   2.975 -1.5547  0.7925 -1.5108
 3828SOL    HW223118   2.448   0.030   3.046  0.1460  0.7478  0.7844
 3829SOL     OW23119   0.139   0.300   7.195  0.6079 -0.1624 -0.1619
 3829SOL    HW123120   0.150   0.286   7.289 -1.5815 -0.4566  0.0497
 3829SOL    HW223121   0.181   0.222   7.157  0.3616  0.2462 -1.2802
 3830SOL     OW23122   0.074   2.247   3.470 -0.3551 -0.1851  0.3450
 3830SOL    HW123123   0.072   2.341   3.488 -0.7819 -0.2613  0.6846
 3830SOL    HW223124   0.019   2.212   3.540  1.4804 -1.7035  1.0311
 3831SOL     OW23125   2.130   0.739   3.438 -0.2512  0.0505  0.5286
 3831SOL    HW123126   2.150   0.701   3.353 -2.2444 -3.1439  1.5097
 3831SOL    HW223127   2.040   0.768   3.427  0.3193  0.8653 -2.0322
 3832SOL     OW23128   0.701   1.673   7.832 -0.5214  0.0161 -0.4036
 3832SOL    HW123129   0.703   1.610   7.760  4.3296  1.9293 -1.9851
 3832SOL    HW223130   0.618   1.718   7.820 -0.4073 -0.5573 -3.3441
 3833SOL     OW23131   2.662   1.766  15.812 -0.3563  0.0783 -0.3038
 3833SOL    HW123132   2.596   1.778  15.743 -1.7108 -0.6995  0.8391
 3833SOL    HW223133   2.742   1.792  15.768 -0.6910 -1.1844 -1.6781
 3834SOL     OW23134   3.819   2.894   0.264 -0.4248 -0.2835  0.1266
 3834SOL    HW123135   3.815   2.945   0.345  1.6320  0.4003 -0.1878
 3834SOL    HW223136   3.796   2.967   0.207  0.7231  0.2645  0.3651
 3835SOL     OW23137   4.653   0.573   1.612 -0.1168  0.1253 -0.1973
 3835SOL    HW123138   4.604   0.565   1.693  0.1602 -1.9057 -0.2239
 3835SOL    HW223139   4.693   0.486   1.620  0.2899  0.0675 -2.8946
 3836SOL     OW23140   4.097   1.080  16.749  0.3155 -0.2772 -0.1032
 3836SOL    HW123141   4.175   1.101  16.698  0.1786  2.2419  0.7043
 3836SOL    HW223142   4.083   1.168  16.784 -1.7863 -0.7086  0.1349
 3837SOL     OW23143   3.457   2.309   6.887  0.5077 -0.4998  0.2629
 3837SOL    HW123144   3.468   2.283   6.796  2.0561 -1.8390  0.8386
 3837SOL    HW223145   3.385   2.372   6.878  1.1440 -0.1446 -2.2537
 3838SOL     OW23146   4.535   1.910   6.124 -0.4333  0.0823 -0.1626
 3838SOL    HW123147   4.481   1.855   6.068 -0.9379  0.1809  0.2227
 3838SOL    HW223148   4.481   1.942   6.196 -0.5197  1.3153 -0.7749
 3839SOL     OW23149   1.706   1.104   1.831  0.1831  0.2574 -0.3126
 3839SOL    HW123150   1.729   1.157   1.908  0.7172 -0.0424 -0.2619
 3839SOL    HW223151   1.791   1.068   1.805  1.1473  1.5868  0.9743
 3840SOL     OW23152   0.027   4.408   3.653 -0.2885 -0.0465  0.6966
 3840SOL    HW123153   0.001   4.478   3.712 -0.3584 -1.0697  1.8895
 3840SOL    HW223154   0.119   4.428   3.639  0.0811 -2.1258  0.0875
 3841SOL     OW23155   3.183   2.362   2.551 -0.4678  0.7848  0.1318
 3841SOL    HW123156   3.277   2.355   2.537 -1.1229 -0.5514 -3.4626
 3841SOL    HW223157   3.142   2.290   2.503  0.8658 -1.5998  2.5873
 3842SOL     OW23158   2.045   2.007   4.995  0.3997 -0.4852 -0.5420
 3842SOL    HW123159   1.972   1.950   5.018  1.4255 -1.6794 -0.2647
 3842SOL    HW223160   2.011   2.093   5.022  0.0228 -1.7650  3.0409
 3843SOL     OW23161   1.797   1.029   2.774 -0.1106  0.1375 -0.2047
 3843SOL    HW123162   1.789   1.063   2.685  1.3516  0.5155 -0.1949
 3843SOL    HW223163   1.858   0.955   2.763 -1.0286 -0.4622 -1.2488
 3844SOL     OW23164   2.856   3.943   3.497 -0.3231  0.1766 -0.2206
 3844SOL    HW123165   2.893   3.958   3.584  0.1711 -0.9156 -0.2400
 3844SOL    HW223166   2.902   3.863   3.471 -3.5502 -1.0346 -2.1967
 3845SOL     OW23167   3.723   1.207   0.746  0.0362  0.6960 -0.1861
 3845SOL    HW123168   3.642   1.258   0.748 -0.8773 -0.6626 -2.3571
 3845SOL    HW223169   3.761   1.247   0.668  1.1061 -0.3924 -0.2185
 3846SOL     OW23170   4.514   2.455   0.869 -0.4209  0.2799 -0.3373
 3846SOL    HW123171   4.553   2.481   0.786  0.4098  2.7634  0.8110
 3846SOL    HW223172   4.427   2.424   0.847  0.0125 -1.2990  0.2159
 3847SOL     OW23173   3.932   0.445   8.657  0.3854  0.0531  0.5721
 3847SOL    HW123174   3.873   0.520   8.653 -1.4840 -1.4184  1.0474
 3847SOL    HW223175   3.996   0.494   8.603 -0.2067  1.0544  0.7779
 3848SOL     OW23176   2.480   0.090   7.753  0.4600 -0.6836  0.2650
 3848SOL    HW123177   2.503   0.003   7.721  0.6792 -0.1487 -1.0378
 3848SOL    HW223178   2.389   0.102   7.727  0.1419  0.5951  1.9461
 3849SOL     OW23179   0.744   0.861   7.141  0.5477 -0.0853 -0.2999
 3849SOL    HW123180   0.839   0.862   7.152  0.2126  0.5551  2.6675
 3849SOL    HW223181   0.718   0.941   7.096  3.2408  1.8084  1.5107
 3850SOL     OW23182   3.390   1.685   7.294  0.0353  0.6175 -0.0702
 3850SOL    HW123183   3.321   1.724   7.347  1.2105 -0.1116  2.0055
 3850SOL    HW223184   3.353   1.704   7.208 -2.0515 -1.3707  0.3738
 3851SOL     OW23185   2.955   0.730   8.064  0.0200 -0.1140  0.0754
 3851SOL    HW123186   2.903   0.709   7.986 -0.0349  1.4469 -0.3023
 3851SOL    HW223187   3.011   0.652   8.071  1.0865  0.4328 -2.2434
 3852SOL     OW23188   3.961   0.378   8.111 -0.0153 -0.4653  0.1046
 3852SOL    HW123189   3.899   0.420   8.051  0.7404  1.4920  0.6903
 3852SOL    HW223190   3.910   0.315   8.163 -0.9126 -1.5193 -2.0378
 3853SOL     OW23191   3.727   1.718   4.571  0.6443  0.5238  0.0933
 3853SOL    HW123192   3.718   1.812   4.560  3.9853  0.6219 -1.6621
 3853SOL    HW223193   3.648   1.683   4.613  0.0096  1.2357 -0.5118
 3854SOL     OW23194   0.997   0.085  15.483  0.0542  0.0831  0.6912
 3854SOL    HW123195   1.011   0.139  15.560  2.3270 -0.7722  0.8807
 3854SOL    HW223196   0.987   0.149  15.413  2.7966  0.9568  1.0838
 3855SOL     OW23197   1.889   1.931   9.974 -0.0441 -0.3006 -0.2084
 3855SOL    HW123198   1.845   1.966  10.052 -1.1930  0.7109 -1.3036
 3855SOL    HW223199   1.942   2.007   9.949  3.0987 -3.3704 -2.8780
 3856SOL     OW23200   4.346   1.327   4.379  0.0812 -0.1518  0.4933
 3856SOL    HW123201   4.401   1.298   4.452 -1.6547 -0.5711  1.6189
 3856SOL    HW223202   4.409   1.353   4.311 -0.0912 -1.6754 -0.2419
 3857SOL     OW23203   1.612   0.661  11.496  0.1965 -0.1048 -0.5363
 3857SOL    HW123204   1.559   0.734  11.528 -0.2204 -0.0357 -1.3734
 3857SOL    HW223205   1.698   0.680  11.534  0.9459 -0.7603 -1.8844
 3858SOL     OW23206   0.455   1.152   8.978 -0.4688  0.2529 -0.2045
 3858SOL    HW123207   0.459   1.073   8.926 -0.5571 -0.7051  1.2429
 3858SOL    HW223208   0.383   1.133   9.039 -0.5465  3.9766  0.8874
 3859SOL     OW23209   4.650   2.495   4.960  0.5490 -0.5375 -0.6478
 3859SOL    HW123210   4.589   2.552   4.913  1.6057  1.6341  0.5981
 3859SOL    HW223211   4.615   2.412   4.927 -1.2814  0.2458 -0.6693
 3860SOL     OW23212   1.858   1.546   2.687  0.1380  0.0674  0.3968
 3860SOL    HW123213   1.923   1.600   2.734  0.4807 -1.3145  1.5010
 3860SOL    HW223214   1.907   1.512   2.613 -1.1372  1.1662 -0.9505
 3861SOL     OW23215   2.519   2.526   4.623  0.2320  0.2577 -0.0535
 3861SOL    HW123216   2.457   2.491   4.558 -2.1679 -0.5454  2.6899
 3861SOL    HW223217   2.594   2.470   4.603  0.2923 -0.0628  1.1265
 3862SOL     OW23218   3.559   1.661   6.828 -0.2842 -0.1754 -0.0339
 3862SOL    HW123219   3.552   1.641   6.922  0.7986  2.4399  0.6040
 3862SOL    HW223220   3.633   1.606   6.806 -0.0860  0.8428 -1.9079
 3863SOL     OW23221   3.402   2.832  11.088  0.0431 -0.0664 -0.1904
 3863SOL    HW123222   3.489   2.795  11.100  0.0626  0.0402  0.0045
 3863SOL    HW223223   3.417   2.916  11.044  1.2528  0.5377  1.3674
 3864SOL     OW23224   4.334   2.275  16.100 -0.2549 -0.1552 -0.3928
 3864SOL    HW123225   4.278   2.217  16.048  0.0140 -4.4289  4.0752
 3864SOL    HW223226   4.425   2.250  16.081  0.3546  1.3898  0.5337
 3865SOL     OW23227   3.277   2.496   6.848  0.6394  0.0236  0.0516
 3865SOL    HW123228   3.188   2.516   6.820 -0.1470  0.4509  2.8795
 3865SOL    HW223229   3.297   2.569   6.907  0.2142 -0.0330  0.2666
 3866SOL     OW23230   4.527   3.745  15.895  0.3731 -0.2221  0.1280
 3866SOL    HW123231   4.594   3.766  15.961 -0.0360  1.1479  0.1012
 3866SOL    HW223232   4.484   3.830  15.883  2.0206  1.2005  4.1016
 3867SOL     OW23233   1.003   4.310  14.670 -0.9537  0.3317  0.0146
 3867SOL    HW123234   1.070   4.325  14.737 -0.2426 -0.0204 -0.6253
 3867SOL    HW223235   0.947   4.251  14.721  0.7358 -1.8492 -0.6376
 3868SOL     OW23236   2.423   0.046   8.443  0.4081 -0.2560  0.0655
 3868SOL    HW123237   2.494   4.733   8.480  1.1520  0.6951 -0.0263
 3868SOL    HW223238   2.409   0.017   8.353 -1.2789 -1.2433  0.6438
 3869SOL     OW23239   0.205   3.265   3.589  0.1680  0.0171 -0.2391
 3869SOL    HW123240   0.238   3.177   3.609 -0.9757 -0.4279 -0.3294
 3869SOL    HW223241   0.138   3.244   3.523  1.0659 -2.2508 -0.4447
 3870SOL     OW23242   4.374   1.894   8.778 -0.5414  0.0368 -0.9332
 3870SOL    HW123243   4.386   1.853   8.693  1.7519 -1.8109  0.2615
 3870SOL    HW223244   4.465   1.900   8.809 -1.1538  0.0232  0.8705
 3871SOL     OW23245   2.009   1.091   8.631  0.1578 -0.1924 -0.3116
 3871SOL    HW123246   1.929   1.128   8.669  0.9340 -0.2503  1.4042
 3871SOL    HW223247   1.982   1.036   8.558  1.3224  0.2463 -1.0740
 3872SOL     OW23248   0.866   3.739   7.191 -0.1376 -0.0140 -0.1314
 3872SOL    HW123249   0.914   3.673   7.141 -0.1570 -1.5463  1.8720
 3872SOL    HW223250   0.783   3.691   7.194 -0.7546  1.0932  0.9419
 3873SOL     OW23251   3.147   2.771   9.021 -0.4743 -0.2579 -0.0049
 3873SOL    HW123252   3.229   2.819   9.014 -0.3598 -0.4658 -0.0802
 3873SOL    HW223253   3.185   2.684   9.034  0.2212 -0.1940 -1.5711
 3874SOL     OW23254   2.531   1.414   3.588  0.2018 -0.3349 -0.1438
 3874SOL    HW123255   2.446   1.372   3.604  1.0558 -2.0813 -0.2242
 3874SOL    HW223256   2.559   1.438   3.676 -0.1523  0.3745 -0.2250
 3875SOL     OW23257   0.547   1.090   1.767 -0.0485  0.5334  0.1276
 3875SOL    HW123258   0.562   1.143   1.689  1.4107 -1.5936 -1.0378
 3875SOL    HW223259   0.617   1.122   1.824  0.1004 -0.1308  0.3249
 3876SOL     OW23260   0.691   3.718   8.517 -1.2114 -0.3114  0.6733
 3876SOL    HW123261   0.665   3.749   8.603 -1.9614  0.2764  0.2371
 3876SOL    HW223262   0.785   3.709   8.529 -0.7856  1.2692 -1.4008
 3877SOL     OW23263   1.998   3.770   3.820  0.2186 -0.5898  0.1923
 3877SOL    HW123264   1.976   3.678   3.805  0.9744 -0.7212 -0.1421
 3877SOL    HW223265   2.028   3.764   3.911 -0.6789  3.7603  0.7549
 3878SOL     OW23266   3.004   0.169   9.422  0.5394  0.3470  0.1329
 3878SOL    HW123267   2.918   0.192   9.388  0.5682  0.3342  0.0512
 3878SOL    HW223268   3.013   0.234   9.491 -0.5781  0.9088 -0.2620
 3879SOL     OW23269   3.586   3.230   1.740  0.0364  0.3692 -0.4108
 3879SOL    HW123270   3.646   3.294   1.778  0.7951 -1.9661  2.3702
 3879SOL    HW223271   3.571   3.170   1.813  0.0001  1.2413  0.2986
 3880SOL     OW23272   1.587   4.052   4.044  0.0576  0.5494 -0.2677
 3880SOL    HW123273   1.614   4.143   4.038  2.4086 -0.2478 -1.6342
 3880SOL    HW223274   1.674   4.021   4.070  0.4296  1.9259  0.1030
 3881SOL     OW23275   0.011   1.614   6.538  0.3631  0.1477 -0.0034
 3881SOL    HW123276   0.075   1.562   6.489 -0.2604 -1.2690  0.6902
 3881SOL    HW223277   4.706   1.668   6.471 -1.3610  0.4415  1.3586
 3882SOL     OW23278   1.802   4.358   9.539 -0.6790 -0.2361 -0.0670
 3882SOL    HW123279   1.817   4.275   9.584 -1.0156 -1.0806 -1.5338
 3882SOL    HW223280   1.770   4.319   9.458 -0.0902 -1.6215  0.3638
 3883SOL     OW23281   2.681   4.206   2.004 -0.6485 -0.6829 -0.0113
 3883SOL    HW123282   2.773   4.191   2.025 -0.2396  3.3007  0.9295
 3883SOL    HW223283   2.652   4.122   2.040  0.2517 -0.8887  0.2215
 3884SOL     OW23284   4.722   3.575  16.241 -0.1128  0.0526 -0.1995
 3884SOL    HW123285   0.000   3.595  16.333 -0.0902 -1.2239  0.0679
 3884SOL    HW223286   4.671   3.495  16.251  2.2995 -1.4100  0.5106
 3885SOL     OW23287   2.416   1.328   4.999 -0.2182  0.4323 -0.0490
 3885SOL    HW123288   2.401   1.263   4.930  0.8766 -0.5680  0.6605
 3885SOL    HW223289   2.383   1.411   4.963  1.4338 -0.0826 -2.7318
 3886SOL     OW23290   4.569   3.630   4.975  0.4199 -0.8744  0.2985
 3886SOL    HW123291   4.524   3.558   4.930  0.1908  0.3718 -1.4903
 3886SOL    HW223292   4.601   3.666   4.892  0.2690 -0.2785  0.4968
 3887SOL     OW23293   3.804   4.015   4.504  0.1679 -0.7701  0.0391
 3887SOL    HW123294   3.758   3.987   4.584  0.7934 -1.7775  0.0497
 3887SOL    HW223295   3.876   3.952   4.513  0.6540  0.0103  1.6027
 3888SOL     OW23296   0.452   2.271   3.273 -0.1993  1.1577 -0.4357
 3888SOL    HW123297   0.376   2.233   3.229  0.6147 -2.6205  1.4506
 3888SOL    HW223298   0.427   2.250   3.363  2.8818  0.2272  0.1932
 3889SOL     OW23299   4.009   2.599   6.389 -0.1813  0.1405  0.1972
 3889SOL    HW123300   4.004   2.681   6.437 -1.3149  1.1798 -1.6845
 3889SOL    HW223301   3.991   2.627   6.299 -0.3851  1.5413  0.6708
 3890SOL     OW23302   0.989   4.433  12.846 -0.6632 -0.3260  0.6162
 3890SOL    HW123303   0.910   4.397  12.887 -1.1391 -1.7018 -1.5033
 3890SOL    HW223304   0.983   4.520  12.887  0.1039  0.2378 -0.4901
 3891SOL     OW23305   0.675   1.084   3.607  0.0232 -0.3460 -0.2715
 3891SOL    HW123306   0.766   1.055   3.597  0.1285  0.6466 -2.1455
 3891SOL    HW223307   0.643   1.012   3.661 -0.1715 -0.4656 -0.5436
 3892SOL     OW23308   0.488   3.255   0.381 -0.0955 -0.6781  0.0493
 3892SOL    HW123309   0.403   3.258   0.337  0.0214 -0.0454 -0.1352
 3892SOL    HW223310   0.521   3.338   0.348 -1.8966 -0.1693 -0.4320
 3893SOL     OW23311   2.018   4.651   3.326  0.2360  0.1797 -0.1312
 3893SOL    HW123312   2.061   4.736   3.312  1.2427 -0.2612  0.2460
 3893SOL    HW223313   1.963   4.673   3.401  0.3407 -1.4493  0.4194
 3894SOL     OW23314   3.248   3.307   6.023 -0.2967  0.2343 -0.0003
 3894SOL    HW123315   3.178   3.372   6.022 -2.4151 -2.0196  1.6399
 3894SOL    HW223316   3.228   3.247   5.951 -1.1587  1.3196 -0.6659
 3895SOL     OW23317   3.988   2.131   6.797 -0.5413  0.0486  0.2257
 3895SOL    HW123318   3.934   2.056   6.772  2.4038 -2.0930  0.1963
 3895SOL    HW223319   3.926   2.203   6.786  1.1562  1.1577 -2.1571
 3896SOL     OW23320   0.035   4.191  10.067 -0.1052 -0.2799  0.6040
 3896SOL    HW123321   0.087   4.272  10.071 -1.4904  0.5542  1.7516
 3896SOL    HW223322   0.098   4.132  10.026 -1.1209 -0.1775 -1.1064
 3897SOL     OW23323   3.168   2.338  14.280  0.0939 -0.6022 -0.8239
 3897SOL    HW123324   3.205   2.356  14.366 -0.1998 -1.9215 -0.4154
 3897SOL    HW223325   3.205   2.407  14.225  0.1853 -0.0201 -0.0193
 3898SOL     OW23326   3.793   3.456   7.230  0.0449 -0.1757  0.2335
 3898SOL    HW123327   3.834   3.371   7.217  1.0801  0.6117 -1.6779
 3898SOL    HW223328   3.712   3.440   7.278  1.1451 -0.9213  1.8242
 3899SOL     OW23329   3.827   0.184   8.270  0.3409  0.3700  0.0780
 3899SOL    HW123330   3.905   0.129   8.259  0.2661  0.1837  0.4621
 3899SOL    HW223331   3.795   0.162   8.358  1.0462 -0.5585  0.0951
 3900SOL     OW23332   3.216   4.531   6.458 -0.1393  0.2625  0.1823
 3900SOL    HW123333   3.169   4.515   6.539 -0.2453  1.3809  0.3391
 3900SOL    HW223334   3.213   4.625   6.438 -1.2040  0.4593  1.3047
 3901SOL     OW23335   3.057   4.608  14.812  0.7610 -0.3479  0.0397
 3901SOL    HW123336   3.045   4.560  14.894 -1.2706  1.2049  0.6510
 3901SOL    HW223337   3.131   4.665  14.833 -0.1487  0.7690  0.2467
 3902SOL     OW23338   0.571   1.226   6.865  0.4532  0.6114  0.2280
 3902SOL    HW123339   0.491   1.192   6.826  1.5929 -0.7165 -0.9625
 3902SOL    HW223340   0.533   1.309   6.891 -0.8973 -0.1617  0.7186
 3903SOL     OW23341   0.206   3.779   7.621  0.4422  0.4663  0.1247
 3903SOL    HW123342   0.134   3.744   7.674 -1.0090 -0.1297 -2.2172
 3903SOL    HW223343   0.157   3.784   7.539  2.1706 -0.0762 -0.9299
 3904SOL     OW23344   4.675   0.047   4.040 -0.1125 -0.5504 -0.1179
 3904SOL    HW123345   4.660   0.079   4.130 -0.2468  0.7338 -0.5939
 3904SOL    HW223346   4.667   4.692   4.060  0.2943 -0.6795 -0.5830
 3905SOL     OW23347   2.777   2.388   0.965 -0.1533 -0.4920  0.0698
 3905SOL    HW123348   2.688   2.353   0.973  0.1656 -1.3843 -0.2151
 3905SOL    HW223349   2.790   2.393   0.870  0.3026  0.3731  0.1745
 3906SOL     OW23350   3.457   2.528   7.599 -0.3190 -0.4162 -0.2009
 3906SOL    HW123351   3.508   2.458   7.638  1.0836  0.7962  0.1676
 3906SOL    HW223352   3.467   2.598   7.663  0.4743  0.0082 -0.7827
 3907SOL     OW23353   4.733   3.498   0.014  0.5868 -0.0965  0.3594
 3907SOL    HW123354   4.724   3.447  17.686  1.6178  0.3842 -0.0625
 3907SOL    HW223355   4.638   3.509   0.019  0.6312  0.8992 -0.8846
 3908SOL     OW23356   1.480   2.699   4.373 -0.2603 -0.3683 -0.4484
 3908SOL    HW123357   1.509   2.789   4.383 -1.3824 -0.4542  3.9639
 3908SOL    HW223358   1.386   2.715   4.381  0.1158  0.9751  1.3887
 3909SOL     OW23359   1.250   0.761   2.597  0.6783  0.4653  0.1602
 3909SOL    HW123360   1.173   0.816   2.608 -0.6072 -1.6336  1.5063
 3909SOL    HW223361   1.319   0.824   2.575 -0.1732  0.9631 -1.1083
 3910SOL     OW23362   4.622   0.117   6.758 -0.4524 -0.1586  0.4714
 3910SOL    HW123363   4.711   0.123   6.792  0.2981 -0.8437 -1.3549
 3910SOL    HW223364   4.584   0.205   6.748  4.9961  1.8724 -2.5720
 3911SOL     OW23365   4.517   1.260   3.577  0.2462  0.0598 -0.7957
 3911SOL    HW123366   4.479   1.244   3.663  3.0484 -1.9110  0.1032
 3911SOL    HW223367   4.442   1.282   3.523 -0.7806 -0.2207  0.5180
 3912SOL     OW23368   2.971   3.886   4.176 -0.6343  0.0647 -0.4245
 3912SOL    HW123369   2.967   3.972   4.219  1.8599 -0.0819  0.0567
 3912SOL    HW223370   3.009   3.839   4.250  0.0030 -2.3165 -2.2442
 3913SOL     OW23371   2.252   3.236   4.287  0.4863 -0.2607 -0.1413
 3913SOL    HW123372   2.314   3.220   4.216  1.5706  1.3819  0.4130
 3913SOL    HW223373   2.299   3.187   4.354 -1.5869  0.1282  1.5857
 3914SOL     OW23374   4.369   0.953   2.006 -0.0779 -0.2397  0.5305
 3914SOL    HW123375   4.414   0.888   1.951 -2.9334 -1.4302 -0.3767
 3914SOL    HW223376   4.323   0.896   2.067  0.1402 -0.3014  0.6394
 3915SOL     OW23377   0.562   0.568   5.418 -0.4313  0.6906 -0.1531
 3915SOL    HW123378   0.492   0.533   5.473 -0.0554  1.9962  1.1604
 3915SOL    HW223379   0.517   0.594   5.337 -0.6566 -0.1477 -0.2939
 3916SOL     OW23380   1.386   0.956   0.053  0.1375 -0.4316 -0.5603
 3916SOL    HW123381   1.463   0.900   0.058  0.7783  0.4542 -0.5772
 3916SOL    HW223382   1.390   0.983  17.712  1.6303  1.3792  0.0542
 3917SOL     OW23383   4.602   4.380   7.218  0.1195 -0.5071  0.6695
 3917SOL    HW123384   4.602   4.472   7.189  0.6869 -0.4216  0.9419
 3917SOL    HW223385   4.694   4.354   7.210  0.6040  1.1070  0.9098
 3918SOL     OW23386   2.620   1.425   6.454 -0.3168 -0.1753  0.1009
 3918SOL    HW123387   2.711   1.401   6.466  0.3835  0.8120 -3.3026
 3918SOL    HW223388   2.579   1.339   6.465  1.5914 -0.8621  1.9019
 3919SOL     OW23389   3.054   3.550   1.512  0.2337 -0.0052 -0.4154
 3919SOL    HW123390   3.013   3.616   1.568 -1.8256 -1.8889  0.2834
 3919SOL    HW223391   3.027   3.471   1.558  0.9035  0.1865  0.3154
 3920SOL     OW23392   3.373   2.703   7.010  0.7004  0.2741 -0.5804
 3920SOL    HW123393   3.307   2.769   6.989  0.7286  1.9658  4.6492
 3920SOL    HW223394   3.442   2.716   6.945  2.0705  3.6014  1.5688
 3921SOL     OW23395   2.525   3.583   2.549  0.5878 -0.2758  0.2955
 3921SOL    HW123396   2.618   3.575   2.572  0.5494  1.6009  1.0617
 3921SOL    HW223397   2.492   3.504   2.506 -1.0174  0.2341  0.5943
 3922SOL     OW23398   2.970   1.154  15.836  0.1029 -0.4647 -0.1080
 3922SOL    HW123399   2.979   1.242  15.801  1.3340  0.1246  1.7067
 3922SOL    HW223400   3.051   1.124  15.793  1.8046  2.5539  1.0284
 3923SOL     OW23401   0.849   1.673   4.192  0.1976  0.8318  0.2988
 3923SOL    HW123402   0.778   1.660   4.256 -1.3164  3.1246 -0.9291
 3923SOL    HW223403   0.800   1.685   4.111 -0.3321  0.2235  0.5235
 3924SOL     OW23404   2.189   3.296   2.125  0.1891  0.1032  0.2059
 3924SOL    HW123405   2.192   3.358   2.053 -3.0924  1.0247  0.8663
 3924SOL    HW223406   2.104   3.259   2.104 -0.3296  1.3286  0.1742
 3925SOL     OW23407   2.378   0.541   5.432 -0.0675  0.1931 -0.3938
 3925SOL    HW123408   2.437   0.478   5.389 -1.4483 -1.0284 -0.4817
 3925SOL    HW223409   2.290   0.506   5.417  0.7038 -1.7794 -0.3636
 3926SOL     OW23410   2.829   4.219   8.365  0.0015 -0.0579  0.1728
 3926SOL    HW123411   2.861   4.241   8.452 -0.3462  1.5839 -0.1129
 3926SOL    HW223412   2.900   4.262   8.319  0.3826  0.5401  1.3185
 3927SOL     OW23413   3.814   0.450   8.969 -0.0282  0.0998  0.0799
 3927SOL    HW123414   3.785   0.539   8.948  0.2712  0.1197 -0.2490
 3927SOL    HW223415   3.860   0.429   8.888 -0.6017 -1.2564  0.1081
 3928SOL     OW23416   2.899   4.165   8.642  0.3778  0.6726 -0.3344
 3928SOL    HW123417   2.953   4.111   8.699  0.1931  3.0779  2.1546
 3928SOL    HW223418   2.825   4.120   8.600  0.2312 -0.1676  0.8484
 3929SOL     OW23419   3.158   0.309  12.635 -0.4542  0.0082 -0.0273
 3929SOL    HW123420   3.178   0.369  12.563  1.2221  0.9008  1.1879
 3929SOL    HW223421   3.235   0.254  12.646 -0.8827 -0.8653 -1.3620
 3930SOL     OW23422   2.853   1.346  15.475 -0.3155  0.5659 -0.2383
 3930SOL    HW123423   2.882   1.372  15.562 -1.3899 -0.0813  0.3171
 3930SOL    HW223424   2.919   1.384  15.417  0.8938 -1.8632 -0.4595
 3931SOL     OW23425   3.350   2.816   0.645  0.1550 -0.2186 -0.1143
 3931SOL    HW123426   3.366   2.725   0.669  0.3835 -0.1072  0.1605
 3931SOL    HW223427   3.378   2.863   0.723 -0.7118  1.9672 -1.1139
 3932SOL     OW23428   1.737   0.735  15.888  0.0355  0.1939  0.2993
 3932SOL    HW123429   1.766   0.729  15.797 -1.5804  2.1020 -0.3530
 3932SOL    HW223430   1.668   0.670  15.874 -1.2020  1.4896  0.3160
 3933SOL     OW23431   0.346   3.397   9.558  0.4720 -0.0966 -0.2354
 3933SOL    HW123432   0.254   3.381   9.533 -0.1354  0.9163  1.3526
 3933SOL    HW223433   0.395   3.324   9.520 -0.8617 -2.2183  2.1529
 3934SOL     OW23434   1.296   1.987   3.750 -0.8716 -0.5170  0.1983
 3934SOL    HW123435   1.293   1.905   3.801 -1.7916 -0.5651  0.0714
 3934SOL    HW223436   1.205   2.015   3.753 -0.5591  0.6183 -1.1217
 3935SOL     OW23437   3.987   4.071   7.693  0.4054  0.2313 -0.4071
 3935SOL    HW123438   3.906   4.059   7.645 -0.0343 -0.1265  0.4325
 3935SOL    HW223439   4.024   4.150   7.653 -1.3644  0.6369 -1.2377
 3936SOL     OW23440   3.795   2.756   5.146 -0.2309  0.5785 -0.3397
 3936SOL    HW123441   3.811   2.675   5.194 -1.5863 -0.2196 -1.2219
 3936SOL    HW223442   3.881   2.788   5.119 -0.2533  2.4211  1.7463
 3937SOL     OW23443   3.630   4.407   1.472 -0.3361 -0.0285 -0.2222
 3937SOL    HW123444   3.690   4.481   1.473 -1.3478  0.7930 -0.4206
 3937SOL    HW223445   3.635   4.376   1.381  2.6782 -1.5001  0.4391
 3938SOL     OW23446   2.250   2.880   5.219  0.2311  0.3524  0.4993
 3938SOL    HW123447   2.275   2.938   5.292  0.8406 -0.8771  1.2824
 3938SOL    HW223448   2.276   2.795   5.255  1.3924  0.9188  1.0170
 3939SOL     OW23449   4.168   3.417   3.745 -0.9951 -0.4466 -0.4337
 3939SOL    HW123450   4.118   3.344   3.780  0.7247 -0.1705  2.5719
 3939SOL    HW223451   4.120   3.491   3.784  1.8775  1.1358  0.0796
 3940SOL     OW23452   1.976   3.297  15.177  0.1081 -0.1086 -0.3736
 3940SOL    HW123453   2.063   3.334  15.190  0.6178 -1.0124 -1.1378
 3940SOL    HW223454   1.922   3.340  15.243 -0.2736  0.9696 -1.3987
 3941SOL     OW23455   0.406   1.926   5.588 -0.2045 -0.1420  0.1401
 3941SOL    HW123456   0.316   1.941   5.618  0.3084  0.2488  1.4956
 3941SOL    HW223457   0.408   1.831   5.602  0.4449  0.2634  2.9196
 3942SOL     OW23458   2.062   0.823  15.731  0.5281 -0.0442 -0.6511
 3942SOL    HW123459   2.110   0.747  15.696  1.0479 -1.0224  2.2411
 3942SOL    HW223460   2.128   0.888  15.752 -0.0230  0.5058 -0.6084
 3943SOL     OW23461   4.085   0.450   5.963 -0.5275 -0.4357 -0.3579
 3943SOL    HW123462   4.152   0.382   5.961 -0.0154  0.0315  1.1138
 3943SOL    HW223463   4.137   0.516   6.009  0.1191 -3.1812  2.7684
 3944SOL     OW23464   1.892   4.401   8.677  0.0576  0.1678 -0.0168
 3944SOL    HW123465   1.902   4.432   8.767 -1.4938 -0.8597  0.5211
 3944SOL    HW223466   1.927   4.473   8.625 -1.0194 -0.0598 -1.0549
 3945SOL     OW23467   0.772   0.584  10.850  0.2234 -0.2978  0.7133
 3945SOL    HW123468   0.836   0.562  10.783  1.0154  2.0223  0.7022
 3945SOL    HW223469   0.728   0.659  10.810  0.4070  0.6478  2.2671
 3946SOL     OW23470   0.260   1.563   6.870  1.2904  0.3608  0.2742
 3946SOL    HW123471   0.232   1.478   6.836  0.0803  0.1419  1.7949
 3946SOL    HW223472   0.212   1.625   6.815  0.8224 -0.2056  0.0467
 3947SOL     OW23473   1.823   0.502   8.717 -0.0248 -0.2421 -0.2974
 3947SOL    HW123474   1.747   0.559   8.730 -0.4730 -1.2338  1.3129
 3947SOL    HW223475   1.878   0.525   8.791  1.8438 -0.4234 -1.6205
 3948SOL     OW23476   2.674   3.543   7.916  0.2588  0.1601 -0.0174
 3948SOL    HW123477   2.663   3.518   8.008  2.1295 -0.0142  0.1622
 3948SOL    HW223478   2.717   3.469   7.873 -0.9060 -0.7893  0.4402
 3949SOL     OW23479   4.528   0.246   2.772 -0.1976 -0.4358  0.4459
 3949SOL    HW123480   4.501   0.166   2.818  1.1828 -0.2705  1.5616
 3949SOL    HW223481   4.490   0.226   2.686 -0.9817  1.6678  0.2931
 3950SOL     OW23482   0.406   4.259   3.273  0.3865  0.4675  0.2829
 3950SOL    HW123483   0.416   4.296   3.186  1.4859  1.0613  0.6583
 3950SOL    HW223484   0.496   4.273   3.302  0.9274 -1.8772 -0.2724
 3951SOL     OW23485   3.294   3.960  15.304  0.2163 -0.1314  0.6910
 3951SOL    HW123486   3.263   4.020  15.236 -0.1020 -1.5588 -0.4201
 3951SOL    HW223487   3.257   4.007  15.379 -0.3614 -0.3958  0.5730
 3952SOL     OW23488   1.933   2.875   5.462 -0.1720  0.9518 -0.0672
 3952SOL    HW123489   1.887   2.915   5.388 -1.6468  0.8850  0.8039
 3952SOL    HW223490   1.896   2.925   5.535 -1.8986  0.4115 -0.5555
 3953SOL     OW23491   4.418   1.629   3.390  0.0395  0.2365 -0.3294
 3953SOL    HW123492   4.412   1.534   3.386  0.4339  0.1243  1.6651
 3953SOL    HW223493   4.391   1.652   3.479  1.5897  1.8149 -0.2626
 3954SOL     OW23494   0.027   4.227   2.505  0.2373  0.2151 -0.5023
 3954SOL    HW123495   4.736   4.316   2.525  1.8228  0.8801 -1.1326
 3954SOL    HW223496   0.010   4.181   2.587 -0.4602  1.5787  0.1193
 3955SOL     OW23497   0.341   2.306   8.235  0.4595  0.4020 -0.3350
 3955SOL    HW123498   0.390   2.312   8.153  2.4344  0.5214  0.8352
 3955SOL    HW223499   0.403   2.354   8.290  0.6411 -2.0735  1.5925
 3956SOL     OW23500   1.999   2.671   6.788  0.1819 -0.7597  0.1482
 3956SOL    HW123501   2.068   2.693   6.725 -0.4621 -0.5801 -0.4964
 3956SOL    HW223502   2.035   2.606   6.848  0.4577 -0.4147  0.3539
 3957SOL     OW23503   0.945   1.563   6.756 -0.6415  0.7791 -0.1285
 3957SOL    HW123504   1.013   1.615   6.713  1.1740 -2.1482 -0.7772
 3957SOL    HW223505   0.981   1.474   6.755  0.2524  1.1337  0.4263
 3958SOL     OW23506   4.187   4.136  16.057  0.4233 -0.2634 -0.1531
 3958SOL    HW123507   4.251   4.120  16.126  0.6575  0.9865 -0.0828
 3958SOL    HW223508   4.105   4.122  16.103  1.3819  0.9386  1.9009
 3959SOL     OW23509   2.626   3.010   8.583 -0.4780  0.1072  0.0521
 3959SOL    HW123510   2.630   2.922   8.620 -0.0905  0.1810  0.1876
 3959SOL    HW223511   2.698   3.007   8.520  0.6476  0.7376  1.3014
 3960SOL     OW23512   0.309   0.580  16.649  0.0747 -1.3169  0.6622
 3960SOL    HW123513   0.258   0.614  16.575 -1.1689 -1.1419  1.5962
 3960SOL    HW223514   0.382   0.642  16.656  0.2291 -1.5566  1.1483
 3961SOL     OW23515   4.019   2.417   9.077 -0.2689 -0.3264 -0.0814
 3961SOL    HW123516   4.007   2.470   9.155 -1.7023 -0.1286 -0.4251
 3961SOL    HW223517   4.059   2.472   9.010 -0.6148 -0.7142 -0.6096
 3962SOL     OW23518   0.761   0.020   7.624  0.2242  0.1429  0.2828
 3962SOL    HW123519   0.723   0.102   7.656 -0.3006  0.5291 -1.3717
 3962SOL    HW223520   0.760   0.046   7.532  0.7092  0.9605  0.5089
 3963SOL     OW23521   0.083   1.466   9.527 -0.0129 -0.2848  0.5552
 3963SOL    HW123522   0.174   1.462   9.557  0.5745  1.2341 -1.0729
 3963SOL    HW223523   0.058   1.538   9.585  0.7820 -0.6056  1.3010
 3964SOL     OW23524   1.719   3.435  17.516  0.4544 -0.3459 -0.4405
 3964SOL    HW123525   1.661   3.464  17.586  0.8513  1.4148 -0.8177
 3964SOL    HW223526   1.665   3.460  17.440 -0.5907 -0.5444  0.2374
 3965SOL     OW23527   3.150   1.766   8.081 -0.3123 -0.1079  0.3530
 3965SOL    HW123528   3.236   1.729   8.104 -0.4217  0.2054  1.2629
 3965SOL    HW223529   3.152   1.754   7.986  3.7050 -0.4326  0.4409
 3966SOL     OW23530   2.470   1.465  16.081  0.1913 -0.1932 -0.2210
 3966SOL    HW123531   2.387   1.504  16.053  1.0124  2.5868  1.1830
 3966SOL    HW223532   2.511   1.547  16.108 -0.3791 -0.2080  0.7094
 3967SOL     OW23533   3.018   2.146   6.061  0.6247 -0.0558  0.0601
 3967SOL    HW123534   3.006   2.128   5.968 -1.2653 -3.7649  1.0385
 3967SOL    HW223535   3.099   2.197   6.054 -0.2113  1.2044 -0.4836
 3968SOL     OW23536   4.471   3.423   1.227  0.1881  0.0328  0.6038
 3968SOL    HW123537   4.497   3.332   1.211  0.4774  0.1144  0.6043
 3968SOL    HW223538   4.403   3.404   1.292  0.9162 -1.2128  1.0037
 3969SOL     OW23539   0.459   1.929   0.751  0.4797 -0.5297 -0.0846
 3969SOL    HW123540   0.461   1.986   0.674 -0.8077 -1.1848 -0.5946
 3969SOL    HW223541   0.543   1.885   0.739  0.8490  0.1419  0.0148
 3970SOL     OW23542   3.604   0.716   2.893 -0.1252 -0.0329  0.5436
 3970SOL    HW123543   3.665   0.744   2.824  1.2838 -1.9989  0.9904
 3970SOL    HW223544   3.646   0.742   2.974  0.4955  0.0824  0.1845
 3971SOL     OW23545   2.313   1.289   9.464 -0.1619 -0.0300  0.1648
 3971SOL    HW123546   2.339   1.197   9.459  0.3973  0.1624 -0.5993
 3971SOL    HW223547   2.278   1.285   9.375 -2.0903  0.1209  0.9286
 3972SOL     OW23548   4.167   1.771   0.996  0.2128 -0.1895  0.1118
 3972SOL    HW123549   4.074   1.789   0.979  0.1986 -1.0588 -0.7490
 3972SOL    HW223550   4.206   1.814   0.921  2.9419 -3.3295 -0.2839
 3973SOL     OW23551   2.494   2.772   1.305 -0.1800  0.3473 -0.0298
 3973SOL    HW123552   2.556   2.819   1.361  0.9080  2.1412 -2.7318
 3973SOL    HW223553   2.448   2.845   1.263  3.8643  2.7048 -0.3863
 3974SOL     OW23554   4.231   3.765   5.255 -0.2001  0.2925 -0.6025
 3974SOL    HW123555   4.156   3.760   5.195 -0.9404  1.2536  0.2463
 3974SOL    HW223556   4.211   3.688   5.309  2.6671  0.5447  0.7935
 3975SOL     OW23557   2.123   4.609   8.785  0.3242 -0.4029 -0.4828
 3975SOL    HW123558   2.049   4.571   8.834 -0.0498 -0.1833 -0.8778
 3975SOL    HW223559   2.088   4.624   8.697  1.2613  3.0217 -0.2962
 3976SOL     OW23560   4.025   2.726   7.727  0.0785  0.2244 -0.0940
 3976SOL    HW123561   4.039   2.741   7.633  0.7251  0.4537  0.0404
 3976SOL    HW223562   3.945   2.674   7.716  1.7188 -1.9866 -1.6973
 3977SOL     OW23563   1.546   1.742   7.088  0.3558  0.1047  0.1599
 3977SOL    HW123564   1.607   1.768   7.157  1.7489  0.5727 -1.2365
 3977SOL    HW223565   1.469   1.794   7.108 -0.5346 -1.4498  0.7898
 3978SOL     OW23566   3.261   1.483   2.852 -0.0507  0.5072 -0.4827
 3978SOL    HW123567   3.269   1.392   2.824 -0.4670  0.3844 -0.1974
 3978SOL    HW223568   3.278   1.477   2.946 -0.7614  0.1384 -0.3748
 3979SOL     OW23569   2.983   1.618   6.707  0.1163 -0.4093  0.2246
 3979SOL    HW123570   2.959   1.531   6.738  2.5418 -1.6117 -1.2660
 3979SOL    HW223571   3.069   1.633   6.747 -0.5917  0.2010  1.5315
 3980SOL     OW23572   3.430   1.720   8.657 -0.0300 -0.3111 -0.0184
 3980SOL    HW123573   3.501   1.783   8.645 -0.5944  0.6216  1.5336
 3980SOL    HW223574   3.446   1.688   8.746  0.1661 -0.8263 -0.2396
 3981SOL     OW23575   2.851   0.923   8.248  0.1152 -0.2309  0.0792
 3981SOL    HW123576   2.884   0.898   8.334  0.5428 -1.3035 -0.3940
 3981SOL    HW223577   2.879   0.838   8.214 -1.2534 -0.0368 -1.5474
 3982SOL     OW23578   0.586   0.046   8.244 -0.2257 -0.6421  0.1765
 3982SOL    HW123579   0.526   0.117   8.221  1.5799  0.7921 -0.1919
 3982SOL    HW223580   0.658   0.101   8.274 -0.7509  0.5476 -0.7545
 3983SOL     OW23581   1.637   2.109   7.022 -0.3173  0.0860 -0.5479
 3983SOL    HW123582   1.635   2.158   7.104  2.2258 -0.8446  0.0453
 3983SOL    HW223583   1.641   2.014   7.034  1.6369  0.6184  2.7702
 3984SOL     OW23584   1.931   4.279   7.085  1.2682 -0.2784  0.1802
 3984SOL    HW123585   1.970   4.312   7.004 -0.4940 -1.2297 -1.0441
 3984SOL    HW223586   1.857   4.229   7.050  2.6093 -0.8060 -1.8674
 3985SOL     OW23587   4.600   2.768   7.114  0.0111  0.2784  0.0574
 3985SOL    HW123588   4.599   2.782   7.019  0.6447 -0.5974 -0.0724
 3985SOL    HW223589   4.528   2.708   7.133 -0.2944  1.0573  1.3315
 3986SOL     OW23590   4.105   0.367   0.854 -0.1790  0.0267  0.0840
 3986SOL    HW123591   4.025   0.398   0.896 -1.5049 -1.2457 -1.5059
 3986SOL    HW223592   4.120   0.451   0.812  0.4042 -0.7722 -1.2960
 3987SOL     OW23593   0.137   2.594   2.121 -0.2210  0.0660  0.0501
 3987SOL    HW123594   0.166   2.504   2.128 -1.6322 -0.5258 -1.5596
 3987SOL    HW223595   0.157   2.621   2.210 -1.7759  0.1191  0.3742
 3988SOL     OW23596   4.182   4.475   0.684  0.1564 -0.1671  0.0526
 3988SOL    HW123597   4.246   4.448   0.619  2.5240  0.4479  2.1232
 3988SOL    HW223598   4.110   4.415   0.670 -1.7791  1.7731  1.6475
 3989SOL     OW23599   4.401   3.592   2.400 -0.4326  0.3545 -0.7347
 3989SOL    HW123600   4.363   3.546   2.474  0.4272  1.0768  0.1464
 3989SOL    HW223601   4.405   3.680   2.437 -0.5739  0.4766 -1.0063
 3990SOL     OW23602   1.487   3.769   5.053  0.1162  0.8671 -0.5113
 3990SOL    HW123603   1.489   3.862   5.029  0.6604  0.5053 -1.8860
 3990SOL    HW223604   1.574   3.738   5.030 -0.3284 -1.0758  0.3798
 3991SOL     OW23605   0.339   2.902   5.703  0.2675 -0.7062  0.1934
 3991SOL    HW123606   0.369   2.822   5.746  0.5751  0.1687  1.6204
 3991SOL    HW223607   0.386   2.880   5.622  0.2117  0.5826 -0.1890
 3992SOL     OW23608   3.720   3.326   4.590 -0.3104 -0.1867 -0.0583
 3992SOL    HW123609   3.689   3.237   4.571 -0.3600 -0.6297  2.0117
 3992SOL    HW223610   3.647   3.365   4.638 -1.4865 -1.1547 -1.0761
 3993SOL     OW23611   2.049   0.419   7.482  0.5126 -0.1564 -0.5490
 3993SOL    HW123612   1.993   0.398   7.556 -0.7304  0.5662 -1.2752
 3993SOL    HW223613   2.136   0.449   7.508  0.0836  1.8708 -1.3886
 3994SOL     OW23614   3.877   2.684   4.833 -0.0849 -0.0439  0.2422
 3994SOL    HW123615   3.877   2.736   4.913  0.3132  1.8123 -0.9682
 3994SOL    HW223616   3.968   2.654   4.836 -0.5059 -1.3941 -0.2548
 3995SOL     OW23617   3.115   0.129   2.210  0.0384 -0.2674  0.2832
 3995SOL    HW123618   3.124   0.044   2.252 -3.4354 -0.2781  1.0746
 3995SOL    HW223619   3.139   0.100   2.122 -0.2590 -1.2181  0.5129
 3996SOL     OW23620   0.077   0.661   3.613  0.1119  0.3528  0.2942
 3996SOL    HW123621   0.051   0.572   3.590  2.8753 -0.0823 -1.1682
 3996SOL    HW223622   0.131   0.652   3.692 -0.0641 -0.0263  0.3681
 3997SOL     OW23623   4.593   0.360   8.002  0.0420  0.5608 -0.2681
 3997SOL    HW123624   4.585   0.440   7.949 -0.6721  2.1024  2.1600
 3997SOL    HW223625   4.555   0.292   7.947  0.9210 -1.4352  1.5704
 3998SOL     OW23626   2.150   1.736  12.257  0.3562 -0.3745 -0.7408
 3998SOL    HW123627   2.184   1.772  12.175 -2.2388  0.9109 -1.2621
 3998SOL    HW223628   2.219   1.761  12.320 -0.7989  0.8190  0.0666
 3999SOL     OW23629   2.427   3.699   8.276  0.0642 -0.0744 -0.1919
 3999SOL    HW123630   2.433   3.785   8.317  2.8144 -0.9355  1.1741
 3999SOL    HW223631   2.394   3.656   8.355  0.0074  1.3776  0.5818
 4000SOL     OW23632   1.199   3.618   8.516 -0.4160  0.0233  0.0479
 4000SOL    HW123633   1.286   3.658   8.512 -0.0535 -0.6320  1.4063
 4000SOL    HW223634   1.149   3.697   8.492  0.0643  0.2894 -0.0735
 4001SOL     OW23635   3.766   0.679  12.061 -0.0193 -0.1056  0.4193
 4001SOL    HW123636   3.677   0.657  12.032  1.1822 -2.6356 -1.2791
 4001SOL    HW223637   3.815   0.614  12.011 -0.4569 -0.6437  0.6816
 4002SOL     OW23638   0.938   3.134   4.803 -0.2940 -0.0827  0.2782
 4002SOL    HW123639   0.877   3.062   4.789  0.1019 -0.4211  0.2926
 4002SOL    HW223640   1.002   3.113   4.735 -0.9770 -1.9477  0.2213
 4003SOL     OW23641   4.366   4.318   0.409  0.7316  0.1330  0.0892
 4003SOL    HW123642   4.279   4.295   0.375  1.5995 -0.6004 -1.6553
 4003SOL    HW223643   4.361   4.413   0.414  0.8058  0.2425 -1.7496
 4004SOL     OW23644   1.092   1.000   2.301  0.1384  0.2407 -0.4803
 4004SOL    HW123645   1.025   1.062   2.274 -1.4257 -0.6391  1.4173
 4004SOL    HW223646   1.158   1.059   2.339 -1.6903  2.8236 -1.3175
 4005SOL     OW23647   2.555   4.309   3.238  0.6004 -0.5954  0.6725
 4005SOL    HW123648   2.470   4.347   3.216  0.9870 -0.6876 -0.9533
 4005SOL    HW223649   2.623   4.369   3.207  1.2886 -1.3658  0.6873
 4006SOL     OW23650   0.105   4.455   8.751  0.5450 -0.0671  0.2000
 4006SOL    HW123651   0.074   4.400   8.824  0.7657 -2.3548 -1.4151
 4006SOL    HW223652   0.170   4.396   8.713 -2.2366 -2.1568 -1.3122
 4007SOL     OW23653   2.753   3.453   2.922  0.3929  0.5098 -0.4144
 4007SOL    HW123654   2.673   3.404   2.904  1.1346 -1.2400  1.1353
 4007SOL    HW223655   2.779   3.395   2.993  0.8231  1.6332  0.3442
 4008SOL     OW23656   0.682   4.516  17.387 -0.2396  0.1599  0.4029
 4008SOL    HW123657   0.624   4.565  17.445  1.5026 -1.0024  3.1292
 4008SOL    HW223658   0.643   4.430  17.405 -1.0856  0.5582  0.4932
 4009SOL     OW23659   1.220   3.062  11.985  0.0383  0.0816 -0.4893
 4009SOL    HW123660   1.133   3.100  11.998  0.5399  0.6403  1.2648
 4009SOL    HW223661   1.223   3.054  11.890 -1.2980 -0.6864 -0.4547
 4010SOL     OW23662   4.113   4.206   4.366  0.0172  0.4809 -0.4922
 4010SOL    HW123663   4.090   4.140   4.430  2.5138  1.0549  0.9912
 4010SOL    HW223664   4.161   4.272   4.416 -0.8918  0.6958  0.0869
 4011SOL     OW23665   0.247   2.569   8.693 -0.0643 -0.0741 -0.2575
 4011SOL    HW123666   0.288   2.483   8.679  0.3071 -0.0194  0.4871
 4011SOL    HW223667   0.230   2.597   8.603  1.1156  0.5016 -0.2978
 4012SOL     OW23668   3.049   1.696   8.972 -0.4278 -0.0473  0.6066
 4012SOL    HW123669   3.112   1.730   8.909  1.8815  1.6453  3.8140
 4012SOL    HW223670   2.971   1.675   8.921  0.1891  0.6855 -0.6179
 4013SOL     OW23671   2.333   2.703   2.382 -0.0571 -0.3657 -0.0975
 4013SOL    HW123672   2.267   2.666   2.441  1.3191  0.0394  1.6613
 4013SOL    HW223673   2.341   2.634   2.316 -1.3621 -0.8723  0.2766
 4014SOL     OW23674   3.245   4.583   8.619 -0.3138  0.5565 -0.3983
 4014SOL    HW123675   3.291   4.562   8.700  1.7665  1.1561 -1.4278
 4014SOL    HW223676   3.301   4.653   8.584 -0.6848 -0.0359 -2.1727
 4015SOL     OW23677   1.412   1.759   9.047  0.2858  0.3577  0.5522
 4015SOL    HW123678   1.443   1.825   9.108  1.5532  0.6475 -0.3969
 4015SOL    HW223679   1.362   1.812   8.984 -2.7665 -1.4923  1.4150
 4016SOL     OW23680   3.003   2.930   0.119 -0.4670 -0.4641  0.0870
 4016SOL    HW123681   2.997   2.864   0.051 -0.1090  0.1907 -0.5769
 4016SOL    HW223682   3.096   2.950   0.105 -0.8735  2.0575  0.9846
 4017SOL     OW23683   0.925   1.046   0.266 -0.2236  0.2961  0.7440
 4017SOL    HW123684   0.942   0.952   0.278  0.7397  0.6405  1.9958
 4017SOL    HW223685   1.018   1.063   0.254 -0.6558  1.5328 -0.7907
 4018SOL     OW23686   1.601   4.281   2.977  0.1698  0.1036  0.0325
 4018SOL    HW123687   1.588   4.277   3.072 -0.7006 -0.6579 -0.1147
 4018SOL    HW223688   1.662   4.356   2.977  0.0300  0.2161 -0.4338
 4019SOL     OW23689   3.952   2.460   2.054 -1.0516  0.2652  0.4411
 4019SOL    HW123690   4.001   2.386   2.018 -0.4508  0.1976  1.3921
 4019SOL    HW223691   4.017   2.529   2.072 -2.2092  1.1685  1.1730
 4020SOL     OW23692   4.393   2.222  10.009  0.4831 -0.2594 -0.1176
 4020SOL    HW123693   4.442   2.140   9.997  2.5417  0.7058  1.5392
 4020SOL    HW223694   4.450   2.286   9.967 -1.4524  0.1375 -2.1175
 4021SOL     OW23695   4.185   2.908   1.503 -0.2861 -0.5985  0.0268
 4021SOL    HW123696   4.240   2.890   1.427 -1.6570  1.0283 -1.3342
 4021SOL    HW223697   4.184   3.004   1.510  0.4286 -0.5006 -1.3487
 4022SOL     OW23698   0.645   1.922  14.367 -0.5520  0.1321 -0.0611
 4022SOL    HW123699   0.703   1.867  14.315  0.2321 -0.3537  1.3224
 4022SOL    HW223700   0.571   1.861  14.362 -1.0749  0.7001  0.7882
 4023SOL     OW23701   1.169   1.807  13.774  0.4461  0.3240 -0.5404
 4023SOL    HW123702   1.246   1.787  13.827 -1.2300  0.3767  1.9467
 4023SOL    HW223703   1.215   1.837  13.696  1.8795  0.1624  0.2392
 4024SOL     OW23704   3.213   4.314   3.507  0.2556  0.4980 -0.6867
 4024SOL    HW123705   3.221   4.221   3.529  1.1442  0.5701 -0.7388
 4024SOL    HW223706   3.146   4.305   3.438  0.3760  2.8087 -1.1043
 4025SOL     OW23707   0.496   4.215  13.788  0.5524  0.2376 -0.1221
 4025SOL    HW123708   0.569   4.218  13.850  0.1425  0.2670  0.3586
 4025SOL    HW223709   0.510   4.133  13.742  1.9101  0.9794 -1.0410
 4026SOL     OW23710   1.810   1.482  12.868  0.1455 -0.3369  0.4609
 4026SOL    HW123711   1.771   1.463  12.783 -0.2684 -0.1666  0.6158
 4026SOL    HW223712   1.751   1.429  12.920  0.0608 -2.4783 -1.8090
 4027SOL     OW23713   1.860   4.285   5.844  0.3225 -0.5834 -0.1981
 4027SOL    HW123714   1.844   4.247   5.930 -1.2678 -0.3363 -0.3818
 4027SOL    HW223715   1.784   4.343   5.836  2.2135  1.8993 -0.0601
 4028SOL     OW23716   4.308   2.098   7.569 -0.1779  0.1654 -0.1379
 4028SOL    HW123717   4.237   2.037   7.549  1.6957 -2.6764  1.9689
 4028SOL    HW223718   4.340   2.098   7.479 -0.0955 -1.3552 -0.1116
 4029SOL     OW23719   3.495   1.971   6.971 -0.5435 -0.3120 -0.4185
 4029SOL    HW123720   3.424   1.917   7.005 -1.6940  1.2221 -0.3990
 4029SOL    HW223721   3.543   2.011   7.043 -0.2907  0.2101 -0.8747
 4030SOL     OW23722   2.321   3.228   8.546  0.0810 -0.0203  0.1906
 4030SOL    HW123723   2.395   3.212   8.605  0.2936  0.4442  0.0553
 4030SOL    HW223724   2.365   3.215   8.462  0.3941 -0.2877  0.3946
 4031SOL     OW23725   2.546   0.954  13.118 -0.2864 -0.0965  0.2540
 4031SOL    HW123726   2.606   0.923  13.050  0.7842  0.0251  1.1333
 4031SOL    HW223727   2.491   0.878  13.137 -1.1481  0.6137  0.5841
 4032SOL     OW23728   4.735   0.274   2.945  0.2565 -0.0995  0.0384
 4032SOL    HW123729   4.684   0.260   2.865 -1.2445 -0.0402  0.9820
 4032SOL    HW223730   0.074   0.227   2.912  0.3317  0.4689 -0.5959
 4033SOL     OW23731   0.873   2.540   6.021 -0.4722 -0.3129 -0.0855
 4033SOL    HW123732   0.892   2.633   6.033  0.8401 -1.0003  3.1488
 4033SOL    HW223733   0.961   2.509   5.996 -0.8218 -1.4310  0.0494
 4034SOL     OW23734   2.519   3.897  13.305  0.2131 -0.4867  0.4455
 4034SOL    HW123735   2.610   3.918  13.282 -0.3757  2.6927  1.0527
 4034SOL    HW223736   2.473   3.911  13.223  2.2113 -1.7594 -0.9153
 4035SOL     OW23737   3.235   0.698   6.130  0.3088  0.2699 -1.1522
 4035SOL    HW123738   3.216   0.737   6.215 -0.6587 -0.0858 -1.2059
 4035SOL    HW223739   3.154   0.723   6.084 -0.9235 -0.4372  0.6420
 4036SOL     OW23740   2.720   2.898  14.592 -0.6401 -0.2485  0.5200
 4036SOL    HW123741   2.635   2.854  14.593 -1.3633  1.0115 -1.9547
 4036SOL    HW223742   2.715   2.957  14.667 -0.7568 -0.8289  0.9677
 4037SOL     OW23743   3.094   3.787   8.893 -0.3282  0.3822 -0.4059
 4037SOL    HW123744   3.117   3.732   8.968 -0.2846 -0.2659 -0.8981
 4037SOL    HW223745   3.161   3.759   8.831 -0.1696  0.3038 -0.1991
 4038SOL     OW23746   4.214   3.997   0.362 -0.0217  0.5684 -0.0070
 4038SOL    HW123747   4.212   3.901   0.365  0.1100  0.6000  1.1710
 4038SOL    HW223748   4.291   4.006   0.306  2.4067  0.2918  3.3356
 4039SOL     OW23749   3.192   1.725   0.677  0.1235 -0.4561  0.3678
 4039SOL    HW123750   3.156   1.660   0.618 -0.6030  2.9783 -2.9908
 4039SOL    HW223751   3.224   1.784   0.609  1.7520 -1.8216 -0.0490
 4040SOL     OW23752   4.361   0.242   7.556 -0.1908 -0.1073  0.1453
 4040SOL    HW123753   4.348   0.184   7.631 -0.2537  2.2732  2.0107
 4040SOL    HW223754   4.340   0.183   7.484  1.5461 -0.7283  0.1521
 4041SOL     OW23755   2.429   0.253  17.237  0.4003 -0.2634  0.4851
 4041SOL    HW123756   2.469   0.200  17.306  2.7692 -0.1629 -0.8188
 4041SOL    HW223757   2.425   0.343  17.271 -0.6246  0.5431 -1.7616
 4042SOL     OW23758   0.362   4.503   7.213 -0.1605 -0.2739 -0.5215
 4042SOL    HW123759   0.416   4.514   7.135 -0.8810  3.5873 -0.5043
 4042SOL    HW223760   0.403   4.563   7.275 -1.0075  0.8959 -1.0840
 4043SOL     OW23761   2.527   1.198   8.860  0.0527 -0.0627 -0.1326
 4043SOL    HW123762   2.512   1.236   8.774  0.7543 -3.7430 -1.8985
 4043SOL    HW223763   2.470   1.263   8.901 -2.4023 -0.8570 -2.2588
 4044SOL     OW23764   3.355   2.108   0.173 -0.4695  0.0706  0.0980
 4044SOL    HW123765   3.420   2.045   0.205 -1.4994  0.2427  2.5198
 4044SOL    HW223766   3.400   2.128   0.091 -0.1505 -1.0432 -0.0052
 4045SOL     OW23767   4.156   0.095   3.915  0.5763  0.9812  0.0616
 4045SOL    HW123768   4.092   0.126   3.851 -1.8464  0.8857  2.4132
 4045SOL    HW223769   4.161   0.176   3.966 -2.0863  0.8281  0.5600
 4046SOL     OW23770   3.983   3.589  11.984  0.0315  0.1735  0.1043
 4046SOL    HW123771   3.958   3.501  11.958  3.4043 -0.8508  0.3349
 4046SOL    HW223772   4.078   3.577  11.988 -0.3572 -2.4584  1.0067
 4047SOL     OW23773   3.236   0.256  16.261 -0.1794  0.1664  0.3011
 4047SOL    HW123774   3.200   0.241  16.173 -0.2700  0.3326  0.3109
 4047SOL    HW223775   3.288   0.332  16.236  1.9746 -1.6664 -0.9190
 4048SOL     OW23776   1.315   2.859   6.380 -0.0332 -0.7252  0.1334
 4048SOL    HW123777   1.305   2.854   6.285 -0.2782  0.1138  0.1110
 4048SOL    HW223778   1.396   2.908   6.386 -0.2771 -0.3487  0.3960
 4049SOL     OW23779   4.549   1.110  13.563  0.2936  0.5984 -0.0797
 4049SOL    HW123780   4.516   1.179  13.621  0.1219 -0.4288  1.0325
 4049SOL    HW223781   4.491   1.036  13.580  1.9237 -0.3977  1.0606
 4050SOL     OW23782   3.461   3.435   6.994 -0.0236 -0.2378 -0.5063
 4050SOL    HW123783   3.366   3.432   7.005 -0.2047  2.7912 -1.2366
 4050SOL    HW223784   3.470   3.412   6.902  1.8323 -1.7354  0.0407
 4051SOL     OW23785   1.417   0.911   5.453 -0.1314 -0.0182  0.3906
 4051SOL    HW123786   1.416   0.864   5.370 -1.3360  1.0008 -0.1617
 4051SOL    HW223787   1.501   0.881   5.488  0.1012 -0.3607 -0.4628
 4052SOL     OW23788   1.041   1.055   6.482 -0.1154  0.1730 -0.8039
 4052SOL    HW123789   0.994   0.975   6.505  1.2845 -0.2069  0.7350
 4052SOL    HW223790   0.978   1.128   6.485 -0.3579 -0.0493 -0.4436
 4053SOL     OW23791   2.158   1.242  15.270 -0.2035  0.2198 -0.1633
 4053SOL    HW123792   2.170   1.333  15.241  0.6460 -0.6113 -2.4738
 4053SOL    HW223793   2.247   1.222  15.299  0.7151  0.2575 -2.8961
 4054SOL     OW23794   3.787   1.920   9.816  0.6307  0.2595  0.2983
 4054SOL    HW123795   3.754   1.953   9.899  1.9568  1.0824  0.5001
 4054SOL    HW223796   3.882   1.932   9.825  0.6182  0.6223 -0.0643
 4055SOL     OW23797   1.190   1.905   5.724 -0.6246  0.2832 -0.6390
 4055SOL    HW123798   1.123   1.946   5.779  0.3365  0.6205  0.2832
 4055SOL    HW223799   1.186   1.813   5.751  0.5816  0.2906 -0.4485
 4056SOL     OW23800   0.009   0.064   0.275 -0.1848  0.0476  0.5850
 4056SOL    HW123801   0.037   0.086   0.186  0.7069 -4.2006 -0.1459
 4056SOL    HW223802   0.081   0.100   0.326 -0.4376  0.1737  0.8552
 4057SOL     OW23803   0.345   3.364   3.902 -0.2436  0.2451  0.5773
 4057SOL    HW123804   0.291   3.289   3.929  0.9722 -0.4547  1.0789
 4057SOL    HW223805   0.368   3.336   3.814 -3.0206  0.2244 -0.1270
 4058SOL     OW23806   3.370   1.869   3.145  0.4104 -0.0655 -0.1218
 4058SOL    HW123807   3.411   1.881   3.230 -0.0214  2.5776 -0.2801
 4058SOL    HW223808   3.277   1.877   3.167  0.1836  0.6140 -1.3314
 4059SOL     OW23809   1.020   0.878  11.665  0.4969 -0.4212 -0.2836
 4059SOL    HW123810   0.980   0.803  11.622 -1.1081  0.6457 -0.6675
 4059SOL    HW223811   1.109   0.843  11.669  1.5789  2.3443  0.3187
 4060SOL     OW23812   0.132   3.372   2.856  0.0775 -0.3043  0.0536
 4060SOL    HW123813   0.178   3.348   2.936  0.2765 -0.3990 -0.0898
 4060SOL    HW223814   0.077   3.296   2.836  0.0435 -0.5791  1.1871
 4061SOL     OW23815   3.602   4.309   4.215  1.2594  0.4924 -0.0885
 4061SOL    HW123816   3.629   4.236   4.160 -1.5329  0.6599 -1.7158
 4061SOL    HW223817   3.670   4.309   4.282 -0.6135 -1.8401  1.8169
 4062SOL     OW23818   3.441   2.192   6.638  0.6259 -0.1628  0.5198
 4062SOL    HW123819   3.371   2.140   6.677  1.8052 -0.8587  1.7261
 4062SOL    HW223820   3.502   2.126   6.605 -2.1205 -2.4019  0.0078
 4063SOL     OW23821   2.294   0.011  12.603 -0.4784  0.0915 -0.1988
 4063SOL    HW123822   2.285   0.006  12.698  0.8210 -1.8212 -0.1710
 4063SOL    HW223823   2.336   4.665  12.587 -1.5381 -0.8063  1.7190
 4064SOL     OW23824   2.181   4.090  12.702  0.2338 -0.4498 -0.1879
 4064SOL    HW123825   2.194   4.117  12.611  1.8146 -2.8965 -0.7174
 4064SOL    HW223826   2.237   4.012  12.702 -0.6841 -1.1025  1.7583
 4065SOL     OW23827   1.846   1.980   8.659 -0.2562 -0.3970  0.3141
 4065SOL    HW123828   1.907   1.908   8.641  0.7164  0.7655 -1.1059
 4065SOL    HW223829   1.826   1.967   8.752  2.3692 -2.6868  0.5848
 4066SOL     OW23830   4.715   2.893   4.238  0.2491 -0.6594 -0.0144
 4066SOL    HW123831   4.723   2.805   4.274  0.8831 -0.3490  0.6102
 4066SOL    HW223832   4.651   2.888   4.167 -1.2869  3.2339  1.0403
 4067SOL     OW23833   1.402   4.529   9.240  0.5465 -0.0215 -0.2052
 4067SOL    HW123834   1.369   4.440   9.237 -0.6361  0.3832  0.9555
 4067SOL    HW223835   1.472   4.516   9.176 -0.1583 -0.8902 -0.7999
 4068SOL     OW23836   0.621   4.476   4.525 -0.5508  0.0318 -0.4012
 4068SOL    HW123837   0.593   4.522   4.604 -0.3498  1.0128 -0.8976
 4068SOL    HW223838   0.594   4.386   4.540  0.1002  0.1173  1.2926
 4069SOL     OW23839   1.049   4.632   7.254 -0.4661  0.4805  0.1014
 4069SOL    HW123840   0.966   4.608   7.213  0.2314 -1.8419  0.0512
 4069SOL    HW223841   1.041   4.727   7.265 -4.2734  0.5253 -2.9766
 4070SOL     OW23842   4.670   4.172   2.090  0.0402  0.4100 -0.1013
 4070SOL    HW123843   4.631   4.117   2.158 -1.6375  0.0409 -1.3765
 4070SOL    HW223844   0.009   4.122   2.061  1.5943  1.4381  2.2050
 4071SOL     OW23845   1.485   4.188  14.102  0.2455  0.1995  0.1620
 4071SOL    HW123846   1.471   4.170  14.009 -0.9172 -2.0328  0.7811
 4071SOL    HW223847   1.562   4.244  14.099  0.3115  0.0655 -0.6149
 4072SOL     OW23848   3.140   4.680   6.963 -0.2023 -0.4682 -0.2784
 4072SOL    HW123849   3.216   4.733   6.938 -0.2376 -0.0822  0.4376
 4072SOL    HW223850   3.068   4.738   6.986 -0.1100 -1.1829  1.8197
 4073SOL     OW23851   2.409   4.214  16.819 -0.0093  0.0514  0.1157
 4073SOL    HW123852   2.362   4.199  16.738  0.7084 -0.7244 -0.1540
 4073SOL    HW223853   2.429   4.308  16.817  0.2365  0.0205  0.9780
 4074SOL     OW23854   0.247   2.903  16.966 -0.5925 -0.4663 -0.6665
 4074SOL    HW123855   0.169   2.958  16.969 -0.5915 -0.5612  1.0412
 4074SOL    HW223856   0.284   2.935  17.049 -1.8628 -0.8595  0.0444
 4075SOL     OW23857   2.903   1.414   8.098  0.1244  0.2821  0.3463
 4075SOL    HW123858   2.825   1.374   8.136  0.3537  0.6572  1.2211
 4075SOL    HW223859   2.961   1.426   8.173 -2.3071 -0.2645  2.3104
 4076SOL     OW23860   0.255   1.968   7.718 -0.4527 -0.0697 -0.0069
 4076SOL    HW123861   0.225   1.922   7.797 -1.4229  2.8281  1.3485
 4076SOL    HW223862   0.249   2.057   7.754  0.4073  0.0451 -0.1645
 4077SOL     OW23863   1.520   0.551   8.075 -0.0362 -0.1573  1.0364
 4077SOL    HW123864   1.480   0.507   8.150  0.9187 -1.0885  1.0070
 4077SOL    HW223865   1.498   0.478   8.017  1.2181 -0.9825  1.5727
 4078SOL     OW23866   1.621   2.988   9.096  0.2700  0.0266  0.2308
 4078SOL    HW123867   1.629   3.075   9.058  1.1835 -0.2000 -0.0898
 4078SOL    HW223868   1.581   3.020   9.177  1.4801 -2.0221  1.6237
 4079SOL     OW23869   4.732   4.185   6.153  0.0436 -0.0881  0.0756
 4079SOL    HW123870   4.670   4.179   6.225 -0.7193  0.0632 -0.5582
 4079SOL    HW223871   0.082   4.172   6.185  0.4923  0.4939 -0.9008
 4080SOL     OW23872   0.711   0.687   6.266  0.0317  0.6246  0.3237
 4080SOL    HW123873   0.708   0.596   6.297  1.5651  0.5713  0.3250
 4080SOL    HW223874   0.780   0.680   6.200 -0.9425  0.9657 -0.7142
 4081SOL     OW23875   3.102   0.232   4.100  0.1996 -0.0229  0.2522
 4081SOL    HW123876   3.171   0.298   4.092  0.1605  0.1186  1.0843
 4081SOL    HW223877   3.045   0.244   4.024  1.1786 -3.4198 -1.0348
 4082SOL     OW23878   0.253   2.760   7.072  0.1875  0.3190  0.2077
 4082SOL    HW123879   0.194   2.725   7.139 -1.4768  0.3490 -1.2630
 4082SOL    HW223880   0.316   2.688   7.063  0.4595  0.5256  0.4528
 4083SOL     OW23881   1.467   0.752   4.938  0.1454  0.7511 -0.0608
 4083SOL    HW123882   1.371   0.754   4.937  0.1489  0.3265 -1.0849
 4083SOL    HW223883   1.491   0.815   4.871  0.3679  0.3742 -0.3329
 4084SOL     OW23884   2.327   3.310   6.127 -0.4159 -0.3176 -0.5117
 4084SOL    HW123885   2.248   3.261   6.149 -1.1125 -0.1498 -2.6409
 4084SOL    HW223886   2.354   3.273   6.043 -1.2107 -1.2578 -0.3468
 4085SOL     OW23887   0.437   3.131  16.471  0.7683 -1.0381 -0.0286
 4085SOL    HW123888   0.418   3.039  16.493 -1.2463 -0.9092 -1.1813
 4085SOL    HW223889   0.489   3.138  16.391 -0.6283  1.8111 -0.6644
 4086SOL     OW23890   3.579   2.942   7.929  0.3007  0.2225  0.4271
 4086SOL    HW123891   3.657   2.963   7.980 -0.0284  2.9109 -0.1876
 4086SOL    HW223892   3.598   2.848   7.924  2.8631  0.7638  0.0474
 4087SOL     OW23893   1.692   4.162   8.331  0.6062  0.3788 -0.0537
 4087SOL    HW123894   1.673   4.107   8.407  0.3466  1.5726  0.7538
 4087SOL    HW223895   1.718   4.245   8.371  0.8969  0.1666  0.1964
 4088SOL     OW23896   1.503   2.314   0.660 -0.0322 -0.5408  0.5399
 4088SOL    HW123897   1.420   2.270   0.643  1.1403 -1.7439 -2.0609
 4088SOL    HW223898   1.522   2.372   0.587 -0.2762 -1.4885 -0.2759
 4089SOL     OW23899   3.009   4.736   1.416  0.4906  0.4284  0.1290
 4089SOL    HW123900   2.968   4.657   1.451  2.0874  0.1321  1.3302
 4089SOL    HW223901   2.935   0.049   1.383  1.3452  1.7477  0.2371
 4090SOL     OW23902   3.565   1.578   2.433  0.1462 -0.7181 -0.2593
 4090SOL    HW123903   3.494   1.638   2.455  1.2866  0.9135 -1.0309
 4090SOL    HW223904   3.595   1.630   2.359 -0.7024 -0.2615 -0.2778
 4091SOL     OW23905   2.835   4.633  12.662 -0.2008 -0.8444  0.1536
 4091SOL    HW123906   2.898   4.702  12.641 -2.2933  0.7109 -1.0474
 4091SOL    HW223907   2.796   4.611  12.577 -0.0918 -1.5903  0.2968
 4092SOL     OW23908   2.655   1.358   8.231 -0.0209 -0.6778  0.2014
 4092SOL    HW123909   2.603   1.385   8.155  0.8272  0.8694  0.1502
 4092SOL    HW223910   2.636   1.268   8.256 -0.0327 -0.5289  0.7242
 4093SOL     OW23911   2.743   0.473   6.983  0.1684  0.6294 -0.0352
 4093SOL    HW123912   2.776   0.420   6.911  1.1209  1.3067 -0.0981
 4093SOL    HW223913   2.716   0.555   6.942  0.9198 -0.0428 -1.8494
 4094SOL     OW23914   0.228   0.163   1.669 -0.4596 -0.0691  0.5200
 4094SOL    HW123915   0.249   0.241   1.617  1.1079  0.4194  1.8943
 4094SOL    HW223916   0.291   0.108   1.621 -1.6297 -0.2615 -0.8003
 4095SOL     OW23917   4.141   2.924  10.219 -0.7781 -0.3304 -0.2354
 4095SOL    HW123918   4.228   2.925  10.178 -1.6347  0.9915 -2.0454
 4095SOL    HW223919   4.092   2.991  10.171 -0.7001 -0.2389 -0.1878
 4096SOL     OW23920   2.354   3.915   8.604 -0.4456  0.0576  0.0499
 4096SOL    HW123921   2.260   3.929   8.597 -0.1058  2.0346 -0.3482
 4096SOL    HW223922   2.374   3.890   8.695  1.5906  1.2321 -0.0801
 4097SOL     OW23923   2.619   4.558  11.560 -0.2338  0.2767  0.0072
 4097SOL    HW123924   2.684   4.584  11.625 -1.6009  0.8671  1.1208
 4097SOL    HW223925   2.667   4.493  11.509 -0.9701  1.1459 -1.7789
 4098SOL     OW23926   1.715   2.866   4.178 -0.6763  0.5565  0.2483
 4098SOL    HW123927   1.672   2.913   4.249  1.7408  0.8272  1.5258
 4098SOL    HW223928   1.738   2.945   4.129  0.5009 -0.0941 -0.2398
 4099SOL     OW23929   4.661   1.910   4.571 -0.1636 -0.0775  0.3682
 4099SOL    HW123930   4.603   1.858   4.514  0.8424  1.0222 -1.6820
 4099SOL    HW223931   4.715   1.961   4.510 -1.1353  0.0183 -0.4132
 4100SOL     OW23932   1.527   0.718  10.218 -0.0447  0.2452  0.5435
 4100SOL    HW123933   1.551   0.755  10.303  4.4041 -1.7328  0.1274
 4100SOL    HW223934   1.501   0.631  10.248 -0.6091  0.2632  0.1280
 4101SOL     OW23935   4.338   4.042   6.442  0.0466 -0.0654  0.1475
 4101SOL    HW123936   4.413   4.049   6.382  0.4881 -2.3418  0.4228
 4101SOL    HW223937   4.329   4.129   6.480 -0.7243 -0.1758  0.2254
 4102SOL     OW23938   3.340   1.772  15.527 -1.0051 -0.0833  0.1128
 4102SOL    HW123939   3.392   1.802  15.602 -1.8444 -1.0458  1.0750
 4102SOL    HW223940   3.367   1.680  15.520  0.3442  0.1235  2.1899
 4103SOL     OW23941   0.669   1.616   7.264  0.8838  0.0423  0.4020
 4103SOL    HW123942   0.603   1.623   7.333 -0.3119 -1.2428 -0.6208
 4103SOL    HW223943   0.644   1.534   7.222  1.0528 -0.7746  1.8885
 4104SOL     OW23944   4.288   4.585   1.839  0.2701  0.2002 -0.6189
 4104SOL    HW123945   4.266   4.532   1.763 -2.3780  0.1391  0.1996
 4104SOL    HW223946   4.297   4.520   1.909  0.7247 -0.3688 -1.2036
 4105SOL     OW23947   0.717   0.956   5.802 -0.6457  0.6288  0.3330
 4105SOL    HW123948   0.796   1.006   5.784  0.2031 -0.9858 -0.4384
 4105SOL    HW223949   0.740   0.876   5.755  0.4572  0.2320  1.5833
 4106SOL     OW23950   3.166   1.941  10.675  0.4197  0.2344 -0.5076
 4106SOL    HW123951   3.222   1.872  10.638 -0.2436  0.3906 -1.7867
 4106SOL    HW223952   3.205   1.960  10.761  0.2849  2.2525 -0.8936
 4107SOL     OW23953   4.531   0.132   4.614  0.2236  0.1326  0.0843
 4107SOL    HW123954   4.603   0.132   4.678 -2.4623 -0.8252  3.0730
 4107SOL    HW223955   4.501   0.223   4.612  0.5880  0.2280 -1.6839
 4108SOL     OW23956   0.387   4.432   6.120  0.6924  0.7983 -0.0132
 4108SOL    HW123957   0.326   4.439   6.194 -0.5193 -2.6530 -0.6577
 4108SOL    HW223958   0.444   4.504   6.145  0.6534  0.1160  2.0871
 4109SOL     OW23959   3.508   0.851   4.603  0.0446 -0.1148  0.1205
 4109SOL    HW123960   3.501   0.931   4.550  1.5162 -0.3287 -0.3936
 4109SOL    HW223961   3.536   0.892   4.685 -0.0312  0.6142 -0.2118
 4110SOL     OW23962   3.729   3.350   7.836 -0.0499 -0.0235 -1.0152
 4110SOL    HW123963   3.646   3.321   7.872  0.6471 -1.5370 -0.6324
 4110SOL    HW223964   3.792   3.374   7.904 -0.1085  1.3021 -1.4149
 4111SOL     OW23965   4.407   0.238   0.617  0.3321 -0.1757  0.3149
 4111SOL    HW123966   4.397   0.288   0.699  2.1387 -0.7110  0.8546
 4111SOL    HW223967   4.396   0.149   0.650  1.9959  0.0824  1.5775
 4112SOL     OW23968   2.212   3.140   2.384 -0.1390  0.1636 -0.2419
 4112SOL    HW123969   2.246   3.187   2.460  0.5960 -0.1733 -0.3635
 4112SOL    HW223970   2.192   3.215   2.328  0.3590  0.4351 -0.0467
 4113SOL     OW23971   4.705   0.535   5.488 -0.0252 -0.0235  0.4127
 4113SOL    HW123972   0.040   0.513   5.430 -0.1813 -1.4397  0.7485
 4113SOL    HW223973   4.732   0.489   5.568  0.5991  1.4795  1.0787
 4114SOL     OW23974   2.684   3.481  12.623 -0.0203 -0.0941 -0.5283
 4114SOL    HW123975   2.673   3.422  12.698  1.5811 -0.8903 -0.9211
 4114SOL    HW223976   2.758   3.445  12.573  0.8994  2.5632 -1.0599
 4115SOL     OW23977   4.717   3.878   0.114 -0.2868 -0.3418 -0.6094
 4115SOL    HW123978   4.648   3.861   0.178  0.9496 -1.2267  0.5060
 4115SOL    HW223979   4.667   3.871   0.033 -0.5114 -1.3538 -0.3788
 4116SOL     OW23980   1.546   4.552  15.044  0.0331 -0.6301 -0.8060
 4116SOL    HW123981   1.477   4.617  15.037  0.0600 -0.4933  0.2678
 4116SOL    HW223982   1.558   4.545  15.139 -1.8458  1.1525 -0.4646
 4117SOL     OW23983   1.671   2.782   5.836  0.3804  0.5906  0.4183
 4117SOL    HW123984   1.684   2.839   5.913  0.9485  1.1894 -0.1204
 4117SOL    HW223985   1.735   2.711   5.848  1.5327  1.0557 -2.9426
 4118SOL     OW23986   4.618   1.236  12.732  0.2621  0.5911  0.7532
 4118SOL    HW123987   4.708   1.256  12.760  0.7465  1.5886 -1.5337
 4118SOL    HW223988   4.581   1.304  12.789 -0.0650  0.0413  1.1898
 4119SOL     OW23989   1.535   3.649   2.564  0.0620 -0.1825 -0.4328
 4119SOL    HW123990   1.494   3.677   2.646  2.3395 -1.0361  1.0088
 4119SOL    HW223991   1.465   3.597   2.526 -0.1803 -0.3481  0.2412
 4120SOL     OW23992   1.523   0.931  17.018 -0.2099 -0.0604  0.5768
 4120SOL    HW123993   1.485   1.002  16.967  0.8896  0.7326  0.8659
 4120SOL    HW223994   1.556   0.868  16.954 -3.2738  0.5745 -1.6177
 4121SOL     OW23995   0.362   1.375  15.985  0.3089  0.5900 -0.4532
 4121SOL    HW123996   0.448   1.409  15.961  0.4517 -0.4519 -1.4127
 4121SOL    HW223997   0.351   1.294  15.936  0.9110  2.4686 -3.6865
 4122SOL     OW23998   0.658   3.565   7.202  0.0621 -0.3002 -0.3584
 4122SOL    HW123999   0.620   3.494   7.151  0.3902  0.1084 -1.1715
 4122SOL    HW224000   0.589   3.613   7.247  0.2417  1.8805 -2.4110
 4123SOL     OW24001   2.031   0.656  10.450 -0.0623  0.1853 -0.1134
 4123SOL    HW124002   2.104   0.669  10.510 -0.3224 -0.8093  0.4350
 4123SOL    HW224003   1.975   0.601  10.506 -0.5301 -1.6345 -2.3575
 4124SOL     OW24004   3.693   0.130  17.364 -0.1455  0.4555  0.1171
 4124SOL    HW124005   3.758   0.103  17.299 -0.7455 -1.6746  0.3868
 4124SOL    HW224006   3.660   0.041  17.379  0.7742  0.0264 -0.4320
 4125SOL     OW24007   3.109   3.937  12.100 -0.0057 -0.5210 -0.0656
 4125SOL    HW124008   3.163   4.014  12.116 -0.3759 -0.8330  2.6527
 4125SOL    HW224009   3.069   3.931  12.187  0.6649 -0.6654  0.2298
 4126SOL     OW24010   0.951   0.559   5.654 -0.0198 -0.4366  0.2495
 4126SOL    HW124011   0.909   0.541   5.570 -1.2053  1.5042  0.4263
 4126SOL    HW224012   1.021   0.493   5.659  0.2148 -0.2610 -0.6514
 4127SOL     OW24013   3.806   1.961  14.644 -0.2954 -0.1581  0.0835
 4127SOL    HW124014   3.727   1.912  14.621 -0.3972 -0.4430  1.0139
 4127SOL    HW224015   3.835   1.993  14.559  0.3371 -2.1331 -0.4430
 4128SOL     OW24016   2.010   3.880   7.913  0.2155 -0.0689 -0.3289
 4128SOL    HW124017   2.037   3.971   7.927 -0.0146  0.2617 -1.9723
 4128SOL    HW224018   2.005   3.870   7.818  0.4277  1.8795 -0.5432
 4129SOL     OW24019   0.859   2.565   6.696  0.2984 -0.1395 -0.2153
 4129SOL    HW124020   0.851   2.482   6.743 -1.4695 -0.7221 -1.5629
 4129SOL    HW224021   0.800   2.618   6.750 -0.0009 -0.6397 -0.0494
 4130SOL     OW24022   1.436   2.968   3.963 -0.1237 -0.1814 -0.8731
 4130SOL    HW124023   1.441   2.883   4.006 -1.4518  1.0919  1.7632
 4130SOL    HW224024   1.420   3.032   4.032  2.0501 -0.9040  0.2895
 4131SOL     OW24025   1.200   1.649   8.256  0.0655 -0.1035 -0.3060
 4131SOL    HW124026   1.156   1.651   8.341 -0.4226 -0.6257 -0.5392
 4131SOL    HW224027   1.131   1.639   8.190 -0.9553  1.1712  0.5717
 4132SOL     OW24028   4.641   4.066   7.349  0.1066 -0.1905 -0.1567
 4132SOL    HW124029   4.589   3.996   7.390 -0.4171 -1.3165 -2.7045
 4132SOL    HW224030   4.578   4.110   7.293  0.0359 -2.2104 -1.6755
 4133SOL     OW24031   1.936   2.451   7.805 -0.0073  0.3754 -0.4553
 4133SOL    HW124032   1.967   2.495   7.884  0.0070 -0.0187 -0.2445
 4133SOL    HW224033   1.892   2.530   7.774 -0.1393  0.5118  0.0862
 4134SOL     OW24034   3.770   0.835   6.591  0.0613 -0.1589  0.4831
 4134SOL    HW124035   3.855   0.868   6.563 -0.9057  1.8643 -0.0832
 4134SOL    HW224036   3.764   0.756   6.537  1.9163 -0.5854  0.9140
 4135SOL     OW24037   2.156   2.672   2.673  0.9847  0.3455  0.1760
 4135SOL    HW124038   2.142   2.766   2.662 -0.6811  0.1759  0.7664
 4135SOL    HW224039   2.165   2.671   2.768  0.3173  0.1121  0.2363
 4136SOL     OW24040   0.292   4.308   9.109  0.1504  0.4386  0.3661
 4136SOL    HW124041   0.230   4.351   9.168  1.4837 -0.6239  2.5463
 4136SOL    HW224042   0.246   4.333   9.029  0.7226  0.3315  0.0024
 4137SOL     OW24043   2.476   0.536   0.170  0.2999 -0.4630  0.2604
 4137SOL    HW124044   2.395   0.513   0.126  0.2878 -0.5402  0.3228
 4137SOL    HW224045   2.542   0.531   0.101  1.2768  1.5822  1.0238
 4138SOL     OW24046   1.922   2.113   5.842 -0.2675 -0.0654  0.4951
 4138SOL    HW124047   1.900   2.037   5.896  0.5188  0.8442  2.0953
 4138SOL    HW224048   1.861   2.174   5.884  2.4909  1.4821  2.2244
 4139SOL     OW24049   4.737   3.685   5.838  0.2245  0.3824  0.6751
 4139SOL    HW124050   4.718   3.737   5.759 -1.3480  0.8054  1.3204
 4139SOL    HW224051   0.055   3.740   5.892  0.2333 -0.5297  1.5870
 4140SOL     OW24052   1.117   2.963   9.732  0.1716  0.4375  0.1515
 4140SOL    HW124053   1.031   2.990   9.699  1.6673  2.7928 -1.8603
 4140SOL    HW224054   1.158   3.045   9.761  0.7606 -0.2402  1.2307
 4141SOL     OW24055   2.992   3.067   8.739  0.2401  0.7216  0.1446
 4141SOL    HW124056   3.002   2.978   8.705  0.2341  0.1708  1.5809
 4141SOL    HW224057   3.055   3.061   8.810  0.8739  1.3803 -0.3627
 4142SOL     OW24058   4.567   2.621   2.413  0.0578 -0.2439 -0.1802
 4142SOL    HW124059   4.543   2.702   2.369  3.2293  1.2920  0.8736
 4142SOL    HW224060   4.545   2.625   2.506  0.6502  0.6149 -0.0775
 4143SOL     OW24061   4.037   3.683   3.025 -0.8387  0.1901 -0.2751
 4143SOL    HW124062   4.070   3.717   2.942  0.9334  0.7494  0.6714
 4143SOL    HW224063   4.059   3.753   3.086  1.4083 -0.4612 -0.3461
 4144SOL     OW24064   0.273   1.951   2.130 -0.0156  0.4337 -0.2735
 4144SOL    HW124065   0.315   1.872   2.163  1.7283  1.3284 -0.3687
 4144SOL    HW224066   0.280   2.006   2.208 -3.3621 -1.5465  1.4471
 4145SOL     OW24067   0.487   0.727   1.505  0.4765  0.4219 -0.0765
 4145SOL    HW124068   0.469   0.793   1.572  0.4422 -0.4425  0.7651
 4145SOL    HW224069   0.509   0.778   1.427  2.2191 -1.7908 -1.0299
 4146SOL     OW24070   3.533   1.209  12.710 -0.3620 -0.1069 -0.2506
 4146SOL    HW124071   3.516   1.234  12.801 -1.0997 -2.0299  0.1408
 4146SOL    HW224072   3.626   1.229  12.716 -0.6172  0.6573  0.9919
 4147SOL     OW24073   3.063   2.680   6.291 -0.3439 -0.1530  0.0886
 4147SOL    HW124074   3.115   2.624   6.233  2.8750  1.8131  1.0969
 4147SOL    HW224075   3.103   2.766   6.281 -0.4967 -0.2067 -1.0109
 4148SOL     OW24076   1.350   2.772   9.331 -0.1464  0.3329  0.1777
 4148SOL    HW124077   1.379   2.817   9.410 -1.6934 -1.6820  1.8898
 4148SOL    HW224078   1.255   2.777   9.340 -0.0305  1.7088  0.7041
 4149SOL     OW24079   1.629   2.762   7.116 -0.8911  0.3496  1.1004
 4149SOL    HW124080   1.645   2.849   7.152  0.8443  0.7158 -0.5749
 4149SOL    HW224081   1.556   2.789   7.061 -0.3005 -0.4702 -0.0775
 4150SOL     OW24082   1.879   3.548   6.644 -0.2048  0.1625  0.6386
 4150SOL    HW124083   1.913   3.549   6.734 -0.4057 -2.7526  0.7462
 4150SOL    HW224084   1.948   3.503   6.596 -0.7813  2.2572 -2.1490
 4151SOL     OW24085   1.162   3.840   5.508  0.2233  0.4712 -0.0642
 4151SOL    HW124086   1.148   3.847   5.602 -0.8241  0.1996 -0.1993
 4151SOL    HW224087   1.099   3.902   5.470 -0.4360 -1.1181 -1.5363
 4152SOL     OW24088   1.382   1.119  12.376 -0.1640  0.2804 -0.5037
 4152SOL    HW124089   1.418   1.039  12.415  1.2048  1.5875  0.8748
 4152SOL    HW224090   1.299   1.119  12.424 -0.3088 -0.6243 -0.7418
 4153SOL     OW24091   3.509   3.230   4.245  0.6638 -0.3161 -0.4118
 4153SOL    HW124092   3.534   3.312   4.202  2.1242 -0.6955 -0.2868
 4153SOL    HW224093   3.594   3.201   4.276  1.4445  1.5695 -0.7982
 4154SOL     OW24094   2.094   3.695   8.485 -0.2227 -0.4351  0.1023
 4154SOL    HW124095   2.089   3.765   8.420  1.7446  1.7346  2.2887
 4154SOL    HW224096   2.001   3.696   8.505 -0.5594  0.5169 -1.5144
 4155SOL     OW24097   3.804   4.037   5.322 -0.1717 -0.0228 -0.5432
 4155SOL    HW124098   3.880   4.087   5.352  0.2598  0.0413 -1.7227
 4155SOL    HW224099   3.837   4.002   5.239 -1.1343  1.0398 -1.3708
 4156SOL     OW24100   0.011   1.001   5.101  0.3496  0.5545 -0.1579
 4156SOL    HW124101   4.737   1.061   5.175 -2.0608  0.7334 -0.7029
 4156SOL    HW224102   0.107   0.997   5.106  0.3971  1.1429 -0.5419
 4157SOL     OW24103   0.643   2.489   5.849  0.0770  0.6426  0.3226
 4157SOL    HW124104   0.644   2.401   5.810 -0.1153  0.5489  0.5337
 4157SOL    HW224105   0.728   2.498   5.893 -0.1748 -0.2441  0.9976
 4158SOL     OW24106   3.539   0.707   6.204 -0.4052  0.1651 -0.0959
 4158SOL    HW124107   3.569   0.703   6.295 -0.6433  0.9877  0.0212
 4158SOL    HW224108   3.491   0.625   6.205  0.2629 -0.2313 -0.3462
 4159SOL     OW24109   3.642   4.728   3.486  0.4769 -0.6614  0.5387
 4159SOL    HW124110   3.584   4.654   3.504 -1.2895  0.2631 -1.3596
 4159SOL    HW224111   3.650   0.031   3.572 -1.6688 -0.5135  0.6458
 4160SOL     OW24112   2.960   3.227   8.236 -0.1034  0.1131 -0.3271
 4160SOL    HW124113   2.954   3.134   8.217 -1.2172  0.2026 -0.4190
 4160SOL    HW224114   2.933   3.248   8.326 -0.9106  1.1908 -0.8147
 4161SOL     OW24115   4.262   4.095   3.745  0.6652  0.2493 -0.1721
 4161SOL    HW124116   4.288   4.063   3.658  1.5026  0.9544 -0.1830
 4161SOL    HW224117   4.232   4.015   3.787 -2.2869  1.1809 -0.5482
 4162SOL     OW24118   1.435   4.411   7.573 -0.2520  0.7862  0.0409
 4162SOL    HW124119   1.389   4.470   7.513 -1.4885  0.0771  0.2803
 4162SOL    HW224120   1.522   4.404   7.534 -0.6413  1.3050 -0.9310
 4163SOL     OW24121   4.125   0.045  17.108  0.6315 -0.3162 -0.1043
 4163SOL    HW124122   4.201   0.015  17.158 -0.9178 -1.3575  1.6028
 4163SOL    HW224123   4.132   0.139  17.128 -0.8651 -0.1913 -0.1354
 4164SOL     OW24124   2.409   2.969   1.580  0.1644  0.6533 -0.4689
 4164SOL    HW124125   2.430   3.011   1.496  0.5508  1.0188 -0.1868
 4164SOL    HW224126   2.467   3.022   1.634  0.2208 -0.8984  0.9740
 4165SOL     OW24127   1.967   0.745   5.006  0.1166 -0.1367 -0.0565
 4165SOL    HW124128   1.978   0.693   4.926 -0.1174  0.4717 -0.4876
 4165SOL    HW224129   2.032   0.815   5.009  0.8067 -0.7801 -0.1512
 4166SOL     OW24130   0.380   3.632  14.806 -0.2570 -0.0004  0.5659
 4166SOL    HW124131   0.378   3.619  14.711 -2.1004  1.4696  0.4161
 4166SOL    HW224132   0.347   3.721  14.818 -1.2464 -0.0918 -1.4568
 4167SOL     OW24133   4.723   2.739   0.799  0.3927 -0.2773 -0.1031
 4167SOL    HW124134   4.673   2.664   0.766  3.4765 -1.2622 -2.5892
 4167SOL    HW224135   4.655   2.780   0.852 -1.3786 -1.0685 -1.7426
 4168SOL     OW24136   1.043   4.413   2.277  0.7225 -0.3857 -0.2147
 4168SOL    HW124137   1.067   4.505   2.286 -0.4411 -0.1449  0.4109
 4168SOL    HW224138   1.045   4.390   2.370 -1.3289 -3.2755 -0.8722
 4169SOL     OW24139   4.618   3.747   7.234 -0.3412 -0.0040 -0.4382
 4169SOL    HW124140   4.607   3.654   7.252  0.6334  0.0998  0.7000
 4169SOL    HW224141   4.571   3.781   7.311 -0.5857  0.0402 -0.6058
 4170SOL     OW24142   3.847   2.013   7.128 -0.2664 -0.1082  0.6437
 4170SOL    HW124143   3.830   2.061   7.047  1.1723 -0.2752  0.2362
 4170SOL    HW224144   3.769   2.034   7.179 -2.3262  0.7669 -2.8817
 4171SOL     OW24145   3.337   2.991   8.040 -0.5320  0.1717  0.1531
 4171SOL    HW124146   3.330   2.944   8.123 -0.2062 -0.9537 -0.4565
 4171SOL    HW224147   3.417   2.947   8.010 -0.3713  0.1869  0.5550
 4172SOL     OW24148   0.815   2.701   9.966  0.2920 -0.1916 -0.1008
 4172SOL    HW124149   0.803   2.615  10.006  1.4910  0.3893  1.4910
 4172SOL    HW224150   0.747   2.749  10.014  0.2460 -1.1550  0.7924
 4173SOL     OW24151   1.173   1.158   6.986 -0.4015 -0.0350  0.0797
 4173SOL    HW124152   1.129   1.081   6.948  1.7529 -1.5160  0.5851
 4173SOL    HW224153   1.144   1.227   6.926 -1.4357  0.7254  1.4833
 4174SOL     OW24154   4.510   0.526   2.531  0.2862 -0.1623  0.2118
 4174SOL    HW124155   4.429   0.488   2.496  0.3924 -0.5214  0.3542
 4174SOL    HW224156   4.526   0.597   2.468 -0.8073  0.1820  0.3263
 4175SOL     OW24157   4.072   1.802  15.400  0.1511  0.1987  0.0049
 4175SOL    HW124158   4.055   1.886  15.357 -0.6368  0.4808  0.8813
 4175SOL    HW224159   4.131   1.771  15.330 -1.2983  0.3674 -1.2923
 4176SOL     OW24160   2.039   2.467   5.981  0.4696 -0.5582 -0.2422
 4176SOL    HW124161   2.026   2.445   5.889  1.1385  0.7320 -0.6421
 4176SOL    HW224162   2.101   2.398   6.005 -0.2729 -0.1183  2.9523
 4177SOL     OW24163   3.245   4.431  13.850  0.2519  0.0079 -0.5381
 4177SOL    HW124164   3.255   4.430  13.946  1.3275  1.4504 -0.6380
 4177SOL    HW224165   3.173   4.494  13.847  0.2118  0.0287  0.8267
 4178SOL     OW24166   2.504   2.148   7.099  0.3306 -0.3054 -0.0000
 4178SOL    HW124167   2.534   2.232   7.133 -0.5533 -0.7467  1.8447
 4178SOL    HW224168   2.499   2.092   7.176 -0.7773  1.4603  1.2024
 4179SOL     OW24169   2.846   3.863   6.623 -0.3622  0.3596  0.0016
 4179SOL    HW124170   2.911   3.911   6.573  0.4291 -0.8100 -0.0866
 4179SOL    HW224171   2.787   3.839   6.550 -1.1148  0.3341  0.6172
 4180SOL     OW24172   4.431   0.599   8.703  0.0151  0.1950 -0.1210
 4180SOL    HW124173   4.478   0.528   8.658 -2.9048 -0.5390 -2.0366
 4180SOL    HW224174   4.406   0.651   8.626  0.5089 -0.8599 -1.0074
 4181SOL     OW24175   0.825   1.874   3.386 -0.2893  0.6577 -0.4954
 4181SOL    HW124176   0.743   1.841   3.349 -0.7310 -0.6789  1.6887
 4181SOL    HW224177   0.791   1.957   3.420 -0.6449  0.7324 -1.0375
 4182SOL     OW24178   3.740   0.571   4.614  0.1622  0.0851  0.3715
 4182SOL    HW124179   3.802   0.542   4.681 -1.2053 -0.8570  1.2373
 4182SOL    HW224180   3.671   0.504   4.623  0.4019 -0.5523 -2.6594
 4183SOL     OW24181   2.197   2.446   1.507  0.6065  0.0692 -0.1182
 4183SOL    HW124182   2.251   2.447   1.428 -0.3743  0.2597 -0.7840
 4183SOL    HW224183   2.238   2.524   1.544 -2.2227  1.2255  0.5535
 4184SOL     OW24184   3.572   4.376   1.193 -0.1978 -0.2280  0.1061
 4184SOL    HW124185   3.579   4.371   1.098  0.3413 -1.5985  0.2085
 4184SOL    HW224186   3.574   4.282   1.212  0.4835 -0.0773  0.7935
 4185SOL     OW24187   0.156   1.353   4.921 -0.0113 -0.5499  0.4051
 4185SOL    HW124188   0.108   1.386   4.997 -0.8395 -0.1632 -0.2869
 4185SOL    HW224189   0.085   1.299   4.886  0.4051  1.4424 -3.5223
 4186SOL     OW24190   1.111   4.623   1.411 -0.7436 -0.1053 -0.6950
 4186SOL    HW124191   1.138   4.699   1.463 -3.7925 -0.0254  0.7983
 4186SOL    HW224192   1.132   4.558   1.478 -0.3274  1.1024  0.3427
 4187SOL     OW24193   2.803   3.601  17.420 -0.4717  0.5721 -0.0618
 4187SOL    HW124194   2.724   3.551  17.400 -0.0841 -0.4136  0.8061
 4187SOL    HW224195   2.784   3.678  17.368  1.5744  0.5393 -0.8634
 4188SOL     OW24196   4.574   3.046  17.683 -0.2468 -0.0502  0.6331
 4188SOL    HW124197   4.596   2.957  17.657 -2.0291  0.4623 -2.7112
 4188SOL    HW224198   4.482   3.049  17.656  0.3260  1.6652 -1.1468
 4189SOL     OW24199   2.776   3.413  12.892  0.4981  0.7524  0.1015
 4189SOL    HW124200   2.870   3.401  12.877  0.3873 -1.5629  1.1061
 4189SOL    HW224201   2.775   3.507  12.912 -1.0397  1.0633 -1.4638
 4190SOL     OW24202   4.257   1.732  15.221  0.3124  0.2461 -0.4115
 4190SOL    HW124203   4.270   1.638  15.235  3.6626  1.1222  2.2712
 4190SOL    HW224204   4.328   1.780  15.264 -0.1861 -0.3146  1.0426
 4191SOL     OW24205   0.586   0.842   2.747 -0.3160  0.2818  0.0181
 4191SOL    HW124206   0.540   0.759   2.736  0.5952 -0.0471 -1.3023
 4191SOL    HW224207   0.506   0.895   2.740 -1.3507 -1.3334 -0.4333
 4192SOL     OW24208   4.443   4.241   0.062  0.1592 -0.1343 -0.3893
 4192SOL    HW124209   4.524   4.271   0.104 -0.4932  0.4693  0.4256
 4192SOL    HW224210   4.381   4.311   0.083  1.4047  0.9309 -0.2115
 4193SOL     OW24211   3.723   1.324   8.336  0.1821  0.0046  0.2491
 4193SOL    HW124212   3.738   1.414   8.364  1.6518  0.3199 -1.5149
 4193SOL    HW224213   3.630   1.338   8.322  0.0547  0.7612  1.8900
 4194SOL     OW24214   3.443   0.148   1.023 -0.2741 -0.3920  0.0525
 4194SOL    HW124215   3.480   0.155   0.935  0.0605  0.1752  0.2416
 4194SOL    HW224216   3.519   0.116   1.072  1.0165 -0.1901 -1.8284
 4195SOL     OW24217   1.457   1.718   6.194 -0.0907  0.3040 -0.7987
 4195SOL    HW124218   1.379   1.686   6.148 -0.4336  1.1747 -0.8359
 4195SOL    HW224219   1.470   1.663   6.270  0.9787  1.6443 -0.0090
 4196SOL     OW24220   1.785   2.820  16.444  0.3932  0.8869 -0.0270
 4196SOL    HW124221   1.691   2.823  16.426  0.0994 -1.0829  1.1426
 4196SOL    HW224222   1.817   2.879  16.376  0.6071  0.9010  0.0858
 4197SOL     OW24223   4.113   3.825   2.796  0.4578  0.4023  0.1629
 4197SOL    HW124224   4.027   3.867   2.791 -0.6206 -1.8307  0.1335
 4197SOL    HW224225   4.170   3.900   2.779  1.0559 -0.3614 -1.1674
 4198SOL     OW24226   2.300   2.502   7.374  0.3564 -0.9163 -0.3929
 4198SOL    HW124227   2.232   2.497   7.441  0.6786 -0.3727 -0.0251
 4198SOL    HW224228   2.261   2.452   7.303  0.6012  0.1231 -1.2448
 4199SOL     OW24229   4.324   4.386   6.312 -0.3227 -0.2344  0.3130
 4199SOL    HW124230   4.354   4.337   6.236  2.0710  1.4132  0.2132
 4199SOL    HW224231   4.281   4.460   6.269  1.6072  0.8825  0.3168
 4200SOL     OW24232   3.562   2.601   7.966  0.1294  0.4884 -0.2412
 4200SOL    HW124233   3.550   2.510   7.941  0.8077  0.5312 -0.7217
 4200SOL    HW224234   3.618   2.587   8.042 -1.8120  1.2199  1.3095
 4201SOL     OW24235   3.881   2.127  11.280  0.3877  0.1656 -0.2338
 4201SOL    HW124236   3.965   2.172  11.270  1.2132 -1.2100  0.4754
 4201SOL    HW224237   3.836   2.181  11.345 -0.9080 -0.9465 -0.2100
 4202SOL     OW24238   1.030   1.069   4.613 -0.4455 -0.2638  0.5605
 4202SOL    HW124239   0.996   0.988   4.575 -1.7045  1.8000 -2.7122
 4202SOL    HW224240   1.101   1.029   4.664  1.9271  0.7473 -1.9582
 4203SOL     OW24241   2.366   0.183  12.397 -0.5448 -0.2265 -0.1048
 4203SOL    HW124242   2.338   0.136  12.476 -1.2498  0.6933  0.1911
 4203SOL    HW224243   2.281   0.215  12.365 -0.7460 -0.9605 -0.2973
 4204SOL     OW24244   4.688   2.448  17.611  0.3165  0.1401 -0.1886
 4204SOL    HW124245   4.594   2.431  17.599  0.0842  1.7767 -0.5981
 4204SOL    HW224246   4.733   2.387  17.552  0.2708 -2.0462  2.0456
 4205SOL     OW24247   4.017   1.403  17.389 -0.0496  0.8731  0.4706
 4205SOL    HW124248   3.964   1.342  17.338  1.4050 -0.3765  0.4551
 4205SOL    HW224249   4.003   1.380  17.480 -1.0192 -1.1705 -0.1916
 4206SOL     OW24250   4.226   0.964   4.291 -0.4793 -0.1032  0.2639
 4206SOL    HW124251   4.279   0.943   4.368  0.7544  1.8653 -0.0603
 4206SOL    HW224252   4.142   0.921   4.308  0.0485 -0.9550  0.7349
 4207SOL     OW24253   0.548   1.017   5.572 -0.5298 -0.4031 -0.3919
 4207SOL    HW124254   0.619   1.071   5.537 -1.7477  1.4448  0.0062
 4207SOL    HW224255   0.576   1.013   5.663 -1.1329 -1.7685 -0.2678
 4208SOL     OW24256   2.670   0.772   6.899  0.0237 -0.0097  0.3000
 4208SOL    HW124257   2.657   0.828   6.976 -0.6940 -0.1298  0.2680
 4208SOL    HW224258   2.766   0.768   6.900  0.0204  0.2018  2.7726
 4209SOL     OW24259   2.663   0.663   3.168  0.3671  0.5554  0.5038
 4209SOL    HW124260   2.610   0.644   3.091 -0.0758 -0.1727  0.9824
 4209SOL    HW224261   2.719   0.729   3.128  1.1290  0.5763  1.5950
 4210SOL     OW24262   2.402   4.250   8.887  0.1562  0.0652 -0.6261
 4210SOL    HW124263   2.369   4.270   8.799 -0.6057  1.3721 -0.0390
 4210SOL    HW224264   2.358   4.166   8.901  1.5591 -0.4311  0.7648
 4211SOL     OW24265   0.837   0.510   5.395 -0.0982  0.1773  0.0978
 4211SOL    HW124266   0.744   0.520   5.415 -0.1815 -0.3165 -0.0491
 4211SOL    HW224267   0.841   0.524   5.301 -0.2435  2.2187  0.3976
 4212SOL     OW24268   0.976   0.240   1.149 -0.5246  0.1509  0.2317
 4212SOL    HW124269   0.968   0.165   1.208 -0.0384 -1.5786 -1.9129
 4212SOL    HW224270   0.904   0.217   1.090  0.5225  1.3289 -1.5060
 4213SOL     OW24271   3.180   3.970   3.975  0.0283  0.0206  0.4293
 4213SOL    HW124272   3.247   4.017   4.025 -0.3579 -0.6208  1.5425
 4213SOL    HW224273   3.122   3.933   4.041  0.3641 -1.9391 -0.3743
 4214SOL     OW24274   2.386   2.735   7.240  0.3358 -0.0622 -0.2551
 4214SOL    HW124275   2.350   2.808   7.290  1.2595  0.5000 -0.4217
 4214SOL    HW224276   2.338   2.664   7.284 -0.4609  1.1107  0.7491
 4215SOL     OW24277   1.512   2.486   6.079 -0.1900  0.0256  0.1776
 4215SOL    HW124278   1.517   2.573   6.039 -1.2605 -0.3413 -0.7383
 4215SOL    HW224279   1.450   2.503   6.149  0.5685 -1.3431  1.1823
 4216SOL     OW24280   4.581   3.899   5.321 -0.1083  0.1702 -0.7893
 4216SOL    HW124281   4.618   3.974   5.366  0.7136  0.0076 -1.1847
 4216SOL    HW224282   4.650   3.879   5.257  0.2359 -2.2134  0.3253
 4217SOL     OW24283   1.402   0.553   6.368 -0.1849 -0.4275 -0.2205
 4217SOL    HW124284   1.483   0.540   6.417 -0.7523 -0.5699  0.6809
 4217SOL    HW224285   1.340   0.532   6.438 -0.4697  0.0357 -0.3345
 4218SOL     OW24286   0.543   3.429   4.450 -0.9270  0.0906 -0.4113
 4218SOL    HW124287   0.588   3.508   4.482 -1.9990 -0.2581  2.0268
 4218SOL    HW224288   0.533   3.387   4.536 -0.4764  1.5288  0.3517
 4219SOL     OW24289   2.786   3.262   8.004  0.2357  0.6673 -0.0932
 4219SOL    HW124290   2.820   3.257   8.093 -0.4608 -0.3738  0.1068
 4219SOL    HW224291   2.847   3.321   7.960  0.0939 -0.5086 -1.8681
 4220SOL     OW24292   0.053   4.487   1.521  0.4188 -0.3771 -0.9252
 4220SOL    HW124293   0.101   4.516   1.444  0.0031 -0.3081 -1.1564
 4220SOL    HW224294   4.734   4.561   1.541  3.1368  1.4863 -0.0033
 4221SOL     OW24295   2.259   2.253   8.637  0.6280 -0.5013 -0.6902
 4221SOL    HW124296   2.349   2.236   8.665  0.3784  0.5937  0.7766
 4221SOL    HW224297   2.269   2.327   8.578 -0.1956 -0.1306 -0.3666
 4222SOL     OW24298   2.933   0.370   9.078 -0.2025  0.2217  0.8006
 4222SOL    HW124299   3.016   0.389   9.121  0.1319 -1.4904  0.8986
 4222SOL    HW224300   2.954   0.329   8.994  1.8926  1.1353  0.8797
 4223SOL     OW24301   3.841   3.317   7.584 -0.2101  0.9233  0.3252
 4223SOL    HW124302   3.784   3.324   7.508  0.0098  0.1741  0.0948
 4223SOL    HW224303   3.773   3.323   7.651  0.6183  1.5793  1.1091
 4224SOL     OW24304   1.027   1.184  16.298  0.2382 -0.2042  0.4251
 4224SOL    HW124305   1.084   1.165  16.224 -1.1882  0.5070 -0.8611
 4224SOL    HW224306   1.086   1.225  16.361  2.2835  0.5459 -1.9552
 4225SOL     OW24307   4.523   0.933  14.990  0.1709 -0.4654  0.4197
 4225SOL    HW124308   4.602   0.976  14.956  1.6255 -1.8824  1.9812
 4225SOL    HW224309   4.465   0.941  14.914 -0.1375  0.7872  0.7950
 4226SOL     OW24310   0.842   2.473   4.880  0.0328  0.4109  0.0205
 4226SOL    HW124311   0.836   2.382   4.910  1.2896  0.2606 -0.1881
 4226SOL    HW224312   0.916   2.505   4.931  1.1972 -0.9863 -0.8048
 4227SOL     OW24313   2.658   2.730   4.097  0.0402 -0.0002  0.4466
 4227SOL    HW124314   2.617   2.655   4.141  0.1981 -0.5154 -0.2864
 4227SOL    HW224315   2.655   2.702   4.006  1.0423 -0.9767  0.7202
 4228SOL     OW24316   4.412   0.700  13.845  0.0999 -0.0562  0.1111
 4228SOL    HW124317   4.369   0.665  13.767 -1.2703  0.7865  0.4687
 4228SOL    HW224318   4.413   0.622  13.899 -0.2186  0.1872  0.4742
 4229SOL     OW24319   2.942   3.719  17.669  0.3235 -0.7073  0.3535
 4229SOL    HW124320   2.986   3.785  17.616 -0.2798  0.0963  0.8678
 4229SOL    HW224321   2.868   3.701  17.611  1.8757 -4.1509 -0.5782
 4230SOL     OW24322   2.265   3.113  13.346  0.1677  0.1636  0.1840
 4230SOL    HW124323   2.214   3.032  13.345 -1.7135  1.3190  0.7592
 4230SOL    HW224324   2.324   3.109  13.271 -0.2790  0.8289 -0.2052
 4231SOL     OW24325   0.171   2.785   9.934 -0.1353  0.3829 -0.1729
 4231SOL    HW124326   0.217   2.703   9.951  2.4259  2.0233  0.7494
 4231SOL    HW224327   0.235   2.845   9.972  0.2404  1.6739 -2.9043
 4232SOL     OW24328   2.048   3.376   5.227  0.0176  0.1761 -0.2137
 4232SOL    HW124329   1.978   3.316   5.254 -1.2613  0.9999 -1.6391
 4232SOL    HW224330   1.996   3.453   5.202  0.3613  0.5969  0.3850
 4233SOL     OW24331   0.390   4.706   1.555  0.0598 -0.8555  0.2314
 4233SOL    HW124332   0.395   4.683   1.463 -1.6861  0.2745 -0.1413
 4233SOL    HW224333   0.482   4.730   1.569  0.1091 -1.9468  1.8643
 4234SOL     OW24334   3.154   2.877   4.001  0.5223 -0.1891  0.3502
 4234SOL    HW124335   3.200   2.852   4.081 -2.1518 -2.3498  1.2326
 4234SOL    HW224336   3.193   2.960   3.976  1.9518  0.4501  4.8078
 4235SOL     OW24337   0.003   1.077   8.252  0.1259 -0.0088 -0.0976
 4235SOL    HW124338   4.655   1.063   8.214  0.2813  1.9042 -1.1197
 4235SOL    HW224339   0.039   1.007   8.197  0.6582 -0.8009  1.2411
 4236SOL     OW24340   2.431   1.503   9.574  0.4341  0.0058  0.2840
 4236SOL    HW124341   2.364   1.572   9.578  1.9961  1.5500 -0.2669
 4236SOL    HW224342   2.380   1.431   9.537 -0.9324  0.6168  0.9933
 4237SOL     OW24343   4.168   3.805  10.682 -0.0728 -0.1724  0.3783
 4237SOL    HW124344   4.205   3.868  10.620 -1.2474  0.3435  0.2118
 4237SOL    HW224345   4.076   3.818  10.661 -0.0565 -0.1200  0.3404
 4238SOL     OW24346   4.213   2.451   5.593  0.3490  0.0544  0.2480
 4238SOL    HW124347   4.213   2.395   5.670 -1.0383  1.2804  1.1462
 4238SOL    HW224348   4.307   2.452   5.576  0.2408  1.7871 -0.3166
 4239SOL     OW24349   1.245   3.187   8.447 -0.3059  0.2049 -0.0109
 4239SOL    HW124350   1.312   3.234   8.496 -0.4496 -1.0953  1.4367
 4239SOL    HW224351   1.198   3.141   8.517 -0.8009  1.8671  0.7449
 4240SOL     OW24352   4.584   0.289   3.413 -0.5187 -0.1401  0.0945
 4240SOL    HW124353   4.569   0.197   3.434 -3.0734  0.3631  0.5076
 4240SOL    HW224354   4.637   0.322   3.486  1.4665 -1.1087 -0.9017
 4241SOL     OW24355   2.437   0.276   6.976  0.1403 -0.5944  0.2882
 4241SOL    HW124356   2.453   0.338   7.047  3.1628 -2.8366  1.5699
 4241SOL    HW224357   2.457   0.340   6.908 -0.6646 -1.5636 -0.8656
 4242SOL     OW24358   2.213   4.298   4.857  0.0230 -0.3575 -0.1864
 4242SOL    HW124359   2.235   4.286   4.765 -2.5430  0.7474 -0.9270
 4242SOL    HW224360   2.297   4.335   4.887  0.0062  0.3563 -1.0249
 4243SOL     OW24361   4.502   1.483   5.704 -0.4584  0.2197 -0.4065
 4243SOL    HW124362   4.498   1.422   5.630  0.7348 -1.2150  0.7092
 4243SOL    HW224363   4.518   1.418   5.773 -1.1596 -1.1098 -1.4985
 4244SOL     OW24364   1.491   3.855   5.635 -0.2799 -0.4033  0.2334
 4244SOL    HW124365   1.451   3.892   5.557 -1.1718  0.0642  0.9224
 4244SOL    HW224366   1.579   3.892   5.632 -0.4870 -0.1448 -2.2176
 4245SOL     OW24367   0.291   2.230  15.340  0.0555  1.3507  0.0369
 4245SOL    HW124368   0.223   2.246  15.274 -0.5898  1.5655  0.7490
 4245SOL    HW224369   0.358   2.196  15.281  0.1952 -2.1512  2.2660
 4246SOL     OW24370   2.833   0.872   3.086 -0.5298  0.2689  0.0702
 4246SOL    HW124371   2.927   0.886   3.079 -0.3109 -1.4980 -0.6169
 4246SOL    HW224372   2.802   0.851   2.998 -1.5618  0.7946  0.3036
 4247SOL     OW24373   2.025   4.429   3.827  0.1841 -0.1251  0.0499
 4247SOL    HW124374   1.945   4.411   3.779 -0.4225 -1.3654  1.5242
 4247SOL    HW224375   2.005   4.496   3.892 -0.7773  0.0614 -0.4509
 4248SOL     OW24376   0.797   4.504   2.211  0.1846 -0.9567 -0.1388
 4248SOL    HW124377   0.810   4.558   2.133  1.1408  0.8696  1.2938
 4248SOL    HW224378   0.881   4.460   2.227 -0.3768 -1.6019  1.0100
 4249SOL     OW24379   1.986   0.790   6.382 -0.2576 -0.3047 -0.2207
 4249SOL    HW124380   1.972   0.702   6.418 -1.1822 -0.1358 -0.1471
 4249SOL    HW224381   2.013   0.842   6.458 -0.7526  1.8717 -1.5360
 4250SOL     OW24382   2.225   1.932   4.809 -0.1346 -0.1033 -0.7120
 4250SOL    HW124383   2.238   2.027   4.819  1.3921 -0.4100  0.1916
 4250SOL    HW224384   2.137   1.921   4.844 -0.7535  0.2127 -2.1671
 4251SOL     OW24385   1.158   4.075  12.420 -0.2212  0.3014 -0.3446
 4251SOL    HW124386   1.179   4.067  12.327  2.1611 -2.2977  0.4167
 4251SOL    HW224387   1.151   3.984  12.449  0.9175  0.5147  0.5802
 4252SOL     OW24388   3.249   3.976   4.834  0.1909 -0.4913  0.2357
 4252SOL    HW124389   3.172   4.015   4.874 -0.8838 -2.2046 -0.1484
 4252SOL    HW224390   3.250   3.885   4.863 -2.4637 -0.3974  0.6006
 4253SOL     OW24391   2.820   3.176  12.255  0.1555  0.0589  0.1445
 4253SOL    HW124392   2.910   3.176  12.221 -0.4920 -1.0349 -1.5996
 4253SOL    HW224393   2.822   3.212  12.343 -2.0055 -1.9358  0.9975
 4254SOL     OW24394   1.920   2.821   9.385  0.1465 -0.7416  0.2386
 4254SOL    HW124395   1.930   2.752   9.320  0.2844  0.1666 -0.6942
 4254SOL    HW224396   1.987   2.786   9.445 -0.1086 -0.8223  0.4779
 4255SOL     OW24397   2.866   0.524   1.981 -0.0727 -0.1408 -0.2345
 4255SOL    HW124398   2.880   0.607   2.027 -0.9450 -0.8224  1.2685
 4255SOL    HW224399   2.773   0.515   1.999  0.2976  0.4771  2.0383
 4256SOL     OW24400   3.014   1.484   1.863  0.4513 -0.3347 -0.6686
 4256SOL    HW124401   3.049   1.573   1.856 -2.0634  0.7663  0.8275
 4256SOL    HW224402   3.092   1.442   1.827  0.2949 -0.7540 -0.5169
 4257SOL     OW24403   3.242   2.577  15.386  0.2590  0.3227 -0.0327
 4257SOL    HW124404   3.147   2.585  15.394  0.3619  1.9014 -0.5153
 4257SOL    HW224405   3.248   2.531  15.302 -2.9420 -0.2920  0.0743
 4258SOL     OW24406   1.973   3.637   5.199 -0.1085 -0.0694 -0.2905
 4258SOL    HW124407   2.059   3.669   5.225 -0.0451 -1.7523  1.6074
 4258SOL    HW224408   1.917   3.670   5.269  0.4305  1.3786 -0.5594
 4259SOL     OW24409   0.786   2.037   3.874 -0.3669  0.0566 -0.0052
 4259SOL    HW124410   0.874   2.064   3.850 -0.1620 -1.0069 -0.4508
 4259SOL    HW224411   0.787   1.941   3.866  1.8672  0.2184 -1.4494
 4260SOL     OW24412   0.815   1.541   4.496  0.0129  0.5659 -0.9321
 4260SOL    HW124413   0.896   1.492   4.496 -0.7576 -0.6849  1.8390
 4260SOL    HW224414   0.777   1.534   4.583  1.1915 -0.6696 -0.5316
 4261SOL     OW24415   3.733   3.634  11.941  0.4973 -0.2713 -0.8684
 4261SOL    HW124416   3.812   3.627  11.994  1.2098 -2.5883 -2.2488
 4261SOL    HW224417   3.672   3.586  11.998  0.8681  2.5939  1.9548
 4262SOL     OW24418   2.463   1.076   7.141 -0.2827 -0.0213 -0.2802
 4262SOL    HW124419   2.370   1.076   7.117  0.1608  1.4023 -2.0337
 4262SOL    HW224420   2.478   1.164   7.176  2.3652 -0.4323 -0.3392
 4263SOL     OW24421   2.280   3.054  11.604  0.8460  0.4571 -0.2638
 4263SOL    HW124422   2.353   3.116  11.598  0.8180  0.4890 -0.2732
 4263SOL    HW224423   2.320   2.967  11.610 -1.5348 -0.6456 -0.4673
 4264SOL     OW24424   1.876   2.239   2.762 -0.2167  0.4954 -0.2711
 4264SOL    HW124425   1.802   2.203   2.810  1.1367 -0.8213  0.8400
 4264SOL    HW224426   1.915   2.157   2.731  0.2933  1.6226 -2.5945
 4265SOL     OW24427   0.573   4.190   4.515  0.3493 -0.1063  0.3261
 4265SOL    HW124428   0.537   4.143   4.590  0.8415  0.2540  0.7891
 4265SOL    HW224429   0.667   4.182   4.529  0.5652  2.8132  0.7101
 4266SOL     OW24430   4.378   1.081   7.848  0.0692 -0.0076 -0.6495
 4266SOL    HW124431   4.423   1.030   7.782 -0.6975 -0.4218 -0.8515
 4266SOL    HW224432   4.453   1.106   7.902  0.3237 -1.3321 -0.4108
 4267SOL     OW24433   1.753   4.531   1.129  0.3584 -0.4858 -0.1064
 4267SOL    HW124434   1.783   4.470   1.196  0.0280 -1.1341 -0.5555
 4267SOL    HW224435   1.658   4.525   1.128  0.3158  0.3477 -0.5840
 4268SOL     OW24436   0.672   4.053   2.034  0.4306  0.2023 -0.1157
 4268SOL    HW124437   0.600   4.113   2.053  0.1405 -0.1129 -0.2093
 4268SOL    HW224438   0.720   4.069   2.115  0.2469  1.5834 -0.2888
 4269SOL     OW24439   1.056   0.974   6.029 -0.1639 -0.1466  0.4851
 4269SOL    HW124440   0.973   0.986   6.075  0.8297  1.7244  1.7725
 4269SOL    HW224441   1.050   0.892   5.979 -0.3225 -0.0855  0.4060
 4270SOL     OW24442   3.320   0.617   4.579  0.1869  0.0736  0.1701
 4270SOL    HW124443   3.370   0.699   4.580 -1.8826  1.3281  1.1765
 4270SOL    HW224444   3.249   0.638   4.517 -2.2296 -0.0085  2.8905
 4271SOL     OW24445   2.360   0.183   4.009 -0.2023  0.0057 -0.0179
 4271SOL    HW124446   2.438   0.143   3.971  0.9757  0.0607  2.3613
 4271SOL    HW224447   2.289   0.143   3.958  0.0554 -0.1905 -0.2188
 4272SOL     OW24448   2.999   2.290   2.903  0.1625  0.2002  0.0758
 4272SOL    HW124449   2.944   2.350   2.953  1.6174  0.0886  1.8224
 4272SOL    HW224450   2.961   2.283   2.815  2.4767 -2.6643 -0.6935
 4273SOL     OW24451   1.320   2.723   0.369 -0.2146  0.2212  0.2655
 4273SOL    HW124452   1.342   2.790   0.304  0.2557 -0.3417 -0.1729
 4273SOL    HW224453   1.248   2.681   0.321  0.2571 -0.5599  0.2310
 4274SOL     OW24454   3.538   3.719   9.230  0.1331 -0.1103 -0.4443
 4274SOL    HW124455   3.565   3.628   9.218 -0.2800  0.0859 -2.8324
 4274SOL    HW224456   3.450   3.708   9.194 -0.9472 -0.9703  2.4449
 4275SOL     OW24457   0.373   0.878   7.386  0.4136 -0.0566  0.0025
 4275SOL    HW124458   0.342   0.967   7.368 -1.3109 -0.5701  0.5206
 4275SOL    HW224459   0.290   0.834   7.374  0.8556 -1.9374  3.6903
 4276SOL     OW24460   4.228   0.486   9.422 -0.5981 -0.4738  0.0992
 4276SOL    HW124461   4.209   0.470   9.514  1.0429  1.5279  0.7767
 4276SOL    HW224462   4.212   0.402   9.379  0.2588 -1.3581  1.5018
 4277SOL     OW24463   0.664   0.854   6.479  0.4660  0.5627  0.1808
 4277SOL    HW124464   0.676   0.783   6.416  1.0435  0.7821  0.0482
 4277SOL    HW224465   0.591   0.906   6.446 -0.0303 -0.7010 -0.7138
 4278SOL     OW24466   2.497   4.222   7.480  0.2388  0.3553 -0.1488
 4278SOL    HW124467   2.549   4.143   7.497  1.5647  1.6224  1.7334
 4278SOL    HW224468   2.572   4.279   7.463  1.2520 -0.4148  1.6705
 4279SOL     OW24469   1.132   2.351   7.425 -0.3151 -0.0352 -0.4127
 4279SOL    HW124470   1.122   2.304   7.508 -0.1659  1.7506  0.6180
 4279SOL    HW224471   1.195   2.418   7.451 -1.0536  0.2649  0.6355
 4280SOL     OW24472   1.155   0.240   6.538  0.2353  0.1195  0.0893
 4280SOL    HW124473   1.157   0.147   6.516 -2.3677  0.6586 -2.4517
 4280SOL    HW224474   1.065   0.262   6.514  0.0747 -0.2162  0.3780
 4281SOL     OW24475   1.111   4.585   1.023 -0.2289 -0.1609  0.5028
 4281SOL    HW124476   1.130   4.509   1.078 -3.7003 -1.1209  0.4328
 4281SOL    HW224477   1.189   4.639   1.031  0.6254 -1.0686 -1.5736
 4282SOL     OW24478   4.037   2.245   6.086 -0.0222  0.1372  0.2211
 4282SOL    HW124479   4.053   2.246   6.181 -0.9690 -3.3945  0.4440
 4282SOL    HW224480   3.968   2.310   6.074 -0.5590 -0.4929 -0.1148
 4283SOL     OW24481   3.470   3.625   8.933  0.2638 -0.3510  0.1042
 4283SOL    HW124482   3.410   3.658   8.999  0.5895  3.0763 -1.3023
 4283SOL    HW224483   3.419   3.640   8.854  1.4178  1.4608 -0.2919
 4284SOL     OW24484   2.056   0.705   8.447 -0.1419  0.4015  0.1477
 4284SOL    HW124485   2.007   0.625   8.429 -0.1828  1.1872 -3.4052
 4284SOL    HW224486   2.119   0.708   8.374  3.2931  0.0954  3.1150
 4285SOL     OW24487   0.653   4.015   3.943 -0.5487 -0.4492 -0.4954
 4285SOL    HW124488   0.709   3.973   3.878  0.8576 -1.0597  1.0811
 4285SOL    HW224489   0.565   4.024   3.908 -0.8366  0.7864  0.5377
 4286SOL     OW24490   2.199   2.826   0.743 -0.1909  0.1920 -0.2585
 4286SOL    HW124491   2.250   2.854   0.820 -0.6349 -2.0202  0.8254
 4286SOL    HW224492   2.236   2.886   0.678  1.4108  0.0514  0.5146
 4287SOL     OW24493   0.233   2.963   4.552  0.2259 -0.3211 -0.2910
 4287SOL    HW124494   0.168   2.987   4.485 -0.2281  0.3514  0.3998
 4287SOL    HW224495   0.168   2.935   4.616 -0.9900  1.8817 -0.5557
 4288SOL     OW24496   0.367   1.224   6.195  0.4938  0.0210 -0.0583
 4288SOL    HW124497   0.389   1.162   6.126 -1.7149  0.4009 -1.0995
 4288SOL    HW224498   0.362   1.166   6.271 -0.6170  1.2756  0.8272
 4289SOL     OW24499   4.183   2.643  13.829  0.1246  0.4900  0.1963
 4289SOL    HW124500   4.127   2.671  13.756 -0.5310 -0.3769  0.3647
 4289SOL    HW224501   4.274   2.650  13.801  0.5815 -1.1769  1.2735
 4290SOL     OW24502   4.142   2.151  15.936 -0.0415 -0.5037 -0.0908
 4290SOL    HW124503   4.105   2.073  15.978 -1.6670  0.2901 -0.0520
 4290SOL    HW224504   4.104   2.150  15.848  0.3025  1.0064 -0.2503
 4291SOL     OW24505   2.596   0.092  12.716  0.1862  0.1823 -0.4481
 4291SOL    HW124506   2.525   0.051  12.765 -0.0763 -0.0841 -1.0511
 4291SOL    HW224507   2.642   0.010  12.698 -0.8407 -0.1196 -1.7103
 4292SOL     OW24508   4.100   1.696   9.792 -0.0006  0.3032 -0.3186
 4292SOL    HW124509   4.013   1.682   9.754 -0.1684 -4.2228  1.6454
 4292SOL    HW224510   4.144   1.675   9.710  2.2069  2.0435  0.4187
 4293SOL     OW24511   1.414   4.276  13.085 -0.0377 -0.9020 -0.8464
 4293SOL    HW124512   1.384   4.194  13.124 -0.0667 -1.0452 -1.1731
 4293SOL    HW224513   1.475   4.236  13.023 -1.0583  0.0667 -2.4786
 4294SOL     OW24514   2.338   1.826  12.940 -0.1353  0.0149 -0.1146
 4294SOL    HW124515   2.249   1.855  12.959 -0.5748 -0.3113 -1.6634
 4294SOL    HW224516   2.393   1.902  12.958 -1.6564  1.1806 -0.4238
 4295SOL     OW24517   2.877   1.425   3.866 -0.1892 -0.4350  0.4331
 4295SOL    HW124518   2.962   1.463   3.842 -0.7855  0.3261 -0.4782
 4295SOL    HW224519   2.862   1.468   3.950 -0.6860  0.4802 -0.1327
 4296SOL     OW24520   4.287   0.681   6.408  0.7070 -0.2515  0.4237
 4296SOL    HW124521   4.335   0.629   6.473 -0.8508 -1.0330  0.9574
 4296SOL    HW224522   4.199   0.644   6.416 -0.0280  1.6693  0.9748
 4297SOL     OW24523   4.552   4.495   1.701 -0.1637 -0.3902  0.5348
 4297SOL    HW124524   4.489   4.545   1.752 -0.2534 -1.6394  1.6342
 4297SOL    HW224525   4.592   4.451   1.775  0.4419  0.8191  0.9239
 4298SOL     OW24526   4.013   3.024   5.637 -0.2358 -0.5466  0.3153
 4298SOL    HW124527   4.047   2.973   5.564 -0.6270 -0.0384 -0.2248
 4298SOL    HW224528   4.002   3.105   5.587  1.9020 -0.5700 -0.1949
 4299SOL     OW24529   0.854   3.822  14.639  0.1753 -0.2667 -0.0115
 4299SOL    HW124530   0.840   3.777  14.722  0.4745 -0.2482  0.0466
 4299SOL    HW224531   0.780   3.882  14.634  0.1533 -0.2264  0.7528
 4300SOL     OW24532   2.463   0.806  13.498 -0.2713 -0.0967 -0.2673
 4300SOL    HW124533   2.384   0.772  13.542 -1.5578  0.8636 -1.8223
 4300SOL    HW224534   2.439   0.898  13.506  1.2609  0.4526 -2.0542
 4301SOL     OW24535   3.336   3.977   0.594 -0.3448  0.4200  0.0720
 4301SOL    HW124536   3.362   3.984   0.686  0.3154 -0.6691 -0.0223
 4301SOL    HW224537   3.348   4.069   0.573  2.4004 -0.3037 -1.6457
 4302SOL     OW24538   3.607   2.645   6.434 -0.3467  0.0808  0.1950
 4302SOL    HW124539   3.525   2.621   6.392 -0.3070  0.7554 -0.2620
 4302SOL    HW224540   3.646   2.558   6.420  2.3367  1.1733  0.8979
 4303SOL     OW24541   1.608   2.300  12.006 -0.4023  0.2107 -0.3795
 4303SOL    HW124542   1.650   2.379  11.972 -0.0531  0.6916  1.1794
 4303SOL    HW224543   1.515   2.315  11.989 -0.3387  1.9567  0.8518
 4304SOL     OW24544   3.300   4.013   6.908 -1.1302  0.1034  0.4955
 4304SOL    HW124545   3.280   3.934   6.859 -0.4722 -0.4893  1.1827
 4304SOL    HW224546   3.369   3.995   6.973 -0.5211 -1.3512 -0.5590
 4305SOL     OW24547   3.252   1.121   5.489 -0.3105  0.0096 -0.0320
 4305SOL    HW124548   3.329   1.087   5.443  0.3871  0.9604  0.4205
 4305SOL    HW224549   3.303   1.169   5.555  0.0892 -1.5875  0.8002
 4306SOL     OW24550   0.602   1.097  11.759  0.2025 -0.2723  0.2398
 4306SOL    HW124551   0.656   1.037  11.707  1.5392  0.4308  0.8157
 4306SOL    HW224552   0.555   1.143  11.689 -0.1001 -1.4249 -0.3080
 4307SOL     OW24553   3.531   4.512   9.493 -0.2399 -0.0600 -0.4122
 4307SOL    HW124554   3.465   4.457   9.536  0.7247 -0.4972  0.5115
 4307SOL    HW224555   3.484   4.562   9.426 -0.2005  2.1885  1.2504
 4308SOL     OW24556   1.505   0.782  13.232 -0.5238 -0.1817  0.5406
 4308SOL    HW124557   1.513   0.688  13.251  1.8703 -0.3427 -1.2548
 4308SOL    HW224558   1.426   0.789  13.179 -0.3957 -1.7307  0.1278
 4309SOL     OW24559   2.857   1.260   2.854 -0.8004 -0.0251 -0.4188
 4309SOL    HW124560   2.896   1.345   2.836 -0.4802 -0.4605 -1.7465
 4309SOL    HW224561   2.931   1.209   2.887 -1.4683 -0.4545  0.4175
 4310SOL     OW24562   3.998   0.615   5.314 -0.4922  0.4596  0.5626
 4310SOL    HW124563   3.971   0.561   5.239 -0.6638 -0.3533  1.2090
 4310SOL    HW224564   4.044   0.688   5.273 -0.2289  0.3396  0.6403
 4311SOL     OW24565   1.263   2.246  10.047 -0.3612  0.4551 -0.4544
 4311SOL    HW124566   1.182   2.206  10.014 -0.2927 -0.6178  0.6509
 4311SOL    HW224567   1.250   2.331  10.005  0.5611  0.9031  0.1723
 4312SOL     OW24568   4.226   4.015   2.251 -0.3552 -0.1923 -0.2538
 4312SOL    HW124569   4.175   4.075   2.305 -1.5244  0.9531 -2.6307
 4312SOL    HW224570   4.222   4.055   2.164  0.8232 -1.2234 -0.7837
 4313SOL     OW24571   3.780   1.038   6.870 -0.1840  0.2933  0.1939
 4313SOL    HW124572   3.748   0.950   6.850 -2.0661  0.7891  1.0419
 4313SOL    HW224573   3.777   1.085   6.787 -2.6790 -0.3738 -0.0923
 4314SOL     OW24574   2.844   2.089   0.626  0.0205 -0.0033  0.3264
 4314SOL    HW124575   2.767   2.032   0.621 -0.7733  1.0243  0.7521
 4314SOL    HW224576   2.884   2.048   0.703  1.5941 -1.6952 -1.4090
 4315SOL     OW24577   1.427   2.952  15.941 -0.0120 -0.6748  0.2430
 4315SOL    HW124578   1.358   3.017  15.959  1.0717  0.6843 -0.5291
 4315SOL    HW224579   1.478   2.967  16.020  0.4645  0.4162 -0.2682
 4316SOL     OW24580   0.234   4.606   8.051 -0.2789 -0.5764  0.3885
 4316SOL    HW124581   0.168   4.645   8.109  1.4414  0.6733  1.4893
 4316SOL    HW224582   0.186   4.598   7.969  0.3045  3.5055 -0.3614
 4317SOL     OW24583   3.087   1.455   4.349 -0.4163  0.6061  0.5444
 4317SOL    HW124584   2.992   1.461   4.341 -0.3164  0.8048 -0.4320
 4317SOL    HW224585   3.125   1.508   4.279  0.0707  1.6655  1.5966
 4318SOL     OW24586   4.361   4.712   0.722  0.1178 -0.2043  0.5283
 4318SOL    HW124587   4.288   4.656   0.696  2.9776 -3.2002 -0.9513
 4318SOL    HW224588   4.417   4.638   0.744  0.4781 -0.7840 -2.3404
 4319SOL     OW24589   1.904   3.583   9.017 -0.1244  0.0308 -0.1100
 4319SOL    HW124590   1.944   3.575   8.930  0.1688 -0.9580  0.1228
 4319SOL    HW224591   1.935   3.503   9.059  0.0108 -0.3844 -0.9846
 4320SOL     OW24592   1.373   1.713   1.410  0.2491  0.2156 -0.2964
 4320SOL    HW124593   1.457   1.699   1.368 -0.0583  2.4344 -1.6894
 4320SOL    HW224594   1.384   1.716   1.505  1.7349  1.1412 -0.4986
 4321SOL     OW24595   1.145   2.157   7.966 -0.2141 -0.2193  0.2717
 4321SOL    HW124596   1.135   2.115   8.052  0.7671  1.4318  1.1753
 4321SOL    HW224597   1.058   2.194   7.952 -0.4528 -0.2677  1.5555
 4322SOL     OW24598   0.451   2.329   7.997 -0.0500  0.7538  0.2697
 4322SOL    HW124599   0.535   2.333   7.951  0.6355  1.6306  1.6234
 4322SOL    HW224600   0.411   2.409   7.965 -4.0372 -1.2616  0.2884
 4323SOL     OW24601   2.976   1.779   2.620 -0.2393  0.2375  0.4027
 4323SOL    HW124602   3.011   1.695   2.589  0.8577  0.7058  0.3740
 4323SOL    HW224603   2.912   1.796   2.551  1.8044  0.9021 -1.3235
 4324SOL     OW24604   3.836   3.319   0.226 -0.3763  0.0826  0.3367
 4324SOL    HW124605   3.837   3.414   0.242 -0.7677  0.2048 -0.3414
 4324SOL    HW224606   3.929   3.299   0.228 -0.4772 -0.2228  1.6080
 4325SOL     OW24607   3.315   2.508   3.419 -0.1594  0.0276 -0.6785
 4325SOL    HW124608   3.343   2.439   3.479 -0.0026  0.6329 -0.0525
 4325SOL    HW224609   3.358   2.470   3.343  1.8818 -1.4516  1.2232
 4326SOL     OW24610   3.278   1.871   1.896  0.2539 -0.0620  0.3012
 4326SOL    HW124611   3.296   1.961   1.921 -0.4813 -0.4532  2.2050
 4326SOL    HW224612   3.358   1.855   1.846 -0.5526  1.0261 -1.3343
 4327SOL     OW24613   0.636   3.585   7.545  0.1879  0.2472  0.4369
 4327SOL    HW124614   0.729   3.607   7.552  0.0879  0.5734  0.7084
 4327SOL    HW224615   0.605   3.663   7.501 -0.1806  0.1739  0.5647
 4328SOL     OW24616   4.170   4.122  17.702 -0.3296  0.3441 -0.4136
 4328SOL    HW124617   4.130   4.055   0.006 -1.4495  1.3912  0.0482
 4328SOL    HW224618   4.245   4.152   0.001 -1.0976  0.7957  0.4597
 4329SOL     OW24619   3.020   2.131   0.424  0.5130  0.6135  0.2742
 4329SOL    HW124620   2.943   2.124   0.480 -0.8974 -0.2281 -1.7726
 4329SOL    HW224621   3.053   2.041   0.432 -0.5152  0.1613 -0.5794
 4330SOL     OW24622   4.557   1.922   7.825  0.5102  0.3427 -0.0357
 4330SOL    HW124623   4.570   1.913   7.731  1.0770 -0.4354  0.1149
 4330SOL    HW224624   4.544   1.832   7.857  0.2442  0.3642 -0.0831
 4331SOL     OW24625   2.581   2.880  14.257 -0.4462  0.2963 -0.5935
 4331SOL    HW124626   2.657   2.831  14.288  0.1559  1.2817 -0.4961
 4331SOL    HW224627   2.578   2.838  14.171 -3.7751 -0.3555 -0.1313
 4332SOL     OW24628   1.396   1.720   1.665 -0.1616  0.1857  0.3949
 4332SOL    HW124629   1.372   1.627   1.674 -0.3738  0.1515 -0.4580
 4332SOL    HW224630   1.483   1.727   1.703  0.2677  1.7571 -0.8617
 4333SOL     OW24631   4.442   4.340   3.929 -0.0832 -0.2960  0.0256
 4333SOL    HW124632   4.510   4.295   3.978  0.2142 -0.1777 -0.2773
 4333SOL    HW224633   4.411   4.390   4.005  2.5752  2.0721 -0.4243
 4334SOL     OW24634   2.534   1.722   2.234  0.0020  0.6079 -0.1086
 4334SOL    HW124635   2.585   1.662   2.288  0.5714  0.4433 -0.8252
 4334SOL    HW224636   2.459   1.758   2.281  0.6841  0.9418  0.7298
 4335SOL     OW24637   0.853   1.266   2.499  0.0809 -0.0711 -0.1696
 4335SOL    HW124638   0.895   1.181   2.491  0.0832 -0.0221 -0.6620
 4335SOL    HW224639   0.792   1.280   2.427 -0.1061  0.2048  0.0442
 4336SOL     OW24640   4.238   1.851   4.696 -0.4044 -0.2307  0.0489
 4336SOL    HW124641   4.154   1.894   4.679  0.3759  1.0971 -0.4897
 4336SOL    HW224642   4.288   1.930   4.673 -0.3311  0.0797  1.2598
 4337SOL     OW24643   4.278   4.482   1.008  0.0200 -0.1790 -0.0118
 4337SOL    HW124644   4.270   4.441   0.922  0.0089  2.2925 -1.2171
 4337SOL    HW224645   4.267   4.575   0.985 -1.8440 -0.2713  0.5069
 4338SOL     OW24646   0.321   3.505  10.823  0.2391 -0.1703  0.4461
 4338SOL    HW124647   0.381   3.569  10.862  0.1758  0.0198  0.2349
 4338SOL    HW224648   0.239   3.553  10.836 -0.9833 -1.1733 -3.5181
 4339SOL     OW24649   1.421   1.873  10.654 -0.0306  0.3571 -0.1244
 4339SOL    HW124650   1.404   1.806  10.588  0.8783 -0.6526  0.6683
 4339SOL    HW224651   1.428   1.955  10.605 -1.3017  0.3547 -0.3315
 4340SOL     OW24652   3.266   1.104   3.988  0.4613  0.8314 -0.1660
 4340SOL    HW124653   3.198   1.118   4.053  1.0025 -0.1466  0.6029
 4340SOL    HW224654   3.216   1.110   3.906 -3.6238 -3.2423  2.0420
 4341SOL     OW24655   1.570   3.880  16.043 -1.1402 -0.4698 -0.4397
 4341SOL    HW124656   1.535   3.953  15.993  0.6463  2.2916  2.3110
 4341SOL    HW224657   1.492   3.855  16.093 -0.9196  1.3603  0.8124
 4342SOL     OW24658   3.203   0.518   3.578 -0.6876 -0.2840  0.7376
 4342SOL    HW124659   3.131   0.579   3.565  0.3855  0.8672  0.2765
 4342SOL    HW224660   3.192   0.491   3.670 -1.6538  0.3611  0.8072
 4343SOL     OW24661   0.900   1.191   1.696 -0.0350 -0.5815  0.4696
 4343SOL    HW124662   0.837   1.198   1.768  2.8355 -1.2441  3.0032
 4343SOL    HW224663   0.946   1.108   1.703 -2.2747 -1.7468  1.3283
 4344SOL     OW24664   4.404   0.045   3.782  0.3047 -0.1839 -0.1824
 4344SOL    HW124665   4.319   0.046   3.825 -1.2449 -0.1653 -3.2258
 4344SOL    HW224666   4.446   0.127   3.806 -1.3784  1.0719 -1.5541
 4345SOL     OW24667   2.134   2.103   9.690  0.4501 -0.4832  0.2219
 4345SOL    HW124668   2.105   2.012   9.684  0.2465 -0.3950 -0.1243
 4345SOL    HW224669   2.143   2.111   9.785 -0.4759 -0.1028  0.2807
 4346SOL     OW24670   0.295   2.913   2.566 -0.1666 -0.3852  0.1552
 4346SOL    HW124671   0.302   2.987   2.626  2.6755 -0.2632 -0.3290
 4346SOL    HW224672   0.205   2.890   2.587 -0.0666 -0.8873  0.0226
 4347SOL     OW24673   2.711   2.642   4.866 -0.3490  0.0184  0.1367
 4347SOL    HW124674   2.780   2.623   4.929 -2.0723  1.5728  2.4599
 4347SOL    HW224675   2.632   2.623   4.917 -0.1842  0.1278  0.4314
 4348SOL     OW24676   0.997   0.451   1.578  0.1675 -0.1422  0.1540
 4348SOL    HW124677   0.978   0.421   1.489 -0.1761  0.4162  0.0343
 4348SOL    HW224678   1.085   0.483   1.557  0.4305  0.7451  2.6766
 4349SOL     OW24679   3.403   2.171   5.890 -0.0113  0.4305 -0.3270
 4349SOL    HW124680   3.409   2.090   5.942  0.4572 -0.0240 -1.0759
 4349SOL    HW224681   3.381   2.123   5.810 -3.1910 -0.6459  1.2176
 4350SOL     OW24682   2.702   1.003   6.634 -0.1519 -0.3383 -0.5336
 4350SOL    HW124683   2.694   0.916   6.596 -0.3186 -0.4434 -0.2540
 4350SOL    HW224684   2.642   0.996   6.708  1.8682  2.1002  1.3458
 4351SOL     OW24685   1.238   3.875   6.484  0.0939  0.2715 -0.1419
 4351SOL    HW124686   1.270   3.793   6.445  0.6304  0.0452  0.7825
 4351SOL    HW224687   1.145   3.857   6.478 -0.3992  2.7948 -0.0055
 4352SOL     OW24688   3.776   4.461  17.535  0.1821 -0.0764  0.5403
 4352SOL    HW124689   3.871   4.469  17.523  0.0433  1.3192  0.2902
 4352SOL    HW224690   3.763   4.405  17.611 -2.5471 -0.7295 -0.4264
 4353SOL     OW24691   4.367   3.505  15.510 -0.4867 -0.0686 -0.6622
 4353SOL    HW124692   4.406   3.418  15.519 -0.9067 -0.2018 -0.1907
 4353SOL    HW224693   4.440   3.562  15.485 -2.0292  2.1592 -0.0690
 4354SOL     OW24694   3.525   2.963   4.315 -0.1088 -0.1130  0.4246
 4354SOL    HW124695   3.530   3.037   4.255  1.1051  0.0766  0.7630
 4354SOL    HW224696   3.566   2.887   4.274 -1.2297 -0.3873 -0.1940
 4355SOL     OW24697   4.015   4.391   5.126 -0.1953 -0.2764 -0.2452
 4355SOL    HW124698   4.010   4.438   5.209 -0.7788 -1.3881  0.3452
 4355SOL    HW224699   3.940   4.437   5.087 -0.0925 -2.2044 -2.7461
 4356SOL     OW24700   3.625   2.560   1.402  0.3545 -0.2947  0.0106
 4356SOL    HW124701   3.680   2.629   1.439  0.5908 -0.9903  0.9645
 4356SOL    HW224702   3.587   2.601   1.325 -0.9656 -0.8708  0.3612
 4357SOL     OW24703   2.846   1.954   8.760  0.5316  0.1037  0.2142
 4357SOL    HW124704   2.867   2.002   8.681  0.6560  0.2300  0.3235
 4357SOL    HW224705   2.920   1.983   8.815 -0.7035  0.4518  1.6959
 4358SOL     OW24706   4.323   1.336   5.941 -0.3461  0.0913  0.3803
 4358SOL    HW124707   4.308   1.426   5.970  1.4664  0.4711  0.1278
 4358SOL    HW224708   4.418   1.330   5.951 -0.4207 -0.3359  0.9120
 4359SOL     OW24709   3.525   3.651   5.314 -0.8096 -0.4996 -0.4303
 4359SOL    HW124710   3.545   3.717   5.381  1.0556 -0.4970 -0.9718
 4359SOL    HW224711   3.580   3.575   5.335 -0.8412 -1.3478 -3.4595
 4360SOL     OW24712   2.697   2.788   8.719 -0.1795  0.5667 -0.5805
 4360SOL    HW124713   2.758   2.770   8.791 -1.5139 -3.8052 -0.5112
 4360SOL    HW224714   2.621   2.805   8.774 -0.7216 -1.7222 -0.6346
 4361SOL     OW24715   4.037   0.521   2.750  0.3433  0.3897  0.2007
 4361SOL    HW124716   4.128   0.516   2.781  0.2724  1.2369  0.5603
 4361SOL    HW224717   3.995   0.491   2.830  1.1297 -0.1241  0.4209
 4362SOL     OW24718   3.395   4.045   5.064  0.4584  0.4586  0.0086
 4362SOL    HW124719   3.343   4.041   4.984  0.1341 -0.8206  0.2905
 4362SOL    HW224720   3.355   3.972   5.111  1.4190  0.6938  1.2080
 4363SOL     OW24721   2.292   1.822   6.439  0.2740  0.0138 -0.2388
 4363SOL    HW124722   2.214   1.771   6.463 -0.5326  2.0572  1.4744
 4363SOL    HW224723   2.363   1.765   6.467 -1.0479 -0.9426  1.1633
 4364SOL     OW24724   3.802   3.831   1.163 -0.4979  0.5420 -0.7585
 4364SOL    HW124725   3.796   3.894   1.092 -0.0798 -0.0652 -1.3341
 4364SOL    HW224726   3.720   3.851   1.209  0.6521  0.9142  1.1084
 4365SOL     OW24727   1.134   1.053   8.410  0.2668  0.1770  0.0496
 4365SOL    HW124728   1.147   1.128   8.352 -0.4277  0.6212  0.4700
 4365SOL    HW224729   1.096   1.109   8.478  2.2020 -0.5411  1.7197
 4366SOL     OW24730   3.096   3.071   4.394  0.1495 -0.9395  0.8140
 4366SOL    HW124731   3.131   3.055   4.482  1.4141 -1.9802  0.1228
 4366SOL    HW224732   3.153   3.148   4.385 -2.7147  0.9178 -1.3014
 4367SOL     OW24733   4.539   1.864  10.308 -0.1960 -0.1359 -0.9186
 4367SOL    HW124734   4.606   1.827  10.251  1.9596 -0.1552  1.6433
 4367SOL    HW224735   4.587   1.941  10.336 -2.0805  1.0590 -0.9665
 4368SOL     OW24736   0.869   2.960   6.843 -0.1571 -0.0303 -0.0029
 4368SOL    HW124737   0.880   2.962   6.748  2.0282 -0.2648  0.2429
 4368SOL    HW224738   0.802   2.893   6.852 -1.6399  1.6144  1.2529
 4369SOL     OW24739   4.092   3.839  11.126 -0.0809 -0.1659  0.1581
 4369SOL    HW124740   4.028   3.854  11.057 -1.9120 -3.4839  1.1381
 4369SOL    HW224741   4.165   3.797  11.080  2.4257  1.8811  2.2422
 4370SOL     OW24742   2.152   0.530   6.228 -0.0479  0.6934  0.0072
 4370SOL    HW124743   2.247   0.523   6.230 -0.0181  1.2061  0.3472
 4370SOL    HW224744   2.145   0.613   6.180  0.4489 -0.0769 -1.3768
 4371SOL     OW24745   3.921   2.394   3.500  0.1210 -0.8600  0.2660
 4371SOL    HW124746   3.935   2.306   3.467  3.3222  0.2144 -1.2548
 4371SOL    HW224747   3.831   2.393   3.533 -0.4922  1.5563 -1.2218
 4372SOL     OW24748   3.456   3.544  13.616  0.2684  0.1756 -0.1436
 4372SOL    HW124749   3.433   3.545  13.523  0.8017 -0.1582 -0.2786
 4372SOL    HW224750   3.552   3.544  13.613  0.2182  1.6108 -1.1675
 4373SOL     OW24751   1.382   3.339   5.830  0.1904 -0.7569  0.8852
 4373SOL    HW124752   1.408   3.397   5.757 -1.9219 -0.7826  0.1016
 4373SOL    HW224753   1.343   3.407   5.885 -3.1110 -2.0782  0.1693
 4374SOL     OW24754   2.960   3.030   2.107 -0.0281  0.2046 -0.0388
 4374SOL    HW124755   2.874   2.989   2.098 -0.3439  0.7199  0.5869
 4374SOL    HW224756   2.975   3.008   2.199 -0.4870 -0.1390 -0.0478
 4375SOL     OW24757   1.676   1.129   7.092  0.4875  0.1919 -0.1207
 4375SOL    HW124758   1.582   1.145   7.104  0.8558  1.6113  0.9485
 4375SOL    HW224759   1.721   1.192   7.148  2.1673 -1.7047  0.6847
 4376SOL     OW24760   1.323   2.654   5.520  0.2388  0.0431  0.3696
 4376SOL    HW124761   1.246   2.649   5.577  0.1939 -2.0180  0.1370
 4376SOL    HW224762   1.306   2.709   5.443 -0.9699  0.9121  1.2462
 4377SOL     OW24763   3.499   2.891   1.660  0.2940 -0.0493  0.1323
 4377SOL    HW124764   3.432   2.922   1.720  0.6857  1.6834 -0.3078
 4377SOL    HW224765   3.498   2.954   1.588 -1.2074  1.2874  1.3425
 4378SOL     OW24766   1.172   3.491   5.982  0.7114 -0.3893 -0.3235
 4378SOL    HW124767   1.103   3.439   5.942 -0.3682 -0.8196  2.0660
 4378SOL    HW224768   1.163   3.575   5.937 -2.5504 -0.3292  0.4453
 4379SOL     OW24769   0.211   0.248   0.401 -0.4482 -0.1283  0.3984
 4379SOL    HW124770   0.183   0.328   0.356 -1.8758 -0.7045  0.2703
 4379SOL    HW224771   0.224   0.276   0.492 -0.7856  0.4595  0.2712
 4380SOL     OW24772   2.752   0.092   4.652 -0.5257 -0.1244 -0.2823
 4380SOL    HW124773   2.733   0.147   4.728 -0.2376 -1.1321  0.5157
 4380SOL    HW224774   2.751   0.165   4.590 -0.8600 -0.5332 -0.7541
 4381SOL     OW24775   0.779   2.445   5.373 -0.2075  0.0622 -0.3055
 4381SOL    HW124776   0.872   2.441   5.348 -0.3785 -0.1051 -0.9332
 4381SOL    HW224777   0.753   2.353   5.366 -1.1419  0.2323  0.9516
 4382SOL     OW24778   2.261   1.746   5.521  0.8535 -0.3548  0.2107
 4382SOL    HW124779   2.298   1.691   5.590  0.7792 -0.5912  0.0626
 4382SOL    HW224780   2.242   1.822   5.575 -2.3205  0.6001 -2.2955
 4383SOL     OW24781   1.253   2.124   8.536  0.1415  0.4542 -0.2308
 4383SOL    HW124782   1.223   2.214   8.547  0.7015  0.5772  0.3239
 4383SOL    HW224783   1.339   2.138   8.495 -0.2729 -1.1623 -1.6299
 4384SOL     OW24784   2.820   2.371   6.727 -0.6653 -0.7449  0.2170
 4384SOL    HW124785   2.729   2.398   6.717 -0.7156 -0.5016  1.3154
 4384SOL    HW224786   2.815   2.306   6.798  1.9447 -0.6222  0.5304
 4385SOL     OW24787   2.188   3.003   6.325  0.1293  0.0742  0.3417
 4385SOL    HW124788   2.181   2.941   6.398  3.2724  0.6890  1.1949
 4385SOL    HW224789   2.252   2.961   6.267 -1.2238  2.3562 -2.8227
 4386SOL     OW24790   2.092   1.805  16.962 -0.6104 -0.0918  0.2180
 4386SOL    HW124791   2.022   1.796  17.027 -2.1327  0.9886 -1.2720
 4386SOL    HW224792   2.048   1.774  16.883 -0.2842  2.8053 -1.0805
 4387SOL     OW24793   1.319   3.537   3.907 -0.2976 -1.0761 -0.1295
 4387SOL    HW124794   1.396   3.493   3.870 -0.0254 -0.2715 -0.5230
 4387SOL    HW224795   1.346   3.625   3.882 -0.2391 -0.4919  2.0384
 4388SOL     OW24796   4.310   0.464   2.837 -0.5700  0.0124 -0.3512
 4388SOL    HW124797   4.291   0.381   2.881  0.5764  0.0352  0.1727
 4388SOL    HW224798   4.391   0.436   2.796 -0.1794  0.8635 -0.1637
 4389SOL     OW24799   0.606   0.159   5.565  0.0677  0.0953  0.3515
 4389SOL    HW124800   0.683   0.207   5.596  0.3806  0.8965 -1.6463
 4389SOL    HW224801   0.644   0.116   5.487 -2.0220  0.0533 -0.6519
 4390SOL     OW24802   3.734   1.240   9.947  0.3446  0.4951 -0.2189
 4390SOL    HW124803   3.785   1.165   9.917  0.2985 -0.4500  2.0839
 4390SOL    HW224804   3.806   1.302   9.959  0.4366  0.0823  1.3456
 4391SOL     OW24805   4.683   2.135   4.422  0.0599  0.7511 -0.6796
 4391SOL    HW124806   0.003   2.111   4.350 -0.0513 -0.1996 -0.4448
 4391SOL    HW224807   4.636   2.201   4.370 -1.3329  0.7992  0.6416
 4392SOL     OW24808   1.834   1.313   7.270  0.0595  0.3145  0.4959
 4392SOL    HW124809   1.874   1.293   7.354 -0.5342  1.5942  1.0789
 4392SOL    HW224810   1.803   1.399   7.298  2.1000  1.5704 -1.1073
 4393SOL     OW24811   1.801   0.688   9.314  0.5517 -0.4008 -0.1641
 4393SOL    HW124812   1.876   0.629   9.309  0.9781  0.1389 -0.1744
 4393SOL    HW224813   1.849   0.771   9.324  0.4271 -0.0519 -2.3836
 4394SOL     OW24814   0.092   2.861   2.908 -0.0336 -0.1395 -0.3214
 4394SOL    HW124815   0.065   2.875   2.818 -0.5905 -0.1541 -0.1587
 4394SOL    HW224816   0.125   2.772   2.898  3.6453  1.3052 -0.8505
 4395SOL     OW24817   1.545   0.358   9.675  0.0598 -0.4419 -0.2819
 4395SOL    HW124818   1.572   0.333   9.587  2.0308 -1.9024  0.7590
 4395SOL    HW224819   1.466   0.409   9.653  0.4496 -0.5503 -1.9497
 4396SOL     OW24820   1.617   1.785   4.038  0.1115  0.1724 -0.1659
 4396SOL    HW124821   1.530   1.768   4.076 -1.0543  3.0898 -1.5094
 4396SOL    HW224822   1.626   1.879   4.026  1.7941  0.2800  1.9340
 4397SOL     OW24823   2.800   1.887   1.662 -0.6480 -0.2199  0.3583
 4397SOL    HW124824   2.840   1.958   1.712 -0.0853 -1.0105  1.0054
 4397SOL    HW224825   2.862   1.815   1.660  0.0897  0.3969  0.6565
 4398SOL     OW24826   1.615   3.614   7.670 -0.4481  0.1560  0.4129
 4398SOL    HW124827   1.634   3.603   7.763 -1.3829 -0.1721  0.5697
 4398SOL    HW224828   1.627   3.709   7.667  0.6803 -0.0078 -0.0176
 4399SOL     OW24829   0.889   3.829   5.163 -0.5819 -0.1580 -0.0658
 4399SOL    HW124830   0.814   3.784   5.201  0.0633 -0.9515  0.2578
 4399SOL    HW224831   0.950   3.757   5.177  0.1391  0.1721 -1.5572
 4400SOL     OW24832   1.453   4.726   8.181  0.2630  0.6414 -0.4502
 4400SOL    HW124833   1.483   0.044   8.252  0.9390  0.6568 -0.7493
 4400SOL    HW224834   1.534   4.712   8.132  1.2741  0.4397  1.2955
 4401SOL     OW24835   1.342   2.505   4.070 -0.7649  0.1547 -0.3252
 4401SOL    HW124836   1.343   2.512   3.974 -0.1173  2.0607 -0.1732
 4401SOL    HW224837   1.392   2.424   4.078 -0.8561 -0.2074 -3.4649
 4402SOL     OW24838   0.783   2.337  17.259 -0.0901  0.4061 -0.0492
 4402SOL    HW124839   0.746   2.388  17.331  0.8281  0.9569  0.0370
 4402SOL    HW224840   0.786   2.411  17.198  0.1720  1.7201  1.5502
 4403SOL     OW24841   2.559   1.529   7.284  0.2430  0.1359  0.4619
 4403SOL    HW124842   2.616   1.484   7.222 -2.1676 -1.1006 -0.8666
 4403SOL    HW224843   2.608   1.610   7.296  0.9403  0.3008 -3.4708
 4404SOL     OW24844   4.640   0.142   4.347 -0.1109  0.0331 -0.2035
 4404SOL    HW124845   4.546   0.157   4.359 -0.1080 -0.5181  0.5027
 4404SOL    HW224846   4.659   0.127   4.439  0.1095 -2.0721 -0.5802
 4405SOL     OW24847   4.569   0.879   4.142  0.0250 -0.1021  0.5501
 4405SOL    HW124848   4.531   0.815   4.203  2.3911 -0.7505  1.3354
 4405SOL    HW224849   4.511   0.864   4.067  0.8468  1.4866 -0.4023
 4406SOL     OW24850   0.063   0.877  10.048  0.0054  0.1111 -0.4668
 4406SOL    HW124851   0.081   0.884   9.954 -0.5483  1.4824 -0.4762
 4406SOL    HW224852   0.072   0.783  10.058 -0.5273 -0.1827 -2.6115
 4407SOL     OW24853   4.447   0.621   5.483  0.4782 -0.2194 -0.3040
 4407SOL    HW124854   4.536   0.590   5.497  0.6184  0.6989  0.8151
 4407SOL    HW224855   4.428   0.579   5.399  1.2818  0.0867 -0.6421
 4408SOL     OW24856   0.721   0.892  16.466  0.2742  0.3742 -0.0527
 4408SOL    HW124857   0.727   0.815  16.523  0.8468  1.1037  0.8802
 4408SOL    HW224858   0.764   0.848  16.392  1.4292  1.4829 -0.0336
 4409SOL     OW24859   4.131   0.775   9.525 -0.1412  0.0531  0.5291
 4409SOL    HW124860   4.056   0.794   9.469  0.2667 -0.0026 -0.0248
 4409SOL    HW224861   4.131   0.679   9.528 -0.4492  0.0769  1.4587
 4410SOL     OW24862   4.134   4.353  17.500  0.2640  0.7438  0.2608
 4410SOL    HW124863   4.207   4.309  17.457  0.7189 -0.2394  2.0275
 4410SOL    HW224864   4.078   4.287  17.541  1.4682 -0.7085 -0.4531
 4411SOL     OW24865   1.846   3.770   7.452 -0.3609  0.1202 -0.0511
 4411SOL    HW124866   1.779   3.801   7.513  0.4753  1.1548  0.3423
 4411SOL    HW224867   1.910   3.842   7.448  1.5107 -1.4877  0.9989
 4412SOL     OW24868   3.930   4.314   8.813  0.0293  0.0005  0.1985
 4412SOL    HW124869   3.943   4.290   8.722  1.3843 -0.2191  0.4560
 4412SOL    HW224870   3.854   4.259   8.831 -0.6763  0.9396  0.1129
 4413SOL     OW24871   2.803   2.181   2.390 -0.0905 -0.5595 -0.5361
 4413SOL    HW124872   2.811   2.207   2.298  0.0359  0.7384 -0.1575
 4413SOL    HW224873   2.712   2.200   2.410  0.2746 -0.1297  0.7002
 4414SOL     OW24874   0.684   1.590   6.813 -0.1894  0.1336  0.0596
 4414SOL    HW124875   0.644   1.606   6.728 -0.2405 -1.4686 -0.2060
 4414SOL    HW224876   0.777   1.596   6.794 -0.2560 -3.2275 -1.2450
 4415SOL     OW24877   4.101   3.842  13.791 -0.0668  0.2715 -0.2886
 4415SOL    HW124878   4.178   3.891  13.760  1.7465 -2.2949  0.1173
 4415SOL    HW224879   4.031   3.870  13.733 -1.0304 -1.1865  0.1836
 4416SOL     OW24880   0.262   3.370   6.194 -0.1258  0.3215 -0.2870
 4416SOL    HW124881   0.241   3.412   6.110  2.1706  0.8436 -0.5965
 4416SOL    HW224882   0.334   3.423   6.226 -0.4353  0.2632  0.5082
 4417SOL     OW24883   2.627   4.096  15.965 -0.1175  0.2190 -0.0779
 4417SOL    HW124884   2.655   4.173  15.916 -0.9831 -1.1510 -2.7448
 4417SOL    HW224885   2.534   4.112  15.978 -0.2968  0.5095 -1.7214
 4418SOL     OW24886   3.535   0.513  12.075 -0.9299 -0.4085  0.0211
 4418SOL    HW124887   3.523   0.422  12.103 -0.1008 -0.0368  1.6225
 4418SOL    HW224888   3.444   0.536  12.060 -0.1449  0.7469 -2.9237
 4419SOL     OW24889   3.790   3.479   8.664 -0.2607  0.2687  0.0111
 4419SOL    HW124890   3.768   3.485   8.757  0.1580  1.0787  0.0489
 4419SOL    HW224891   3.750   3.393   8.647  0.7968 -0.5970  1.7978
 4420SOL     OW24892   1.251   1.947   4.952 -0.1418 -0.6844  0.5751
 4420SOL    HW124893   1.172   1.961   5.005 -1.6189 -0.0300 -1.7778
 4420SOL    HW224894   1.219   1.956   4.862 -1.5087 -0.4165  1.0804
 4421SOL     OW24895   1.699   4.595  11.520 -0.6736 -0.0624  0.9682
 4421SOL    HW124896   1.613   4.610  11.558 -1.0883  1.1210 -0.4196
 4421SOL    HW224897   1.737   4.532  11.582  1.0104 -0.7297 -0.7307
 4422SOL     OW24898   3.788   0.750   9.213 -0.3467  0.2286 -0.2734
 4422SOL    HW124899   3.798   0.662   9.250 -1.2121 -0.3069 -1.3242
 4422SOL    HW224900   3.847   0.807   9.263  0.0017 -0.9308  0.6416
 4423SOL     OW24901   4.222   0.723   6.747 -0.0931 -0.2533  0.0074
 4423SOL    HW124902   4.309   0.752   6.718 -0.5904  0.4363 -0.8219
 4423SOL    HW224903   4.212   0.641   6.699 -0.0788 -0.4737  0.3874
 4424SOL     OW24904   1.820   0.997   7.584  0.0341 -0.1034 -0.2737
 4424SOL    HW124905   1.912   1.007   7.606 -0.6070  2.0840  1.4141
 4424SOL    HW224906   1.793   0.937   7.654  2.0618 -0.3519  0.2925
 4425SOL     OW24907   4.380   0.229   6.157 -0.4308 -0.8014  0.2247
 4425SOL    HW124908   4.414   0.319   6.160  1.4973 -1.5175  0.1069
 4425SOL    HW224909   4.351   0.228   6.066 -2.6731  0.5770  0.9292
 4426SOL     OW24910   3.216   0.117   2.592  0.0782 -0.5180 -0.1071
 4426SOL    HW124911   3.178   0.030   2.602 -0.5492 -0.4866 -2.3340
 4426SOL    HW224912   3.166   0.167   2.657  3.5957  2.1956  0.4927
 4427SOL     OW24913   3.150   0.801   8.243  0.2709 -0.3217 -0.1437
 4427SOL    HW124914   3.078   0.789   8.180  0.3867  0.0776 -0.3563
 4427SOL    HW224915   3.135   0.721   8.292 -0.9246 -0.1372 -0.1918
 4428SOL     OW24916   3.758   3.813   6.196  0.5338  0.5345  0.0511
 4428SOL    HW124917   3.743   3.849   6.283 -0.4286 -0.3710  0.2621
 4428SOL    HW224918   3.678   3.841   6.152  0.1699  0.2905  0.5610
 4429SOL     OW24919   0.922   0.432   4.027 -0.3806 -0.1848  0.3708
 4429SOL    HW124920   0.910   0.390   4.112  1.1645  0.0862  0.7120
 4429SOL    HW224921   0.966   0.361   3.981  0.3141  2.6439 -3.3226
 4430SOL     OW24922   3.456   1.436  12.455  0.2853  0.4764  0.1874
 4430SOL    HW124923   3.474   1.346  12.430 -0.9924  0.3252 -0.1778
 4430SOL    HW224924   3.450   1.429  12.550 -1.9935 -0.9343 -0.0669
 4431SOL     OW24925   2.006   1.356   2.193  0.7987  0.0868 -0.4482
 4431SOL    HW124926   1.977   1.301   2.120  0.7706  0.8546 -1.0122
 4431SOL    HW224927   2.073   1.304   2.238 -0.9783 -1.6005  0.2352
 4432SOL     OW24928   4.177   3.238  11.787  0.0126  0.2559  0.1866
 4432SOL    HW124929   4.232   3.173  11.744  1.5674  1.6297  0.0779
 4432SOL    HW224930   4.130   3.261  11.706  0.0235 -0.4346 -0.0134
 4433SOL     OW24931   1.747   3.033   6.938  0.2696 -0.6258  0.0014
 4433SOL    HW124932   1.658   2.997   6.945  0.5962 -1.3783  0.3016
 4433SOL    HW224933   1.728   3.125   6.951 -0.7731 -0.9030  0.4709
 4434SOL     OW24934   4.041   2.100   5.680 -0.0149  0.5474 -0.2406
 4434SOL    HW124935   4.066   2.159   5.751 -0.0027  0.7563 -0.4202
 4434SOL    HW224936   4.127   2.059   5.668 -1.4557 -2.0349 -1.8674
 4435SOL     OW24937   0.727   2.867   3.868 -0.5582  0.1984 -0.1856
 4435SOL    HW124938   0.737   2.945   3.922 -0.5682 -1.9037  2.8075
 4435SOL    HW224939   0.639   2.837   3.889 -1.6081  1.9598 -1.9333
 4436SOL     OW24940   2.556   2.956   8.099 -0.2082  0.0925  0.7733
 4436SOL    HW124941   2.549   3.038   8.051 -1.5046  1.0572  2.6160
 4436SOL    HW224942   2.464   2.930   8.104  0.3806 -2.2675 -0.3578
 4437SOL     OW24943   3.734   2.784  11.959 -0.2719 -0.4416 -0.1664
 4437SOL    HW124944   3.722   2.876  11.982 -1.9275 -0.5566 -0.5668
 4437SOL    HW224945   3.646   2.753  11.978 -0.8567  2.5932  2.0548
 4438SOL     OW24946   1.883   0.567  10.922 -0.0665 -0.0755 -0.1528
 4438SOL    HW124947   1.791   0.586  10.941 -0.3377 -1.9801  0.4428
 4438SOL    HW224948   1.931   0.621  10.984 -1.9808 -0.0123  1.2662
 4439SOL     OW24949   3.734   1.565   4.319 -0.0018 -0.0406 -0.0250
 4439SOL    HW124950   3.778   1.620   4.384  2.0516 -0.0796 -1.3613
 4439SOL    HW224951   3.740   1.481   4.364  2.5055  0.8537  1.3104
 4440SOL     OW24952   4.286   3.972   1.531 -0.1869 -0.2549  0.1478
 4440SOL    HW124953   4.310   4.009   1.446  0.1210 -2.1531 -0.5902
 4440SOL    HW224954   4.232   4.044   1.563 -0.3479  0.1151 -0.9636
 4441SOL     OW24955   0.495   0.244   7.316 -0.2991 -0.2120 -0.1193
 4441SOL    HW124956   0.516   0.333   7.286 -1.8788  0.2816  0.2262
 4441SOL    HW224957   0.444   0.258   7.395 -1.0877 -2.4443 -0.2341
 4442SOL     OW24958   4.492   1.942   9.940 -0.0013 -0.2724  0.2046
 4442SOL    HW124959   4.483   1.937   9.845 -3.4423 -0.2889  0.5180
 4442SOL    HW224960   4.403   1.920   9.970 -0.5705 -2.2936 -2.8997
 4443SOL     OW24961   3.249   1.060  15.702  0.7088 -0.0593 -0.6701
 4443SOL    HW124962   3.327   1.110  15.726 -0.2521  2.0538 -2.0073
 4443SOL    HW224963   3.195   1.126  15.660 -2.9485 -0.2233  3.7327
 4444SOL     OW24964   3.966   3.597  10.442 -0.2040  0.0247 -0.3565
 4444SOL    HW124965   3.903   3.664  10.470 -0.1227 -0.2826  0.5692
 4444SOL    HW224966   3.912   3.519  10.426  1.6625 -1.3646  0.2076
 4445SOL     OW24967   4.439   1.267   6.987 -0.4759  0.3210 -0.5998
 4445SOL    HW124968   4.420   1.285   7.079 -0.5061  0.1123 -0.5647
 4445SOL    HW224969   4.351   1.286   6.954 -0.1989 -1.6658 -2.5147
 4446SOL     OW24970   1.432   0.271   7.220  0.1998  0.0988  0.4997
 4446SOL    HW124971   1.478   0.294   7.301 -0.1253 -2.0226  1.2886
 4446SOL    HW224972   1.495   0.295   7.152 -0.6745 -2.7713 -1.3568
 4447SOL     OW24973   0.132   2.522  12.529  0.4767 -0.4699 -0.6763
 4447SOL    HW124974   0.056   2.474  12.495 -0.1453  0.0282  0.0170
 4447SOL    HW224975   0.152   2.582  12.457  2.1158 -2.3967 -1.8068
 4448SOL     OW24976   1.369   3.352   6.873 -0.2520  0.1528  0.0839
 4448SOL    HW124977   1.315   3.278   6.845  0.9715 -0.3343 -1.0532
 4448SOL    HW224978   1.324   3.380   6.952 -2.4811 -2.6763 -0.2033
 4449SOL     OW24979   1.080   2.536   6.546  0.4721 -0.0978 -0.3026
 4449SOL    HW124980   1.065   2.614   6.493  3.6639  1.8676  1.6331
 4449SOL    HW224981   1.010   2.540   6.611 -0.8465  4.6146 -1.9928
 4450SOL     OW24982   1.690   4.057  15.027 -0.1687  1.0513  0.0564
 4450SOL    HW124983   1.742   4.119  15.076  0.4978  1.5778 -1.3245
 4450SOL    HW224984   1.746   3.981  15.041 -1.8746 -0.2176  0.0812
 4451SOL     OW24985   2.484   2.093   8.330 -0.4256 -0.3454 -0.6486
 4451SOL    HW124986   2.496   2.160   8.397 -3.4147  1.7591 -2.2019
 4451SOL    HW224987   2.486   2.017   8.388 -0.1406 -0.8179 -1.2750
 4452SOL     OW24988   1.751   2.486   5.751  0.3944  0.0343 -0.7940
 4452SOL    HW124989   1.825   2.444   5.708 -0.2447 -2.1325  0.2152
 4452SOL    HW224990   1.687   2.509   5.683 -0.5451 -0.9738 -0.2456
 4453SOL     OW24991   2.964   3.504  11.735  0.2270 -0.4756 -0.0728
 4453SOL    HW124992   2.911   3.452  11.795  0.6372 -0.8592 -0.0422
 4453SOL    HW224993   3.037   3.542  11.785  0.6917 -2.6149  0.8440
 4454SOL     OW24994   3.369   1.163   4.723 -0.0475  0.7249  0.0055
 4454SOL    HW124995   3.331   1.225   4.660 -3.2703  0.9565  2.1725
 4454SOL    HW224996   3.298   1.099   4.729  0.5955  0.0891  0.7575
 4455SOL     OW24997   0.060   1.581  13.875  0.7063  0.6276 -0.1082
 4455SOL    HW124998   0.108   1.647  13.925 -2.6605  3.2466 -0.4140
 4455SOL    HW224999   0.040   1.620  13.790 -0.6578 -0.4071 -0.2548
 4456SOL     OW25000   1.260   3.156   9.429  0.0775  0.5271 -0.4846
 4456SOL    HW125001   1.179   3.190   9.390  0.6143  0.9907 -1.2070
 4456SOL    HW225002   1.273   3.233   9.484 -1.3437  0.2748  0.1815
 4457SOL     OW25003   3.185   1.091   7.135  0.8362  0.0505 -0.2934
 4457SOL    HW125004   3.248   1.139   7.189  1.1002 -0.1318 -0.4432
 4457SOL    HW225005   3.250   1.061   7.072  0.4568  0.6908 -0.9903
 4458SOL     OW25006   1.592   3.425   4.906  0.1156 -0.5505 -0.1503
 4458SOL    HW125007   1.626   3.501   4.858 -0.0862 -0.8603 -0.7876
 4458SOL    HW225008   1.506   3.423   4.864 -0.0640  0.0967  0.1870
 4459SOL     OW25009   0.154   2.814   9.478 -0.2031 -0.0731  0.3082
 4459SOL    HW125010   0.236   2.857   9.503  0.9042 -2.0277  0.1110
 4459SOL    HW225011   0.173   2.764   9.398 -0.3911 -0.0459  0.2466
 4460SOL     OW25012   1.206   4.275  12.734  0.1539 -0.2552  0.0018
 4460SOL    HW125013   1.136   4.333  12.763  0.4832 -0.0523  0.3996
 4460SOL    HW225014   1.216   4.210  12.804  0.1173 -1.2044 -0.8729
 4461SOL     OW25015   3.113   1.124   6.071 -0.2402  0.4363 -0.0437
 4461SOL    HW125016   3.099   1.078   5.988 -4.0811  1.2765  0.1183
 4461SOL    HW225017   3.065   1.068   6.131  2.7490 -0.5826  1.3906
 4462SOL     OW25018   2.960   0.837   5.129 -0.5981 -0.5202  0.3019
 4462SOL    HW125019   2.981   0.859   5.220 -2.4162  3.8594 -0.3098
 4462SOL    HW225020   2.935   0.924   5.097  1.7943 -0.3622 -1.0990
 4463SOL     OW25021   0.249   1.017  13.859 -0.8110  0.3053  0.0399
 4463SOL    HW125022   0.235   1.091  13.800  0.7728 -0.2098 -0.9707
 4463SOL    HW225023   0.302   0.968  13.797 -1.2920  1.3042 -1.1580
 4464SOL     OW25024   3.739   0.472   3.533 -0.2907 -0.1689  0.2040
 4464SOL    HW125025   3.735   0.481   3.628  1.8824  0.4994  0.2402
 4464SOL    HW225026   3.656   0.429   3.513 -1.0915  1.4701  0.0552
 4465SOL     OW25027   0.931   0.995   9.752 -0.0678  0.5122  0.0273
 4465SOL    HW125028   0.850   1.041   9.729  0.0230  0.7968  0.2717
 4465SOL    HW225029   0.992   1.037   9.691 -1.4778 -1.5408 -2.8102
 4466SOL     OW25030   1.649   1.334   6.314  0.2903  0.0829 -0.4310
 4466SOL    HW125031   1.642   1.348   6.408  0.1426 -1.4382 -0.2199
 4466SOL    HW225032   1.687   1.418   6.288  0.7200 -0.5014 -1.7036
 4467SOL     OW25033   0.357   3.219   8.495  0.4857 -0.2953 -0.6800
 4467SOL    HW125034   0.443   3.190   8.465  0.6049 -0.4845 -0.1352
 4467SOL    HW225035   0.382   3.250   8.582 -0.2662 -2.0147  0.1494
 4468SOL     OW25036   2.972   1.805  16.202  0.3147  0.0483  0.0392
 4468SOL    HW125037   2.944   1.897  16.200 -3.7769 -1.1348  2.3117
 4468SOL    HW225038   3.036   1.816  16.273  1.3615 -1.0890 -0.7366
 4469SOL     OW25039   2.807   1.535   4.332 -0.5710  0.5020 -0.3660
 4469SOL    HW125040   2.750   1.471   4.375  0.7326  0.1283  0.8297
 4469SOL    HW225041   2.763   1.617   4.358 -0.8811  0.6726 -1.4381
 4470SOL     OW25042   0.320   4.721   2.988 -0.1334  0.1123 -0.3449
 4470SOL    HW125043   0.402   4.691   2.949  1.2586  1.3752  1.6105
 4470SOL    HW225044   0.292   4.656   3.052  1.4380  0.2412  0.4866
 4471SOL     OW25045   1.695   0.443   5.270  0.1713 -0.4602 -0.3753
 4471SOL    HW125046   1.720   0.532   5.246 -0.1932 -0.6476 -1.4403
 4471SOL    HW225047   1.770   0.391   5.242 -1.4730 -3.3873  0.6281
 4472SOL     OW25048   1.989   0.790   7.061 -0.7068  0.2774 -0.4027
 4472SOL    HW125049   1.987   0.833   7.147 -1.0106  1.6241 -1.0849
 4472SOL    HW225050   1.917   0.728   7.069 -1.0343  1.0489  2.8133
 4473SOL     OW25051   1.576   1.888   8.023 -0.3322 -0.4488  0.3502
 4473SOL    HW125052   1.610   1.975   8.045 -0.2210 -0.1631 -0.9000
 4473SOL    HW225053   1.575   1.846   8.108 -2.0027 -2.8626 -0.8731
 4474SOL     OW25054   1.401   0.175   1.057  0.1999 -0.2088 -0.3055
 4474SOL    HW125055   1.389   0.104   1.120  0.0893  1.8876  2.0158
 4474SOL    HW225056   1.371   0.250   1.108  0.3444 -1.2408  1.2897
 4475SOL     OW25057   4.272   2.112   1.777 -0.4619 -0.1977 -0.0099
 4475SOL    HW125058   4.307   2.041   1.830  1.3726 -0.4964 -1.6027
 4475SOL    HW225059   4.318   2.105   1.693 -0.6579 -1.3027 -0.0339
 4476SOL     OW25060   1.267   4.553   8.286 -0.0704  0.2631 -0.2334
 4476SOL    HW125061   1.315   4.634   8.267  0.3990  0.2722  0.9950
 4476SOL    HW225062   1.321   4.497   8.230 -0.6389 -1.5210  1.0149
 4477SOL     OW25063   0.720   3.405   0.920  0.2277  0.8365 -0.0519
 4477SOL    HW125064   0.779   3.330   0.931  0.7042  1.3431  0.9057
 4477SOL    HW225065   0.665   3.374   0.848  1.2339  2.2204 -1.4043
 4478SOL     OW25066   1.883   0.545  11.334  0.1776  0.4163 -0.3218
 4478SOL    HW125067   1.851   0.601  11.405 -1.3482  1.4782 -1.8323
 4478SOL    HW225068   1.898   0.620  11.276  1.8851 -1.1333 -1.8670
 4479SOL     OW25069   0.376   2.931   9.577 -0.5192  0.0641 -0.5989
 4479SOL    HW125070   0.381   2.930   9.672  2.4099 -1.3075 -0.7641
 4479SOL    HW225071   0.398   3.023   9.567 -0.0542 -0.2316 -2.3720
 4480SOL     OW25072   2.784   2.057   1.336  0.1943 -0.1223  0.4710
 4480SOL    HW125073   2.743   2.111   1.404  3.1443 -1.0152  2.9668
 4480SOL    HW225074   2.822   2.121   1.274 -0.6445 -0.9952 -0.9443
 4481SOL     OW25075   3.056   0.128   6.043 -0.3243  0.0701  0.4269
 4481SOL    HW125076   2.969   0.096   6.068 -0.2557 -1.3548 -1.1707
 4481SOL    HW225077   3.050   0.145   5.949  0.6434  2.6756  0.8390
 4482SOL     OW25078   1.515   2.241   7.447  0.0865  0.1300 -0.2944
 4482SOL    HW125079   1.458   2.280   7.513 -2.4757 -0.8600 -1.9174
 4482SOL    HW225080   1.469   2.158   7.432 -0.7578  0.3726  0.9330
 4483SOL     OW25081   3.080   3.244   7.685 -0.0612  0.0021 -0.4697
 4483SOL    HW125082   3.168   3.208   7.676  0.1283  0.5080 -0.6645
 4483SOL    HW225083   3.027   3.172   7.651  0.4913 -1.5184  1.9109
 4484SOL     OW25084   3.948   2.156   8.133  0.1403  0.1852 -0.0459
 4484SOL    HW125085   3.948   2.062   8.114 -1.6984  0.2595 -0.4627
 4484SOL    HW225086   4.012   2.153   8.204 -0.7392 -1.9040  0.6715
 4485SOL     OW25087   2.947   4.609   6.591  0.5308  0.2768 -0.1160
 4485SOL    HW125088   2.900   4.691   6.601 -0.4591 -0.3985  0.7965
 4485SOL    HW225089   2.942   4.583   6.683  0.0667 -0.5022 -0.3590
 4486SOL     OW25090   2.313   4.501   2.957  0.1058 -0.3474 -0.4773
 4486SOL    HW125091   2.221   4.518   2.976  0.8515 -0.7526  3.3402
 4486SOL    HW225092   2.328   4.422   3.009  1.6868  2.1797  2.8575
 4487SOL     OW25093   3.668   0.791   2.200 -0.1267 -0.1287  0.0193
 4487SOL    HW125094   3.681   0.756   2.288 -0.6990  0.6049  0.3966
 4487SOL    HW225095   3.644   0.710   2.154 -0.0859 -0.7766  1.1513
 4488SOL     OW25096   2.360   0.745  13.936  0.0388 -0.0877  0.4471
 4488SOL    HW125097   2.293   0.760  14.002  0.5701 -1.1583  1.2150
 4488SOL    HW225098   2.338   0.664  13.890 -0.1594  1.1721 -1.7087
 4489SOL     OW25099   0.024   3.633  16.512 -0.0518 -0.1680 -0.1796
 4489SOL    HW125100   0.070   3.576  16.574  0.5503  1.4819  0.9182
 4489SOL    HW225101   4.723   3.693  16.576  0.5905 -1.2059  1.1893
 4490SOL     OW25102   2.188   2.196   3.842 -0.2146  0.0848  0.3401
 4490SOL    HW125103   2.253   2.219   3.775 -0.3045 -1.7141 -0.3729
 4490SOL    HW225104   2.229   2.120   3.883 -1.6653  0.4168  2.3745
 4491SOL     OW25105   2.202   2.000  14.342 -0.4330 -0.3300  0.2853
 4491SOL    HW125106   2.243   2.019  14.258 -0.7481  0.8462  0.3870
 4491SOL    HW225107   2.123   2.055  14.341 -0.9562 -1.0537  1.1133
 4492SOL     OW25108   4.119   1.669   5.761  0.0345 -0.1889 -0.1409
 4492SOL    HW125109   4.128   1.574   5.773  2.0148  0.1985  1.4751
 4492SOL    HW225110   4.081   1.675   5.674 -0.7202 -1.8644  0.0703
 4493SOL     OW25111   2.522   1.943   0.852 -0.3419 -0.2412  0.2586
 4493SOL    HW125112   2.543   2.036   0.848 -0.6253 -0.2206 -1.0095
 4493SOL    HW225113   2.518   1.937   0.947  1.2851 -1.6185  0.2380
 4494SOL     OW25114   2.853   0.279   1.469 -0.0741  0.0447 -0.7594
 4494SOL    HW125115   2.801   0.334   1.410 -0.7303 -2.6331 -2.6619
 4494SOL    HW225116   2.941   0.313   1.458  0.6537 -1.4462  0.4701
 4495SOL     OW25117   3.455   4.280   2.663  0.2133 -0.1520  0.2451
 4495SOL    HW125118   3.446   4.361   2.713  1.4892  0.1453  0.0158
 4495SOL    HW225119   3.550   4.268   2.653  0.2624 -1.1495  1.8545
 4496SOL     OW25120   1.223   0.951  15.056 -0.0900  0.0819  0.1494
 4496SOL    HW125121   1.228   0.997  14.972  0.5603 -1.0425 -0.4324
 4496SOL    HW225122   1.280   0.875  15.047 -1.6148 -1.3638  2.4808
 4497SOL     OW25123   3.100   1.492  15.395  0.7269  0.4147 -0.6473
 4497SOL    HW125124   3.148   1.538  15.326  0.9949 -1.3288 -1.6255
 4497SOL    HW225125   3.068   1.558  15.456 -0.4841  0.6926 -1.5750
 4498SOL     OW25126   4.037   0.015   4.299  0.4001  0.5122  0.3110
 4498SOL    HW125127   4.100   0.008   4.227  0.4030  3.3754  0.0380
 4498SOL    HW225128   4.015   4.661   4.314  0.2240  0.6269  0.7374
 4499SOL     OW25129   3.684   1.364   6.477 -0.3741  0.4033 -0.0863
 4499SOL    HW125130   3.762   1.405   6.440  0.3753 -0.6674  0.3065
 4499SOL    HW225131   3.622   1.437   6.470 -0.6287  0.0101 -1.7550
 4500SOL     OW25132   1.715   4.169   8.065 -0.7902  0.0206 -0.1123
 4500SOL    HW125133   1.704   4.153   8.159  2.1725 -0.9164  0.0688
 4500SOL    HW225134   1.658   4.105   8.024  0.0954  0.5818 -2.2133
 4501SOL     OW25135   0.789   1.262   0.365 -0.4676 -0.3199 -0.2911
 4501SOL    HW125136   0.837   1.188   0.328 -0.1703  0.5519 -1.6811
 4501SOL    HW225137   0.701   1.242   0.334 -0.0222 -1.8342 -0.5464
 4502SOL     OW25138   1.276   0.504   9.074 -0.2724  0.7948  0.1454
 4502SOL    HW125139   1.234   0.575   9.026 -0.9703 -0.7819 -1.5806
 4502SOL    HW225140   1.284   0.439   9.004  0.7912  0.9113  0.1564
 4503SOL     OW25141   1.810   2.531   7.476 -0.0141 -0.1658 -0.1030
 4503SOL    HW125142   1.904   2.547   7.469 -0.0505 -0.8570 -2.3406
 4503SOL    HW225143   1.800   2.446   7.434  1.7719 -2.0235  3.2742
 4504SOL     OW25144   1.389   1.492   8.304 -0.2079 -0.2942 -0.2025
 4504SOL    HW125145   1.322   1.553   8.272  1.8351  1.0943 -1.7954
 4504SOL    HW225146   1.351   1.407   8.284 -2.8068  1.3891 -2.4011
 4505SOL     OW25147   2.011   4.637   6.956  0.5069 -0.0311  0.0020
 4505SOL    HW125148   1.997   4.688   7.036 -2.3098  0.5492 -0.8547
 4505SOL    HW225149   1.965   4.689   6.890  2.1061 -0.4900 -1.4926
 4506SOL     OW25150   0.308   4.513   7.566  0.9058 -0.2634  0.0469
 4506SOL    HW125151   0.276   4.424   7.579 -0.9315  0.2241 -1.1807
 4506SOL    HW225152   0.321   4.516   7.472 -2.3843  1.4539 -0.3298
 4507SOL     OW25153   0.828   2.176   5.325 -0.1595 -0.3078  0.3998
 4507SOL    HW125154   0.883   2.118   5.379  0.4663  1.9275  2.1324
 4507SOL    HW225155   0.743   2.132   5.325 -0.0723 -0.4769  1.3945
 4508SOL     OW25156   0.764   2.151  16.800  0.6633  0.4989 -0.2724
 4508SOL    HW125157   0.726   2.147  16.887 -0.0538  2.1444 -0.5176
 4508SOL    HW225158   0.850   2.136  16.840 -0.0740 -3.3003 -0.0326
 4509SOL     OW25159   4.439   0.013  11.519 -0.0580 -0.1612 -0.2837
 4509SOL    HW125160   4.432   4.656  11.512 -2.8558 -0.0811  1.3145
 4509SOL    HW225161   4.525   0.022  11.559 -0.6317  1.5192  0.5960
 4510SOL     OW25162   3.510   1.611   4.716 -0.2120 -0.0466 -0.4335
 4510SOL    HW125163   3.542   1.528   4.750 -0.4087  0.1919  0.3329
 4510SOL    HW225164   3.446   1.589   4.648 -2.7229 -2.1055  2.6272
 4511SOL     OW25165   1.034   3.829   8.462  0.6361  0.4192 -0.3023
 4511SOL    HW125166   0.970   3.874   8.407  0.5726 -0.2069 -0.7440
 4511SOL    HW225167   1.012   3.859   8.550 -2.0896 -3.2684  0.2759
 4512SOL     OW25168   0.182   2.230  11.919 -0.4737 -0.6193  0.3056
 4512SOL    HW125169   0.201   2.176  11.842 -0.9557  1.8402 -1.5324
 4512SOL    HW225170   0.159   2.313  11.877  0.3002 -1.5515 -2.0074
 4513SOL     OW25171   4.003   1.829  11.684 -0.6903 -0.1241  0.3009
 4513SOL    HW125172   4.008   1.873  11.599 -0.2093 -1.3069 -0.2733
 4513SOL    HW225173   3.954   1.896  11.733  0.3900 -1.0510  2.6069
 4514SOL     OW25174   4.121   2.025   4.057  0.4289  0.2292 -0.1743
 4514SOL    HW125175   4.192   1.969   4.026 -0.3644 -0.6578 -0.4058
 4514SOL    HW225176   4.080   1.974   4.127  0.0602  0.7264 -0.0298
 4515SOL     OW25177   2.806   1.637   4.078 -0.0874 -0.1442 -0.2900
 4515SOL    HW125178   2.833   1.615   4.167 -1.4104 -0.7028 -0.0238
 4515SOL    HW225179   2.867   1.706   4.052  3.4637 -2.6759  1.3195
 4516SOL     OW25180   4.435   2.837   2.308 -0.2864 -0.0562  0.1780
 4516SOL    HW125181   4.360   2.866   2.359  0.3132 -0.0287  1.0332
 4516SOL    HW225182   4.450   2.905   2.242  1.1712 -1.0053 -0.4737
 4517SOL     OW25183   1.884   4.027   3.775  0.3275 -0.3184  0.4372
 4517SOL    HW125184   1.904   3.933   3.776 -0.6339 -0.5317 -0.1584
 4517SOL    HW225185   1.947   4.063   3.837 -0.2243  1.7479 -0.2212
 4518SOL     OW25186   0.556   3.475  16.898  0.8204 -0.3956  0.3667
 4518SOL    HW125187   0.632   3.437  16.853  1.6929  0.5925  0.9951
 4518SOL    HW225188   0.486   3.443  16.841 -0.2621  1.5876  0.5932
 4519SOL     OW25189   1.676   0.058   3.102  0.2914  0.1615 -0.5805
 4519SOL    HW125190   1.724   4.722   3.065  1.8001  0.9911 -0.3264
 4519SOL    HW225191   1.740   0.127   3.083  1.0358 -0.3387  0.0642
 4520SOL     OW25192   1.875   0.490   8.436 -0.1624 -0.5661 -0.5052
 4520SOL    HW125193   1.903   0.402   8.409 -0.4189 -0.6820 -0.3929
 4520SOL    HW225194   1.868   0.478   8.530  0.4481 -2.6857 -0.7215
 4521SOL     OW25195   2.354   0.320   4.686  0.2351  0.3846  0.3888
 4521SOL    HW125196   2.395   0.263   4.752  0.1862 -0.2625 -0.1430
 4521SOL    HW225197   2.287   0.357   4.742  1.0338  0.8408  1.0480
 4522SOL     OW25198   0.021   3.791   2.503  0.4377 -0.3825 -0.4517
 4522SOL    HW125199   0.111   3.808   2.528 -0.0868 -1.3068  2.0486
 4522SOL    HW225200   4.731   3.773   2.593 -0.0528  0.9083 -0.3463
 4523SOL     OW25201   0.754   0.389  11.673  0.8306  0.5615 -0.5046
 4523SOL    HW125202   0.768   0.346  11.757 -1.6038 -2.1321 -1.4783
 4523SOL    HW225203   0.823   0.354  11.617 -1.0055 -0.9895 -1.7954
 4524SOL     OW25204   3.716   2.005   2.549  0.0269 -0.1909 -1.0171
 4524SOL    HW125205   3.745   2.004   2.640  2.8444 -0.1931 -1.9404
 4524SOL    HW225206   3.747   1.918   2.526  0.7605 -0.8061  2.3441
 4525SOL     OW25207   3.785   1.386   2.914  0.5479 -0.5266 -0.2594
 4525SOL    HW125208   3.784   1.290   2.911 -0.5860 -0.4864 -1.3190
 4525SOL    HW225209   3.824   1.402   2.828  0.3525  0.4676 -0.1604
 4526SOL     OW25210   1.775   0.619  12.084  0.2585  0.0985  0.0234
 4526SOL    HW125211   1.816   0.596  12.168  0.0243  0.0030  0.1121
 4526SOL    HW225212   1.828   0.696  12.064  0.8332 -0.9400 -2.4446
 4527SOL     OW25213   4.217   2.727   3.549  0.3157  0.4268 -0.0975
 4527SOL    HW125214   4.231   2.820   3.571  2.4850 -0.5422  2.5934
 4527SOL    HW225215   4.125   2.707   3.561  0.3151  0.5009  0.0259
 4528SOL     OW25216   2.929   3.198   8.513  0.5477 -0.3273 -0.1263
 4528SOL    HW125217   2.871   3.270   8.537 -0.3746 -1.3454  0.6745
 4528SOL    HW225218   2.921   3.150   8.595  0.6089  0.6518  0.4450
 4529SOL     OW25219   1.859   0.664   9.706 -0.2762 -0.9532 -0.0594
 4529SOL    HW125220   1.786   0.709   9.665  1.1593 -0.4376 -2.0880
 4529SOL    HW225221   1.829   0.610   9.779 -1.3210  0.5302  0.5904
 4530SOL     OW25222   0.992   2.460   3.985 -0.2720  0.5854  0.1530
 4530SOL    HW125223   1.055   2.457   3.914 -1.2042 -0.3066 -0.6419
 4530SOL    HW225224   0.988   2.556   3.990  1.4019  0.6586 -0.0076
 4531SOL     OW25225   3.495   4.623  12.634  0.2821  0.5919  0.0586
 4531SOL    HW125226   3.573   4.577  12.605 -1.3220 -1.4659 -1.0351
 4531SOL    HW225227   3.430   4.592  12.571 -0.8899 -0.5779  1.8340
 4532SOL     OW25228   4.278   0.066   5.277  0.0023  0.3145  0.0057
 4532SOL    HW125229   4.353   0.022   5.236  0.6516  0.3763  1.1347
 4532SOL    HW225230   4.324   0.140   5.317  0.5281 -1.7851  3.2367
 4533SOL     OW25231   1.531   4.304  14.522 -0.6983 -0.3870 -0.3018
 4533SOL    HW125232   1.582   4.332  14.597 -2.1180  0.9558  0.1604
 4533SOL    HW225233   1.491   4.385  14.489 -1.2317 -1.0090 -1.1945
 4534SOL     OW25234   4.669   2.938   3.111 -1.0561 -0.5903 -0.3144
 4534SOL    HW125235   0.010   2.914   3.063 -0.0443  0.7902  0.6293
 4534SOL    HW225236   4.606   2.894   3.055  0.4942 -1.4215 -1.4035
 4535SOL     OW25237   4.541   4.347   3.267  0.6327 -0.1850  0.2586
 4535SOL    HW125238   4.617   4.378   3.315  0.4663  0.9414 -0.2157
 4535SOL    HW225239   4.551   4.396   3.185  0.7709 -1.5004 -0.5100
 4536SOL     OW25240   3.236   0.686   9.509  0.0770  0.2421  0.2154
 4536SOL    HW125241   3.141   0.686   9.516 -0.0337  0.3885 -1.3267
 4536SOL    HW225242   3.268   0.688   9.600  2.3048  1.1387 -0.5919
 4537SOL     OW25243   3.882   1.566   4.825  0.2016 -0.0894 -0.1927
 4537SOL    HW125244   3.849   1.537   4.739 -0.6011 -1.5893  0.6209
 4537SOL    HW225245   3.959   1.510   4.828  0.9145  0.7961 -2.2153
 4538SOL     OW25246   4.348   0.853   5.894  0.3466  0.0394  0.5111
 4538SOL    HW125247   4.288   0.855   5.819  1.1886  1.3224 -0.1389
 4538SOL    HW225248   4.426   0.817   5.850  0.7552  0.9709  0.4921
 4539SOL     OW25249   0.103   1.771   6.748 -0.1711  0.1378 -0.2470
 4539SOL    HW125250   0.069   1.700   6.694  2.0780  1.0039 -2.8265
 4539SOL    HW225251   0.050   1.849   6.732  1.5068  1.3998  0.2181
 4540SOL     OW25252   4.728   2.762   4.858  0.2123  0.1656 -0.0284
 4540SOL    HW125253   0.017   2.684   4.810  1.5936  1.3221 -1.0827
 4540SOL    HW225254   0.073   2.800   4.887  0.4771  0.3105 -0.9989
 4541SOL     OW25255   1.653   1.705  15.222  0.3813 -0.1218 -0.5517
 4541SOL    HW125256   1.601   1.692  15.301  1.5265 -0.7613  0.1069
 4541SOL    HW225257   1.738   1.716  15.266 -0.0263  0.6411  0.0385
 4542SOL     OW25258   3.076   4.039   4.627 -0.4760 -0.4744 -0.6647
 4542SOL    HW125259   3.110   3.958   4.591  1.4561 -0.7531  1.8018
 4542SOL    HW225260   3.138   4.069   4.694 -0.4043  0.3998 -1.1197
 4543SOL     OW25261   2.273   3.361  10.597  0.1441  0.3754  0.0785
 4543SOL    HW125262   2.224   3.299  10.542 -0.5771  0.1492  0.9898
 4543SOL    HW225263   2.307   3.298  10.661 -1.4826  0.8276  1.3605
 4544SOL     OW25264   3.369   4.366   5.775 -0.5781 -0.0920  0.4479
 4544SOL    HW125265   3.379   4.437   5.837  1.5747  0.7916 -0.9299
 4544SOL    HW225266   3.274   4.361   5.769 -0.5911 -0.1117  0.6718
 4545SOL     OW25267   3.532   1.662  16.664  0.4590 -0.1615  0.5403
 4545SOL    HW125268   3.560   1.596  16.727  3.2913 -0.3971 -0.9283
 4545SOL    HW225269   3.484   1.607  16.603  0.2888  0.6992 -0.0948
 4546SOL     OW25270   2.745   2.401   4.492 -0.8555 -0.2043 -0.0695
 4546SOL    HW125271   2.829   2.446   4.497 -1.0806  0.0345  1.7294
 4546SOL    HW225272   2.750   2.375   4.400  1.4594  1.0270 -0.2837
 4547SOL     OW25273   4.351   4.516  14.079 -0.3336  0.1261  0.2076
 4547SOL    HW125274   4.305   4.577  14.137  0.0155 -1.3584  2.0347
 4547SOL    HW225275   4.440   4.547  14.097  0.2680 -2.9263  2.4407
 4548SOL     OW25276   3.839   4.314  10.511  0.2485 -0.3308  0.0040
 4548SOL    HW125277   3.828   4.364  10.593  0.8749  0.1359 -0.1975
 4548SOL    HW225278   3.919   4.268  10.536  0.1549 -0.8600 -0.6878
 4549SOL     OW25279   3.392   3.216   8.617  0.5701  0.0603  0.3165
 4549SOL    HW125280   3.312   3.189   8.572 -0.3419  0.6579  1.5809
 4549SOL    HW225281   3.446   3.222   8.538 -0.3291  0.0307 -0.3006
 4550SOL     OW25282   1.008   1.316   8.034 -0.1341 -0.3816  0.5782
 4550SOL    HW125283   0.929   1.327   8.086 -0.1625  0.1958  0.4166
 4550SOL    HW225284   1.045   1.404   8.026 -1.3354  0.1277  0.7362
 4551SOL     OW25285   1.954   2.893   7.015  0.1353  0.7341 -0.5110
 4551SOL    HW125286   1.970   2.816   6.959  1.4844  0.3297  0.4235
 4551SOL    HW225287   1.877   2.927   6.970 -1.9213 -1.0921  1.5805
 4552SOL     OW25288   2.430   1.979   3.943  0.3572 -0.8568  0.5563
 4552SOL    HW125289   2.338   1.953   3.953 -0.2792  1.4833  0.8766
 4552SOL    HW225290   2.472   1.901   3.979  0.9591  0.0711  1.8478
 4553SOL     OW25291   3.820   4.225   6.253 -0.2824 -0.0945 -0.1785
 4553SOL    HW125292   3.907   4.196   6.223 -1.6503 -2.1585 -2.2444
 4553SOL    HW225293   3.761   4.186   6.188 -1.4062  2.3526 -0.6386
 4554SOL     OW25294   3.132   3.658   0.506 -0.0026 -0.8188  0.2175
 4554SOL    HW125295   3.069   3.586   0.498 -0.5923 -0.4851  1.7706
 4554SOL    HW225296   3.121   3.673   0.600 -0.6008 -0.4575  0.0955
 4555SOL     OW25297   3.003   0.053   3.486  0.3044  0.1078  0.7573
 4555SOL    HW125298   3.091   0.029   3.455 -0.2336 -1.1404  0.2375
 4555SOL    HW225299   2.990   4.724   3.552 -2.9871 -0.0529 -0.0855
 4556SOL     OW25300   4.467   0.532   3.491  0.3265  0.4531  0.0036
 4556SOL    HW125301   4.543   0.495   3.534  1.5133  0.4912 -2.0598
 4556SOL    HW225302   4.493   0.612   3.445 -0.8493  0.1514 -1.2146
 4557SOL     OW25303   3.734   0.106  16.911 -0.0927 -0.0766 -0.6585
 4557SOL    HW125304   3.657   0.161  16.906 -0.6191 -0.4905  2.4256
 4557SOL    HW225305   3.697   0.035  16.858  0.4474  0.3482 -1.6008
 4558SOL     OW25306   3.018   2.548   6.785 -0.1607  0.3226  0.1810
 4558SOL    HW125307   3.018   2.609   6.711 -0.7460 -1.6245 -1.4148
 4558SOL    HW225308   2.949   2.491   6.753 -1.7091  1.9119  0.6916
 4559SOL     OW25309   3.058   2.660   3.484  0.3582 -0.3777  0.2386
 4559SOL    HW125310   3.017   2.726   3.429  1.8960  1.9644  1.9295
 4559SOL    HW225311   3.144   2.678   3.446  0.0845  1.1397  0.3760
 4560SOL     OW25312   0.458   1.088   7.798 -0.0447 -0.3104 -0.1187
 4560SOL    HW125313   0.482   1.002   7.765  0.8810 -0.4117  0.7932
 4560SOL    HW225314   0.388   1.108   7.736 -2.5250 -1.0219  2.4612
 4561SOL     OW25315   2.772   1.178   7.385  0.6244 -0.7290 -0.1285
 4561SOL    HW125316   2.720   1.230   7.446  1.6600  0.2539 -0.0860
 4561SOL    HW225317   2.737   1.093   7.411  2.4796 -0.7643  2.2482
 4562SOL     OW25318   1.585   3.338   3.444 -0.0701  0.2743 -0.6241
 4562SOL    HW125319   1.499   3.380   3.434 -0.0645  1.1077  2.8149
 4562SOL    HW225320   1.632   3.385   3.374 -0.3169  0.9894 -0.3103
 4563SOL     OW25321   4.662   2.299   5.401  0.2775 -0.4763  0.2324
 4563SOL    HW125322   4.598   2.341   5.459  1.0736  1.8230 -0.5640
 4563SOL    HW225323   4.688   2.362   5.334  2.0908 -0.9318  0.5209
 4564SOL     OW25324   2.400   4.710  11.487 -0.3145  0.4810 -0.2902
 4564SOL    HW125325   2.330   4.659  11.527  0.5751  0.1059  0.7866
 4564SOL    HW225326   2.478   4.655  11.484 -1.7634 -1.5911 -0.1400
 4565SOL     OW25327   1.955   2.110   7.358 -0.3728  0.1590 -0.1462
 4565SOL    HW125328   2.041   2.144   7.383  0.4309 -1.4461 -0.7770
 4565SOL    HW225329   1.893   2.171   7.400  2.9358  3.9371 -0.7113
 4566SOL     OW25330   4.234   3.121   3.372  0.7785  0.0703 -0.3227
 4566SOL    HW125331   4.198   3.034   3.357 -0.3834  0.2970  1.0847
 4566SOL    HW225332   4.237   3.151   3.281  0.3266 -0.7098 -0.5951
 4567SOL     OW25333   4.209   0.820  14.781 -0.2825 -0.4226 -0.4481
 4567SOL    HW125334   4.227   0.914  14.790  2.1948 -0.8702 -0.8339
 4567SOL    HW225335   4.221   0.785  14.869 -0.6919 -0.5208 -0.4320
 4568SOL     OW25336   2.704   3.282   6.851 -0.4924 -0.4352  0.3264
 4568SOL    HW125337   2.641   3.316   6.915 -0.6616 -1.4079  0.6731
 4568SOL    HW225338   2.647   3.287   6.774 -1.3238 -0.5974  0.9285
 4569SOL     OW25339   1.581   3.835  12.249  0.0707  0.0770 -0.3586
 4569SOL    HW125340   1.575   3.909  12.310  2.7762  1.6398 -2.0078
 4569SOL    HW225341   1.488   3.815  12.250  0.2057 -0.5119  0.6388
 4570SOL     OW25342   2.201   1.987   5.219  0.1781  0.1011 -0.0669
 4570SOL    HW125343   2.163   1.994   5.132 -0.6886 -0.1614  0.2975
 4570SOL    HW225344   2.134   2.030   5.272 -0.2752 -1.5446  0.7140
 4571SOL     OW25345   2.778   3.655   6.984 -0.2442  0.0817 -0.7792
 4571SOL    HW125346   2.715   3.660   7.056  0.6078 -0.0652 -0.0250
 4571SOL    HW225347   2.813   3.744   6.978  0.9845 -0.4270 -1.1320
 4572SOL     OW25348   3.401   4.104   2.361 -0.1186  0.2165 -0.2048
 4572SOL    HW125349   3.484   4.084   2.319  0.2453  2.8877 -0.7205
 4572SOL    HW225350   3.446   4.128   2.441 -0.1926  0.8253 -0.3468
 4573SOL     OW25351   4.505   0.920  14.137 -0.9267 -0.1894  0.4560
 4573SOL    HW125352   4.550   0.957  14.213  0.2717  0.5149 -0.6215
 4573SOL    HW225353   4.526   0.973  14.060 -0.6686 -0.8181  0.0928
 4574SOL     OW25354   2.974   1.420   6.423  0.1929  0.1136 -0.0678
 4574SOL    HW125355   3.046   1.360   6.405  2.4774  2.1359  2.3252
 4574SOL    HW225356   2.920   1.380   6.491 -0.2399 -0.3231 -0.6804
 4575SOL     OW25357   3.292   4.169  10.319 -0.0766  0.2796  0.1295
 4575SOL    HW125358   3.197   4.178  10.313 -0.2828 -1.2258  0.9651
 4575SOL    HW225359   3.328   4.245  10.365 -2.2899  1.2986  0.1679
 4576SOL     OW25360   3.385   1.289   2.502  0.0940  0.3288  0.0104
 4576SOL    HW125361   3.347   1.370   2.466  2.3249  0.0322 -3.0272
 4576SOL    HW225362   3.475   1.283   2.470  0.3584  0.2794  0.7645
 4577SOL     OW25363   4.419   3.509   6.080  0.2809 -0.4355 -0.1544
 4577SOL    HW125364   4.412   3.574   6.150  0.6282 -2.1476  1.4418
 4577SOL    HW225365   4.328   3.482   6.084 -1.2979  4.7144 -0.8172
 4578SOL     OW25366   3.698   3.085   0.102  0.1071  0.1681  0.2741
 4578SOL    HW125367   3.744   3.163   0.071 -0.5031 -0.3589 -2.0151
 4578SOL    HW225368   3.659   3.065   0.016 -0.2748 -0.3054  0.5624
 4579SOL     OW25369   0.173   4.520  13.533  0.0430  0.6486  0.0507
 4579SOL    HW125370   0.210   4.456  13.593  1.1967  2.0542  0.8165
 4579SOL    HW225371   0.191   4.485  13.445 -2.5880  1.6246 -0.8980
 4580SOL     OW25372   2.229   0.130   7.668 -0.3735  0.5101 -0.1806
 4580SOL    HW125373   2.157   0.068   7.683 -0.0142 -0.1959 -1.3430
 4580SOL    HW225374   2.214   0.140   7.574 -1.7556  0.3940  0.0171
 4581SOL     OW25375   0.112   4.325   1.712  0.1930 -0.1629  0.1978
 4581SOL    HW125376   0.085   4.388   1.645 -2.0942 -0.3328  0.9562
 4581SOL    HW225377   0.053   4.339   1.787 -0.2580 -3.3120  0.4230
 4582SOL     OW25378   3.947   3.392  15.403  0.5386  1.1400 -0.1702
 4582SOL    HW125379   3.998   3.472  15.392  1.2481  0.7552  0.2741
 4582SOL    HW225380   3.948   3.357  15.314  1.4537 -0.1855  0.3630
 4583SOL     OW25381   2.945   0.409   7.481  0.4469 -0.7504  0.5630
 4583SOL    HW125382   2.957   0.320   7.449  0.2298 -1.1539  1.5859
 4583SOL    HW225383   2.882   0.443   7.418 -1.3558  0.3768  2.9769
 4584SOL     OW25384   1.670   0.672   4.621  0.4412 -0.0649 -0.4073
 4584SOL    HW125385   1.619   0.662   4.701  0.7837 -2.2121 -0.4679
 4584SOL    HW225386   1.597   0.654   4.562  0.2361 -0.0613 -0.1520
 4585SOL     OW25387   0.352   1.884   3.026 -0.8736 -0.4170 -0.5367
 4585SOL    HW125388   0.299   1.914   3.100 -0.1150 -0.0225 -0.1479
 4585SOL    HW225389   0.348   1.790   3.042 -0.8572 -0.1735  0.9441
 4586SOL     OW25390   1.170   2.768  15.794 -0.4471  0.5240 -0.5192
 4586SOL    HW125391   1.176   2.808  15.881 -0.1700  0.1786 -0.3798
 4586SOL    HW225392   1.244   2.710  15.809 -1.3621 -0.9714 -1.7559
 4587SOL     OW25393   1.862   4.648   7.546  0.3326 -0.3371  0.0708
 4587SOL    HW125394   1.933   4.707   7.524 -0.2301 -0.5893 -2.4400
 4587SOL    HW225395   1.922   4.592   7.596  0.4519  0.2060  0.5317
 4588SOL     OW25396   1.789   2.594   4.663  0.2989 -0.1194 -0.3887
 4588SOL    HW125397   1.757   2.584   4.574 -0.3406  0.7232 -0.2574
 4588SOL    HW225398   1.810   2.688   4.658  1.8563 -0.4603 -0.1739
 4589SOL     OW25399   3.877   0.153  12.062 -0.0348  0.1044 -0.8706
 4589SOL    HW125400   3.861   0.133  11.970 -1.3652 -0.5865 -0.4858
 4589SOL    HW225401   3.891   0.247  12.062 -1.5718  0.3289 -0.5717
 4590SOL     OW25402   4.395   0.181   1.546 -0.5051 -0.6552  0.0827
 4590SOL    HW125403   4.360   0.142   1.466  0.1961 -1.3343  0.1089
 4590SOL    HW225404   4.343   0.133   1.609 -2.0498 -0.0394 -0.7234
 4591SOL     OW25405   1.187   2.525   2.559  0.1160 -0.0596  0.9426
 4591SOL    HW125406   1.250   2.559   2.496 -1.1193  0.6117  0.0528
 4591SOL    HW225407   1.106   2.573   2.538 -2.6816 -3.7162  3.2917
 4592SOL     OW25408   1.230   3.854   2.698  0.1061  0.5979  0.1785
 4592SOL    HW125409   1.316   3.834   2.735 -0.2070 -1.1257 -0.0126
 4592SOL    HW225410   1.169   3.805   2.752  0.7226  1.2520  1.4743
 4593SOL     OW25411   0.824   0.414   1.326  0.1395  0.0929 -0.0824
 4593SOL    HW125412   0.861   0.352   1.263  1.3423 -1.0091  1.6936
 4593SOL    HW225413   0.810   0.495   1.277 -0.9319 -0.0635 -0.0359
 4594SOL     OW25414   3.966   0.644  12.324 -0.4331 -0.4779  0.1749
 4594SOL    HW125415   3.938   0.732  12.300 -0.8707 -0.2398  1.5611
 4594SOL    HW225416   4.060   0.645  12.306 -0.4282  0.4960  0.2738
 4595SOL     OW25417   1.998   3.602   6.016 -0.5615  0.0474 -0.3720
 4595SOL    HW125418   1.915   3.636   6.049  1.5381  2.3734  2.5625
 4595SOL    HW225419   2.031   3.554   6.092  1.8762 -0.6037 -1.8265
 4596SOL     OW25420   3.993   1.856  14.808  0.2577  0.3500 -0.3840
 4596SOL    HW125421   4.041   1.785  14.765  0.5782  0.3767 -0.0792
 4596SOL    HW225422   3.923   1.878  14.747 -0.8681  0.6721  1.0173
 4597SOL     OW25423   0.389   1.558  15.095  0.0144 -0.9028  0.3259
 4597SOL    HW125424   0.419   1.492  15.157  0.4324  1.6500  2.7980
 4597SOL    HW225425   0.472   1.598  15.069 -1.5998  0.4726 -2.6499
 4598SOL     OW25426   4.146   1.432   8.467  0.2157  0.1020  0.6872
 4598SOL    HW125427   4.205   1.356   8.471  1.0183  0.7599  1.1614
 4598SOL    HW225428   4.081   1.400   8.404  0.0467  3.3241 -0.7392
 4599SOL     OW25429   2.415   3.572  14.440 -0.1914  0.1832 -0.0472
 4599SOL    HW125430   2.458   3.541  14.361  3.5217 -0.7883  2.3821
 4599SOL    HW225431   2.331   3.526  14.434 -0.2724  0.2143  0.8237
 4600SOL     OW25432   4.040   2.124   2.611 -0.5842 -0.0497  0.4073
 4600SOL    HW125433   4.110   2.187   2.625  0.8461 -1.9201  1.7780
 4600SOL    HW225434   4.007   2.152   2.526  1.1569 -0.0049 -0.2519
 4601SOL     OW25435   1.018   2.744   3.986  0.6733 -0.2537 -0.2730
 4601SOL    HW125436   1.103   2.732   3.945 -1.0759 -2.7357 -3.1420
 4601SOL    HW225437   0.975   2.819   3.945  0.4242 -0.0150  0.4291
 4602SOL     OW25438   2.672   3.842   1.755 -0.4020 -0.3030 -0.0002
 4602SOL    HW125439   2.601   3.796   1.710 -1.7596  0.8332  0.9617
 4602SOL    HW225440   2.634   3.874   1.837  1.3357 -0.8503  1.0209
 4603SOL     OW25441   1.264   0.114  13.941 -0.1001  0.4532 -0.1049
 4603SOL    HW125442   1.194   0.077  13.888  1.0459  0.9447 -1.9477
 4603SOL    HW225443   1.209   0.163  14.002 -0.0938  1.4575 -0.9032
 4604SOL     OW25444   0.079   2.302   6.884  0.0647  0.2137  0.4355
 4604SOL    HW125445   0.110   2.382   6.842 -0.8479  0.1610 -0.3362
 4604SOL    HW225446   0.135   2.292   6.961  1.8851  1.1903 -0.7599
 4605SOL     OW25447   3.975   3.299  15.139  0.1137  0.0699 -0.4857
 4605SOL    HW125448   4.067   3.297  15.113  0.8928  0.3215  2.2096
 4605SOL    HW225449   3.936   3.217  15.112 -1.2728 -0.5800  3.5814
 4606SOL     OW25450   3.250   1.167   8.359  0.3118  0.6201  0.5310
 4606SOL    HW125451   3.178   1.178   8.297  1.6025  1.7689 -0.7605
 4606SOL    HW225452   3.212   1.212   8.434 -0.5711  2.1358 -0.8560
 4607SOL     OW25453   3.863   4.013   7.302  0.2779 -0.3390 -0.3761
 4607SOL    HW125454   3.785   3.958   7.290 -1.1921  1.2444  2.0046
 4607SOL    HW225455   3.839   4.076   7.369  0.9971  0.0239 -0.4588
 4608SOL     OW25456   0.487   3.356   5.271 -0.3421  0.0027  0.3299
 4608SOL    HW125457   0.519   3.388   5.355  0.1359 -0.3336  0.2740
 4608SOL    HW225458   0.415   3.296   5.287 -0.4460  0.1556  0.4325
 4609SOL     OW25459   3.913   3.085   6.178  0.4216 -0.2542  0.2175
 4609SOL    HW125460   3.970   3.021   6.221 -2.9803 -0.9606  3.6681
 4609SOL    HW225461   3.923   3.071   6.084  0.1812  3.1884 -0.3426
 4610SOL     OW25462   2.819   1.964   8.254 -0.0660 -0.1635 -0.3773
 4610SOL    HW125463   2.868   1.946   8.174  1.2624 -1.1095  0.6564
 4610SOL    HW225464   2.741   1.912   8.234 -1.4963  1.7092  0.3014
 4611SOL     OW25465   0.980   2.777   3.485 -0.3566  0.5490 -0.3125
 4611SOL    HW125466   1.012   2.757   3.573 -2.6543  1.0899  0.6339
 4611SOL    HW225467   1.037   2.711   3.443  1.2408  1.1683  0.8736
 4612SOL     OW25468   3.462   3.909   9.477 -0.1482 -0.3307  0.1879
 4612SOL    HW125469   3.493   3.829   9.435 -0.0125 -0.1700 -0.0135
 4612SOL    HW225470   3.544   3.955   9.494 -1.5773  1.6308  1.7836
 4613SOL     OW25471   0.270   0.251   2.607  0.0698 -0.2942  0.0013
 4613SOL    HW125472   0.269   0.186   2.677  0.6841  1.9451  2.0732
 4613SOL    HW225473   0.357   0.228   2.573 -0.3551 -0.4453 -0.9891
 4614SOL     OW25474   3.585   3.548   0.987  0.1785  0.3255 -0.7715
 4614SOL    HW125475   3.536   3.630   0.996 -0.3508  0.0532 -1.1289
 4614SOL    HW225476   3.522   3.498   0.934 -0.2753  0.6649 -0.5447
 4615SOL     OW25477   2.535   1.620  12.067  0.5986  0.3797 -1.4091
 4615SOL    HW125478   2.628   1.627  12.089  0.2993 -0.7768  0.2004
 4615SOL    HW225479   2.499   1.596  12.153 -0.8614  2.3873 -1.4632
 4616SOL     OW25480   3.339   3.934  12.482 -0.2297  0.0718 -0.5591
 4616SOL    HW125481   3.409   3.945  12.418  0.7254  2.1844  0.8515
 4616SOL    HW225482   3.301   4.021  12.473  0.7052  0.7015  1.6211
 4617SOL     OW25483   0.896   4.390   6.047 -0.3532 -0.0373 -0.5467
 4617SOL    HW125484   0.929   4.377   6.136 -1.2314  2.0699  0.0842
 4617SOL    HW225485   0.874   4.297   6.042 -1.1498  0.0913  0.4298
 4618SOL     OW25486   2.027   1.308   8.985  0.4448  0.5354  0.5741
 4618SOL    HW125487   1.991   1.386   9.027 -0.3849 -0.2250  1.2706
 4618SOL    HW225488   2.055   1.350   8.904  1.6453 -0.2902  0.5665
 4619SOL     OW25489   1.654   0.337   7.784 -0.6201  0.0970  0.2427
 4619SOL    HW125490   1.696   0.403   7.840  0.2831 -1.3469  1.2637
 4619SOL    HW225491   1.606   0.289   7.852  1.0330 -1.5936  0.2038
 4620SOL     OW25492   3.203   3.316   7.008 -0.0072  0.0876  0.5503
 4620SOL    HW125493   3.119   3.358   7.028  0.1246  1.6245 -2.0617
 4620SOL    HW225494   3.228   3.268   7.087 -0.7251 -0.2237  0.5865
 4621SOL     OW25495   3.488   1.089   0.993 -0.1961 -0.1468  0.3578
 4621SOL    HW125496   3.482   1.155   0.924  0.5567  0.6118  1.0107
 4621SOL    HW225497   3.574   1.050   0.976  0.3055  0.7957  0.7055
 4622SOL     OW25498   1.517   2.750   9.035 -0.4406  0.2756 -0.2783
 4622SOL    HW125499   1.560   2.832   9.058  0.4899  0.1691 -1.6372
 4622SOL    HW225500   1.439   2.785   8.993 -0.1071 -0.7286 -1.7333
 4623SOL     OW25501   1.746   3.157   7.916 -0.2436  0.2588  0.3325
 4623SOL    HW125502   1.715   3.247   7.916  0.5490  0.5338 -2.5681
 4623SOL    HW225503   1.837   3.164   7.890 -0.2834  0.6403  0.3040
 4624SOL     OW25504   2.100   4.024   8.553 -0.6556  0.0338 -0.2104
 4624SOL    HW125505   2.009   4.019   8.581 -0.2022  0.7075  1.3674
 4624SOL    HW225506   2.125   4.101   8.605 -0.7154 -1.3766  1.8564
 4625SOL     OW25507   2.993   4.178   4.287  0.7310 -0.0522 -0.4919
 4625SOL    HW125508   3.054   4.250   4.276 -0.7193  1.2510  0.0359
 4625SOL    HW225509   2.925   4.219   4.341 -0.5363  1.1608 -3.0212
 4626SOL     OW25510   0.803   0.733   6.832 -0.3688  0.1318  0.6344
 4626SOL    HW125511   0.807   0.639   6.813 -3.3881  0.2106 -0.3098
 4626SOL    HW225512   0.817   0.717   6.925 -1.3356 -1.1429  0.5585
 4627SOL     OW25513   0.059   3.694   1.648 -1.0076  0.1852  0.3905
 4627SOL    HW125514   0.013   3.778   1.656 -2.4134 -0.6044  0.4932
 4627SOL    HW225515   0.015   3.645   1.579 -3.0626  2.8628 -0.2052
 4628SOL     OW25516   3.649   2.408   3.571 -0.4290  0.5502 -0.0465
 4628SOL    HW125517   3.655   2.316   3.600 -3.5636 -0.1798 -1.6943
 4628SOL    HW225518   3.600   2.398   3.490  0.5548 -0.4609 -0.5203
 4629SOL     OW25519   1.000   4.355  13.213  0.0274 -0.2375  1.2141
 4629SOL    HW125520   0.905   4.351  13.209  0.0074  1.0166  0.4143
 4629SOL    HW225521   1.018   4.428  13.272  0.2069  0.8048 -0.1171
 4630SOL     OW25522   2.863   2.530   7.578  0.2957  0.1722 -0.4632
 4630SOL    HW125523   2.811   2.597   7.534  0.1985  0.9571  0.8305
 4630SOL    HW225524   2.854   2.561   7.668 -1.8155 -1.9398  0.0789
 4631SOL     OW25525   1.465   1.740  16.186  0.5952 -0.4743  0.2342
 4631SOL    HW125526   1.493   1.807  16.123 -0.4130  0.4119  0.7208
 4631SOL    HW225527   1.375   1.723  16.158 -0.6011  0.2901  3.6681
 4632SOL     OW25528   3.911   3.988  14.390 -0.3435 -0.3300 -0.1475
 4632SOL    HW125529   3.877   3.908  14.349  1.9736 -0.9600 -0.8368
 4632SOL    HW225530   3.999   3.952  14.399 -0.1329  0.5567  1.3616
 4633SOL     OW25531   1.672   4.623   9.082  0.1396  0.2027 -0.4075
 4633SOL    HW125532   1.700   4.688   9.147  0.7629 -1.3203  0.8323
 4633SOL    HW225533   1.702   4.540   9.119 -0.5631 -0.1616 -0.6389
 4634SOL     OW25534   1.374   0.249   2.177  0.6103 -0.6142 -0.0194
 4634SOL    HW125535   1.426   0.170   2.164  1.8259 -0.1592  1.8893
 4634SOL    HW225536   1.312   0.248   2.105  1.7020  1.0331 -0.9977
 4635SOL     OW25537   2.709   2.070   7.688  0.3892  0.1656  0.2733
 4635SOL    HW125538   2.621   2.074   7.650 -0.7482  1.0041  2.9767
 4635SOL    HW225539   2.671   2.074   7.776  1.5859  0.1588  0.7927
 4636SOL     OW25540   0.182   2.456   4.321  0.5102 -0.5689 -0.4905
 4636SOL    HW125541   0.228   2.397   4.261 -2.0637 -2.2486 -0.8175
 4636SOL    HW225542   0.186   2.404   4.401  0.3749 -2.8592 -1.9653
 4637SOL     OW25543   3.681   3.647   1.480 -0.2188 -0.1851 -0.6151
 4637SOL    HW125544   3.691   3.698   1.561  0.9661 -1.7671  0.2323
 4637SOL    HW225545   3.768   3.607   1.486  0.9231  1.7463 -3.9038
 4638SOL     OW25546   1.185   1.937   4.690 -0.1101 -0.0401 -0.0268
 4638SOL    HW125547   1.173   1.853   4.646 -0.4007 -0.3880  0.7067
 4638SOL    HW225548   1.102   1.978   4.666 -0.4682 -0.0757  1.1193
 4639SOL     OW25549   3.744   4.044   1.460  0.2711  0.1009 -0.1929
 4639SOL    HW125550   3.739   4.109   1.530  1.3543 -0.2651  0.2251
 4639SOL    HW225551   3.838   4.024   1.456 -0.1576 -1.7825 -0.7773
 4640SOL     OW25552   2.801   1.554   9.779 -0.2199 -0.2387 -0.3504
 4640SOL    HW125553   2.746   1.476   9.791  2.2381 -1.8041  0.5876
 4640SOL    HW225554   2.791   1.588   9.690  0.6954 -0.2048 -0.4417
 4641SOL     OW25555   1.846   1.089   5.540 -0.4987  0.0242  0.0343
 4641SOL    HW125556   1.939   1.078   5.560 -0.6742 -0.7009  0.4616
 4641SOL    HW225557   1.810   1.026   5.603 -2.3810 -1.7879 -2.8791
 4642SOL     OW25558   0.227   3.357  12.248  0.0280  0.0104 -0.4699
 4642SOL    HW125559   0.232   3.280  12.191  0.8426 -0.0099 -0.3790
 4642SOL    HW225560   0.300   3.339  12.308  0.0628 -1.1806 -0.8852
 4643SOL     OW25561   0.940   1.404  17.270 -0.5849 -0.5560 -0.0648
 4643SOL    HW125562   0.938   1.308  17.272 -0.3763 -0.5753 -1.2892
 4643SOL    HW225563   1.026   1.429  17.305 -1.3586  0.1760  1.3221
 4644SOL     OW25564   2.789   3.428   0.072  0.4916  0.4082  0.2609
 4644SOL    HW125565   2.843   3.484   0.017  1.5564 -1.3047 -0.4439
 4644SOL    HW225566   2.834   3.346   0.052 -0.5796 -0.5450  1.7103
 4645SOL     OW25567   1.285   3.008   4.851 -0.1309 -0.1243 -0.3722
 4645SOL    HW125568   1.195   3.039   4.848 -0.3039 -0.6655 -0.7492
 4645SOL    HW225569   1.276   2.913   4.850 -0.0296 -0.1448  1.0907
 4646SOL     OW25570   0.575   2.290   4.555  0.3304  0.1776  0.2662
 4646SOL    HW125571   0.515   2.308   4.627  1.5378  1.0019  1.0606
 4646SOL    HW225572   0.568   2.373   4.507 -1.3252  0.2637  0.6534
 4647SOL     OW25573   3.065   3.102   7.389  0.0869 -0.4693  0.2026
 4647SOL    HW125574   3.017   3.185   7.393  0.0270 -0.6603  3.1842
 4647SOL    HW225575   3.089   3.087   7.481 -1.5136  0.3061  0.7469
 4648SOL     OW25576   2.383   0.937   8.715  0.1547 -0.0253  0.5813
 4648SOL    HW125577   2.432   0.959   8.794  0.7001  1.9196 -0.2749
 4648SOL    HW225578   2.385   0.842   8.711 -0.2877  0.1174 -3.3040
 4649SOL     OW25579   2.088   1.826   8.662 -0.7099 -0.1476  0.7660
 4649SOL    HW125580   2.134   1.890   8.716  1.2506 -2.5699  1.9720
 4649SOL    HW225581   2.064   1.762   8.729 -0.0166  0.5616  1.6862
 4650SOL     OW25582   3.494   2.481   1.892  0.5553  0.0168 -0.3797
 4650SOL    HW125583   3.549   2.516   1.822  2.6459 -0.0599  1.2540
 4650SOL    HW225584   3.442   2.420   1.840  1.2691 -0.4608 -0.5204
 4651SOL     OW25585   0.419   2.570   1.969 -0.2476  0.0851  0.1985
 4651SOL    HW125586   0.469   2.489   1.957  0.2191  0.2198  1.2182
 4651SOL    HW225587   0.341   2.563   1.914  1.1555  2.0688 -2.0404
 4652SOL     OW25588   3.194   1.303  12.976  0.2608  0.6552  0.4597
 4652SOL    HW125589   3.147   1.220  12.984 -0.0101  0.9468  1.8144
 4652SOL    HW225590   3.161   1.334  12.891 -1.3958 -1.4105  0.3730
 4653SOL     OW25591   1.481   0.585  10.639 -0.1489 -0.9448  0.7981
 4653SOL    HW125592   1.500   0.650  10.572  0.1701 -1.9519 -0.0740
 4653SOL    HW225593   1.387   0.565  10.633 -0.8395  2.3801  0.4196
 4654SOL     OW25594   3.364   3.104  10.581  0.1098 -0.2938  0.7215
 4654SOL    HW125595   3.335   3.081  10.669  0.0115  0.4000  0.8699
 4654SOL    HW225596   3.363   3.198  10.595 -1.3715 -0.0653 -0.8981
 4655SOL     OW25597   1.819   3.541  17.248  0.5824  0.6054 -0.0405
 4655SOL    HW125598   1.895   3.490  17.276  0.3169 -0.2915 -0.9513
 4655SOL    HW225599   1.749   3.479  17.268 -1.0478  1.8080 -1.9995
 4656SOL     OW25600   3.521   0.448   2.739 -0.2617 -0.2853  0.0514
 4656SOL    HW125601   3.478   0.530   2.763  1.9526  0.4594  1.3647
 4656SOL    HW225602   3.505   0.445   2.645  1.0147 -0.1031 -0.1676
 4657SOL     OW25603   0.505   0.903  15.346 -0.0160 -0.1010 -0.4793
 4657SOL    HW125604   0.568   0.847  15.302  1.4287  0.5255  0.7905
 4657SOL    HW225605   0.500   0.969  15.277  0.1077  1.2682  0.8058
 4658SOL     OW25606   4.033   0.117   5.131 -0.2393  0.3578 -0.7762
 4658SOL    HW125607   4.126   0.097   5.127  0.3555  2.8358  0.4351
 4658SOL    HW225608   4.021   0.139   5.224  0.9401 -1.2212 -0.2492
 4659SOL     OW25609   2.018   2.689   7.949  0.6091 -0.0993 -0.1499
 4659SOL    HW125610   2.017   2.763   7.889 -0.2352  0.1350  0.1499
 4659SOL    HW225611   2.108   2.689   7.982  0.5798 -1.2430 -0.0773
 4660SOL     OW25612   2.293   4.334   0.123  0.2896 -0.8621  0.4493
 4660SOL    HW125613   2.383   4.350   0.151  0.0692 -0.8883  1.1821
 4660SOL    HW225614   2.245   4.302   0.200  0.3445 -1.1384  0.3659
 4661SOL     OW25615   2.141   1.409  14.280  0.0820 -0.6274 -0.3143
 4661SOL    HW125616   2.207   1.431  14.215 -1.2473  1.2653 -1.0129
 4661SOL    HW225617   2.161   1.474  14.348  0.8039  2.0917 -3.1617
 4662SOL     OW25618   1.915   0.930   8.434 -0.2090 -0.0891 -0.2718
 4662SOL    HW125619   1.973   0.854   8.440  0.3553  0.2364 -1.6955
 4662SOL    HW225620   1.836   0.891   8.398  0.1796 -1.1259 -0.0069
 4663SOL     OW25621   2.611   2.872   7.129 -0.2621 -0.1593  0.1311
 4663SOL    HW125622   2.604   2.938   7.198 -0.7239 -0.8178  0.7151
 4663SOL    HW225623   2.530   2.824   7.147 -0.7115  1.0267  1.2906
 4664SOL     OW25624   2.621   4.590   5.887 -0.3010 -0.3025 -0.0371
 4664SOL    HW125625   2.654   4.680   5.886  0.7558 -0.6970 -0.6864
 4664SOL    HW225626   2.703   4.542   5.903  0.2897  0.9110  0.5626
 4665SOL     OW25627   3.460   3.510  10.568 -0.0669  0.0690 -0.1058
 4665SOL    HW125628   3.482   3.435  10.512  0.1303 -1.3367  1.8300
 4665SOL    HW225629   3.371   3.491  10.599 -0.6636  1.8246 -0.7264
 4666SOL     OW25630   4.561   4.084   6.686 -0.1073  0.1818  0.2525
 4666SOL    HW125631   4.629   4.149   6.702  0.0211  0.2595 -0.5996
 4666SOL    HW225632   4.490   4.141   6.653 -0.9010 -1.6289 -1.2026
 4667SOL     OW25633   0.101   1.761   6.054 -0.1191 -0.7306  0.2021
 4667SOL    HW125634   0.096   1.790   5.963  0.3644  3.6567  1.5726
 4667SOL    HW225635   0.119   1.848   6.090 -1.6473 -1.3986  2.5189
 4668SOL     OW25636   2.604   3.970   8.793  0.1278 -0.2569 -0.3371
 4668SOL    HW125637   2.621   4.047   8.847  0.1063  0.8461 -1.9343
 4668SOL    HW225638   2.686   3.920   8.793  1.0807  1.3332 -1.1240
 4669SOL     OW25639   1.536   1.994  11.826  0.1567 -0.6791 -0.0794
 4669SOL    HW125640   1.486   1.929  11.876 -0.0414  0.4685  1.1813
 4669SOL    HW225641   1.463   2.042  11.787  0.2297 -1.8765 -1.7174
 4670SOL     OW25642   1.321   4.303   8.557  0.1759 -0.6116  0.0850
 4670SOL    HW125643   1.357   4.258   8.481  2.3611 -0.8188  1.2504
 4670SOL    HW225644   1.229   4.282   8.539  0.4919 -1.7416 -0.2115
 4671SOL     OW25645   1.923   0.215   3.117 -0.1945 -0.3936 -0.6153
 4671SOL    HW125646   2.000   0.208   3.173  0.2658 -0.7148 -1.2766
 4671SOL    HW225647   1.897   0.307   3.116  1.5935  0.1131 -0.3014
 4672SOL     OW25648   1.034   1.938   3.823  0.3589  0.1704 -0.5452
 4672SOL    HW125649   1.012   1.875   3.892 -4.1439 -0.2188 -2.2880
 4672SOL    HW225650   1.033   1.886   3.743  1.0736  1.1865 -1.2005
 4673SOL     OW25651   4.488   4.101  17.525 -0.4360 -0.0656 -0.1571
 4673SOL    HW125652   4.542   4.171  17.559 -0.1788 -0.5278  0.3951
 4673SOL    HW225653   4.528   4.016  17.545  1.9102  1.2399  0.6502
 4674SOL     OW25654   0.472   2.486  11.852  0.0953  0.0478  0.3009
 4674SOL    HW125655   0.549   2.435  11.825 -1.7243 -2.7853  0.4583
 4674SOL    HW225656   0.406   2.457  11.789 -0.4992  0.6706  0.6531
 4675SOL     OW25657   1.669   1.210   2.962  0.3177 -0.1154  0.4780
 4675SOL    HW125658   1.625   1.134   2.999  1.9527 -1.2516  0.1185
 4675SOL    HW225659   1.722   1.167   2.894 -2.7730 -1.1607 -1.2609
 4676SOL     OW25660   2.455   3.719   6.688  0.5978 -0.5632 -0.5155
 4676SOL    HW125661   2.542   3.684   6.704  0.8909  1.0390  1.3783
 4676SOL    HW225662   2.407   3.636   6.702  1.1071 -1.2351 -2.8017
 4677SOL     OW25663   4.490   1.331   6.586  0.2891 -0.1216  0.5447
 4677SOL    HW125664   4.540   1.369   6.513  0.9575  0.2906  1.2114
 4677SOL    HW225665   4.465   1.414   6.628  0.6143 -0.2290  0.9580
 4678SOL     OW25666   0.714   3.583   8.794  0.1350  0.3192 -0.2558
 4678SOL    HW125667   0.624   3.594   8.762  1.1465  2.8942 -2.1609
 4678SOL    HW225668   0.713   3.639   8.872  0.4629  0.2272 -0.1858
 4679SOL     OW25669   2.867   3.920   8.095  0.0933 -0.1538  0.4034
 4679SOL    HW125670   2.804   3.884   8.032  0.0576 -1.0882  0.9761
 4679SOL    HW225671   2.949   3.889   8.058  0.1636 -2.0587  2.1795
 4680SOL     OW25672   1.203   0.680  11.538 -0.0165  0.1925  0.0336
 4680SOL    HW125673   1.241   0.603  11.495  0.6762 -0.7159  2.2667
 4680SOL    HW225674   1.282   0.734  11.539  0.8693 -1.0540 -1.9627
 4681SOL     OW25675   0.590   1.201   4.172 -0.7976 -0.0325  0.6303
 4681SOL    HW125676   0.603   1.293   4.150 -0.2559 -0.6521 -1.6847
 4681SOL    HW225677   0.506   1.180   4.131 -1.0413  3.1121 -0.4690
 4682SOL     OW25678   2.229   2.910   8.512 -0.2180  0.3175  0.0198
 4682SOL    HW125679   2.179   2.829   8.505  1.2133 -0.7875  2.6028
 4682SOL    HW225680   2.177   2.965   8.570 -1.4123 -1.2333  0.3893
 4683SOL     OW25681   0.488   2.520  12.538 -0.2235 -0.0108  0.0405
 4683SOL    HW125682   0.522   2.584  12.475  0.4066 -0.8621 -0.4765
 4683SOL    HW225683   0.444   2.586  12.592  1.0901  0.1983  0.8535
 4684SOL     OW25684   3.165   2.428   5.737  0.7236  0.0486 -0.4226
 4684SOL    HW125685   3.220   2.355   5.711  1.2885 -0.2769  1.6826
 4684SOL    HW225686   3.100   2.425   5.667  1.4111 -3.5316 -0.9030
 4685SOL     OW25687   2.147   1.008   5.142  0.1024 -0.9747  0.1687
 4685SOL    HW125688   2.191   0.974   5.064 -2.7483 -1.0732 -1.4180
 4685SOL    HW225689   2.149   1.103   5.141 -4.2898 -0.8930 -1.5694
 4686SOL     OW25690   2.606   3.856  14.617  0.4987  0.2949 -0.8547
 4686SOL    HW125691   2.593   3.908  14.537  0.2757 -2.0812 -2.3722
 4686SOL    HW225692   2.583   3.914  14.689 -0.1247 -1.1301  0.0986
 4687SOL     OW25693   2.032   0.453   0.146 -0.2731  0.4119  0.3201
 4687SOL    HW125694   2.066   0.422   0.230  1.2217 -1.2282 -0.8902
 4687SOL    HW225695   1.955   0.399   0.126  0.4154 -0.0844 -0.9489
 4688SOL     OW25696   4.694   4.493   3.414  0.1824  0.2814 -0.2367
 4688SOL    HW125697   4.718   4.485   3.507  0.9122 -1.0015 -0.5399
 4688SOL    HW225698   4.737   4.573   3.385 -2.6802  2.8691  2.5387
 4689SOL     OW25699   0.739   2.506  14.279  0.0632  0.5355 -0.1547
 4689SOL    HW125700   0.806   2.537  14.218 -0.7822  2.1214 -0.2722
 4689SOL    HW225701   0.762   2.413  14.274 -0.9365  0.1908  1.6865
 4690SOL     OW25702   4.384   4.168  10.728 -0.1745  0.0539 -0.5808
 4690SOL    HW125703   4.342   4.124  10.802  0.8307 -0.8226 -0.5232
 4690SOL    HW225704   4.450   4.228  10.763 -1.0854 -0.3201  1.7588
 4691SOL     OW25705   4.362   4.203   0.702 -0.5552  0.0793 -0.1489
 4691SOL    HW125706   4.448   4.163   0.716  0.0953  2.1284  1.6584
 4691SOL    HW225707   4.356   4.212   0.606 -2.7013 -1.6787 -0.1840
 4692SOL     OW25708   2.039   0.461   9.611  0.0981  0.3328  0.5010
 4692SOL    HW125709   1.995   0.542   9.633  0.0649 -0.0974  2.0245
 4692SOL    HW225710   2.018   0.449   9.519 -0.2229  1.3460  0.4491
 4693SOL     OW25711   1.051   0.633   4.160  0.7602  0.2396  0.1986
 4693SOL    HW125712   0.997   0.710   4.143  0.9998  0.3753  0.0423
 4693SOL    HW225713   1.015   0.578   4.091 -1.2090 -0.1715  1.5508
 4694SOL     OW25714   3.633   0.906   4.840  0.4662 -0.3517 -0.7318
 4694SOL    HW125715   3.629   0.814   4.867 -0.7020 -0.1267 -0.1556
 4694SOL    HW225716   3.711   0.922   4.786  1.1768 -0.1435  0.3496
 4695SOL     OW25717   2.628   1.077  12.018  0.0131 -0.7207  0.1948
 4695SOL    HW125718   2.628   1.009  12.085 -1.4370 -1.4623 -0.5522
 4695SOL    HW225719   2.654   1.159  12.060 -0.7307 -1.0710  1.3362
 4696SOL     OW25720   3.427   3.961   9.760 -0.0325  0.1590  1.1819
 4696SOL    HW125721   3.518   3.971   9.731  0.5182 -0.5463  2.6379
 4696SOL    HW225722   3.388   3.910   9.689 -0.9494 -0.4382  2.1127
 4697SOL     OW25723   3.670   4.038   9.635  0.0399  0.4907  0.4254
 4697SOL    HW125724   3.722   4.039   9.716 -1.2141  0.5023  1.2255
 4697SOL    HW225725   3.690   4.119   9.589 -0.3484  1.6934  2.3347
 4698SOL     OW25726   2.003   0.509   2.096  0.6516 -0.3460  0.0342
 4698SOL    HW125727   1.960   0.425   2.109  0.9127 -0.0614  2.7717
 4698SOL    HW225728   1.963   0.523   2.010  1.8820 -1.4151 -0.7333
 4699SOL     OW25729   4.715   3.202   9.062 -0.5295  0.2116  1.0973
 4699SOL    HW125730   0.054   3.253   9.040 -2.5290  2.7873  0.0692
 4699SOL    HW225731   0.001   3.113   9.086  0.8397  0.3464  0.1967
 4700SOL     OW25732   0.955   4.384   6.854 -0.3722  0.0033  0.2909
 4700SOL    HW125733   0.903   4.304   6.861 -0.4305 -0.1053 -1.3964
 4700SOL    HW225734   1.047   4.357   6.864  0.1030  1.5220 -0.0544
 4701SOL     OW25735   3.613   4.011   2.215  0.3771  0.7555 -0.3772
 4701SOL    HW125736   3.637   3.942   2.153 -2.2109 -0.5945  0.1283
 4701SOL    HW225737   3.688   4.008   2.273  0.4193  2.4139 -0.3440
 4702SOL     OW25738   0.566   1.691   4.272 -0.4371  0.8651  0.2249
 4702SOL    HW125739   0.512   1.677   4.194  0.6512 -1.5846 -0.0906
 4702SOL    HW225740   0.554   1.786   4.276  1.4427  1.1024 -0.0692
 4703SOL     OW25741   0.106   3.915   6.349 -0.0630  0.3070  0.0260
 4703SOL    HW125742   0.141   3.927   6.437 -1.9669  1.7277  0.6017
 4703SOL    HW225743   0.162   3.975   6.300 -0.7458  2.7981  2.3004
 4704SOL     OW25744   1.141   3.654  11.032 -0.6119 -0.4082 -0.7877
 4704SOL    HW125745   1.071   3.636  11.094 -1.4970 -0.3593 -1.7787
 4704SOL    HW225746   1.110   3.712  10.962  2.6356  0.6346 -1.3764
 4705SOL     OW25747   0.520   1.978   4.824  0.1065 -0.1564 -0.0377
 4705SOL    HW125748   0.494   1.970   4.732  1.6267 -3.2770 -0.2019
 4705SOL    HW225749   0.432   1.998   4.855  0.7561 -0.3150  1.9322
 4706SOL     OW25750   0.073   3.855   8.040 -0.3877  0.4933  0.2635
 4706SOL    HW125751   0.029   3.802   7.973  0.6266 -2.5969  2.0646
 4706SOL    HW225752   0.168   3.846   8.033 -0.5892 -1.4035 -0.0135
 4707SOL     OW25753   4.531   2.474  12.848 -0.5171 -0.6147 -0.6953
 4707SOL    HW125754   4.549   2.452  12.940  0.9166  0.6096 -0.6931
 4707SOL    HW225755   4.615   2.478  12.803  0.8809  2.2727  2.1828
 4708SOL     OW25756   3.715   3.178   1.143 -0.1566 -0.2832  0.0811
 4708SOL    HW125757   3.653   3.249   1.161 -0.1042  0.2865 -1.9638
 4708SOL    HW225758   3.786   3.195   1.204  1.4414 -2.3723 -1.2260
 4709SOL     OW25759   4.649   2.586  10.968 -0.0771  0.2933  0.3472
 4709SOL    HW125760   4.567   2.538  10.976 -1.8944  3.2006 -1.0387
 4709SOL    HW225761   4.616   2.667  10.929 -1.0929 -0.0460  0.5144
 4710SOL     OW25762   2.395   1.022  13.797 -0.0169  0.4015 -0.1947
 4710SOL    HW125763   2.374   1.026  13.703  0.3266 -0.9298 -0.3307
 4710SOL    HW225764   2.372   0.934  13.825  0.1570 -0.2312 -2.0026
 4711SOL     OW25765   4.235   3.706   0.372 -0.2827  0.3632  0.3414
 4711SOL    HW125766   4.245   3.711   0.468  0.2370  0.4623  0.2820
 4711SOL    HW225767   4.285   3.626   0.360  0.5491  0.9582 -0.2076
 4712SOL     OW25768   2.796   3.759   9.271  0.0697 -0.3374 -0.2748
 4712SOL    HW125769   2.774   3.690   9.333 -1.3871 -0.8524 -1.3708
 4712SOL    HW225770   2.837   3.824   9.328 -3.3592  0.2527  1.5300
 4713SOL     OW25771   4.731   4.056  16.136  0.0060 -0.1319  0.5321
 4713SOL    HW125772   0.035   3.971  16.127 -0.5118 -0.2802 -0.5252
 4713SOL    HW225773   0.062   4.120  16.125  0.5870 -0.9560 -0.5628
 4714SOL     OW25774   1.166   3.148   0.596  0.0402 -0.2689 -0.1865
 4714SOL    HW125775   1.136   3.062   0.626 -0.8271  0.5465  1.2629
 4714SOL    HW225776   1.204   3.124   0.511 -0.5022 -1.4971 -0.0819
 4715SOL     OW25777   4.158   2.887   3.295 -0.2163  0.1461  0.0565
 4715SOL    HW125778   4.131   2.795   3.300 -1.6171  0.6468  1.9665
 4715SOL    HW225779   4.120   2.910   3.211  0.1573 -0.9168 -0.4006
 4716SOL     OW25780   0.032   1.720  13.648  0.2109  0.5446 -0.4105
 4716SOL    HW125781   0.076   1.792  13.602 -0.2400  0.9962 -0.1265
 4716SOL    HW225782   4.737   1.672  13.572  0.5244 -0.9291  0.3878
 4717SOL     OW25783   1.168   0.414  15.866  0.0010 -0.0588  0.4592
 4717SOL    HW125784   1.101   0.366  15.818  0.1577 -0.4649  0.6520
 4717SOL    HW225785   1.123   0.412  15.950  0.7096 -1.2313  0.8020
 4718SOL     OW25786   3.672   1.057   7.788  0.1599  0.0859 -0.0549
 4718SOL    HW125787   3.639   1.095   7.870  1.4788  0.1248  0.4551
 4718SOL    HW225788   3.737   0.993   7.814  0.4631 -0.2570 -1.6528
 4719SOL     OW25789   2.558   0.759   3.425  0.2600  0.0997 -0.3906
 4719SOL    HW125790   2.520   0.847   3.419 -1.9713 -0.7598  1.0442
 4719SOL    HW225791   2.575   0.739   3.333 -0.3813 -0.0866 -0.4704
 4720SOL     OW25792   3.341   3.468   9.238  0.1773  0.2349 -0.3701
 4720SOL    HW125793   3.308   3.431   9.156 -0.5570 -3.1093  1.4684
 4720SOL    HW225794   3.416   3.418   9.269  0.1664  1.1691  1.1653
 4721SOL     OW25795   4.665   2.856   3.793 -0.4667  0.4072  0.4431
 4721SOL    HW125796   4.632   2.874   3.705 -0.7076  2.0764  0.8670
 4721SOL    HW225797   0.021   2.856   3.775 -0.6107  3.1188 -0.3500
 4722SOL     OW25798   3.264   0.631   5.259 -0.7944  0.1800  0.4830
 4722SOL    HW125799   3.257   0.650   5.352  1.3053  0.1959  0.6275
 4722SOL    HW225800   3.181   0.659   5.220 -0.5469  0.2730  0.0142
 4723SOL     OW25801   3.732   2.161  13.580 -0.1780 -0.3070 -0.5825
 4723SOL    HW125802   3.745   2.253  13.603  1.6011 -0.4355 -1.0345
 4723SOL    HW225803   3.638   2.151  13.595  0.3391 -1.7520  1.7868
 4724SOL     OW25804   0.709   4.342   8.890 -0.5704 -1.0013 -0.1143
 4724SOL    HW125805   0.798   4.360   8.921 -1.7794  0.2393  2.6731
 4724SOL    HW225806   0.689   4.265   8.943 -2.8016  0.3065  1.0033
 4725SOL     OW25807   0.341   0.265   2.259  0.5231 -0.3110 -0.8899
 4725SOL    HW125808   0.434   0.283   2.277  0.0254  1.6869 -0.4111
 4725SOL    HW225809   0.344   0.242   2.166 -0.1791 -1.7167 -0.5602
 4726SOL     OW25810   0.677   3.940   0.846  0.6543 -0.3719 -0.7602
 4726SOL    HW125811   0.674   4.032   0.873 -0.3522 -0.4125 -0.7595
 4726SOL    HW225812   0.619   3.902   0.911  0.9775 -0.7578 -0.7007
 4727SOL     OW25813   2.850   1.357   2.071 -0.1988 -0.2081 -0.4713
 4727SOL    HW125814   2.864   1.273   2.029  0.4031 -0.9715  1.2304
 4727SOL    HW225815   2.887   1.422   2.011 -1.9600  0.4720 -0.8292
 4728SOL     OW25816   0.283   0.108  16.252  0.1061  0.0345  0.4580
 4728SOL    HW125817   0.297   0.200  16.233  3.4613 -0.2877  1.4309
 4728SOL    HW225818   0.370   0.069  16.245  0.4849  0.8277  0.7595
 4729SOL     OW25819   1.566   1.489   5.885 -0.3472 -0.5761 -0.5169
 4729SOL    HW125820   1.493   1.547   5.866 -1.6148 -1.5602  1.3031
 4729SOL    HW225821   1.520   1.406   5.896  0.0332 -0.5373  1.4343
 4730SOL     OW25822   3.755   2.567   8.163  0.0528 -0.7359 -0.0570
 4730SOL    HW125823   3.792   2.500   8.106  0.9134  1.7895 -2.4276
 4730SOL    HW225824   3.795   2.644   8.123 -1.5872 -0.1451 -0.5963
 4731SOL     OW25825   2.808   2.393   8.682  0.3051 -0.3787  0.2159
 4731SOL    HW125826   2.763   2.475   8.661  2.3518 -0.3764 -4.1923
 4731SOL    HW225827   2.831   2.413   8.773  0.5029 -1.5003  0.4083
 4732SOL     OW25828   0.848   2.880  12.044  1.4489  0.3396 -0.5097
 4732SOL    HW125829   0.826   2.872  12.137  0.5366 -1.7309 -0.8967
 4732SOL    HW225830   0.774   2.839  11.999  1.6360 -0.9566  0.3439
 4733SOL     OW25831   1.674   3.256   2.846 -0.8472  0.1477 -0.4910
 4733SOL    HW125832   1.678   3.338   2.797  0.6259 -1.0768 -2.4025
 4733SOL    HW225833   1.748   3.262   2.906 -2.2089 -0.4364  1.2601
 4734SOL     OW25834   2.293   0.815   7.903  0.1793 -0.6331  0.3514
 4734SOL    HW125835   2.356   0.849   7.966  0.9084  0.6467 -1.0587
 4734SOL    HW225836   2.214   0.852   7.941 -1.0551 -1.1990 -1.6314
 4735SOL     OW25837   4.445   4.257   5.299 -0.2046 -0.0877 -0.5705
 4735SOL    HW125838   4.389   4.335   5.305 -1.7629 -1.4081  1.9221
 4735SOL    HW225839   4.384   4.186   5.316  0.6048 -0.7564 -0.4702
 4736SOL     OW25840   1.625   0.777  10.468 -0.0115 -1.1661 -0.0291
 4736SOL    HW125841   1.629   0.826  10.550  0.7523 -2.4663  0.6998
 4736SOL    HW225842   1.709   0.805  10.431 -0.6849 -2.8144 -2.8024
 4737SOL     OW25843   1.738   2.721   6.684 -0.8890  0.4084  0.0391
 4737SOL    HW125844   1.795   2.665   6.736 -0.9074 -0.1937 -0.5909
 4737SOL    HW225845   1.797   2.790   6.654 -0.5888  0.3439  0.4764
 4738SOL     OW25846   4.506   1.731   9.595  0.2946  0.3284 -0.0612
 4738SOL    HW125847   4.583   1.725   9.651 -2.0398  1.4354  3.2429
 4738SOL    HW225848   4.496   1.826   9.585 -1.6414  0.1649  0.3303
 4739SOL     OW25849   2.597   4.016   3.581  0.3425  0.4037 -0.4190
 4739SOL    HW125850   2.576   4.049   3.493 -1.2046 -0.4533 -0.3852
 4739SOL    HW225851   2.688   3.992   3.565  0.2404 -1.3411  1.7535
 4740SOL     OW25852   0.914   0.266   9.831  0.0993  0.5237  0.5661
 4740SOL    HW125853   0.875   0.337   9.778  0.2011  0.5287  0.4976
 4740SOL    HW225854   1.004   0.297   9.843  0.2283 -0.3718  1.7766
 4741SOL     OW25855   0.295   1.553  16.182 -0.1393  0.1413 -0.7983
 4741SOL    HW125856   0.321   1.484  16.121 -0.3904  0.8476 -1.7003
 4741SOL    HW225857   0.356   1.622  16.157  0.3731 -0.3153 -0.8149
 4742SOL     OW25858   0.575   1.683  14.719  0.0985 -0.4004  0.2078
 4742SOL    HW125859   0.637   1.623  14.679  0.5897  1.2437 -1.4946
 4742SOL    HW225860   0.514   1.712  14.651  0.2233  1.0518  0.7095
 4743SOL     OW25861   0.111   3.354   4.982 -0.8934  0.7806  0.4737
 4743SOL    HW125862   0.089   3.406   4.905 -0.9077  0.8013  0.4918
 4743SOL    HW225863   0.194   3.306   4.970 -1.4954 -0.2073  0.2747
 4744SOL     OW25864   3.510   2.326   3.360  0.0338 -0.2751 -0.7135
 4744SOL    HW125865   3.457   2.249   3.380 -0.6585  0.3501 -0.1235
 4744SOL    HW225866   3.543   2.306   3.272 -0.1573  0.8830 -1.0621
 4745SOL     OW25867   3.530   1.998   6.439  0.5755 -0.4014 -0.2654
 4745SOL    HW125868   3.456   1.939   6.455 -0.0217  0.4194 -0.0038
 4745SOL    HW225869   3.605   1.947   6.472  0.8541  0.0835 -0.1504
 4746SOL     OW25870   3.320   1.675  17.196 -0.2361 -0.0939 -0.3443
 4746SOL    HW125871   3.389   1.690  17.132  1.8682 -0.6028  1.7856
 4746SOL    HW225872   3.312   1.766  17.224 -1.1671 -0.6087  1.0662
 4747SOL     OW25873   0.947   3.460   1.467  0.4006  0.1192  0.5356
 4747SOL    HW125874   0.907   3.471   1.553 -0.2821  1.0457  0.1033
 4747SOL    HW225875   1.037   3.441   1.492  1.1197  0.4167 -1.8312
 4748SOL     OW25876   2.017   3.214  14.308  0.3435 -0.7611  0.4575
 4748SOL    HW125877   1.923   3.212  14.287  0.2256 -0.0822  0.9496
 4748SOL    HW225878   2.044   3.129  14.272  0.7849 -0.8629  1.0315
 4749SOL     OW25879   1.408   4.124  13.837  0.1937 -0.2040  0.2406
 4749SOL    HW125880   1.454   4.208  13.836  2.1114 -1.2645 -0.3870
 4749SOL    HW225881   1.389   4.097  13.747  2.2266 -1.3337  0.1398
 4750SOL     OW25882   1.233   1.878   4.327  0.2481 -0.4916 -0.0174
 4750SOL    HW125883   1.220   1.783   4.334  1.5762 -0.6783  0.0181
 4750SOL    HW225884   1.321   1.899   4.297 -0.9005  3.3492 -0.6827
 4751SOL     OW25885   2.540   2.576  12.781  0.0102  0.1394  0.0698
 4751SOL    HW125886   2.552   2.614  12.693 -1.2017 -1.3395 -0.7337
 4751SOL    HW225887   2.614   2.616  12.827  1.3475 -0.1847 -1.7801
 4752SOL     OW25888   3.256   0.582   2.817 -0.4489 -0.7111  0.0580
 4752SOL    HW125889   3.215   0.659   2.776  2.5568  0.5958 -0.5205
 4752SOL    HW225890   3.195   0.519   2.777  0.6789  0.5710 -3.7085
 4753SOL     OW25891   2.292   2.875   2.912  0.6362  0.0803 -0.1932
 4753SOL    HW125892   2.358   2.810   2.889 -0.0006 -0.6137 -0.0620
 4753SOL    HW225893   2.214   2.821   2.927  1.6430 -0.3334  3.4040
 4754SOL     OW25894   4.320   4.452   7.614  0.1830  0.3683 -0.3426
 4754SOL    HW125895   4.370   4.395   7.555  0.5373 -0.5986  0.8702
 4754SOL    HW225896   4.397   4.469   7.669 -0.5442  0.7210  0.5693
 4755SOL     OW25897   1.424   0.753   3.294 -0.2808  0.3482 -0.1339
 4755SOL    HW125898   1.384   0.840   3.291 -0.7014  0.1656  0.3432
 4755SOL    HW225899   1.392   0.715   3.376  2.6322  0.7061  1.1834
 4756SOL     OW25900   2.680   3.718  14.330  0.3122 -0.2413 -0.4825
 4756SOL    HW125901   2.758   3.772  14.320  0.6872 -0.5651  0.6863
 4756SOL    HW225902   2.714   3.649  14.386 -3.5776 -1.3549  0.5335
 4757SOL     OW25903   4.006   3.859  15.408 -0.2550 -0.4458  0.2601
 4757SOL    HW125904   4.047   3.779  15.375  0.7130  0.8653 -1.6920
 4757SOL    HW225905   3.941   3.823  15.469 -3.1108  0.2890 -2.3343
 4758SOL     OW25906   3.660   2.712   3.309 -0.2370 -0.1098 -0.3349
 4758SOL    HW125907   3.658   2.652   3.384 -0.2518 -0.4786 -0.6264
 4758SOL    HW225908   3.678   2.798   3.347  1.9052 -1.3288  1.4211
 4759SOL     OW25909   3.835   2.049   2.797 -0.3691 -0.6604  0.5047
 4759SOL    HW125910   3.862   1.961   2.822  0.5437 -0.2336  1.0113
 4759SOL    HW225911   3.922   2.076   2.768 -1.2450  1.3698 -0.2332
 4760SOL     OW25912   2.648   2.957   5.675  0.1589  0.3182 -0.0741
 4760SOL    HW125913   2.695   2.877   5.650  2.0764  0.8399  1.9280
 4760SOL    HW225914   2.631   2.935   5.767 -0.7662  1.0339 -0.0701
 4761SOL     OW25915   1.267   0.402   1.455 -0.0751 -0.5629  0.8579
 4761SOL    HW125916   1.323   0.422   1.380 -0.6644  2.6418  1.3023
 4761SOL    HW225917   1.319   0.451   1.519  2.2350 -1.9675  0.0657
 4762SOL     OW25918   2.680   2.669   6.030  0.0924  0.0515  0.0107
 4762SOL    HW125919   2.697   2.657   5.937 -0.3472 -2.5308  0.2518
 4762SOL    HW225920   2.733   2.608   6.081 -0.7578 -0.6647  0.0304
 4763SOL     OW25921   2.266   3.271   6.921  0.3608  0.0633 -0.4562
 4763SOL    HW125922   2.332   3.205   6.946  1.6985  1.3888 -0.5060
 4763SOL    HW225923   2.246   3.301   7.009  0.4106 -0.0443 -0.4075
 4764SOL     OW25924   2.907   0.085   2.528 -0.0749  0.4652 -0.1716
 4764SOL    HW125925   2.932   0.160   2.474 -0.7891  1.7873  1.3392
 4764SOL    HW225926   2.923   0.116   2.617 -2.1874 -0.7251  0.6225
 4765SOL     OW25927   1.760   4.682   8.351 -0.3324 -0.2619 -0.2708
 4765SOL    HW125928   1.751   4.672   8.256 -0.6315 -0.0910 -0.2598
 4765SOL    HW225929   1.719   0.030   8.356 -2.1565 -1.1090 -0.5593
 4766SOL     OW25930   2.456   1.207   6.559  0.2492 -0.2132 -0.1231
 4766SOL    HW125931   2.417   1.259   6.630  1.4887 -1.7264  1.6655
 4766SOL    HW225932   2.501   1.142   6.613 -0.6466 -0.8489 -0.1310
 4767SOL     OW25933   1.399   2.345  15.151  0.3044  0.3354  0.4829
 4767SOL    HW125934   1.342   2.395  15.093 -2.0598 -2.6709  0.1742
 4767SOL    HW225935   1.486   2.369  15.118  0.3972 -1.3111 -0.4827
 4768SOL     OW25936   0.111   2.547  13.179 -0.0693  0.2099  0.0733
 4768SOL    HW125937   0.059   2.625  13.161 -0.4024  0.5898  2.5783
 4768SOL    HW225938   0.102   2.542  13.274 -0.9920 -0.6565 -0.0664
 4769SOL     OW25939   2.485   2.369   9.624 -0.1944  0.3686  0.0948
 4769SOL    HW125940   2.537   2.321   9.689 -0.0634 -1.6352 -1.4896
 4769SOL    HW225941   2.552   2.415   9.573 -0.2120  1.2995  0.9151
 4770SOL     OW25942   3.956   4.128  15.475  0.4381 -0.2720 -0.1009
 4770SOL    HW125943   3.991   4.040  15.463 -0.3402 -0.5970  0.0219
 4770SOL    HW225944   3.875   4.101  15.519 -0.6217  1.7152 -0.8224
 4771SOL     OW25945   1.813   0.578   8.140 -0.1962  0.5065 -0.0867
 4771SOL    HW125946   1.821   0.551   8.231  1.9759 -0.4293 -0.5502
 4771SOL    HW225947   1.720   0.599   8.136  0.3194  2.7034 -0.7526
 4772SOL     OW25948   2.070   2.125   2.572  0.0207 -0.7462  0.2456
 4772SOL    HW125949   2.010   2.141   2.499  0.7943  0.1099 -0.2002
 4772SOL    HW225950   2.017   2.057   2.613 -3.0026 -0.5654 -3.3103
 4773SOL     OW25951   2.242   4.719   3.600 -0.8846  0.2579 -0.1168
 4773SOL    HW125952   2.321   4.677   3.632 -0.6032  1.1325  0.3193
 4773SOL    HW225953   2.201   4.647   3.551  0.2287 -0.7875  0.4800
 4774SOL     OW25954   2.390   2.468   6.000 -0.3009  0.1827 -0.4007
 4774SOL    HW125955   2.375   2.475   6.095 -2.0590 -0.2801 -0.6324
 4774SOL    HW225956   2.411   2.560   5.982  1.0707 -0.0255  0.1608
 4775SOL     OW25957   3.135   4.001  17.748  0.5344 -0.1015 -0.1362
 4775SOL    HW125958   3.173   4.075  17.701  1.4558  0.6558  1.8143
 4775SOL    HW225959   3.078   3.974  17.676  1.2597  1.2752 -1.1970
 4776SOL     OW25960   3.931   3.115  13.434  0.4201  0.6867 -0.0651
 4776SOL    HW125961   3.964   3.113  13.344  0.2608 -1.8033 -0.0482
 4776SOL    HW225962   3.927   3.021  13.452 -1.6763  0.8172  0.0677
 4777SOL     OW25963   4.401   3.678   6.303  0.0835  0.0925  0.5444
 4777SOL    HW125964   4.425   3.599   6.351  0.5584 -0.5652 -0.7531
 4777SOL    HW225965   4.389   3.741   6.373  3.1362 -1.1207  2.1272
 4778SOL     OW25966   0.769   4.260   5.158  0.3127 -0.2728  0.3950
 4778SOL    HW125967   0.856   4.288   5.129 -0.3311 -0.3231 -1.6094
 4778SOL    HW225968   0.753   4.299   5.243 -1.4016  0.5180 -0.2921
 4779SOL     OW25969   2.295   1.174  10.427 -0.7091 -0.6394  0.3531
 4779SOL    HW125970   2.247   1.129  10.357 -0.2354 -1.7194  0.7202
 4779SOL    HW225971   2.241   1.252  10.440 -0.7301 -0.7332  0.8148
 4780SOL     OW25972   0.430   1.610   4.968 -0.3907  0.2746  0.0535
 4780SOL    HW125973   0.350   1.612   5.021 -0.8483 -2.9454 -0.5219
 4780SOL    HW225974   0.492   1.626   5.039 -0.5107 -1.3676  0.5101
 4781SOL     OW25975   1.983   0.914  11.365  0.0068 -0.3740 -0.0318
 4781SOL    HW125976   2.074   0.935  11.384 -0.3610  0.5596  0.6578
 4781SOL    HW225977   1.979   0.875  11.277 -0.2285 -0.6582  0.1071
 4782SOL     OW25978   4.660   4.014   8.209  0.0434 -0.2626  0.9605
 4782SOL    HW125979   4.728   3.959   8.171 -0.6338  0.0099 -0.6075
 4782SOL    HW225980   4.595   3.952   8.242 -0.4449  0.9804  2.3872
 4783SOL     OW25981   4.591   0.312   2.297 -0.0904  0.1313 -0.0718
 4783SOL    HW125982   4.639   0.393   2.282  2.9327 -1.6821 -0.2748
 4783SOL    HW225983   4.531   0.339   2.366 -0.4224  1.7749 -0.9958
 4784SOL     OW25984   2.716   0.825   8.740 -0.3010 -0.3774  0.0722
 4784SOL    HW125985   2.676   0.853   8.822 -0.4454 -0.2490 -0.0425
 4784SOL    HW225986   2.640   0.783   8.700 -0.7268  0.0868  0.3946
 4785SOL     OW25987   2.537   2.866   8.906  0.0919  0.9025  0.3998
 4785SOL    HW125988   2.565   2.929   8.972 -0.5974  0.7272  0.8701
 4785SOL    HW225989   2.442   2.878   8.906 -0.0660 -0.2474 -0.4453
 4786SOL     OW25990   1.151   4.330  10.965 -0.8571 -0.4786 -0.1582
 4786SOL    HW125991   1.118   4.242  10.947 -2.8739  0.4014 -0.8645
 4786SOL    HW225992   1.085   4.379  11.014  0.0505  1.7984 -1.2234
 4787SOL     OW25993   0.999   0.574   8.235 -0.0936  0.6091  0.6103
 4787SOL    HW125994   1.035   0.581   8.147 -0.9044 -0.3693  0.2041
 4787SOL    HW225995   1.070   0.608   8.290 -0.0173  1.0950  0.2081
 4788SOL     OW25996   1.679   0.142   9.491 -0.4096  0.4663  0.5681
 4788SOL    HW125997   1.753   0.186   9.532  1.1609 -2.2627  0.6658
 4788SOL    HW225998   1.638   0.081   9.552  1.5225 -0.4421  0.9622
 4789SOL     OW25999   4.213   1.057   5.539 -0.6878 -0.3972 -0.0817
 4789SOL    HW126000   4.265   1.024   5.466  0.5705 -0.1996  0.7274
 4789SOL    HW226001   4.230   0.987   5.602  0.3786 -0.5221 -0.5057
 4790SOL     OW26002   4.141   2.307   5.848  0.1498 -0.4343 -0.0017
 4790SOL    HW126003   4.146   2.393   5.889 -0.4757 -0.4656  0.1384
 4790SOL    HW226004   4.134   2.255   5.928 -2.8614 -0.1491 -0.1105
 4791SOL     OW26005   3.338   4.301   4.314 -0.2420 -0.0825 -0.1033
 4791SOL    HW126006   3.428   4.292   4.283  0.0594  1.2561  0.3998
 4791SOL    HW226007   3.352   4.323   4.406 -3.4185  3.2014 -0.4315
 4792SOL     OW26008   2.982   1.911   1.126  0.1047 -0.3857  0.3759
 4792SOL    HW126009   3.024   1.889   1.210  1.6192  0.6322 -0.1168
 4792SOL    HW226010   2.956   2.001   1.143 -0.6306 -0.2382 -1.5941
 4793SOL     OW26011   4.043   1.003  11.108  0.2809 -0.4238  0.2256
 4793SOL    HW126012   4.023   0.927  11.054  0.4668  0.7362 -1.4756
 4793SOL    HW226013   3.956   1.042  11.123 -0.8073 -2.1441 -1.7729
 4794SOL     OW26014   1.543   2.407   9.522  0.7862  0.2730 -0.0004
 4794SOL    HW126015   1.545   2.419   9.617 -2.2354 -2.2908  0.3857
 4794SOL    HW226016   1.450   2.407   9.501  1.2765 -1.7727 -2.1748
 4795SOL     OW26017   0.312   0.672   8.027  0.2235 -0.4733  0.2654
 4795SOL    HW126018   0.338   0.607   8.092  2.2612  1.6176  1.5372
 4795SOL    HW226019   0.255   0.728   8.081  1.0361 -0.6788  1.3381
 4796SOL     OW26020   0.970   2.828   8.581 -0.1373  0.9514  0.2182
 4796SOL    HW126021   1.000   2.748   8.539 -0.2171  1.4171 -0.7346
 4796SOL    HW226022   0.929   2.858   8.500 -3.1198  2.0099  2.1189
 4797SOL     OW26023   2.739   1.658   8.466  0.0910  0.3112 -0.2936
 4797SOL    HW126024   2.665   1.632   8.411  0.6351  0.4606 -1.1021
 4797SOL    HW226025   2.712   1.743   8.500 -0.4356  0.7754 -1.8908
 4798SOL     OW26026   3.649   3.210   3.353 -0.7832  0.0419 -0.3663
 4798SOL    HW126027   3.595   3.223   3.274 -0.7487  1.6683 -0.1298
 4798SOL    HW226028   3.581   3.175   3.410 -0.4990 -1.0194 -0.6750
 4799SOL     OW26029   4.128   1.789   7.126 -0.2954 -0.6468  0.7028
 4799SOL    HW126030   4.075   1.752   7.055 -0.0473 -0.0539  0.2084
 4799SOL    HW226031   4.062   1.842   7.169 -0.6102 -0.3240 -0.1917
 4800SOL     OW26032   0.061   3.265  14.173 -0.8498 -0.2429  0.7811
 4800SOL    HW126033   0.013   3.348  14.178 -1.2702 -0.6012  2.4984
 4800SOL    HW226034   0.039   3.234  14.085  1.2225  0.6166 -0.0406
 4801SOL     OW26035   0.257   4.560   2.430 -0.0143  0.2509 -0.5284
 4801SOL    HW126036   0.250   4.653   2.409 -1.0587 -0.2866 -2.5160
 4801SOL    HW226037   0.309   4.529   2.356  0.5085 -0.0054 -0.0507
 4802SOL     OW26038   2.665   4.538   8.345 -0.4992 -0.6510  0.5043
 4802SOL    HW126039   2.682   4.627   8.314 -0.1421 -1.1933 -0.8665
 4802SOL    HW226040   2.737   4.523   8.405 -0.7571  1.8576  1.4743
 4803SOL     OW26041   1.471   2.504   7.136  0.1986 -0.7074 -0.8997
 4803SOL    HW126042   1.425   2.587   7.125  1.2641 -0.2319 -1.7173
 4803SOL    HW226043   1.501   2.483   7.048  2.4587 -0.5536 -0.1893
 4804SOL     OW26044   1.984   3.868  16.366  0.1929  0.3071 -0.3849
 4804SOL    HW126045   1.891   3.864  16.348 -0.0705  2.7871  0.3445
 4804SOL    HW226046   2.017   3.880  16.277 -0.5369 -0.4788 -0.7599
 4805SOL     OW26047   2.417   1.166   2.855  0.2817 -0.2482  0.2754
 4805SOL    HW126048   2.493   1.123   2.895  0.8184  0.1097 -0.3537
 4805SOL    HW226049   2.355   1.096   2.834  1.8892 -1.6159  0.0911
 4806SOL     OW26050   4.676   1.472   7.235 -0.1738 -0.2112  0.5002
 4806SOL    HW126051   4.695   1.417   7.311 -0.3426  0.4814  1.0462
 4806SOL    HW226052   4.608   1.526   7.275 -0.7322 -0.8080  0.3400
 4807SOL     OW26053   2.499   1.656  10.140  0.3358  0.1422 -0.8832
 4807SOL    HW126054   2.587   1.619  10.135 -0.1346 -0.8443 -1.9706
 4807SOL    HW226055   2.463   1.613  10.218 -1.6648 -0.5281 -2.1500
 4808SOL     OW26056   4.115   0.426   8.885 -0.0868 -0.0038 -0.2139
 4808SOL    HW126057   4.103   0.448   8.793  1.4849  1.8676  0.0210
 4808SOL    HW226058   4.187   0.479   8.918  0.6227 -0.6198 -0.7618
 4809SOL     OW26059   4.131   4.264   4.746  0.2749 -0.2759  0.4711
 4809SOL    HW126060   4.218   4.240   4.776 -0.2716 -0.8539  1.6076
 4809SOL    HW226061   4.143   4.350   4.706 -0.6191 -0.9230 -1.2010
 4810SOL     OW26062   2.034   4.384   3.295 -0.9067  0.2510 -0.6327
 4810SOL    HW126063   1.997   4.473   3.301  0.7755  0.9143 -0.0117
 4810SOL    HW226064   1.954   4.332   3.284 -0.2340  0.0204 -4.1920
 4811SOL     OW26065   0.386   4.202   4.307 -0.4138 -0.1463 -0.1578
 4811SOL    HW126066   0.444   4.165   4.373 -1.6592 -0.5070  0.7208
 4811SOL    HW226067   0.449   4.217   4.237  0.4269 -0.1556  0.6034
 4812SOL     OW26068   4.070   2.376  11.933  0.1127  0.1672  0.3039
 4812SOL    HW126069   4.037   2.378  11.843  0.7036  2.4362  0.1391
 4812SOL    HW226070   4.023   2.444  11.981  1.3558 -0.1576  1.9823
 4813SOL     OW26071   3.494   2.769   5.390 -0.2045  0.8320 -0.2118
 4813SOL    HW126072   3.535   2.723   5.463 -2.3870 -2.0130 -0.7919
 4813SOL    HW226073   3.504   2.863   5.410  0.4592  0.5971  0.5651
 4814SOL     OW26074   2.641   4.726   6.901 -0.6601 -0.1627 -0.1614
 4814SOL    HW126075   2.553   4.690   6.912 -0.9883  0.5484 -0.4639
 4814SOL    HW226076   2.651   0.029   6.987 -0.0468 -0.3414 -0.1493
 4815SOL     OW26077   1.022   3.379   6.328  0.3311 -0.4974  0.3721
 4815SOL    HW126078   0.994   3.337   6.246  0.8126  0.2280 -0.1628
 4815SOL    HW226079   0.954   3.346   6.387  0.1075  1.9444  1.4911
 4816SOL     OW26080   3.633   2.077   5.361 -0.2498  0.9170  0.0936
 4816SOL    HW126081   3.703   2.096   5.422  0.0725  2.8727 -0.8982
 4816SOL    HW226082   3.608   1.990   5.392 -2.1596  1.9865  1.5649
 4817SOL     OW26083   3.293   4.168   8.087 -0.0022 -0.6813  0.1798
 4817SOL    HW126084   3.212   4.201   8.124 -0.6687 -0.9863 -1.0125
 4817SOL    HW226085   3.307   4.088   8.139  2.1001  0.5687  1.5528
 4818SOL     OW26086   1.964   3.415   1.783  0.2837  0.0516 -0.0234
 4818SOL    HW126087   1.876   3.398   1.816 -0.7660  2.8735 -1.3493
 4818SOL    HW226088   2.007   3.333   1.807 -0.6219 -0.9088 -1.6894
 4819SOL     OW26089   3.843   0.988  16.686  0.0012  0.6381  0.1114
 4819SOL    HW126090   3.840   0.907  16.636  1.2875  1.4474 -1.2594
 4819SOL    HW226091   3.937   0.988  16.706  0.5346  0.7246 -2.4323
 4820SOL     OW26092   2.665   0.156   7.136 -0.2533 -0.4176 -0.0958
 4820SOL    HW126093   2.599   0.203   7.086 -3.1105 -1.4773  2.6862
 4820SOL    HW226094   2.613   0.104   7.197 -1.0283 -0.8847 -1.1600
 4821SOL     OW26095   2.081   2.934   2.623  0.5221 -0.0090  0.4319
 4821SOL    HW126096   2.096   3.020   2.661  2.4891  0.0566 -0.4859
 4821SOL    HW226097   1.996   2.938   2.581  1.1133 -2.2156 -0.9673
 4822SOL     OW26098   2.697   0.544   5.604  0.2541  0.0496  0.1983
 4822SOL    HW126099   2.686   0.563   5.697 -1.0959  1.7032 -0.3050
 4822SOL    HW226100   2.621   0.596   5.581 -0.0133 -1.3475 -2.0542
 4823SOL     OW26101   2.320   3.510   4.698 -0.1442  0.6501 -0.5035
 4823SOL    HW126102   2.333   3.565   4.621  0.9505 -1.1267 -1.6117
 4823SOL    HW226103   2.246   3.458   4.664  0.5911  0.4789 -1.8433
 4824SOL     OW26104   0.379   0.677   3.340 -0.3979  0.2902 -0.1727
 4824SOL    HW126105   0.456   0.692   3.285 -0.6767 -0.7996 -0.8511
 4824SOL    HW226106   0.306   0.639   3.290  0.1689 -0.7471 -0.2147
 4825SOL     OW26107   1.449   1.395   5.277 -0.7811 -0.2202 -0.3043
 4825SOL    HW126108   1.494   1.352   5.349 -0.1515 -3.0923 -2.4381
 4825SOL    HW226109   1.522   1.446   5.244 -1.7298  2.1069  1.1934
 4826SOL     OW26110   2.877   0.754   3.397  0.3963 -0.0921 -0.2514
 4826SOL    HW126111   2.923   0.830   3.361 -0.8174 -0.1932 -1.9800
 4826SOL    HW226112   2.807   0.801   3.441 -0.3337  0.6944 -2.2436
 4827SOL     OW26113   2.829   4.179   9.646 -0.3561  0.0290 -0.5791
 4827SOL    HW126114   2.890   4.243   9.610 -0.5309  1.1950  1.2274
 4827SOL    HW226115   2.772   4.232   9.701 -0.4635 -0.8893  0.1855
 4828SOL     OW26116   1.386   3.095  16.449  0.0988  0.0886 -0.3183
 4828SOL    HW126117   1.348   3.099  16.537 -2.4352  0.0228 -1.3979
 4828SOL    HW226118   1.367   3.181  16.413  1.4105 -0.3601 -2.0941
 4829SOL     OW26119   2.155   3.862   5.217 -0.0171 -0.0103 -0.6817
 4829SOL    HW126120   2.082   3.873   5.157 -0.9042 -1.7092  0.1023
 4829SOL    HW226121   2.212   3.812   5.159  0.9719 -0.4036  0.6160
 4830SOL     OW26122   2.409   4.525  12.529 -0.0498 -0.5619  0.7486
 4830SOL    HW126123   2.490   4.500  12.486 -0.3226 -1.3744  0.6953
 4830SOL    HW226124   2.394   4.450  12.587 -0.3973 -1.4324 -0.4793
 4831SOL     OW26125   2.047   2.216   3.105 -0.4345 -0.4748  0.5794
 4831SOL    HW126126   2.093   2.134   3.121  0.8995  0.2597  0.4553
 4831SOL    HW226127   2.004   2.231   3.189 -1.9576 -1.0922 -0.0907
 4832SOL     OW26128   1.992   1.525  14.019 -0.0062 -0.0826 -0.5707
 4832SOL    HW126129   1.916   1.524  14.077 -0.5136 -2.0521 -1.2745
 4832SOL    HW226130   2.027   1.614  14.029 -2.1022  0.6870  0.0009
 4833SOL     OW26131   4.383   0.579  16.295 -0.0528  0.5208  0.1968
 4833SOL    HW126132   4.331   0.585  16.215 -0.1347  1.4060  0.3117
 4833SOL    HW226133   4.357   0.664  16.332  1.0428  0.6834  0.5779
 4834SOL     OW26134   2.414   3.757   8.008  0.3320 -0.7642 -0.0395
 4834SOL    HW126135   2.510   3.759   8.005  0.2329  2.5107 -0.3904
 4834SOL    HW226136   2.396   3.742   8.101  0.3193  0.1392  0.1007
 4835SOL     OW26137   2.358   4.726  14.186 -0.3443  0.2804  0.2669
 4835SOL    HW126138   2.366   0.082  14.198  0.1788  0.3857 -0.9521
 4835SOL    HW226139   2.417   4.707  14.114  0.8203  0.2618  1.2249
 4836SOL     OW26140   3.934   0.728   6.844  0.0466  0.4970 -0.1131
 4836SOL    HW126141   3.905   0.730   6.753  1.4835  0.5760 -0.5668
 4836SOL    HW226142   4.022   0.765   6.836  1.2741 -2.4514 -0.2478
 4837SOL     OW26143   0.427   2.828   3.896  0.4479 -0.1244  0.0034
 4837SOL    HW126144   0.332   2.841   3.903  0.6451  0.4901  1.5490
 4837SOL    HW226145   0.430   2.819   3.801 -0.5657 -1.0590  0.0601
 4838SOL     OW26146   3.770   3.182   9.333 -0.2100 -0.7790 -0.4291
 4838SOL    HW126147   3.838   3.165   9.269 -0.1423 -2.5090  0.0968
 4838SOL    HW226148   3.818   3.134   9.401  1.9793 -0.2879 -1.6377
 4839SOL     OW26149   3.096   3.509   4.925 -0.7696 -0.5167 -0.3858
 4839SOL    HW126150   3.095   3.420   4.960  0.7168  0.4258  2.0975
 4839SOL    HW226151   3.005   3.527   4.949 -0.4839 -0.6110  0.7959
 4840SOL     OW26152   2.067   2.976   4.487 -0.6461 -0.1453  0.3515
 4840SOL    HW126153   2.080   2.895   4.537  0.5575  0.2075  0.6186
 4840SOL    HW226154   2.140   2.974   4.425 -0.0494 -0.7523  1.0628
 4841SOL     OW26155   3.749   0.139  17.633 -0.5148  0.5868  0.3979
 4841SOL    HW126156   3.735   0.120  17.540  1.5482 -0.0462  0.2076
 4841SOL    HW226157   3.823   0.086  17.663  0.3497  1.1188 -0.7685
 4842SOL     OW26158   2.158   3.376  12.593  0.0718 -0.1602  0.1784
 4842SOL    HW126159   2.233   3.325  12.563  0.1524  0.2320 -0.2825
 4842SOL    HW226160   2.193   3.465  12.596  1.2786 -0.6084 -0.9727
 4843SOL     OW26161   4.332   0.675  14.597  0.4402  0.0876  0.1682
 4843SOL    HW126162   4.305   0.726  14.674  0.7568 -1.2784  1.1876
 4843SOL    HW226163   4.270   0.602  14.596  0.8751 -0.2618 -0.7238
 4844SOL     OW26164   2.580   3.639   3.137 -0.1393 -0.0739 -0.0418
 4844SOL    HW126165   2.612   3.552   3.161 -1.3044 -0.8461 -1.2459
 4844SOL    HW226166   2.628   3.694   3.198 -2.3834  0.9036  0.8440
 4845SOL     OW26167   2.808   4.578   6.356 -0.3173  0.2961  0.0214
 4845SOL    HW126168   2.853   4.601   6.437  0.6838  2.3364 -1.1228
 4845SOL    HW226169   2.823   4.649   6.294  2.2199 -0.3303 -0.0685
 4846SOL     OW26170   3.070   1.546   9.561  0.5685  0.2188 -0.1307
 4846SOL    HW126171   2.982   1.576   9.582  0.9946  2.0801 -1.0053
 4846SOL    HW226172   3.124   1.610   9.607  0.6737 -0.3026  0.4731
 4847SOL     OW26173   3.965   2.606   9.268  0.3156  0.1444  0.2769
 4847SOL    HW126174   4.019   2.682   9.246 -0.4516  0.0809 -1.8883
 4847SOL    HW226175   3.899   2.654   9.318 -1.9244 -1.7877 -0.8354
 4848SOL     OW26176   1.603   0.339   3.629  0.1933  0.6077  0.8939
 4848SOL    HW126177   1.638   0.403   3.567 -1.2351 -0.2027 -0.7237
 4848SOL    HW226178   1.514   0.333   3.595  0.4822  2.2671 -0.1431
 4849SOL     OW26179   3.386   2.544  15.607 -0.3543 -0.1945 -0.0782
 4849SOL    HW126180   3.379   2.630  15.649 -1.1453  0.2989 -1.2226
 4849SOL    HW226181   3.352   2.568  15.521 -2.3137 -2.1248  0.1718
 4850SOL     OW26182   2.546   3.415   7.021 -0.3042 -0.4063 -0.1253
 4850SOL    HW126183   2.504   3.498   7.041  1.2867 -0.0173  1.5733
 4850SOL    HW226184   2.574   3.389   7.108  0.5570 -0.2190 -0.3485
 4851SOL     OW26185   2.362   1.543   2.441 -0.1198 -0.1337  0.5677
 4851SOL    HW126186   2.427   1.523   2.508  1.5712 -0.1287 -1.0927
 4851SOL    HW226187   2.395   1.480   2.377 -2.3941 -0.7995  0.0425
 4852SOL     OW26188   4.042   2.353   2.931 -0.1112 -0.4927  0.1734
 4852SOL    HW126189   4.060   2.264   2.961  1.8366 -0.0321  0.3837
 4852SOL    HW226190   3.966   2.386   2.979  1.0455  0.6040  1.2540
 4853SOL     OW26191   1.297   3.577  16.082 -0.0311 -0.1680  0.2314
 4853SOL    HW126192   1.379   3.577  16.131  2.2288  1.4308 -3.5112
 4853SOL    HW226193   1.274   3.669  16.095 -0.7441 -0.1999 -0.8002
 4854SOL     OW26194   4.466   0.928   6.141  0.2662 -0.1732  0.0172
 4854SOL    HW126195   4.509   1.010   6.165  0.4192 -0.6504  1.3824
 4854SOL    HW226196   4.409   0.948   6.068  0.5344 -0.7924 -0.3604
 4855SOL     OW26197   3.722   2.605   2.117 -0.4518 -0.4706  0.1082
 4855SOL    HW126198   3.645   2.550   2.128 -0.3273 -0.6458  0.0901
 4855SOL    HW226199   3.791   2.545   2.089 -0.6170 -2.1375  3.3087
 4856SOL     OW26200   4.047   4.708   8.350  0.1601  0.1099  0.0578
 4856SOL    HW126201   4.058   4.613   8.356 -0.3608 -0.1251 -2.6918
 4856SOL    HW226202   4.109   4.734   8.418  0.1676 -1.6533  0.7001
 4857SOL     OW26203   4.511   3.474   4.751 -0.5612  0.2677  0.5098
 4857SOL    HW126204   4.433   3.510   4.708 -1.1744  0.5040  1.8275
 4857SOL    HW226205   4.579   3.515   4.697 -0.1514 -0.7402  0.2709
 4858SOL     OW26206   4.611   1.680   7.964 -0.0093  0.2006 -0.0103
 4858SOL    HW126207   4.661   1.599   7.949  0.2086  0.5613 -1.2597
 4858SOL    HW226208   4.655   1.725   8.036  0.0387  0.6858 -0.3448
 4859SOL     OW26209   2.951   1.496   2.782  0.1277 -0.2746 -0.0029
 4859SOL    HW126210   3.040   1.512   2.815 -0.0632  4.0101 -1.5806
 4859SOL    HW226211   2.968   1.500   2.688  1.3839 -1.0832  0.2004
 4860SOL     OW26212   2.926   1.841   9.446  0.5295 -0.3725 -0.5777
 4860SOL    HW126213   2.873   1.882   9.378 -2.7236  0.7614  2.6099
 4860SOL    HW226214   2.973   1.920   9.472 -1.4782  0.1105  1.5918
 4861SOL     OW26215   2.218   1.631   5.025 -0.3243  0.0407 -0.0666
 4861SOL    HW126216   2.206   1.668   5.112 -0.5826 -2.1380  0.8431
 4861SOL    HW226217   2.128   1.607   5.002 -0.3655 -1.5855  1.7999
 4862SOL     OW26218   0.161   3.248   1.182 -0.1845 -0.5759  0.2672
 4862SOL    HW126219   0.187   3.339   1.196 -0.2703 -0.2498 -1.6639
 4862SOL    HW226220   0.140   3.245   1.088  0.4677 -2.8703  0.1879
 4863SOL     OW26221   3.820   3.647  11.691 -0.2460 -0.1773  0.5872
 4863SOL    HW126222   3.781   3.646  11.779  1.2633 -1.0388  1.2474
 4863SOL    HW226223   3.912   3.635  11.715  0.7473  1.1829 -2.4935
 4864SOL     OW26224   1.683   0.806   6.567 -0.3049 -0.2550  0.4655
 4864SOL    HW126225   1.770   0.840   6.590  0.4108 -0.6250 -1.6415
 4864SOL    HW226226   1.653   0.878   6.510 -1.7375 -2.0036 -0.9889
 4865SOL     OW26227   3.009   3.635   3.192  0.4187 -0.3621  0.2428
 4865SOL    HW126228   2.968   3.691   3.127 -1.0990 -0.9310  0.7112
 4865SOL    HW226229   2.938   3.641   3.257  0.6744  1.4035  0.3595
 4866SOL     OW26230   3.527   2.927   9.513  0.2188  0.0134  0.2319
 4866SOL    HW126231   3.500   2.966   9.596 -0.7372 -1.7491  0.7491
 4866SOL    HW226232   3.453   2.868   9.495  1.7598 -0.9638 -2.8329
 4867SOL     OW26233   3.681   2.147  12.779  0.2570  0.0209  0.0539
 4867SOL    HW126234   3.680   2.085  12.852 -2.2624 -0.1619 -0.1418
 4867SOL    HW226235   3.725   2.092  12.714  1.3906 -0.0381  0.8673
 4868SOL     OW26236   2.013   4.232  12.873  0.3048  0.1531 -0.0926
 4868SOL    HW126237   1.956   4.254  12.799 -0.2487  1.6900  0.7969
 4868SOL    HW226238   2.086   4.198  12.821  1.0765  2.1019 -0.2705
 4869SOL     OW26239   4.571   2.417  13.106  0.0722 -0.2658 -0.1927
 4869SOL    HW126240   4.509   2.427  13.178  0.2861  0.3312 -0.0918
 4869SOL    HW226241   4.646   2.378  13.149 -0.5006 -0.7421  0.3732
 4870SOL     OW26242   1.277   3.460   9.675 -0.0313  0.1853 -0.5037
 4870SOL    HW126243   1.306   3.476   9.585 -1.5319 -1.6312 -1.2953
 4870SOL    HW226244   1.281   3.542   9.725 -0.2046  0.7737 -1.4654
 4871SOL     OW26245   1.208   0.724   1.611 -0.4426  0.1637 -0.0017
 4871SOL    HW126246   1.299   0.745   1.629 -0.2329  0.8151 -1.8239
 4871SOL    HW226247   1.167   0.728   1.697  0.1994 -2.4997  0.4371
 4872SOL     OW26248   0.943   3.812   3.554  0.1031 -0.0021  0.1189
 4872SOL    HW126249   1.021   3.757   3.557 -0.4142 -0.8067 -1.7953
 4872SOL    HW226250   0.875   3.749   3.576  0.2178 -0.0077  0.4707
 4873SOL     OW26251   0.484   4.550  16.239 -0.3311  0.0549 -0.2798
 4873SOL    HW126252   0.523   4.637  16.251  0.7054 -0.4669  0.0909
 4873SOL    HW226253   0.429   4.566  16.163 -0.9134  0.0082  0.1284
 4874SOL     OW26254   3.692   0.638   2.417 -0.2541  0.1635  0.0639
 4874SOL    HW126255   3.623   0.571   2.421  0.3931 -0.5617 -0.8276
 4874SOL    HW226256   3.768   0.587   2.388  0.8188  2.0538 -0.4734
 4875SOL     OW26257   0.293   3.905   9.276 -0.0657 -0.6785  0.1001
 4875SOL    HW126258   0.370   3.854   9.301 -0.3702 -0.8111  0.7471
 4875SOL    HW226259   0.227   3.880   9.340  0.0056  1.0971  0.8892
 4876SOL     OW26260   1.480   2.105  10.526  0.0794 -0.0900  0.0995
 4876SOL    HW126261   1.540   2.179  10.528  0.0824 -0.0584 -1.1802
 4876SOL    HW226262   1.431   2.124  10.446 -1.9641 -0.7093  1.2030
 4877SOL     OW26263   0.859   0.721  14.997  0.3812 -0.3866 -0.1027
 4877SOL    HW126264   0.857   0.756  14.908 -1.3821  1.9954  0.8757
 4877SOL    HW226265   0.887   0.631  14.979  3.6244  0.4243  0.8306
 4878SOL     OW26266   0.607   3.571   1.353  0.0578  0.0178  0.2390
 4878SOL    HW126267   0.663   3.648   1.365 -0.7253  0.3263  1.9335
 4878SOL    HW226268   0.628   3.530   1.437  2.7299 -1.4424 -1.1589
 4879SOL     OW26269   4.311   4.629   9.417  0.2717  0.4741 -0.0726
 4879SOL    HW126270   4.315   4.724   9.429  1.0437  0.0861  2.6649
 4879SOL    HW226271   4.402   4.607   9.396 -0.1258 -0.3844 -0.8754
 4880SOL     OW26272   4.394   0.888   2.769  0.3727 -0.3446  0.6891
 4880SOL    HW126273   4.344   0.825   2.821 -0.4664  2.6587  3.4782
 4880SOL    HW226274   4.475   0.855   2.808  0.5630 -0.5537  0.1251
 4881SOL     OW26275   2.172   2.422  12.804  0.0508 -0.3595 -0.0560
 4881SOL    HW126276   2.171   2.514  12.778  1.9180  0.8138  4.0127
 4881SOL    HW226277   2.263   2.424  12.836 -1.0365 -3.3168  3.2154
 4882SOL     OW26278   3.721   2.248   6.945  0.0630 -0.3335 -0.6578
 4882SOL    HW126279   3.625   2.245   6.934 -0.1161  0.0676  0.7882
 4882SOL    HW226280   3.731   2.343   6.940  2.5595 -0.6278 -1.3052
 4883SOL     OW26281   0.060   1.867   2.439 -0.2497  0.4216  0.4812
 4883SOL    HW126282   0.053   1.868   2.343 -1.2645 -0.3966  0.5423
 4883SOL    HW226283   4.733   1.930   2.469  1.7391  3.0026 -0.6780
 4884SOL     OW26284   0.124   0.213   8.674  0.0169 -0.0815  0.2898
 4884SOL    HW126285   0.071   0.141   8.641  2.3491 -2.7210  2.4201
 4884SOL    HW226286   0.183   0.243   8.605  0.0421 -1.8272 -0.4332
 4885SOL     OW26287   2.766   1.395   3.182  0.1790  0.5427 -0.0674
 4885SOL    HW126288   2.699   1.379   3.116  1.1213 -0.5969 -0.7447
 4885SOL    HW226289   2.726   1.379   3.267  0.3499  0.4772  0.0012
 4886SOL     OW26290   0.864   1.427   3.006 -0.1638 -0.0774  0.3892
 4886SOL    HW126291   0.829   1.379   2.930  0.3654  1.2044 -0.6672
 4886SOL    HW226292   0.943   1.458   2.961 -0.8902  1.4385  0.1552
 4887SOL     OW26293   0.486   4.572   6.965 -0.1905 -0.0218  0.1022
 4887SOL    HW126294   0.580   4.578   6.949 -0.9230  2.4949 -3.4145
 4887SOL    HW226295   0.459   4.527   6.884 -1.2954 -0.6293  0.8067
 4888SOL     OW26296   3.583   4.598  17.728  0.0619  0.5741  0.2430
 4888SOL    HW126297   3.543   4.561  17.649  0.4615 -1.9741  1.2326
 4888SOL    HW226298   3.558   4.532   0.041  0.7847  0.6843  0.6358
 4889SOL     OW26299   3.952   2.571  11.511 -0.9557 -0.1451  0.4264
 4889SOL    HW126300   3.942   2.612  11.597 -1.7404  1.8881 -0.6282
 4889SOL    HW226301   4.046   2.575  11.496 -0.6220 -2.8408  1.7906
 4890SOL     OW26302   0.333   1.451   4.247  0.3546 -0.6317  0.1608
 4890SOL    HW126303   0.316   1.453   4.341  2.3352 -0.6259  0.5149
 4890SOL    HW226304   0.242   1.457   4.218  0.0558  0.4193  1.3382
 4891SOL     OW26305   0.934   3.136   5.650 -0.1036  0.4244 -0.2626
 4891SOL    HW126306   0.967   3.049   5.625  1.0156  1.1938 -1.4532
 4891SOL    HW226307   0.879   3.162   5.577  0.2375 -0.6656 -0.9048
 4892SOL     OW26308   3.942   4.569   6.099  0.0605  0.0398  0.3500
 4892SOL    HW126309   3.870   4.553   6.161 -1.3699 -1.4360 -1.6877
 4892SOL    HW226310   3.926   4.502   6.033  2.0228  0.6319 -0.7266
 4893SOL     OW26311   2.848   2.916   0.359 -0.5267  0.1505  0.2781
 4893SOL    HW126312   2.896   2.911   0.276 -1.8889  0.6675 -0.5367
 4893SOL    HW226313   2.917   2.873   0.410 -1.4908 -0.2333  1.2512
 4894SOL     OW26314   0.078   2.659   7.255  0.0239 -0.0647 -0.0643
 4894SOL    HW126315   4.736   2.701   7.224 -0.3131 -0.4232  0.3438
 4894SOL    HW226316   0.081   2.693   7.345 -0.5525 -1.0239  0.3134
 4895SOL     OW26317   1.468   1.114   6.516  0.2158 -0.5219  0.4052
 4895SOL    HW126318   1.511   1.077   6.593  1.1095  0.7241  0.5055
 4895SOL    HW226319   1.487   1.207   6.531 -0.5432  0.0270 -2.0501
 4896SOL     OW26320   0.932   3.304   2.282 -0.8022  0.4143 -0.1993
 4896SOL    HW126321   0.843   3.336   2.269 -0.1778  1.9109 -0.8807
 4896SOL    HW226322   0.929   3.234   2.217 -1.5362  0.1398  0.1381
 4897SOL     OW26323   2.959   0.616   3.621  0.0282  0.2613  0.6401
 4897SOL    HW126324   2.879   0.592   3.667  0.0918  0.9447  1.1018
 4897SOL    HW226325   2.919   0.641   3.538 -0.9992  0.6474  1.2579
 4898SOL     OW26326   4.457   3.394   7.909  0.7561 -0.1184 -0.0336
 4898SOL    HW126327   4.422   3.333   7.844  1.5770 -0.6472  0.0269
 4898SOL    HW226328   4.475   3.465   7.848  0.5322 -0.2074 -0.2060
 4899SOL     OW26329   2.701   1.601   2.414 -0.2315 -0.2295 -0.1831
 4899SOL    HW126330   2.765   1.553   2.361 -0.8587 -2.4348  1.0260
 4899SOL    HW226331   2.738   1.689   2.410  0.4387 -0.4971  0.1202
 4900SOL     OW26332   2.150   2.766   6.001  0.1628 -0.0225  0.5774
 4900SOL    HW126333   2.098   2.689   5.978  0.6771 -0.3850  0.6335
 4900SOL    HW226334   2.198   2.747   6.081 -1.3189 -0.8192  1.2741
 4901SOL     OW26335   1.296   0.470   9.632 -0.2132  0.2026  0.2052
 4901SOL    HW126336   1.292   0.477   9.537  1.2277 -0.7246  0.0718
 4901SOL    HW226337   1.204   0.491   9.649 -0.7821 -0.9843 -1.3333
 4902SOL     OW26338   4.417   2.180   5.805  0.4676  0.1241 -0.1771
 4902SOL    HW126339   4.387   2.155   5.892 -0.6162  2.8651  0.2255
 4902SOL    HW226340   4.368   2.260   5.786 -0.6499 -0.4040  0.4752
 4903SOL     OW26341   3.306   2.063   9.169  0.2273 -0.6484  0.0017
 4903SOL    HW126342   3.352   2.136   9.127  0.2341 -0.0082  1.1299
 4903SOL    HW226343   3.238   2.110   9.216  1.4431 -0.8086  1.9017
 4904SOL     OW26344   1.886   2.546   3.898  0.3797 -0.1966 -0.1863
 4904SOL    HW126345   1.846   2.629   3.873 -1.1000 -0.9417 -0.2877
 4904SOL    HW226346   1.974   2.578   3.917  0.5105  1.6617 -3.8606
 4905SOL     OW26347   2.601   1.825   8.159 -0.2089 -0.1963  0.2500
 4905SOL    HW126348   2.587   1.761   8.228  1.1791 -0.6052  0.1578
 4905SOL    HW226349   2.599   1.780   8.074 -0.8892  2.0570 -0.9263
 4906SOL     OW26350   2.825   0.443   5.110 -0.4923 -0.2715  0.2799
 4906SOL    HW126351   2.771   0.507   5.156 -1.4184 -1.1331  0.4012
 4906SOL    HW226352   2.881   0.504   5.064  0.8425 -2.3818 -0.8756
 4907SOL     OW26353   3.355   2.112   7.899 -0.4534  0.0862  0.3689
 4907SOL    HW126354   3.289   2.135   7.964 -3.2262  0.6267 -2.6311
 4907SOL    HW226355   3.325   2.153   7.818  4.4403  0.8639 -1.0536
 4908SOL     OW26356   1.651   3.677   9.117 -0.0392 -0.0713  0.4491
 4908SOL    HW126357   1.650   3.772   9.102 -0.5810 -0.1837 -0.2616
 4908SOL    HW226358   1.744   3.656   9.113  0.4966  2.4496 -0.3717
 4909SOL     OW26359   4.728   2.569   1.903 -1.1586 -0.2169 -1.0384
 4909SOL    HW126360   0.041   2.576   1.983 -2.7643 -0.0149 -0.0176
 4909SOL    HW226361   4.642   2.564   1.945 -0.8419  0.0339 -0.3623
 4910SOL     OW26362   1.774   2.552   3.091  0.0595  0.7894 -0.3694
 4910SOL    HW126363   1.828   2.518   3.020  0.0012  1.1787 -0.5948
 4910SOL    HW226364   1.691   2.508   3.071 -0.2532  1.3923 -0.4025
 4911SOL     OW26365   1.656   0.513   9.862 -0.1210 -0.5200  0.2432
 4911SOL    HW126366   1.665   0.452   9.935 -1.7191 -0.3208  0.5924
 4911SOL    HW226367   1.624   0.465   9.786 -0.0841  0.7145 -0.5594
 4912SOL     OW26368   1.415   1.062   8.084  0.6093 -0.3088  0.0594
 4912SOL    HW126369   1.376   1.035   8.001 -0.5270  1.1018  0.1137
 4912SOL    HW226370   1.504   1.073   8.049  0.4315  3.3491  0.7021
 4913SOL     OW26371   2.106   0.823   4.008 -0.2955  0.0550  0.3091
 4913SOL    HW126372   2.022   0.798   4.048 -0.9649 -0.8092 -1.6473
 4913SOL    HW226373   2.092   0.916   3.989  3.2493  0.6395  0.6348
 4914SOL     OW26374   0.405   3.125   4.122  0.1355  0.0998 -0.2528
 4914SOL    HW126375   0.339   3.111   4.054 -0.1394 -2.2058  0.4842
 4914SOL    HW226376   0.357   3.143   4.203  1.0467 -1.2998  0.5987
 4915SOL     OW26377   1.506   3.099   8.039 -0.2396  0.1229  0.6331
 4915SOL    HW126378   1.593   3.112   8.001 -1.4604  2.6249 -1.3493
 4915SOL    HW226379   1.454   3.138   7.967 -0.5103  2.0361  1.8634
 4916SOL     OW26380   2.391   4.464  17.623 -0.3462  0.3473  0.4845
 4916SOL    HW126381   2.401   4.534  17.687 -0.0255  2.5230 -1.9388
 4916SOL    HW226382   2.327   4.404  17.662  2.1244 -1.5835  1.5868
 4917SOL     OW26383   0.168   4.419   4.701  0.1714 -0.6199 -0.0973
 4917SOL    HW126384   0.226   4.428   4.626  1.8669  0.9235  1.3902
 4917SOL    HW226385   0.189   4.329   4.724 -0.5627 -0.9748 -0.8238
 4918SOL     OW26386   3.807   1.180   3.936  0.3907  0.4711 -0.1479
 4918SOL    HW126387   3.799   1.221   3.850 -0.4705  1.0979  0.2262
 4918SOL    HW226388   3.715   1.181   3.964 -0.0179 -0.7993 -1.4079
 4919SOL     OW26389   0.018   3.218   3.374  0.0579  0.2639 -0.1139
 4919SOL    HW126390   4.667   3.187   3.357  0.2548  0.9197 -2.3633
 4919SOL    HW226391   0.014   3.295   3.317 -0.8923 -1.7154 -2.7356
 4920SOL     OW26392   2.432   0.336   9.268 -0.0636  0.4551  0.0203
 4920SOL    HW126393   2.411   0.426   9.242  1.6656  1.1288  0.9424
 4920SOL    HW226394   2.496   0.316   9.199 -0.4992  1.4058 -0.6519
 4921SOL     OW26395   2.227   0.036   6.662  0.6257  0.4874  0.1740
 4921SOL    HW126396   2.162   0.062   6.597  0.5297 -0.8927 -0.2660
 4921SOL    HW226397   2.290   4.727   6.609 -1.5430 -0.0990 -1.8761
 4922SOL     OW26398   2.949   1.947  10.375 -0.5642  0.1863 -0.4581
 4922SOL    HW126399   3.031   1.908  10.345  1.2916  1.6359  2.7796
 4922SOL    HW226400   2.929   1.889  10.448 -1.2299  1.2567  0.2014
 4923SOL     OW26401   2.334   3.475   7.912 -0.5163  0.3702  0.0663
 4923SOL    HW126402   2.366   3.546   7.968 -2.7166 -0.2721  2.1492
 4923SOL    HW226403   2.263   3.438   7.965 -0.8988  0.7941 -0.1544
 4924SOL     OW26404   0.732   2.507   1.934 -0.4500  1.0256 -0.2938
 4924SOL    HW126405   0.675   2.431   1.929 -2.0323  1.9269  4.0558
 4924SOL    HW226406   0.699   2.552   1.856 -0.5745 -0.0897 -0.8776
 4925SOL     OW26407   0.093   0.878   9.478  0.2421 -0.4920 -0.3041
 4925SOL    HW126408   0.054   0.965   9.477  1.7516  0.1999 -0.3308
 4925SOL    HW226409   0.098   0.840   9.390  0.6931  1.2317 -1.0238
 4926SOL     OW26410   0.197   1.200   2.264 -0.1761 -0.2010  0.2065
 4926SOL    HW126411   0.282   1.160   2.277 -0.4819 -0.4052  1.5207
 4926SOL    HW226412   0.200   1.261   2.338 -0.0726 -0.5593  0.4951
 4927SOL     OW26413   2.762   3.111   6.606  0.2675 -0.3922  0.3220
 4927SOL    HW126414   2.762   3.123   6.701 -0.9997  0.7958  0.1695
 4927SOL    HW226415   2.673   3.135   6.579  0.7472 -0.6337 -1.4383
 4928SOL     OW26416   1.889   2.838   7.296 -0.3390 -0.4410 -0.2101
 4928SOL    HW126417   1.898   2.743   7.304  1.2400 -0.1234  1.8869
 4928SOL    HW226418   1.874   2.834   7.201  1.2223 -0.6586 -0.4500
 4929SOL     OW26419   4.055   0.549   6.317  0.7038  0.0376  0.3061
 4929SOL    HW126420   4.072   0.590   6.232  0.6146 -0.4720  0.0437
 4929SOL    HW226421   3.962   0.530   6.306  0.7176  0.3730 -0.3489
 4930SOL     OW26422   1.249   4.134  10.564  0.1784 -0.2230 -0.3040
 4930SOL    HW126423   1.327   4.089  10.596  0.3911  0.3133 -0.0556
 4930SOL    HW226424   1.181   4.067  10.572  1.2819 -1.7254 -3.4313
 4931SOL     OW26425   0.185   4.447   6.293 -0.4942  0.0248 -0.2379
 4931SOL    HW126426   0.123   4.451   6.365  0.5575  1.3824  0.6165
 4931SOL    HW226427   0.150   4.525   6.249 -0.1638 -0.9475 -2.2071
 4932SOL     OW26428   4.563   4.121   5.706  0.4203 -0.6763  0.3748
 4932SOL    HW126429   4.569   4.074   5.789 -0.8848 -0.0056  0.8474
 4932SOL    HW226430   4.491   4.073   5.665 -0.5194  0.9564  0.1176
 4933SOL     OW26431   0.254   1.923  13.461 -0.1784 -0.0739 -0.1320
 4933SOL    HW126432   0.249   1.835  13.425 -0.1120  0.8957 -2.5347
 4933SOL    HW226433   0.338   1.916  13.506 -0.5452  1.1190  0.7438
 4934SOL     OW26434   0.108   3.133   9.358  0.3838  0.9623 -0.0960
 4934SOL    HW126435   0.195   3.123   9.321  0.1394  0.5938 -0.5664
 4934SOL    HW226436   0.111   3.227   9.376  2.1718  0.8165  0.3040
 4935SOL     OW26437   1.849   4.167   9.724  0.0689 -0.3333 -0.0892
 4935SOL    HW126438   1.889   4.200   9.805  2.1967 -1.5436 -0.6546
 4935SOL    HW226439   1.759   4.164   9.756 -0.8332  2.2941 -2.3866
 4936SOL     OW26440   1.113   0.455   4.346 -0.6339  0.0620 -0.1536
 4936SOL    HW126441   1.073   0.476   4.430 -1.2680  1.1393 -0.7251
 4936SOL    HW226442   1.074   0.524   4.292 -0.2637  0.2092 -0.2325
 4937SOL     OW26443   2.055   0.584   7.246  0.0263  0.3011 -0.2830
 4937SOL    HW126444   2.025   0.514   7.305 -1.5796  0.1071 -1.3373
 4937SOL    HW226445   2.074   0.652   7.310 -2.0229  1.5564 -1.0248
 4938SOL     OW26446   0.582   2.676  10.418 -0.7636  0.5270 -0.4335
 4938SOL    HW126447   0.514   2.721  10.468 -0.0645 -0.8774  1.7258
 4938SOL    HW226448   0.549   2.587  10.431 -1.4335  0.8522  0.1005
 4939SOL     OW26449   1.945   2.728  14.708  0.4390 -0.2061 -1.0538
 4939SOL    HW126450   1.961   2.736  14.615 -0.1959  0.0476 -1.1418
 4939SOL    HW226451   1.880   2.798  14.718  0.7125 -0.0685 -0.2395
 4940SOL     OW26452   2.853   3.308   7.375 -0.1913  0.2978 -1.1664
 4940SOL    HW126453   2.768   3.297   7.332 -0.7510  1.1941 -0.2787
 4940SOL    HW226454   2.832   3.382   7.432  2.7607 -1.6761  2.4982
 4941SOL     OW26455   0.690   3.685   9.862  0.0750  0.3069 -0.3286
 4941SOL    HW126456   0.690   3.590   9.878  2.4163  0.3223 -0.2658
 4941SOL    HW226457   0.599   3.711   9.876  0.1633 -0.0090  0.8319
 4942SOL     OW26458   0.751   2.626  17.216  0.3534 -0.4499  0.0493
 4942SOL    HW126459   0.755   2.603  17.124 -0.2274 -1.6604  0.3291
 4942SOL    HW226460   0.691   2.701  17.210  1.7335  0.7917  1.6436
 4943SOL     OW26461   3.768   0.284  14.287 -0.2801  0.2430 -0.2136
 4943SOL    HW126462   3.815   0.357  14.329 -2.5394  1.1170  0.7953
 4943SOL    HW226463   3.686   0.275  14.336 -1.3090  3.4390 -1.3494
 4944SOL     OW26464   3.282   4.526  15.675 -0.1787  0.2264  0.2930
 4944SOL    HW126465   3.306   4.558  15.588 -0.1885  0.5663  0.4169
 4944SOL    HW226466   3.361   4.477  15.700  1.0195  0.9968 -1.9684
 4945SOL     OW26467   4.416   1.484  12.547 -0.1890 -0.0173 -0.3643
 4945SOL    HW126468   4.500   1.529  12.551 -0.9760  1.4047 -0.1628
 4945SOL    HW226469   4.419   1.455  12.638 -0.3628 -2.3510 -1.0817
 4946SOL     OW26470   0.012   3.296   3.893  0.2405 -0.7117 -0.2337
 4946SOL    HW126471   0.073   3.364   3.865  0.4358  0.2877  2.5942
 4946SOL    HW226472   4.717   3.276   3.806  0.7409 -0.6458 -0.4394
 4947SOL     OW26473   0.594   1.839   7.120  0.2787 -0.1933  0.5658
 4947SOL    HW126474   0.515   1.799   7.085  1.5141 -0.8642 -1.5202
 4947SOL    HW226475   0.622   1.764   7.172  0.9898 -0.6017 -0.3973
 4948SOL     OW26476   0.424   1.439  14.141  0.2325 -0.6155  0.1468
 4948SOL    HW126477   0.423   1.449  14.046  0.6481 -0.9511  0.1064
 4948SOL    HW226478   0.377   1.358  14.160 -1.7031  0.3064 -0.7175
 4949SOL     OW26479   3.655   0.933   0.320  0.2325 -0.1049 -0.5778
 4949SOL    HW126480   3.651   0.882   0.401  0.4743 -1.2842 -1.3040
 4949SOL    HW226481   3.750   0.931   0.303 -0.3144 -4.4365 -3.2513
 4950SOL     OW26482   3.368   0.768   6.627 -0.0810 -0.9053 -0.5633
 4950SOL    HW126483   3.388   0.783   6.719  0.4031 -1.3251 -0.5991
 4950SOL    HW226484   3.429   0.828   6.584 -1.2974 -0.0218 -1.0337
 4951SOL     OW26485   1.209   0.392   2.641  0.0635 -0.0268  0.0714
 4951SOL    HW126486   1.116   0.416   2.648  0.1636 -0.7249  3.9992
 4951SOL    HW226487   1.227   0.362   2.552 -2.1042  2.3284 -1.1538
 4952SOL     OW26488   2.784   4.275   1.580 -0.4145 -0.1200 -0.5523
 4952SOL    HW126489   2.825   4.190   1.598 -1.3341 -0.0458  1.8876
 4952SOL    HW226490   2.719   4.279   1.650  0.6330  1.9985  0.3077
 4953SOL     OW26491   3.925   0.658   5.571  0.2177  0.7063  0.2178
 4953SOL    HW126492   3.938   0.634   5.479  1.7717  1.3031  0.2835
 4953SOL    HW226493   3.835   0.625   5.578  1.2545 -2.2519 -0.3346
 4954SOL     OW26494   2.407   2.176   5.425  0.1725 -0.6928  0.8408
 4954SOL    HW126495   2.332   2.235   5.427  1.2842  0.8458 -3.2615
 4954SOL    HW226496   2.384   2.113   5.493  2.6891 -2.3619  0.1852
 4955SOL     OW26497   3.481   3.599   1.273 -0.0496  0.2696 -0.3670
 4955SOL    HW126498   3.531   3.640   1.344  0.3947 -3.3110  1.3784
 4955SOL    HW226499   3.497   3.665   1.205 -0.4633  1.4038  0.6363
 4956SOL     OW26500   3.929   1.194   8.738  0.3932  0.5359 -0.5437
 4956SOL    HW126501   3.913   1.268   8.679 -0.7590 -0.4389 -1.4512
 4956SOL    HW226502   3.862   1.208   8.805 -0.1401  1.0839 -1.1931
 4957SOL     OW26503   4.081   4.408   6.548 -0.2021 -0.4923 -0.0355
 4957SOL    HW126504   4.073   4.314   6.532 -1.6563 -0.4632  0.5729
 4957SOL    HW226505   4.076   4.411   6.644 -0.1125  0.6278 -0.0738
 4958SOL     OW26506   1.028   0.155   7.108 -0.4549 -0.3808  0.2115
 4958SOL    HW126507   0.933   0.141   7.110 -0.7977  1.9175 -0.3429
 4958SOL    HW226508   1.046   0.112   7.024  0.9024 -1.7463  1.2039
 4959SOL     OW26509   2.270   1.606   6.105 -0.5133  0.6465 -0.1207
 4959SOL    HW126510   2.300   1.694   6.130  0.3252  0.1006  0.7877
 4959SOL    HW226511   2.352   1.561   6.124  0.1170  1.6067 -0.5429
 4960SOL     OW26512   3.007   0.910  10.392 -0.4051 -0.2660 -0.1804
 4960SOL    HW126513   3.086   0.888  10.343  0.0223  1.1679 -0.1450
 4960SOL    HW226514   2.954   0.951  10.323  2.6184  1.6900 -1.3170
 4961SOL     OW26515   4.612   2.308   1.826 -0.6534 -0.5743  0.4029
 4961SOL    HW126516   4.600   2.403   1.828 -1.2759 -0.6441 -0.1007
 4961SOL    HW226517   4.545   2.273   1.885 -0.9372 -0.3983  0.1849
 4962SOL     OW26518   3.227   2.945  12.168 -0.8001  0.5390  0.2357
 4962SOL    HW126519   3.284   2.892  12.222  0.9457  2.2677  0.0817
 4962SOL    HW226520   3.152   2.885  12.172  2.2230 -3.0835  2.5231
 4963SOL     OW26521   2.691   3.299  17.451  0.2434  0.6595 -0.4671
 4963SOL    HW126522   2.687   3.223  17.393  0.8636  1.4705 -1.5781
 4963SOL    HW226523   2.765   3.273  17.505  0.0692  2.0685  0.4570
 4964SOL     OW26524   3.034   4.692   1.104  0.0479 -0.0019 -0.0795
 4964SOL    HW126525   3.012   4.676   1.013 -1.7167  0.6663  0.2352
 4964SOL    HW226526   2.948   4.705   1.143  0.3718  1.1266  0.2533
 4965SOL     OW26527   2.103   0.808   5.780  0.3979 -0.1975  0.3976
 4965SOL    HW126528   2.100   0.877   5.714 -1.5882 -0.5517  0.1274
 4965SOL    HW226529   2.096   0.850   5.866  1.2721 -1.2832  0.9989
 4966SOL     OW26530   1.480   3.571   5.696 -0.4558 -0.9238  0.1656
 4966SOL    HW126531   1.504   3.643   5.637 -0.8726 -1.5880 -0.8215
 4966SOL    HW226532   1.566   3.567   5.736  0.0436  2.3382 -0.6034
 4967SOL     OW26533   1.015   0.371   5.943 -0.5469 -0.1948  0.3543
 4967SOL    HW126534   1.082   0.395   5.878 -1.3081  1.3666  0.1315
 4967SOL    HW226535   0.996   0.279   5.925 -2.2815  0.4760 -1.2664
 4968SOL     OW26536   3.920   2.103   8.414  0.0101  0.3267 -0.3689
 4968SOL    HW126537   3.842   2.149   8.384 -0.0073  0.7628  0.3456
 4968SOL    HW226538   3.910   2.101   8.509  3.8400 -1.5424 -0.0317
 4969SOL     OW26539   0.380   3.536   2.875  0.3379 -0.3771 -0.3751
 4969SOL    HW126540   0.338   3.611   2.833 -0.0341 -0.6825 -0.5429
 4969SOL    HW226541   0.348   3.469   2.815 -1.5901 -0.9535  1.3184
 4970SOL     OW26542   4.521   1.879   3.642 -0.2365  0.1472  0.2008
 4970SOL    HW126543   4.531   1.784   3.644 -0.6574  0.1617  2.4778
 4970SOL    HW226544   4.431   1.893   3.614 -0.6651  1.2507  2.1902
 4971SOL     OW26545   4.606   4.343   5.539 -0.2803 -0.4465 -0.5015
 4971SOL    HW126546   4.546   4.341   5.464 -0.0704 -0.9521 -0.6559
 4971SOL    HW226547   4.611   4.254   5.575  0.0461 -0.0794  0.3588
 4972SOL     OW26548   0.776   4.298   1.901 -0.0925  0.1058  0.3335
 4972SOL    HW126549   0.761   4.204   1.892 -1.2870  0.5251 -1.9299
 4972SOL    HW226550   0.810   4.296   1.991 -0.6004  2.0227  0.5666
 4973SOL     OW26551   2.943   3.175  17.510  0.4073  0.4060  0.8745
 4973SOL    HW126552   3.028   3.207  17.540  0.4655  0.5595  0.5471
 4973SOL    HW226553   2.982   3.117  17.444 -0.0925 -0.6580  1.5321
 4974SOL     OW26554   0.425   3.913  12.639 -0.4463  0.5944  0.1697
 4974SOL    HW126555   0.471   3.967  12.703 -2.2625  1.7790  0.4806
 4974SOL    HW226556   0.483   3.916  12.563 -0.5296  0.8731  0.1149
 4975SOL     OW26557   0.637   1.664   5.159  0.1621  0.7092  0.2359
 4975SOL    HW126558   0.718   1.677   5.110  0.4695 -0.8887  0.3318
 4975SOL    HW226559   0.615   1.755   5.176  0.7967  1.0588 -0.8016
 4976SOL     OW26560   0.936   2.281  12.287  0.6166  0.0814 -0.1337
 4976SOL    HW126561   0.889   2.349  12.335  0.2614 -0.1603 -0.1370
 4976SOL    HW226562   0.872   2.272  12.215  1.9751 -0.0242 -1.3207
 4977SOL     OW26563   1.448   3.196  17.478 -0.1316 -0.4858  0.3846
 4977SOL    HW126564   1.538   3.229  17.485  0.3601 -1.5727 -0.6953
 4977SOL    HW226565   1.390   3.271  17.491  0.8126  0.1890  0.7100
 4978SOL     OW26566   1.625   1.609  14.061 -0.3951 -0.9346  0.3795
 4978SOL    HW126567   1.605   1.702  14.053  1.7833 -0.5362 -0.5147
 4978SOL    HW226568   1.628   1.595  14.155  0.3090  1.1391  0.6464
 4979SOL     OW26569   4.087   1.161   7.792 -0.6311 -0.6960  0.1901
 4979SOL    HW126570   4.168   1.132   7.833  0.9399  0.9411 -1.7796
 4979SOL    HW226571   4.111   1.237   7.740 -1.4841 -1.5882 -1.5249
 4980SOL     OW26572   1.335   3.498   9.393  0.3156  0.1439  0.0829
 4980SOL    HW126573   1.403   3.520   9.330  0.5610  0.6650  0.5288
 4980SOL    HW226574   1.262   3.540   9.347  0.7334  2.1558  1.2776
 4981SOL     OW26575   0.973   1.022  10.278  0.0505  0.2051 -0.4410
 4981SOL    HW126576   0.913   0.972  10.334  0.5547 -0.6773 -0.6842
 4981SOL    HW226577   0.914   1.077  10.226 -1.4967  0.8680  2.0429
 4982SOL     OW26578   3.739   1.458  14.261  0.2617 -0.3172  0.0285
 4982SOL    HW126579   3.767   1.515  14.333  1.9183 -2.1164  0.8115
 4982SOL    HW226580   3.798   1.383  14.271  1.3043  0.5042  0.0789
 4983SOL     OW26581   0.391   3.239  17.025 -0.0999 -0.5311  0.2987
 4983SOL    HW126582   0.421   3.209  16.939  1.0759  0.3228  0.3992
 4983SOL    HW226583   0.465   3.205  17.076  0.5382  0.2556 -0.0802
 4984SOL     OW26584   4.322   0.055   1.337 -0.2952  0.6507 -0.0311
 4984SOL    HW126585   4.352   4.705   1.358  0.1299  0.9749  0.7238
 4984SOL    HW226586   4.309   0.044   1.243 -0.1394  1.5831 -0.1659
 4985SOL     OW26587   2.498   1.511   4.489 -0.5527 -0.1308  0.5386
 4985SOL    HW126588   2.459   1.571   4.426 -0.0450  2.7133  2.9334
 4985SOL    HW226589   2.555   1.573   4.535  0.1695 -0.3452 -0.0476
 4986SOL     OW26590   1.437   1.490   7.121 -0.0535 -0.3664  0.2865
 4986SOL    HW126591   1.497   1.560   7.094 -1.7754  1.1782  0.4418
 4986SOL    HW226592   1.359   1.508   7.068  0.5220 -0.2149 -0.5138
 4987SOL     OW26593   4.273   2.936   7.267  0.1899 -0.3162 -0.0121
 4987SOL    HW126594   4.294   2.843   7.282 -1.6690 -0.3805  2.1477
 4987SOL    HW226595   4.359   2.960   7.231 -1.3449 -0.3044 -3.6286
 4988SOL     OW26596   2.986   0.531  10.441 -0.2396 -0.3652  0.3787
 4988SOL    HW126597   3.069   0.579  10.447 -0.8996  1.0623 -2.0023
 4988SOL    HW226598   2.953   0.547  10.353 -0.9957 -1.9777  0.3645
 4989SOL     OW26599   3.811   3.380   1.313  0.3793  0.5058  0.2847
 4989SOL    HW126600   3.878   3.399   1.379  0.6838  0.1336  0.0757
 4989SOL    HW226601   3.816   3.454   1.252  1.2908  1.4404  1.4812
 4990SOL     OW26602   2.458   3.160  14.352 -0.4442 -0.1543  0.3404
 4990SOL    HW126603   2.459   3.178  14.446  1.5289 -1.9673  0.6720
 4990SOL    HW226604   2.369   3.181  14.326  0.0732  2.5158  0.7282
 4991SOL     OW26605   3.224   0.926   3.340  0.6192 -0.1200 -0.1991
 4991SOL    HW126606   3.236   0.841   3.297  0.7657  0.1234 -0.6417
 4991SOL    HW226607   3.260   0.916   3.428  2.2290 -2.1998 -1.1092
 4992SOL     OW26608   0.301   1.629   3.106  0.0464  0.3697  0.3497
 4992SOL    HW126609   0.291   1.591   3.193 -0.4060  0.2446  0.2411
 4992SOL    HW226610   0.211   1.615   3.076 -0.0381 -0.7428  1.1232
 4993SOL     OW26611   0.582   4.265   7.776 -0.1828  0.3103  0.7880
 4993SOL    HW126612   0.573   4.337   7.715 -0.3488 -0.8411 -0.5342
 4993SOL    HW226613   0.551   4.189   7.727  0.1715  0.3653  0.4830
 4994SOL     OW26614   1.024   2.263   9.489 -0.5024 -0.3801  0.6503
 4994SOL    HW126615   0.950   2.203   9.498 -1.0257  0.2670  0.6105
 4994SOL    HW226616   0.969   2.339   9.504  0.6282  0.2323  1.6574
 4995SOL     OW26617   2.857   3.114   3.600 -0.0813 -0.4105  0.4728
 4995SOL    HW126618   2.808   3.159   3.532  0.3083 -1.1593 -0.3054
 4995SOL    HW226619   2.782   3.085   3.653 -1.2764 -0.7321 -1.3951
 4996SOL     OW26620   0.924   4.026  13.028  0.2585 -0.8508  0.0221
 4996SOL    HW126621   1.003   4.079  13.011 -0.7133  0.1745 -1.2668
 4996SOL    HW226622   0.895   3.997  12.941 -0.5730 -3.2298  1.0873
 4997SOL     OW26623   2.263   1.307   5.764  0.0748 -0.7779  0.3198
 4997SOL    HW126624   2.287   1.265   5.681  3.1827 -1.5912  1.6603
 4997SOL    HW226625   2.223   1.388   5.733  0.3347 -0.0121  1.9954
 4998SOL     OW26626   2.487   4.604   6.219 -0.0977  0.1572 -0.4418
 4998SOL    HW126627   2.513   4.521   6.259  1.3116  0.2123 -1.2276
 4998SOL    HW226628   2.414   4.573   6.166 -0.9614 -0.3047  1.0145
 4999SOL     OW26629   0.914   0.681   2.495 -0.0444  0.0612  0.6147
 4999SOL    HW126630   0.923   0.592   2.461 -0.0486 -0.0087  0.8025
 4999SOL    HW226631   0.963   0.733   2.430 -3.3618  4.7508  1.8975
 5000SOL     OW26632   4.409   3.610  17.106  0.0834 -0.0191  0.0601
 5000SOL    HW126633   4.492   3.562  17.109  0.3447  0.4060 -0.4656
 5000SOL    HW226634   4.350   3.553  17.155 -0.3248 -0.6309 -1.1456
 5001SOL     OW26635   2.807   4.328  13.068 -1.1975 -0.0454 -0.2091
 5001SOL    HW126636   2.820   4.247  13.118 -0.3156  0.7112  0.7857
 5001SOL    HW226637   2.877   4.381  13.106 -0.7445 -2.1151  1.8941
 5002SOL     OW26638   0.489   0.081   6.529  0.1466 -0.0219 -0.2512
 5002SOL    HW126639   0.547   0.010   6.502 -1.3748 -1.4104  0.0858
 5002SOL    HW226640   0.548   0.130   6.586 -1.0560  1.7918 -0.5382
 5003SOL     OW26641   2.031   3.467   8.735 -0.2047  0.6111  0.3350
 5003SOL    HW126642   2.124   3.468   8.715 -0.8637 -0.4161 -2.6959
 5003SOL    HW226643   2.009   3.375   8.745 -1.1526  0.8744  0.7945
 5004SOL     OW26644   1.063   0.662   4.630  0.0095 -0.0434 -0.3652
 5004SOL    HW126645   1.124   0.705   4.571 -0.5308 -1.5483 -2.0161
 5004SOL    HW226646   1.070   0.714   4.710 -0.7752 -1.1732  0.4337
 5005SOL     OW26647   1.543   1.145   7.572  0.4527  0.3592  0.3665
 5005SOL    HW126648   1.471   1.107   7.521  0.1910 -1.1472  1.8828
 5005SOL    HW226649   1.608   1.076   7.566  0.1098 -0.0624  1.5055
 5006SOL     OW26650   1.989   1.447  11.009 -0.6110  0.3794 -0.1144
 5006SOL    HW126651   2.035   1.526  11.038 -0.9934  0.2690  0.8185
 5006SOL    HW226652   1.958   1.472  10.923  0.6052  1.0839 -0.3477
 5007SOL     OW26653   1.433   4.244   5.132  0.3180  0.5620 -0.2224
 5007SOL    HW126654   1.494   4.193   5.184 -1.4697 -0.1274  1.1866
 5007SOL    HW226655   1.384   4.173   5.090 -1.3483  1.3190  0.4366
 5008SOL     OW26656   0.921   3.515  15.982  0.0726  0.0575  0.1527
 5008SOL    HW126657   0.881   3.470  15.907  1.4141 -2.4446  0.9508
 5008SOL    HW226658   0.839   3.544  16.021 -0.5351 -0.9283 -0.3856
 5009SOL     OW26659   0.102   2.467   6.208  0.1052  0.2851  0.0904
 5009SOL    HW126660   0.021   2.484   6.257  0.5060 -2.4880  1.7463
 5009SOL    HW226661   0.110   2.372   6.209  2.0302  0.4535  0.5708
 5010SOL     OW26662   3.732   2.467   4.876 -0.1429 -0.0391 -0.4455
 5010SOL    HW126663   3.655   2.502   4.921 -0.1601 -0.7641  0.0804
 5010SOL    HW226664   3.768   2.545   4.833  1.7729 -2.3289 -3.0151
 5011SOL     OW26665   3.154   0.822  10.182 -0.3202 -0.8171 -0.5053
 5011SOL    HW126666   3.214   0.749  10.195  1.2814  0.4989 -0.4422
 5011SOL    HW226667   3.206   0.894  10.145 -2.2520  0.8324 -0.0329
 5012SOL     OW26668   0.496   2.809  16.893 -0.5435 -0.3522  0.6905
 5012SOL    HW126669   0.557   2.824  16.821 -2.6387  1.3893 -0.7005
 5012SOL    HW226670   0.422   2.868  16.881 -1.6856 -1.6817  1.2149
 5013SOL     OW26671   3.421   0.725   0.416 -0.6595 -0.1066 -0.1266
 5013SOL    HW126672   3.438   0.820   0.411 -0.5422 -0.0816  0.7791
 5013SOL    HW226673   3.503   0.693   0.453  0.4797  0.9959 -1.6681
 5014SOL     OW26674   3.567   0.348   6.556  0.2728 -0.2132 -0.2429
 5014SOL    HW126675   3.621   0.271   6.536  0.6221 -0.5517  1.9528
 5014SOL    HW226676   3.478   0.323   6.531 -0.8580  1.3455  2.2347
 5015SOL     OW26677   0.413   3.862   6.461 -0.2872 -0.3816 -0.7768
 5015SOL    HW126678   0.437   3.950   6.430 -1.2889  0.1525 -0.0365
 5015SOL    HW226679   0.489   3.809   6.436  0.0076  0.1219 -0.9421
 5016SOL     OW26680   4.653   0.334   9.869 -0.8386 -0.3164 -0.4107
 5016SOL    HW126681   4.705   0.410   9.842 -0.9254 -0.2402 -0.3652
 5016SOL    HW226682   4.589   0.338   9.798 -0.2620  1.0835 -0.8485
 5017SOL     OW26683   3.422   4.161   3.723  0.2310  0.2389 -0.4292
 5017SOL    HW126684   3.407   4.069   3.745  1.5418  0.0286 -0.4672
 5017SOL    HW226685   3.514   4.175   3.743 -0.4218  0.5938  2.4187
 5018SOL     OW26686   4.709   0.058   2.542 -0.3721 -0.0677 -0.3027
 5018SOL    HW126687   4.616   0.080   2.547 -0.5475 -0.6679 -0.9061
 5018SOL    HW226688   0.000   0.124   2.480  0.9696  0.2750  0.7070
 5019SOL     OW26689   1.158   1.862   7.528  0.0402  0.4421 -0.2093
 5019SOL    HW126690   1.147   1.769   7.511 -1.7472  0.1158  2.6263
 5019SOL    HW226691   1.089   1.905   7.478  0.1201  0.5988 -0.1851
 5020SOL     OW26692   0.268   4.561   4.250 -0.5795 -0.2738  0.2364
 5020SOL    HW126693   0.179   4.563   4.213 -0.4089 -1.6357 -0.2291
 5020SOL    HW226694   0.330   4.598   4.187 -0.2157  1.0128  1.3508
 5021SOL     OW26695   2.614   2.316   8.062  0.0070  0.5865  0.3099
 5021SOL    HW126696   2.706   2.335   8.078  0.2413  0.5599 -1.0066
 5021SOL    HW226697   2.632   2.235   8.015  0.8391 -0.0421  1.7158
 5022SOL     OW26698   3.087   2.581   3.740  0.0244 -0.1071 -0.3488
 5022SOL    HW126699   2.996   2.553   3.746  0.0744 -0.0840  0.4200
 5022SOL    HW226700   3.087   2.604   3.647 -1.9611 -1.1453 -0.6191
 5023SOL     OW26701   0.819   3.582  10.546 -0.2917  0.3272 -0.3476
 5023SOL    HW126702   0.848   3.664  10.506 -1.4352 -0.4058 -2.6350
 5023SOL    HW226703   0.788   3.540  10.466  1.1194 -0.3126 -0.5576
 5024SOL     OW26704   1.159   4.363   4.108 -0.2145 -0.7052 -0.3297
 5024SOL    HW126705   1.090   4.300   4.088 -0.1334 -0.2304 -2.0741
 5024SOL    HW226706   1.232   4.303   4.091  1.1892  0.4107  1.6504
 5025SOL     OW26707   3.823   2.287   8.809 -0.3935  0.3926 -0.5152
 5025SOL    HW126708   3.886   2.350   8.773 -0.3558  1.0678  0.7296
 5025SOL    HW226709   3.741   2.336   8.807  0.2973  1.6321  1.3614
 5026SOL     OW26710   3.188   2.884   2.622 -0.4635  0.1696 -0.3372
 5026SOL    HW126711   3.257   2.821   2.601  0.2245  0.8633 -0.1854
 5026SOL    HW226712   3.148   2.896   2.536  1.3360  1.2470 -1.0320
 5027SOL     OW26713   2.925   1.283   8.962  0.1875  0.0530  0.1818
 5027SOL    HW126714   2.836   1.315   8.949  0.3313 -0.8404 -2.9869
 5027SOL    HW226715   2.934   1.292   9.057  0.5866  2.4745 -0.0896
 5028SOL     OW26716   0.001   1.241   7.376 -0.4282  0.0508 -0.2906
 5028SOL    HW126717   0.093   1.268   7.379 -0.5055  0.1749  1.0253
 5028SOL    HW226718   4.713   1.241   7.468  0.7184  2.0721  0.0424
 5029SOL     OW26719   2.912   1.090   4.996 -0.2372  0.4117  0.0421
 5029SOL    HW126720   2.821   1.115   5.013 -1.4405 -2.4162 -2.1310
 5029SOL    HW226721   2.956   1.174   5.001 -1.3651  0.8720  2.1535
 5030SOL     OW26722   3.355   0.481   8.617 -0.0553 -0.3694  0.1171
 5030SOL    HW126723   3.429   0.431   8.582 -1.4295  0.1192 -3.4268
 5030SOL    HW226724   3.378   0.569   8.588 -1.4243  0.0430  0.2908
 5031SOL     OW26725   2.823   3.475   5.796 -0.2927 -0.0243  0.5191
 5031SOL    HW126726   2.778   3.396   5.767 -1.2663  0.6613  0.1528
 5031SOL    HW226727   2.755   3.513   5.852  2.3472  1.6201  2.6035
 5032SOL     OW26728   3.362   3.062  14.292 -0.3042  0.4287 -0.0920
 5032SOL    HW126729   3.383   3.136  14.235 -2.1455  0.5340 -0.6198
 5032SOL    HW226730   3.319   3.108  14.364 -1.2040 -0.5857  0.0282
 5033SOL     OW26731   4.269   4.211  13.637 -0.2667 -0.0878  0.8751
 5033SOL    HW126732   4.282   4.242  13.727 -1.5819  1.2676  0.5998
 5033SOL    HW226733   4.175   4.195  13.646 -0.8026  1.3195 -2.0246
 5034SOL     OW26734   2.892   2.935  11.983 -0.5172 -0.3644  0.3409
 5034SOL    HW126735   2.955   2.879  12.029  0.6507 -1.5697 -2.7522
 5034SOL    HW226736   2.944   2.957  11.905 -2.5004  3.4831  0.1299
 5035SOL     OW26737   1.844   3.079   9.308  0.0882  0.0540  0.3608
 5035SOL    HW126738   1.811   2.997   9.345  0.3575 -0.6013 -0.8656
 5035SOL    HW226739   1.887   3.048   9.229 -0.6298 -0.6807  0.2616
 5036SOL     OW26740   0.955   2.347   1.672  0.0351 -0.0812  0.2496
 5036SOL    HW126741   0.907   2.264   1.671  1.2323 -0.7488 -0.7529
 5036SOL    HW226742   0.903   2.396   1.608  0.9988  0.5922 -0.0097
 5037SOL     OW26743   2.027   1.079  15.456 -0.0997  0.1570 -0.3435
 5037SOL    HW126744   2.079   1.005  15.426 -1.9422 -1.4831  0.5109
 5037SOL    HW226745   2.049   1.143  15.388  1.9295 -0.6832 -0.4721
 5038SOL     OW26746   2.241   0.038  10.957  0.5187  0.4747 -0.1851
 5038SOL    HW126747   2.245   0.001  11.045 -1.8503  1.1502  0.2173
 5038SOL    HW226748   2.316   4.727  10.922 -0.6527 -1.2967 -0.2393
 5039SOL     OW26749   0.485   3.029   8.075  0.0036  0.1118  0.6586
 5039SOL    HW126750   0.414   3.053   8.015  0.6653 -2.0435 -0.9980
 5039SOL    HW226751   0.442   3.040   8.160 -0.1355  2.0902  0.3100
 5040SOL     OW26752   3.372   2.479   3.828 -0.4186  0.6357  0.2518
 5040SOL    HW126753   3.310   2.548   3.853 -0.9719  0.9601 -2.0217
 5040SOL    HW226754   3.339   2.425   3.756 -0.5357 -0.8001  1.3704
 5041SOL     OW26755   4.050   4.198   9.693  0.7552  0.3259  0.1131
 5041SOL    HW126756   4.117   4.247   9.646  0.0869 -1.1172 -2.3493
 5041SOL    HW226757   4.007   4.271   9.738  1.1805 -0.6209  2.0327
 5042SOL     OW26758   1.170   3.381  15.968 -0.0184  0.6207  0.2659
 5042SOL    HW126759   1.082   3.417  15.971  0.4037  1.8438 -1.9567
 5042SOL    HW226760   1.222   3.457  15.995  0.1392  0.1249  1.3727
 5043SOL     OW26761   0.622   1.018  16.915 -0.0887 -0.0934  0.0672
 5043SOL    HW126762   0.576   1.062  16.844 -2.5461 -3.1190 -0.2372
 5043SOL    HW226763   0.705   0.990  16.876 -0.7476 -0.8821 -0.7650
 5044SOL     OW26764   2.883   2.762   7.088 -0.1186 -0.3761  0.4030
 5044SOL    HW126765   2.903   2.792   7.177  1.0424  1.4350 -0.4548
 5044SOL    HW226766   2.790   2.782   7.095 -0.2002  0.0305 -1.9603
 5045SOL     OW26767   2.662   1.809  10.410 -0.1951  0.1768 -0.0337
 5045SOL    HW126768   2.617   1.773  10.487  2.5441 -1.4213  0.8586
 5045SOL    HW226769   2.737   1.750  10.406 -0.4502 -0.0508 -1.4509
 5046SOL     OW26770   2.707   1.454   1.776 -0.2496  0.4490 -0.4406
 5046SOL    HW126771   2.801   1.463   1.791 -0.1970 -0.5450 -0.1450
 5046SOL    HW226772   2.697   1.463   1.681 -3.3530 -3.8831 -0.5393
 5047SOL     OW26773   3.166   1.747  11.208  0.1907  0.5449 -0.1790
 5047SOL    HW126774   3.229   1.765  11.139 -0.2241  0.2711 -0.6341
 5047SOL    HW226775   3.144   1.655  11.197  0.3460  0.5334 -0.3886
 5048SOL     OW26776   3.962   3.545  14.963 -0.6329 -0.0003  0.3882
 5048SOL    HW126777   3.937   3.599  15.038  1.2170  1.0044  0.2762
 5048SOL    HW226778   3.969   3.464  15.014  1.8466 -0.5322 -0.7885
 5049SOL     OW26779   4.377   2.155   7.898  0.0624  0.5968  0.1897
 5049SOL    HW126780   4.419   2.080   7.856 -1.6062  0.6709 -1.5960
 5049SOL    HW226781   4.332   2.116   7.973 -1.5008  0.8083 -0.6463
 5050SOL     OW26782   2.821   2.716   3.708 -0.0214 -0.1781 -0.1074
 5050SOL    HW126783   2.888   2.711   3.640 -0.1375  1.8441 -0.3872
 5050SOL    HW226784   2.853   2.766   3.784 -1.0016 -1.4493  1.1356
 5051SOL     OW26785   3.465   4.053   7.642  0.0960  0.6146  0.0889
 5051SOL    HW126786   3.458   4.131   7.697  0.7726  2.4436 -2.4276
 5051SOL    HW226787   3.421   4.079   7.561  2.3084  0.4827 -1.1334
 5052SOL     OW26788   2.176   3.506   1.947 -0.3971  1.1044  0.3424
 5052SOL    HW126789   2.185   3.593   1.910  0.4356  0.5772 -0.6896
 5052SOL    HW226790   2.096   3.476   1.904  1.2891 -1.4136 -1.0886
 5053SOL     OW26791   2.884   1.045   2.064 -0.0426 -0.1685 -0.1449
 5053SOL    HW126792   2.859   0.998   2.144  0.2091  0.9595  0.6016
 5053SOL    HW226793   2.855   0.993   1.989 -0.4332 -0.5805  0.2876
 5054SOL     OW26794   0.680   2.862   8.553  0.0412 -0.7779 -0.3884
 5054SOL    HW126795   0.630   2.844   8.473  0.3523  1.1453 -1.0126
 5054SOL    HW226796   0.727   2.780   8.571  0.3642  0.1476  2.9221
 5055SOL     OW26797   3.175   1.860  10.265  0.3480 -0.3352 -0.0249
 5055SOL    HW126798   3.217   1.775  10.276 -0.4306 -0.7216 -0.0363
 5055SOL    HW226799   3.159   1.858  10.170  0.5504 -1.1784 -0.0460
 5056SOL     OW26800   4.597   1.581  10.199  0.4061  0.3141 -0.2886
 5056SOL    HW126801   4.666   1.514  10.203 -1.5178 -1.5461  2.1039
 5056SOL    HW226802   4.581   1.596  10.293 -0.0332 -3.1902  0.1899
 5057SOL     OW26803   4.311   3.417   3.508  0.0765  0.3043 -0.3472
 5057SOL    HW126804   4.269   3.411   3.594  0.5167 -0.5526 -0.1896
 5057SOL    HW226805   4.345   3.327   3.507  0.5168  0.4407  2.3104
 5058SOL     OW26806   2.710   1.607   3.718  0.2740  0.3291 -0.6138
 5058SOL    HW126807   2.697   1.561   3.801  1.7198 -0.3653 -0.7676
 5058SOL    HW226808   2.680   1.696   3.736 -0.7526 -0.3424  0.9505
 5059SOL     OW26809   3.528   0.336   1.658 -0.1497 -0.2035 -0.2152
 5059SOL    HW126810   3.458   0.309   1.717  0.8859 -0.2126  0.9871
 5059SOL    HW226811   3.601   0.302   1.709 -0.4760  0.7570  0.8763
 5060SOL     OW26812   0.526   0.169   2.547  0.2644  0.2933 -0.4528
 5060SOL    HW126813   0.577   0.113   2.488  1.0517  0.8305 -0.2845
 5060SOL    HW226814   0.530   0.248   2.494 -1.0594 -1.6686 -3.4597
 5061SOL     OW26815   2.746   1.349   7.177 -0.0623 -0.0966  0.2707
 5061SOL    HW126816   2.748   1.277   7.113  1.8442 -1.5485  1.9506
 5061SOL    HW226817   2.747   1.302   7.260 -0.8987  3.0885  2.0681
 5062SOL     OW26818   2.987   1.907  13.866  0.5426 -0.1216  0.2244
 5062SOL    HW126819   3.061   1.910  13.927  0.2958  0.7869  0.4927
 5062SOL    HW226820   2.917   1.866  13.917  0.4673 -0.1479  0.1010
 5063SOL     OW26821   2.802   4.065   1.134  0.5830 -0.1322 -0.1091
 5063SOL    HW126822   2.873   4.110   1.181 -0.0385 -0.5601  1.2567
 5063SOL    HW226823   2.794   4.110   1.050 -0.1613 -1.7993 -0.9344
 5064SOL     OW26824   2.734   3.973   8.313  0.0774  0.6708 -0.2856
 5064SOL    HW126825   2.760   4.064   8.330  0.0973  0.7240 -0.6117
 5064SOL    HW226826   2.780   3.972   8.229  0.4481  0.3286 -0.0786
 5065SOL     OW26827   2.159   2.577   3.821 -0.2577  0.0392 -0.4088
 5065SOL    HW126828   2.157   2.622   3.737 -2.1436  1.7496  0.5484
 5065SOL    HW226829   2.199   2.495   3.792  0.0675  0.0984 -0.1349
 5066SOL     OW26830   4.690   3.262   7.084 -0.3928 -0.6181 -1.0277
 5066SOL    HW126831   4.675   3.318   7.007  0.3485 -0.8309 -1.3302
 5066SOL    HW226832   0.005   3.191   7.048  0.8341 -0.0365 -0.3563
 5067SOL     OW26833   2.417   0.415   2.971 -0.0650 -0.0087 -0.3907
 5067SOL    HW126834   2.362   0.358   2.917 -1.4893 -2.3148  3.4931
 5067SOL    HW226835   2.383   0.408   3.060  0.6432  3.0527  0.1073
 5068SOL     OW26836   3.647   2.285  16.978 -0.1542 -0.3612 -0.4298
 5068SOL    HW126837   3.639   2.363  16.922 -0.8448 -0.1539 -0.0410
 5068SOL    HW226838   3.741   2.294  16.990 -0.4605 -0.3426  1.8935
 5069SOL     OW26839   3.204   2.890   6.706 -0.0696  0.2135 -0.0235
 5069SOL    HW126840   3.157   2.973   6.702  0.6574  0.6401  0.1370
 5069SOL    HW226841   3.154   2.842   6.772  0.4535  2.0415  1.7217
 5070SOL     OW26842   1.812   1.942  13.861  0.5260  0.2815 -0.5032
 5070SOL    HW126843   1.900   1.905  13.871  0.2347  0.3706  2.4721
 5070SOL    HW226844   1.782   1.939  13.952  0.5933 -1.5381 -0.5405
 5071SOL     OW26845   2.557   4.487   5.171  0.0944  0.1286 -0.3222
 5071SOL    HW126846   2.542   4.456   5.082 -0.8027 -0.4162  0.0181
 5071SOL    HW226847   2.646   4.520   5.159  0.3169 -1.6958 -3.5052
 5072SOL     OW26848   2.845   4.645   4.877  0.1068 -0.3178  0.7456
 5072SOL    HW126849   2.842   0.000   4.895  0.4871 -0.2635  0.5309
 5072SOL    HW226850   2.782   4.649   4.804  1.1226 -0.5526 -0.1479
 5073SOL     OW26851   2.257   2.111   4.518 -0.2245 -0.0791 -0.1925
 5073SOL    HW126852   2.236   2.204   4.530  0.0479 -0.0334 -0.0709
 5073SOL    HW226853   2.327   2.112   4.583 -1.9644  2.6481  1.6717
 5074SOL     OW26854   4.267   0.616  11.378  0.2452  0.0552  0.0295
 5074SOL    HW126855   4.345   0.575  11.416  0.4727  0.6985  0.2525
 5074SOL    HW226856   4.229   0.665  11.451 -1.3816  1.8737 -2.0617
 5075SOL     OW26857   2.157   4.505  11.516 -0.2676 -0.1507 -0.0313
 5075SOL    HW126858   2.084   4.535  11.569  0.4620  0.4632  0.6289
 5075SOL    HW226859   2.116   4.426  11.481  3.2648 -1.9008 -0.2403
 5076SOL     OW26860   3.203   4.130  14.345 -0.2032 -0.1405  0.1599
 5076SOL    HW126861   3.193   4.204  14.405 -0.2451  1.5146 -1.8761
 5076SOL    HW226862   3.179   4.180  14.266  0.7672 -2.7024 -1.7713
 5077SOL     OW26863   1.980   2.333   9.669  0.0912 -0.0485 -0.4817
 5077SOL    HW126864   2.038   2.258   9.676  3.0307  2.1887 -0.7027
 5077SOL    HW226865   1.896   2.295   9.695 -0.7661  2.2037  0.1029
 5078SOL     OW26866   0.211   3.592   1.873  0.8966  0.0351 -0.0876
 5078SOL    HW126867   0.233   3.507   1.835  0.0414  0.7818 -2.2708
 5078SOL    HW226868   0.178   3.636   1.795  0.5924  0.8944  0.5265
 5079SOL     OW26869   4.553   0.640   2.027  0.3343  0.1772  0.0298
 5079SOL    HW126870   4.555   0.564   1.968 -0.8395  0.7686 -0.7919
 5079SOL    HW226871   4.571   0.713   1.968  0.0914 -1.4985 -2.1255
 5080SOL     OW26872   4.174   2.235  10.732 -0.3940  0.0574  0.0530
 5080SOL    HW126873   4.208   2.150  10.759  0.1207 -0.2540 -1.5518
 5080SOL    HW226874   4.219   2.246  10.648  0.4989 -2.1167  0.2491
 5081SOL     OW26875   0.171   2.820   3.936 -0.1907 -0.1527  0.2685
 5081SOL    HW126876   0.123   2.852   4.012 -0.1864  0.1415  0.1475
 5081SOL    HW226877   0.135   2.731   3.935 -0.8821  0.1393 -2.0207
 5082SOL     OW26878   3.759   3.264   6.320 -0.3105  0.1531 -0.7994
 5082SOL    HW126879   3.707   3.188   6.346 -2.2397  1.3164 -1.3072
 5082SOL    HW226880   3.830   3.218   6.274  1.3888  3.1082 -1.1091
 5083SOL     OW26881   2.588   0.947   6.270 -0.1693 -0.4960  0.4163
 5083SOL    HW126882   2.519   0.882   6.266 -2.5802  2.1794 -1.8067
 5083SOL    HW226883   2.577   0.997   6.351  0.1495 -0.2307  0.2988
 5084SOL     OW26884   4.083   1.204   3.794  0.0418  0.4805 -0.0029
 5084SOL    HW126885   4.086   1.126   3.739  0.1978 -0.4526  1.3188
 5084SOL    HW226886   4.011   1.187   3.856  1.2809 -0.4070  1.2096
 5085SOL     OW26887   2.186   2.879   3.540  0.1937  0.1540 -0.3573
 5085SOL    HW126888   2.225   2.943   3.600 -2.5653 -0.3999  2.0570
 5085SOL    HW226889   2.249   2.808   3.551 -0.5984 -0.7477 -1.6191
 5086SOL     OW26890   3.467   2.822   7.709  0.6210  0.0913  0.0980
 5086SOL    HW126891   3.483   2.881   7.783  1.2975 -0.3829  0.3225
 5086SOL    HW226892   3.543   2.847   7.657  0.6824  1.3957  0.7895
 5087SOL     OW26893   1.657   2.469   9.226  0.3687  1.0791 -0.4144
 5087SOL    HW126894   1.640   2.392   9.280  2.1856 -0.5703 -2.1908
 5087SOL    HW226895   1.732   2.500   9.276 -0.0143  2.3784 -0.6346
 5088SOL     OW26896   2.338   2.349   4.040  0.3472  0.0265 -0.3597
 5088SOL    HW126897   2.289   2.340   3.958 -1.1929  2.6038  0.2856
 5088SOL    HW226898   2.276   2.301   4.096  1.8751 -0.8567  0.5840
 5089SOL     OW26899   1.024   4.326   5.347 -0.9751 -0.0734 -0.3090
 5089SOL    HW126900   1.054   4.331   5.256 -1.4247 -2.2355 -0.5695
 5089SOL    HW226901   1.032   4.231   5.356  1.5129  0.2179  0.8374
 5090SOL     OW26902   1.548   1.081   5.203  0.4251 -0.0832 -0.1543
 5090SOL    HW126903   1.581   1.124   5.282  1.1863  0.6029 -0.8405
 5090SOL    HW226904   1.569   0.994   5.235 -2.4839 -0.1279  1.6385
 5091SOL     OW26905   2.542   0.375  14.794 -0.3655  0.0938  0.3509
 5091SOL    HW126906   2.593   0.406  14.719 -0.1674 -1.4033 -0.1467
 5091SOL    HW226907   2.622   0.369  14.846 -0.7103  0.0664  0.8765
 5092SOL     OW26908   1.755   3.327   9.269  0.0275 -1.0450  0.5270
 5092SOL    HW126909   1.822   3.355   9.206  0.5836 -2.4271  0.5213
 5092SOL    HW226910   1.786   3.239   9.291 -0.2533 -1.8462 -2.2843
 5093SOL     OW26911   2.705   0.209   3.421  0.0729 -0.5917 -0.5434
 5093SOL    HW126912   2.673   0.285   3.373 -1.5087 -0.7588  0.2640
 5093SOL    HW226913   2.782   0.197   3.365 -0.9248 -1.2279 -1.7530
 5094SOL     OW26914   1.986   0.694   5.480  0.1162  0.0945 -0.3479
 5094SOL    HW126915   2.046   0.750   5.431  1.3128 -2.1541 -1.4262
 5094SOL    HW226916   2.014   0.608   5.449 -1.5603  0.1843 -2.1204
 5095SOL     OW26917   2.759   3.762   2.581  0.0148  0.4380  0.5540
 5095SOL    HW126918   2.791   3.673   2.597 -2.1667 -0.4792 -0.2005
 5095SOL    HW226919   2.808   3.773   2.500  1.0167 -2.4539  0.7699
 5096SOL     OW26920   2.333   4.364   6.935 -0.1972  0.2123  0.1917
 5096SOL    HW126921   2.408   4.373   6.876 -2.2942  0.0672 -2.5049
 5096SOL    HW226922   2.364   4.314   7.010 -0.4753  0.4339  0.4514
 5097SOL     OW26923   0.088   0.429   4.663 -0.4722  0.0325 -0.2103
 5097SOL    HW126924   0.155   0.491   4.689  0.6003 -0.6330 -1.3673
 5097SOL    HW226925   0.143   0.354   4.641 -1.1554 -0.7620  0.7616
 5098SOL     OW26926   4.380   2.076   4.674 -0.1287  0.3767  0.6785
 5098SOL    HW126927   4.356   2.119   4.592 -0.3826 -2.6293 -0.7886
 5098SOL    HW226928   4.466   2.045   4.646  0.9103  3.0494  0.8282
 5099SOL     OW26929   2.852   4.616   7.780  0.0949 -0.4251  0.2743
 5099SOL    HW126930   2.801   4.656   7.851  0.2772  0.6079 -0.1717
 5099SOL    HW226931   2.939   4.656   7.781  0.7622 -1.9436  2.7813
 5100SOL     OW26932   3.587   0.427   4.986 -0.4526 -0.2998  0.0808
 5100SOL    HW126933   3.502   0.383   4.976 -0.1705 -0.8766  0.1926
 5100SOL    HW226934   3.617   0.383   5.065 -1.9224  1.6588  1.7173
 5101SOL     OW26935   2.215   2.695   4.739 -0.6297 -0.5197  0.4056
 5101SOL    HW126936   2.146   2.629   4.750  0.4605 -1.8218 -0.4994
 5101SOL    HW226937   2.162   2.771   4.763 -1.6387 -1.6075  1.6350
 5102SOL     OW26938   1.692   3.435   8.764  0.5512 -0.5405  0.5209
 5102SOL    HW126939   1.784   3.441   8.789  0.9521 -1.6796 -0.6546
 5102SOL    HW226940   1.699   3.367   8.697  1.2501 -1.2867  1.3558
 5103SOL     OW26941   3.451   1.709  16.960  0.0986 -0.0485  0.2437
 5103SOL    HW126942   3.462   1.801  16.936 -0.2481 -0.0319  0.1592
 5103SOL    HW226943   3.418   1.672  16.878 -2.7075  1.1577  0.8545
 5104SOL     OW26944   0.644   0.975   8.573 -0.4137 -0.7908  0.0387
 5104SOL    HW126945   0.653   0.880   8.571 -2.8149 -0.9794 -1.3643
 5104SOL    HW226946   0.586   0.994   8.499 -1.2509 -1.1826  0.5850
 5105SOL     OW26947   2.967   1.937   0.865  0.2825  0.1006 -0.3511
 5105SOL    HW126948   2.956   1.920   0.959  2.2245  1.2348  0.0978
 5105SOL    HW226949   3.060   1.918   0.855 -0.6971 -2.0202 -5.3360
 5106SOL     OW26950   4.203   2.794   4.850  0.2705  0.0849 -0.2406
 5106SOL    HW126951   4.286   2.833   4.875 -1.2852  3.7908 -0.8469
 5106SOL    HW226952   4.226   2.771   4.759  1.8620 -2.1419  0.7254
 5107SOL     OW26953   3.012   1.793   4.477  0.1666 -0.0802 -0.2594
 5107SOL    HW126954   3.016   1.807   4.383 -1.5368 -2.1963 -0.6410
 5107SOL    HW226955   2.964   1.871   4.504 -0.0659 -0.1927 -0.3479
 5108SOL     OW26956   4.458   4.666  17.688  0.3955 -0.4681 -0.4910
 5108SOL    HW126957   4.469   4.727  17.615 -2.4903  0.4808 -0.1464
 5108SOL    HW226958   4.529   4.608  17.662  1.2752 -0.1173  1.1318
 5109SOL     OW26959   1.855   1.453   9.323  0.3363  0.1064  0.3933
 5109SOL    HW126960   1.839   1.432   9.415  1.5840 -1.4472  0.2503
 5109SOL    HW226961   1.830   1.370   9.284  1.6221 -0.3358  0.5274
 5110SOL     OW26962   0.517   1.874  16.986 -0.3615  0.1609  0.2034
 5110SOL    HW126963   0.534   1.911  17.072  0.5236 -1.1634  0.6060
 5110SOL    HW226964   0.597   1.822  16.977 -0.0780  0.2385  2.2234
 5111SOL     OW26965   0.220   3.626   8.723 -0.3688  0.0533  0.3311
 5111SOL    HW126966   0.272   3.700   8.691  3.0329 -1.9476  1.2084
 5111SOL    HW226967   0.163   3.611   8.647 -0.2612 -4.0431  1.0437
 5112SOL     OW26968   4.238   1.027  16.237  0.0399 -0.1484 -0.4250
 5112SOL    HW126969   4.148   0.995  16.246 -0.2703  0.2152 -2.1887
 5112SOL    HW226970   4.234   1.099  16.173 -3.0321 -0.4770 -0.6354
 5113SOL     OW26971   1.588   0.520  11.161  0.4936  0.6617  0.2397
 5113SOL    HW126972   1.638   0.439  11.163  0.2958  0.5634  1.0148
 5113SOL    HW226973   1.582   0.545  11.253 -1.2702 -2.7142  1.0390
 5114SOL     OW26974   2.410   0.470   7.193  0.1553  0.0121  0.2244
 5114SOL    HW126975   2.380   0.559   7.174 -0.3302 -0.5761 -1.8016
 5114SOL    HW226976   2.471   0.482   7.266  0.8794 -3.8306  0.2621
 5115SOL     OW26977   4.070   2.713  17.605  0.2520 -0.4516 -0.2456
 5115SOL    HW126978   4.040   2.694  17.693 -0.7701  2.3916  0.0365
 5115SOL    HW226979   4.162   2.687  17.612  0.1258 -0.0988  2.6616
 5116SOL     OW26980   4.236   4.002  12.670  0.1564 -0.9717  0.0848
 5116SOL    HW126981   4.141   4.014  12.680 -0.1607 -1.3848 -2.3968
 5116SOL    HW226982   4.242   3.974  12.578 -2.0564 -0.4656 -0.2239
 5117SOL     OW26983   0.093   0.161  15.121  1.1268 -1.0153 -0.2965
 5117SOL    HW126984   0.081   0.069  15.098  0.6982 -0.8692 -0.6449
 5117SOL    HW226985   0.083   0.198  15.034  0.3732  1.1968  0.7322
 5118SOL     OW26986   1.982   1.383  14.765  0.8992  0.5596  0.4190
 5118SOL    HW126987   1.911   1.421  14.714  0.4029  0.1029  0.7684
 5118SOL    HW226988   1.949   1.386  14.855 -0.1375  0.8942  0.0234
 5119SOL     OW26989   3.938   0.545   7.354 -0.9204 -0.4280  0.2323
 5119SOL    HW126990   3.965   0.481   7.288  0.2217  0.3666 -0.0545
 5119SOL    HW226991   3.843   0.551   7.337 -1.0307 -0.8520  0.7018
 5120SOL     OW26992   1.030   1.248   3.906  0.0389  0.1051 -0.0956
 5120SOL    HW126993   0.968   1.176   3.920  0.0749  0.6837  3.0959
 5120SOL    HW226994   1.092   1.224   3.838 -0.3458  0.3195 -0.5250
 5121SOL     OW26995   3.606   3.747   5.072  0.5363  0.1031 -0.0314
 5121SOL    HW126996   3.695   3.713   5.077  0.6304  0.2387 -0.8069
 5121SOL    HW226997   3.576   3.727   5.161  2.0275  0.9113  0.6464
 5122SOL     OW26998   0.057   0.546  11.655  0.1712  0.0271  0.4200
 5122SOL    HW126999   0.047   0.542  11.750  0.8187  0.4760  0.5064
 5122SOL    HW227000   0.051   0.639  11.635 -0.9241 -0.1994 -0.3443
 5123SOL     OW27001   4.588   1.637   6.982 -0.2360  0.8133 -0.4786
 5123SOL    HW127002   4.513   1.624   7.041 -0.1139 -0.6499 -0.6405
 5123SOL    HW227003   4.662   1.601   7.030 -3.3629 -1.5024  2.6382
 5124SOL     OW27004   1.334   2.484   9.227  0.2144 -0.0494 -0.1016
 5124SOL    HW127005   1.302   2.440   9.305  0.4692  1.2952  0.7590
 5124SOL    HW227006   1.267   2.546   9.199  0.3523  0.5658  0.9474
 5125SOL     OW27007   4.368   3.407   5.618  0.3435  0.2451 -0.1542
 5125SOL    HW127008   4.447   3.380   5.571  0.9302  0.9845  0.4052
 5125SOL    HW227009   4.403   3.452   5.694 -3.1856 -1.2518  2.3430
 5126SOL     OW27010   0.702   3.309   8.772  0.3195  0.2233 -0.1176
 5126SOL    HW127011   0.726   3.264   8.691  0.4425 -1.3263  0.7813
 5126SOL    HW227012   0.743   3.396   8.769  4.4562 -1.7702 -1.0442
 5127SOL     OW27013   2.726   4.293   7.813 -0.0227 -0.3164 -0.0687
 5127SOL    HW127014   2.740   4.266   7.904 -0.1927  3.4131  1.0818
 5127SOL    HW227015   2.784   4.233   7.767  0.5549 -0.5996  1.0170
 5128SOL     OW27016   3.683   2.991  17.018  0.2715  0.7488 -0.4245
 5128SOL    HW127017   3.650   2.919  16.964  1.5312 -0.0574 -0.1360
 5128SOL    HW227018   3.754   2.941  17.058 -0.4981 -0.2347 -0.2808
 5129SOL     OW27019   2.345   1.032   6.357  0.0092  0.4093  0.5178
 5129SOL    HW127020   2.375   1.110   6.405 -0.2980  0.2877  0.9057
 5129SOL    HW227021   2.327   1.060   6.268  2.7758 -0.1235 -0.2200
 5130SOL     OW27022   0.622   2.515  16.814  0.0826  0.2228  0.0274
 5130SOL    HW127023   0.687   2.524  16.744 -0.4741 -1.1947 -0.6702
 5130SOL    HW227024   0.537   2.545  16.783  0.0428  0.1600  0.0774
 5131SOL     OW27025   2.808   3.251   3.116 -0.5194 -0.1858 -0.0857
 5131SOL    HW127026   2.813   3.193   3.040  0.4452  1.2004 -1.0796
 5131SOL    HW227027   2.898   3.252   3.151 -0.3890  3.8082 -0.6167
 5132SOL     OW27028   2.386   4.626  13.256  0.1452  0.4831  0.2144
 5132SOL    HW127029   2.374   4.574  13.177 -1.5633 -1.8372  2.0191
 5132SOL    HW227030   2.330   4.571  13.311  1.2873  1.3851  2.2886
 5133SOL     OW27031   0.826   2.714  16.868  0.2393  0.2678 -0.3714
 5133SOL    HW127032   0.879   2.673  16.799  1.0991  0.6825  0.0518
 5133SOL    HW227033   0.752   2.654  16.868 -0.8808  1.6705 -0.2938
 5134SOL     OW27034   1.997   1.735   7.963 -0.6660 -0.0528 -0.9485
 5134SOL    HW127035   2.087   1.754   7.990 -0.4596  2.1849 -3.1891
 5134SOL    HW227036   1.979   1.814   7.913  1.2603  1.0897  0.1491
 5135SOL     OW27037   4.064   0.740  15.513 -0.6060 -0.1473 -1.0385
 5135SOL    HW127038   3.991   0.686  15.544 -0.4185  1.9890  3.1284
 5135SOL    HW227039   4.122   0.737  15.589 -0.3764 -2.6369 -1.3038
 5136SOL     OW27040   2.307   1.872   7.893  0.4041  0.4712 -0.3181
 5136SOL    HW127041   2.328   1.933   7.964 -1.5631  1.1877 -0.3540
 5136SOL    HW227042   2.303   1.933   7.820  0.7952 -0.0432 -0.7730
 5137SOL     OW27043   0.999   0.007   5.317 -0.9215  0.0101  0.7406
 5137SOL    HW127044   1.010   0.090   5.364  0.1811 -0.6555  1.6557
 5137SOL    HW227045   0.958   4.683   5.378 -1.0905 -2.2656 -1.6780
 5138SOL     OW27046   1.321   4.588  13.898 -0.2544  0.8946 -0.0719
 5138SOL    HW127047   1.336   4.675  13.860  1.2201  1.5742  2.0513
 5138SOL    HW227048   1.318   4.604  13.993  0.2258 -0.5246  0.1855
 5139SOL     OW27049   4.691   0.722   6.738  0.3861  0.3087  0.1784
 5139SOL    HW127050   4.714   0.758   6.652 -0.8590  1.3911  0.2941
 5139SOL    HW227051   4.721   0.797   6.789 -0.8590  0.1024  1.2056
 5140SOL     OW27052   4.311   1.652   7.410 -0.1040 -0.1683  0.0056
 5140SOL    HW127053   4.240   1.625   7.467 -0.1632  0.5766  0.2881
 5140SOL    HW227054   4.384   1.604   7.448  0.5620 -0.4085 -1.5529
 5141SOL     OW27055   4.618   1.437   0.466  0.3365  0.3316 -0.2205
 5141SOL    HW127056   4.650   1.521   0.498 -2.8194  0.9874  1.1746
 5141SOL    HW227057   4.536   1.431   0.515  0.6146  0.4475  0.2579
 5142SOL     OW27058   1.683   2.505   3.358 -0.5184  0.0744  0.0552
 5142SOL    HW127059   1.712   2.414   3.350 -1.1622 -0.3023  2.0110
 5142SOL    HW227060   1.737   2.542   3.288  0.2080 -0.8268  0.1381
 5143SOL     OW27061   3.649   3.945  13.552 -0.2589 -0.0723  0.1289
 5143SOL    HW127062   3.574   3.974  13.500  1.2138  2.9300 -0.2634
 5143SOL    HW227063   3.674   4.032  13.582 -0.5624 -0.2566  0.8963
 5144SOL     OW27064   2.315   3.270  15.922 -0.0125  0.6236  0.4773
 5144SOL    HW127065   2.356   3.245  15.839 -0.1915  1.6243  0.0953
 5144SOL    HW227066   2.253   3.197  15.924  0.4419  0.2506  1.1347
 5145SOL     OW27067   3.035   3.180   6.244  0.7744 -0.4912 -0.1127
 5145SOL    HW127068   3.052   3.274   6.232  0.4846 -0.2584  1.2824
 5145SOL    HW227069   2.971   3.163   6.176 -2.1013  0.8572  2.2435
 5146SOL     OW27070   2.591   1.170   2.514  0.0427 -0.5408  0.1806
 5146SOL    HW127071   2.541   1.089   2.519 -1.1773  0.3041  1.5583
 5146SOL    HW227072   2.521   1.235   2.527 -0.6638 -1.3794  0.5307
 5147SOL     OW27073   3.695   0.304   5.202 -0.4493  0.2236  0.3859
 5147SOL    HW127074   3.713   0.220   5.244 -1.1435 -0.2874 -0.3232
 5147SOL    HW227075   3.775   0.354   5.214  0.1182 -0.4106 -0.7637
 5148SOL     OW27076   1.102   1.261   6.028 -0.2086 -0.2161 -0.4287
 5148SOL    HW127077   1.079   1.169   6.044 -0.3416 -0.3281 -1.2675
 5148SOL    HW227078   1.016   1.293   6.000 -0.6351  0.1321  1.2804
 5149SOL     OW27079   0.637   1.684   9.435 -0.1679  0.5680 -0.5589
 5149SOL    HW127080   0.597   1.770   9.428  1.3349  1.2839 -0.4021
 5149SOL    HW227081   0.565   1.640   9.480 -0.1261 -0.1618 -1.1971
 5150SOL     OW27082   4.202   4.142   7.499  0.0210 -0.4313  0.4214
 5150SOL    HW127083   4.287   4.135   7.543  1.1698  1.8542 -1.4458
 5150SOL    HW227084   4.184   4.052   7.471  0.7888 -0.6315  0.5713
 5151SOL     OW27085   0.728   3.156   9.717  0.4913  0.6954  0.4288
 5151SOL    HW127086   0.759   3.067   9.735  0.7787  0.9184  1.0550
 5151SOL    HW227087   0.803   3.209   9.743  2.2545 -1.1152 -0.9874
 5152SOL     OW27088   2.086   3.210   9.858  0.0828 -0.0817 -0.7982
 5152SOL    HW127089   2.140   3.223   9.935  0.9477  2.6007 -1.8249
 5152SOL    HW227090   2.054   3.122   9.876  0.5932  0.3767  2.3395
 5153SOL     OW27091   2.522   3.197   3.368 -0.5839 -0.1188 -0.3054
 5153SOL    HW127092   2.507   3.116   3.320 -2.5843 -0.2773  0.6062
 5153SOL    HW227093   2.453   3.187   3.434 -1.3431  1.4157 -0.8779
 5154SOL     OW27094   1.489   0.877   9.509 -0.0056 -0.1597 -0.4872
 5154SOL    HW127095   1.415   0.840   9.460  0.9106 -0.7954 -1.4000
 5154SOL    HW227096   1.443   0.926   9.577 -0.1649 -2.3226  0.9645
 5155SOL     OW27097   3.272   1.488  10.812  0.0175 -0.1497  0.2419
 5155SOL    HW127098   3.304   1.408  10.854 -0.4661 -0.3407  0.2420
 5155SOL    HW227099   3.301   1.467  10.723 -0.5740  0.1997 -0.0298
 5156SOL     OW27100   0.029   3.951  16.444 -0.3621  0.3207 -0.2608
 5156SOL    HW127101   4.720   3.872  16.417  0.0526 -0.2694  0.7687
 5156SOL    HW227102   0.066   3.932  16.530 -1.9230 -1.1862  0.0833
 5157SOL     OW27103   4.239   2.172  11.730 -0.1964 -0.7654 -0.2318
 5157SOL    HW127104   4.330   2.199  11.743 -0.3462  0.6926 -2.3497
 5157SOL    HW227105   4.227   2.122  11.811  1.3589  0.6073  0.8533
 5158SOL     OW27106   1.963   0.311  10.855  0.2714  0.5060  0.9009
 5158SOL    HW127107   1.925   0.390  10.892 -3.6728 -2.2301  2.7474
 5158SOL    HW227108   2.056   0.330  10.844  0.4421 -1.4967 -1.1543
 5159SOL     OW27109   0.258   2.944  14.451  0.0975 -0.7710 -0.3001
 5159SOL    HW127110   0.315   2.926  14.375  2.4532 -0.3792  1.3746
 5159SOL    HW227111   0.189   2.880  14.432 -1.9174  1.8233 -1.6950
 5160SOL     OW27112   1.404   0.485   5.260 -0.4793 -0.5574 -0.4226
 5160SOL    HW127113   1.404   0.462   5.167  0.6317 -2.8478  0.1335
 5160SOL    HW227114   1.494   0.460   5.279 -0.4560  0.2616  0.5439
 5161SOL     OW27115   0.682   2.309   3.139  0.3720 -0.5661  0.0073
 5161SOL    HW127116   0.698   2.223   3.100 -1.7992 -0.2558 -1.5536
 5161SOL    HW227117   0.603   2.303   3.192  1.2850  4.1031  1.8747
 5162SOL     OW27118   3.295   3.027  10.829 -0.0675 -0.2721  0.3128
 5162SOL    HW127119   3.233   2.956  10.847 -0.4516  0.0012  0.0852
 5162SOL    HW227120   3.275   3.081  10.906  3.3272  0.6605  0.5262
 5163SOL     OW27121   4.270   3.255  16.611 -0.7477 -0.3784 -0.1603
 5163SOL    HW127122   4.341   3.219  16.664 -2.8456 -1.6387  1.7856
 5163SOL    HW227123   4.204   3.278  16.677 -0.1214 -0.4525  0.4870
 5164SOL     OW27124   4.727   3.507   2.361 -0.8802  0.0631  0.4489
 5164SOL    HW127125   0.066   3.560   2.341 -1.0073 -0.2016 -0.7644
 5164SOL    HW227126   4.681   3.580   2.402  0.8205  1.8852 -0.9171
 5165SOL     OW27127   2.743   1.149   9.663 -0.3699  0.0713  0.4110
 5165SOL    HW127128   2.739   1.059   9.696 -1.3826  0.6822  1.9707
 5165SOL    HW227129   2.668   1.193   9.703 -2.2791 -3.7418  1.0203
 5166SOL     OW27130   2.504   0.401   6.201  0.1315  0.4276 -0.5569
 5166SOL    HW127131   2.509   0.339   6.128 -1.1630 -1.5044  1.0290
 5166SOL    HW227132   2.508   0.485   6.155  0.4458 -0.2261 -1.7510
 5167SOL     OW27133   2.572   3.706   2.117 -0.3135 -0.3295  0.0590
 5167SOL    HW127134   2.492   3.690   2.167 -0.9383  1.7801 -0.2473
 5167SOL    HW227135   2.548   3.672   2.030  0.5461 -0.4579 -0.1304
 5168SOL     OW27136   4.489   0.944  14.682  0.4860 -0.6128 -0.1098
 5168SOL    HW127137   4.582   0.928  14.667  0.4545  0.9759 -1.9011
 5168SOL    HW227138   4.460   0.927  14.593  0.5067 -1.7661  0.1026
 5169SOL     OW27139   0.798   2.504  12.381  0.2363 -0.1906 -0.6301
 5169SOL    HW127140   0.822   2.579  12.435 -2.8198  0.6786 -0.5002
 5169SOL    HW227141   0.775   2.438  12.446  0.2057 -0.3659 -0.8166
 5170SOL     OW27142   2.512   1.335   8.617  0.4604 -0.4032  0.9646
 5170SOL    HW127143   2.450   1.405   8.593  2.2320  0.6460 -0.6163
 5170SOL    HW227144   2.594   1.382   8.633  1.2647 -1.6988  0.6071
 5171SOL     OW27145   0.236   1.741   2.587  0.5910 -0.1596  0.1219
 5171SOL    HW127146   0.172   1.795   2.540  0.8204  0.7279  0.8382
 5171SOL    HW227147   0.318   1.781   2.559  1.0196 -0.3194  1.1511
 5172SOL     OW27148   1.185   0.603   2.385  0.2349 -0.1387  0.1510
 5172SOL    HW127149   1.259   0.543   2.381  1.6421  1.6706 -0.7050
 5172SOL    HW227150   1.206   0.647   2.467  0.9519  1.9207 -1.1346
 5173SOL     OW27151   1.152   0.807   8.288 -0.0234  0.0603  0.1343
 5173SOL    HW127152   1.057   0.804   8.279  0.1509 -1.0605 -1.4642
 5173SOL    HW227153   1.157   0.894   8.327  0.8118 -0.5208  1.3193
 5174SOL     OW27154   4.697   0.807   3.815  0.0873  0.0581 -0.4724
 5174SOL    HW127155   4.731   0.798   3.726  2.3053  1.5796  0.2038
 5174SOL    HW227156   0.023   0.870   3.848 -0.6725 -0.0008  1.1093
 5175SOL     OW27157   2.989   0.872   3.742  0.0622  0.5189 -0.2620
 5175SOL    HW127158   2.965   0.797   3.688  0.7173  0.1462 -0.0379
 5175SOL    HW227159   3.066   0.830   3.780 -0.1929 -0.1758 -0.5193
 5176SOL     OW27160   2.348   3.162  12.832  0.1746 -0.0508  0.5483
 5176SOL    HW127161   2.428   3.209  12.855 -0.1939  0.8489  0.0038
 5176SOL    HW227162   2.344   3.191  12.741  2.1674  0.2415  0.5570
 5177SOL     OW27163   1.694   4.206   3.654 -0.0785  0.5282  0.2654
 5177SOL    HW127164   1.696   4.266   3.728 -0.3665  1.0197 -0.1314
 5177SOL    HW227165   1.779   4.167   3.674  1.5093  4.4121  1.0479
 5178SOL     OW27166   1.291   0.592   9.902  0.4521  0.5256  0.2136
 5178SOL    HW127167   1.326   0.677   9.874 -2.1170  1.6785  0.4962
 5178SOL    HW227168   1.280   0.544   9.821  2.8048 -0.2212  0.3364
 5179SOL     OW27169   1.860   0.945   6.172 -0.0745 -0.4076  0.2218
 5179SOL    HW127170   1.908   0.895   6.238 -2.6903 -1.7194  1.1507
 5179SOL    HW227171   1.777   0.977   6.209  1.9920  1.3779  3.2336
 5180SOL     OW27172   0.017   3.600  11.034 -0.0399 -0.2359 -0.3659
 5180SOL    HW127173   0.052   3.521  11.076  0.7168  1.1257  1.5689
 5180SOL    HW227174   0.051   3.589  10.944  2.8939 -2.1960  0.9715
 5181SOL     OW27175   0.305   1.232   5.147  0.5049 -1.0838  0.0919
 5181SOL    HW127176   0.321   1.291   5.221 -3.4045 -0.3377  0.3154
 5181SOL    HW227177   0.243   1.170   5.185 -0.3300 -0.8243 -0.8466
 5182SOL     OW27178   0.888   1.704   5.845 -0.0492  0.1723  0.4793
 5182SOL    HW127179   0.977   1.680   5.819 -0.8961 -1.9497 -0.4782
 5182SOL    HW227180   0.903   1.721   5.938  0.0147 -0.3635  0.5702
 5183SOL     OW27181   3.552   4.037  14.961 -0.3377 -0.5071 -0.6149
 5183SOL    HW127182   3.468   4.058  14.921  0.2440 -4.3455 -3.8350
 5183SOL    HW227183   3.544   4.097  15.035 -1.6620 -0.3038 -0.9341
 5184SOL     OW27184   1.516   3.360   5.469  0.0086 -0.1194 -0.6929
 5184SOL    HW127185   1.599   3.380   5.426 -0.5356  1.8535 -0.8314
 5184SOL    HW227186   1.454   3.396   5.405 -0.7755 -2.8006 -1.4385
 5185SOL     OW27187   1.927   0.357   3.426 -0.0488 -0.4805 -0.1237
 5185SOL    HW127188   1.920   0.263   3.444  3.4330 -0.4915  1.1684
 5185SOL    HW227189   2.019   0.378   3.443 -0.2741 -0.0604  0.6002
 5186SOL     OW27190   0.074   1.619   2.791 -0.2917 -0.0982 -0.0259
 5186SOL    HW127191   0.119   1.655   2.714  0.4404 -0.9184  0.0198
 5186SOL    HW227192   0.126   1.542   2.814 -1.0483 -0.9795 -1.3195
 5187SOL     OW27193   4.703   1.096  14.882  0.2935  0.2571  0.0841
 5187SOL    HW127194   4.702   1.095  14.787  0.8500  0.7452  0.0733
 5187SOL    HW227195   0.008   1.182  14.887  0.2533  0.2446  0.6410
 5188SOL     OW27196   0.692   2.047   3.545 -0.5188 -0.3838 -0.6939
 5188SOL    HW127197   0.655   1.973   3.593 -0.1985  1.7351  2.8304
 5188SOL    HW227198   0.622   2.109   3.526 -0.9859 -0.5707  0.4480
 5189SOL     OW27199   3.558   2.782  16.824  0.5756 -0.2926  0.5404
 5189SOL    HW127200   3.542   2.814  16.735 -0.2025  2.0885  1.5252
 5189SOL    HW227201   3.633   2.726  16.806  0.6092 -0.0332 -0.1302
 5190SOL     OW27202   0.359   2.589   3.003 -0.1486  0.4710  0.3119
 5190SOL    HW127203   0.335   2.639   2.925  0.4515 -0.1949 -0.2893
 5190SOL    HW227204   0.280   2.539   3.024  1.2786 -2.7209 -1.9826
 5191SOL     OW27205   2.497   3.320  13.536 -0.2279 -0.2792 -0.2808
 5191SOL    HW127206   2.487   3.320  13.441 -0.8874 -0.1652 -0.2127
 5191SOL    HW227207   2.481   3.411  13.561 -0.2725 -0.4393  0.2762
 5192SOL     OW27208   2.945   3.973   1.963  0.1572  0.0871 -0.2785
 5192SOL    HW127209   2.918   3.883   1.985 -2.3135  0.2953 -2.4524
 5192SOL    HW227210   2.999   3.985   2.041 -0.2500 -1.5997  0.2677
 5193SOL     OW27211   3.444   0.384   3.450  0.8975  0.1026 -0.1748
 5193SOL    HW127212   3.418   0.352   3.536 -0.1446 -0.1494 -0.5862
 5193SOL    HW227213   3.390   0.463   3.452  0.0147 -0.5761  1.7740
 5194SOL     OW27214   4.406   1.640  13.520 -0.2560 -0.6025 -0.1139
 5194SOL    HW127215   4.496   1.630  13.490 -0.5943  0.1266 -1.3855
 5194SOL    HW227216   4.395   1.734  13.534 -0.2735 -0.2780 -2.2054
 5195SOL     OW27217   1.835   4.720   9.286 -0.1546 -0.0367 -0.0999
 5195SOL    HW127218   1.836   0.066   9.330  0.8558  1.1785 -2.4585
 5195SOL    HW227219   1.926   4.693   9.294  0.1477  0.9023 -0.3921
 5196SOL     OW27220   1.044   2.815  11.221  0.2164  0.0542 -0.0314
 5196SOL    HW127221   1.135   2.786  11.220  0.9588  2.4719 -1.2951
 5196SOL    HW227222   1.016   2.836  11.133  1.9087  1.4785 -0.2292
 5197SOL     OW27223   2.707   2.210   1.534  0.1340 -0.1933  0.1603
 5197SOL    HW127224   2.650   2.281   1.565  0.7967  0.6783 -0.6014
 5197SOL    HW227225   2.794   2.236   1.565 -0.1520  0.8352  0.1037
 5198SOL     OW27226   3.310   0.850   5.783  0.8546  0.1734 -0.5864
 5198SOL    HW127227   3.385   0.794   5.801  0.2835  0.0225  1.3643
 5198SOL    HW227228   3.299   0.889   5.870  1.0328  0.0210 -0.4980
 5199SOL     OW27229   1.289   0.087   6.295 -0.0475  0.2489  0.1242
 5199SOL    HW127230   1.312   0.163   6.242  3.5063 -0.3459  0.8044
 5199SOL    HW227231   1.370   0.076   6.345 -1.5112 -1.8553  2.0115
 5200SOL     OW27232   3.571   3.169  14.628  0.4235  0.1870 -0.0659
 5200SOL    HW127233   3.556   3.074  14.629  2.2254 -0.0805  0.2607
 5200SOL    HW227234   3.642   3.180  14.691  0.6984 -2.7821  0.1873
 5201SOL     OW27235   4.143   3.507   6.083  0.3932 -0.4278  0.7663
 5201SOL    HW127236   4.106   3.527   5.997  2.8826  3.8062  0.6853
 5201SOL    HW227237   4.117   3.585   6.134 -0.6758  0.4883 -1.1849
 5202SOL     OW27238   0.883   1.478  16.993  0.2583 -0.0142 -0.4625
 5202SOL    HW127239   0.863   1.449  17.082 -0.2577 -0.3908 -0.6986
 5202SOL    HW227240   0.976   1.500  16.993  0.2435  0.0491  1.8045
 5203SOL     OW27241   3.633   3.467   7.469 -0.3925 -0.1682  0.2407
 5203SOL    HW127242   3.644   3.562   7.481  1.2357 -0.1861 -1.1031
 5203SOL    HW227243   3.538   3.456   7.471 -0.3943 -0.1540  0.2354
 5204SOL     OW27244   0.493   1.516   2.188 -0.1017  0.1887 -0.5391
 5204SOL    HW127245   0.557   1.583   2.165 -2.0456  1.7212 -1.4790
 5204SOL    HW227246   0.415   1.570   2.197 -1.0239 -1.4554  1.4915
 5205SOL     OW27247   0.608   3.111   6.375  0.5926 -0.0647  0.0046
 5205SOL    HW127248   0.530   3.133   6.324 -0.0174 -0.4240  0.7797
 5205SOL    HW227249   0.620   3.018   6.353 -0.9098 -0.2458 -0.0705
 5206SOL     OW27250   3.761   1.812   6.062 -0.2088 -0.1891  0.0361
 5206SOL    HW127251   3.718   1.736   6.101 -0.9547  0.8496  1.2167
 5206SOL    HW227252   3.706   1.824   5.984 -0.3465 -3.4548 -0.3816
 5207SOL     OW27253   1.878   1.254   5.219  0.1520  0.2300 -0.1549
 5207SOL    HW127254   1.827   1.335   5.228 -0.6250 -0.3568  0.7108
 5207SOL    HW227255   1.854   1.229   5.130 -2.4327  0.0394  0.5996
 5208SOL     OW27256   2.466   1.927   9.446  0.3749  1.1098  0.0326
 5208SOL    HW127257   2.494   1.899   9.534 -0.2920  0.2878 -0.0183
 5208SOL    HW227258   2.415   2.006   9.463  0.2227  1.0921 -0.3585
 5209SOL     OW27259   0.907   0.781   8.850 -0.0017  0.5235 -0.4830
 5209SOL    HW127260   0.861   0.712   8.898 -2.4463  1.1151 -1.9525
 5209SOL    HW227261   0.880   0.777   8.758  0.8092  0.8112 -0.7302
 5210SOL     OW27262   2.344   2.647   4.033  0.2952 -1.0128 -0.1733
 5210SOL    HW127263   2.330   2.643   3.938  0.1818  2.6222 -0.3215
 5210SOL    HW227264   2.366   2.559   4.062 -2.2386 -1.4550  0.3695
 5211SOL     OW27265   2.845   2.739   5.719  0.4933 -0.3048 -0.0759
 5211SOL    HW127266   2.938   2.716   5.715  0.2642 -1.3162  0.6170
 5211SOL    HW227267   2.800   2.656   5.705 -0.7820  0.3257  0.2346
 5212SOL     OW27268   0.104   2.106   2.704 -0.2472 -0.5555  0.2628
 5212SOL    HW127269   0.188   2.098   2.749 -0.5443 -0.0081  0.9171
 5212SOL    HW227270   0.082   2.013   2.701 -0.7281 -0.5200  2.6269
 5213SOL     OW27271   2.131   3.013   5.895 -0.1671  0.4364  0.0771
 5213SOL    HW127272   2.151   2.978   5.808  1.3084 -2.2429  1.5021
 5213SOL    HW227273   2.134   2.929   5.941 -0.1691  0.0625 -0.6052
 5214SOL     OW27274   1.397   3.761  15.840  0.1335  0.3062 -0.2169
 5214SOL    HW127275   1.370   3.851  15.860  1.2233  0.3812  0.8899
 5214SOL    HW227276   1.314   3.723  15.812 -0.3514  1.7754 -0.7735
 5215SOL     OW27277   0.500   0.401  12.462  0.2645  0.3028  0.0646
 5215SOL    HW127278   0.574   0.387  12.521  1.6051 -1.0025 -1.9398
 5215SOL    HW227279   0.513   0.492  12.435  0.5261  0.7258  1.6041
 5216SOL     OW27280   1.071   2.241   4.219 -0.1779  0.0600 -0.2549
 5216SOL    HW127281   1.000   2.185   4.251  1.1178 -2.2652 -1.3748
 5216SOL    HW227282   1.043   2.281   4.137 -0.7355  0.0485 -0.0638
 5217SOL     OW27283   3.930   2.737   7.441 -0.1358 -0.4643  0.3622
 5217SOL    HW127284   3.861   2.789   7.483 -1.6627 -1.7349 -0.6053
 5217SOL    HW227285   3.930   2.754   7.347 -1.1335  1.5978  0.7201
 5218SOL     OW27286   2.263   0.323   1.549 -0.0182 -0.8709 -0.2048
 5218SOL    HW127287   2.332   0.265   1.583  0.6343 -0.4762 -0.8627
 5218SOL    HW227288   2.200   0.264   1.508  0.7056 -0.3334 -2.0978
 5219SOL     OW27289   3.993   4.513   1.982  0.1910  0.6694  0.3018
 5219SOL    HW127290   4.085   4.518   1.954  0.0950  0.4059 -0.0548
 5219SOL    HW227291   3.982   4.434   1.929  0.4575  0.4621  0.5550
 5220SOL     OW27292   1.011   2.979   1.381 -0.0726 -0.3725 -0.1063
 5220SOL    HW127293   1.066   2.900   1.381  0.5529  0.0584  1.1754
 5220SOL    HW227294   1.041   3.020   1.300 -1.8385 -0.5279 -0.8403
 5221SOL     OW27295   0.408   0.343   3.840 -0.2623  0.0837  0.8215
 5221SOL    HW127296   0.473   0.351   3.910 -0.0392 -0.4857  0.6766
 5221SOL    HW227297   0.375   0.258   3.868  1.9659 -0.8455  0.6248
 5222SOL     OW27298   4.596   0.063   2.001 -0.6612  0.1875  0.0021
 5222SOL    HW127299   4.632   0.152   2.002  1.1833 -0.5574 -0.4572
 5222SOL    HW227300   4.639   0.035   1.920 -1.0550 -2.1530  0.5927
 5223SOL     OW27301   4.399   4.421   4.181  0.2826 -0.2893  0.3682
 5223SOL    HW127302   4.340   4.478   4.231 -1.5888  0.4645 -2.7193
 5223SOL    HW227303   4.469   4.403   4.243  0.4469  1.1473  0.6020
 5224SOL     OW27304   0.224   0.474   3.197  0.0267 -0.4136 -0.1126
 5224SOL    HW127305   0.136   0.442   3.176 -0.3982  0.6829 -0.0149
 5224SOL    HW227306   0.261   0.396   3.240  0.6103 -0.5508 -0.8649
 5225SOL     OW27307   4.633   2.128   3.647  0.3756  0.0104 -0.2741
 5225SOL    HW127308   4.565   2.172   3.596  0.4612 -2.4341 -2.4886
 5225SOL    HW227309   4.612   2.035   3.651  0.9954 -0.1217 -0.1316
 5226SOL     OW27310   3.177   4.016  13.828 -0.2893 -0.4204 -0.3018
 5226SOL    HW127311   3.265   3.983  13.812 -0.4890 -0.7494 -0.7339
 5226SOL    HW227312   3.129   3.936  13.848  1.4984 -1.8490 -1.7369
 5227SOL     OW27313   3.667   4.101   4.039 -0.0526  0.2246 -0.9246
 5227SOL    HW127314   3.663   4.008   4.021 -2.1588  0.3217 -0.9345
 5227SOL    HW227315   3.667   4.134   3.949  0.8988 -2.4120 -1.8807
 5228SOL     OW27316   1.919   4.493   0.239  0.2850 -0.6946  0.1148
 5228SOL    HW127317   1.949   4.527   0.155 -0.1837  2.5958  1.2900
 5228SOL    HW227318   1.843   4.448   0.202  1.0947 -0.8596 -1.3059
 5229SOL     OW27319   4.562   3.222   5.036 -0.1072 -0.0179 -0.7989
 5229SOL    HW127320   4.568   3.181   4.950 -1.3695 -1.5473 -0.1556
 5229SOL    HW227321   4.651   3.258   5.040  0.2551 -1.1187  1.1014
 5230SOL     OW27322   0.049   1.081   6.341 -0.2726 -0.4176  0.5230
 5230SOL    HW127323   0.037   1.080   6.436 -1.7404 -2.1367  0.3221
 5230SOL    HW227324   0.103   1.002   6.341 -0.4825 -0.5591 -1.6389
 5231SOL     OW27325   2.106   1.669   5.310 -0.4401 -0.0152  0.5565
 5231SOL    HW127326   2.121   1.575   5.322 -0.6330 -0.0270  0.7075
 5231SOL    HW227327   2.152   1.703   5.387 -0.2361  2.4263 -0.6482
 5232SOL     OW27328   0.990   0.078   2.427  0.3726 -0.0081 -0.3910
 5232SOL    HW127329   1.056   0.125   2.477  0.8485 -1.1572  0.0652
 5232SOL    HW227330   1.046   0.030   2.367 -1.6891 -0.7532 -1.7196
 5233SOL     OW27331   3.313   2.288   5.391 -0.2968 -0.4857  0.8575
 5233SOL    HW127332   3.292   2.212   5.337  1.2788 -0.5454  0.3265
 5233SOL    HW227333   3.260   2.361   5.359 -0.1806 -0.5411  0.5452
 5234SOL     OW27334   1.579   1.346   6.595  0.1876  0.3029 -0.7336
 5234SOL    HW127335   1.585   1.441   6.605 -0.5225  0.2839 -0.0973
 5234SOL    HW227336   1.638   1.313   6.662 -0.7926  0.2364  0.0892
 5235SOL     OW27337   1.685   3.883   7.704  0.2764 -0.0459 -0.2983
 5235SOL    HW127338   1.675   3.922   7.791 -1.2480 -1.6153  0.2283
 5235SOL    HW227339   1.625   3.942   7.659 -1.3417 -2.1355 -0.8962
 5236SOL     OW27340   2.364   0.312  12.814  0.8787 -0.0129  0.4950
 5236SOL    HW127341   2.452   0.334  12.786  0.8152  0.7678  0.9308
 5236SOL    HW227342   2.358   0.233  12.760  2.1790  1.8036 -2.3010
 5237SOL     OW27343   0.317   0.197  11.753 -0.4409  0.3960  0.0809
 5237SOL    HW127344   0.377   0.231  11.686 -0.3138  0.4818  0.2380
 5237SOL    HW227345   0.336   0.104  11.749 -1.5689  0.1885 -0.5537
 5238SOL     OW27346   4.443   2.063   7.331  0.0747 -0.3003  0.3403
 5238SOL    HW127347   4.453   2.148   7.289  0.2725  0.1825  1.3645
 5238SOL    HW227348   4.413   2.018   7.252  1.7664  0.1103 -0.5418
 5239SOL     OW27349   2.908   1.603   7.895  0.0147 -0.3807 -0.5255
 5239SOL    HW127350   2.902   1.541   7.968 -0.4556  0.0588 -0.1907
 5239SOL    HW227351   2.900   1.540   7.823 -0.4396 -0.4123 -0.4478
 5240SOL     OW27352   1.904   4.508   8.914  0.2118  0.4628 -0.2618
 5240SOL    HW127353   1.900   4.465   9.000  3.6174  1.2651  0.3070
 5240SOL    HW227354   1.864   4.594   8.927 -0.4658 -0.0052  0.7964
 5241SOL     OW27355   0.277   3.469  14.105  0.0543 -0.3423 -0.1150
 5241SOL    HW127356   0.296   3.436  14.192 -1.2364  2.5212  1.2508
 5241SOL    HW227357   0.205   3.413  14.076  1.9315 -1.2805 -2.9527
 5242SOL     OW27358   4.608   1.343   5.929  0.0161 -0.0708  0.8253
 5242SOL    HW127359   4.676   1.389   5.978  0.2157  2.9934 -2.3236
 5242SOL    HW227360   4.607   1.260   5.977  1.1142 -0.9064 -0.5917
 5243SOL     OW27361   1.848   3.666   2.840 -0.0133  0.0261 -0.7561
 5243SOL    HW127362   1.815   3.616   2.765 -2.6274  1.5229 -0.5899
 5243SOL    HW227363   1.882   3.742   2.792 -1.7137  3.0314  2.7413
 5244SOL     OW27364   2.189   2.589  13.636 -0.4972  0.2656  0.2471
 5244SOL    HW127365   2.239   2.570  13.557 -0.7043  3.3223 -0.6347
 5244SOL    HW227366   2.253   2.653  13.668  0.7825 -0.3600 -1.0731
 5245SOL     OW27367   0.776   1.731   8.481  0.6372 -0.3183 -0.3666
 5245SOL    HW127368   0.805   1.822   8.485  0.4885 -0.2217 -1.3373
 5245SOL    HW227369   0.763   1.714   8.387  0.3301 -0.2300 -0.3374
 5246SOL     OW27370   2.236   2.269   0.855 -0.6783  0.0836  0.0983
 5246SOL    HW127371   2.223   2.287   0.761  1.6584 -1.4484 -0.5295
 5246SOL    HW227372   2.267   2.354   0.888 -1.2125  0.2883  0.0768
 5247SOL     OW27373   3.349   0.395   4.714 -0.0710  0.1010  0.2908
 5247SOL    HW127374   3.298   0.398   4.795  0.6260 -1.6580  0.7768
 5247SOL    HW227375   3.327   0.478   4.671  1.7996 -0.0529 -0.9643
 5248SOL     OW27376   1.439   1.323   9.681 -0.4378 -0.4648 -0.2420
 5248SOL    HW127377   1.442   1.283   9.595  1.0925  0.6454 -0.6865
 5248SOL    HW227378   1.345   1.316   9.700  0.0983 -0.3716  2.4728
 5249SOL     OW27379   3.952   4.449  16.127 -0.1263  0.3716  0.2347
 5249SOL    HW127380   3.867   4.493  16.122 -0.3280 -0.0751 -0.3252
 5249SOL    HW227381   4.007   4.500  16.185  1.8911  0.2352 -1.5640
 5250SOL     OW27382   2.083   2.007   3.527 -0.7552  0.1973  0.3063
 5250SOL    HW127383   2.086   1.928   3.581  2.1403  0.7762  1.0059
 5250SOL    HW227384   2.088   2.077   3.592  0.2874  0.5274 -0.1126
 5251SOL     OW27385   2.289   4.716   8.202  0.9423  0.3654  0.0724
 5251SOL    HW127386   2.225   4.652   8.233  0.0667  1.1840 -0.0279
 5251SOL    HW227387   2.242   0.007   8.124  0.7864 -0.9869 -0.3442
 5252SOL     OW27388   0.264   1.023  17.395 -0.6067  0.0683 -0.3714
 5252SOL    HW127389   0.280   1.053  17.306 -0.2792  0.2592 -0.2503
 5252SOL    HW227390   0.266   1.105  17.445  1.1557 -0.8809  1.1464
 5253SOL     OW27391   4.340   1.313   7.689  0.5075 -0.4308  0.2197
 5253SOL    HW127392   4.348   1.230   7.737  1.1811 -0.6688 -0.3021
 5253SOL    HW227393   4.311   1.377   7.753  0.5609  1.3772 -1.5845
 5254SOL     OW27394   2.973   3.347  13.564  0.5579 -0.5524 -0.3966
 5254SOL    HW127395   3.015   3.374  13.646 -0.8985  2.4069 -0.6297
 5254SOL    HW227396   3.048   3.330  13.507  1.0779  1.3841 -0.2957
 5255SOL     OW27397   4.293   2.363   2.996  0.5452 -1.2397  0.9152
 5255SOL    HW127398   4.208   2.380   2.956  1.7870  2.0494 -0.3208
 5255SOL    HW227399   4.349   2.340   2.922 -1.6266 -0.2790 -1.0164
 5256SOL     OW27400   0.078   2.100   5.126 -0.6143  0.4667 -0.0559
 5256SOL    HW127401   0.064   2.193   5.145 -0.2589  0.4517  0.2820
 5256SOL    HW227402   4.726   2.069   5.120 -0.1891 -1.4121  3.2235
 5257SOL     OW27403   0.561   4.548   8.744 -0.0475  0.8034  0.2274
 5257SOL    HW127404   0.602   4.467   8.774  0.1025  1.5875  2.1945
 5257SOL    HW227405   0.485   4.555   8.802 -1.5786 -1.5694 -1.5152
 5258SOL     OW27406   2.810   3.230   1.599 -0.0782  0.4170  0.0650
 5258SOL    HW127407   2.906   3.233   1.595 -0.1309 -1.8907 -2.1091
 5258SOL    HW227408   2.788   3.322   1.585 -0.1374 -0.1123 -3.3753
 5259SOL     OW27409   2.590   2.808   6.319 -0.4847  0.1679  0.5653
 5259SOL    HW127410   2.669   2.756   6.306 -0.1003  0.9544 -0.2910
 5259SOL    HW227411   2.600   2.810   6.415 -0.5689  0.5899  0.5649
 5260SOL     OW27412   2.058   0.851   4.496 -0.2799 -0.5356  0.5002
 5260SOL    HW127413   2.119   0.839   4.423 -1.2626 -1.4109 -0.1919
 5260SOL    HW227414   1.980   0.805   4.463  0.5011 -1.6679  0.2297
 5261SOL     OW27415   1.832   0.125   7.129  0.2428  0.0492 -0.1928
 5261SOL    HW127416   1.820   0.164   7.216  1.3374 -1.2246  0.5400
 5261SOL    HW227417   1.920   0.154   7.107  1.0598 -0.4698  2.3456
 5262SOL     OW27418   0.532   3.346   0.681 -0.3119 -0.1542 -0.5112
 5262SOL    HW127419   0.478   3.277   0.642 -2.3157  1.3220 -0.3039
 5262SOL    HW227420   0.484   3.424   0.654  0.5555  0.2515 -0.8845
 5263SOL     OW27421   3.130   3.961   2.196  0.4384  0.1415  0.1625
 5263SOL    HW127422   3.131   4.056   2.209 -0.3326  0.4176 -1.7036
 5263SOL    HW227423   3.196   3.948   2.128  0.6488 -1.3942  0.6676
 5264SOL     OW27424   0.396   4.065   3.857  0.0426 -0.0914  0.0844
 5264SOL    HW127425   0.336   3.999   3.822 -1.3467  1.2871 -0.1161
 5264SOL    HW227426   0.405   4.123   3.780 -1.2894  0.9651  0.7297
 5265SOL     OW27427   1.839   4.010   4.130 -0.2794  0.4523  0.1295
 5265SOL    HW127428   1.901   4.070   4.087  0.9217  1.3133  3.0568
 5265SOL    HW227429   1.816   4.053   4.212 -4.0975 -0.6122 -0.3544
 5266SOL     OW27430   4.039   0.340   2.538 -0.3312  0.2411  0.4040
 5266SOL    HW127431   3.946   0.361   2.525 -0.4019 -0.0928  0.3638
 5266SOL    HW227432   4.048   0.381   2.624 -0.9794 -0.0061  0.5903
 5267SOL     OW27433   2.790   4.508   4.619 -0.2578 -0.2772  0.3285
 5267SOL    HW127434   2.819   4.417   4.627  2.8452  0.6468 -0.3019
 5267SOL    HW227435   2.869   4.556   4.593 -0.0789  0.2952  1.9415
 5268SOL     OW27436   1.902   0.563   5.710  0.0873  0.4223  0.6826
 5268SOL    HW127437   1.927   0.616   5.634  0.0752 -1.0063 -0.3017
 5268SOL    HW227438   1.810   0.581   5.729  0.0391 -2.1141  2.7412
 5269SOL     OW27439   2.775   1.902   9.174  0.0741  0.0375 -0.1694
 5269SOL    HW127440   2.865   1.913   9.143 -0.6881  2.6640 -1.5180
 5269SOL    HW227441   2.761   1.808   9.177  0.3193 -0.0482 -1.4188
 5270SOL     OW27442   4.037   3.444  15.810 -0.3557 -0.9879  0.0043
 5270SOL    HW127443   4.091   3.522  15.818  2.1054 -2.5515 -1.1786
 5270SOL    HW227444   4.082   3.392  15.743  0.7040 -1.7007  1.2590
 5271SOL     OW27445   3.352   0.413   6.810  0.2203  0.6166  0.5656
 5271SOL    HW127446   3.302   0.462   6.744 -0.4347  1.5662  1.7733
 5271SOL    HW227447   3.436   0.450   6.786  1.3113 -2.4425 -0.3899
 5272SOL     OW27448   3.825   4.569   4.674  0.2023 -0.9567  0.6159
 5272SOL    HW127449   3.734   4.583   4.649  0.2184 -0.6371  0.7418
 5272SOL    HW227450   3.818   4.616   4.757 -1.8642 -1.1106  0.5073
 5273SOL     OW27451   2.429   4.495  16.780 -0.6837  0.0101  0.0363
 5273SOL    HW127452   2.505   4.529  16.733 -0.5057 -2.0202 -1.1755
 5273SOL    HW227453   2.444   4.521  16.870 -1.0964  0.0274  0.1017
 5274SOL     OW27454   2.604   0.170   2.041 -0.2600  0.0089  0.1354
 5274SOL    HW127455   2.688   0.129   2.022 -1.2021 -2.2893  0.9124
 5274SOL    HW227456   2.616   0.198   2.132  0.1267  0.9311 -0.1988
 5275SOL     OW27457   2.713   1.340  17.729  0.3523  0.2251  0.4139
 5275SOL    HW127458   2.671   1.275  17.674 -0.1586  1.0577 -0.1732
 5275SOL    HW227459   2.774   1.284   0.026 -1.0494 -0.6487  1.1650
 5276SOL     OW27460   2.413   3.790  16.664  0.3990 -0.2936  0.4382
 5276SOL    HW127461   2.325   3.825  16.669  0.5006  0.3087 -1.9169
 5276SOL    HW227462   2.444   3.846  16.593 -0.5790  0.4080  0.5691
 5277SOL     OW27463   1.362   3.819   5.346  0.0554  0.1976 -0.0119
 5277SOL    HW127464   1.344   3.859   5.261  0.9682 -1.7673 -1.1309
 5277SOL    HW227465   1.277   3.819   5.389  0.0715 -0.3162  0.0211
 5278SOL     OW27466   1.319   4.293   3.737  0.5007 -0.5709 -0.3710
 5278SOL    HW127467   1.273   4.350   3.676 -2.8350 -1.3114  1.4281
 5278SOL    HW227468   1.327   4.213   3.685 -1.3890 -0.6083 -0.5817
 5279SOL     OW27469   3.160   3.526  10.990 -0.1104 -0.4401  0.3147
 5279SOL    HW127470   3.121   3.523  11.077 -1.3891  0.8852 -0.2118
 5279SOL    HW227471   3.157   3.621  10.976  0.5536 -0.3432  0.8009
 5280SOL     OW27472   3.348   2.994   4.519  0.0687  0.2019  0.4652
 5280SOL    HW127473   3.364   2.949   4.602 -2.3847 -1.0402  0.2513
 5280SOL    HW227474   3.430   2.980   4.473 -0.2802  1.4299 -0.5365
 5281SOL     OW27475   4.129   1.286   7.497 -0.4432  0.3005 -0.4300
 5281SOL    HW127476   4.156   1.194   7.496 -0.3480  0.3229 -0.1396
 5281SOL    HW227477   4.205   1.331   7.535 -0.9127 -1.0342  2.1518
 5282SOL     OW27478   3.098   1.301   3.464  0.5697  0.2653 -0.0119
 5282SOL    HW127479   3.107   1.252   3.382 -1.1008 -2.1533  1.2593
 5282SOL    HW227480   3.155   1.244   3.516 -1.4852 -0.8309  1.0264
 5283SOL     OW27481   0.314   1.714   6.333  0.1417  0.4075 -0.1502
 5283SOL    HW127482   0.266   1.632   6.348 -0.4906  0.9850  0.9236
 5283SOL    HW227483   0.281   1.746   6.249  1.0842  2.7801  0.4047
 5284SOL     OW27484   2.118   0.152   7.070  0.3445  0.0653 -0.0582
 5284SOL    HW127485   2.197   0.106   7.041  0.7400  0.3460  0.5789
 5284SOL    HW227486   2.141   0.165   7.162 -2.1932  0.5229  0.4932
 5285SOL     OW27487   2.879   4.232   3.130 -0.7663 -0.0159 -0.6633
 5285SOL    HW127488   2.819   4.162   3.105  1.5589 -1.5479 -1.9322
 5285SOL    HW227489   2.963   4.188   3.116 -0.5723  0.7973 -1.9971
 5286SOL     OW27490   3.146   1.270  15.578  0.0686 -0.2594 -0.3394
 5286SOL    HW127491   3.088   1.326  15.630 -0.4886 -0.8357 -0.3427
 5286SOL    HW227492   3.174   1.321  15.502  0.7935 -1.8487 -1.1417
 5287SOL     OW27493   2.006   2.141   1.547  0.4086  0.2270  0.1128
 5287SOL    HW127494   1.989   2.175   1.459  1.3246  1.0862  0.2674
 5287SOL    HW227495   1.929   2.084   1.545 -0.4592  1.5355 -3.0869
 5288SOL     OW27496   4.001   2.924  11.767 -0.4677 -0.3224 -0.7716
 5288SOL    HW127497   4.036   2.921  11.677 -0.8474  0.1698 -0.9382
 5288SOL    HW227498   3.943   2.997  11.746 -0.6097 -0.1013  0.4037
 5289SOL     OW27499   0.791   0.706  15.412 -0.0216 -0.0070 -0.0437
 5289SOL    HW127500   0.772   0.743  15.325  0.5198  0.6193  0.1020
 5289SOL    HW227501   0.862   0.764  15.439 -0.8445  0.4547  1.1384
 5290SOL     OW27502   0.375   2.270   2.534  0.4620 -0.0831  0.4770
 5290SOL    HW127503   0.419   2.356   2.527 -0.1455  0.1941  0.1066
 5290SOL    HW227504   0.359   2.258   2.628  0.0204 -0.8088  0.3080
 5291SOL     OW27505   4.111   0.947   6.120 -0.2389  0.3189 -0.5535
 5291SOL    HW127506   4.115   0.863   6.074 -2.3761  1.1109 -2.1646
 5291SOL    HW227507   4.180   0.941   6.186  1.1235  1.9600 -1.8460
 5292SOL     OW27508   3.498   0.154   1.453 -0.2110 -0.4230  0.0848
 5292SOL    HW127509   3.510   0.236   1.502  2.7673 -0.7955 -0.0762
 5292SOL    HW227510   3.403   0.143   1.450 -0.1245 -1.8324  1.8569
 5293SOL     OW27511   2.735   2.366   9.272 -0.2286  0.4995  0.1638
 5293SOL    HW127512   2.744   2.276   9.305  0.9735 -0.0677 -1.6754
 5293SOL    HW227513   2.640   2.374   9.269 -0.4126 -1.7901 -0.3382
 5294SOL     OW27514   1.010   4.410   5.082  0.3044  0.4598 -0.8024
 5294SOL    HW127515   1.069   4.484   5.098  0.8617  0.1566 -1.4547
 5294SOL    HW227516   0.935   4.467   5.069 -1.4581 -1.3803  1.3198
 5295SOL     OW27517   1.487   3.931  17.115 -0.0103  0.0784  0.0097
 5295SOL    HW127518   1.572   3.900  17.146 -0.0921  0.1142  0.2733
 5295SOL    HW227519   1.473   4.013  17.162  2.5285  2.1294 -2.7596
 5296SOL     OW27520   3.870   4.406   8.027 -0.0859 -0.3975  0.0575
 5296SOL    HW127521   3.830   4.322   8.004 -0.6661  0.3228 -1.5554
 5296SOL    HW227522   3.816   4.431   8.102 -0.7588 -1.4193 -0.0833
 5297SOL     OW27523   0.323   4.700   3.342 -0.0767 -0.2723 -0.3984
 5297SOL    HW127524   0.266   4.670   3.271  1.1919 -2.3528 -0.5514
 5297SOL    HW227525   0.263   4.689   3.416  1.8180  2.8674  1.6047
 5298SOL     OW27526   2.899   3.674   6.236 -0.4847  0.1153 -0.1310
 5298SOL    HW127527   2.889   3.750   6.179  0.8719  0.5063  0.1383
 5298SOL    HW227528   2.815   3.674   6.281  0.0241  0.6608  0.8254
 5299SOL     OW27529   4.503   4.696   5.160 -0.8355  0.0381  0.4168
 5299SOL    HW127530   4.567   4.645   5.111 -0.4387 -0.4820  1.4772
 5299SOL    HW227531   4.479   4.637   5.231  1.8444 -1.2331  0.2821
 5300SOL     OW27532   0.101   0.912   5.983  0.0060 -0.2290  0.0708
 5300SOL    HW127533   0.156   0.941   5.911 -1.0464 -2.2335 -1.5297
 5300SOL    HW227534   0.095   0.818   5.965  1.7007 -0.2998 -0.1592
 5301SOL     OW27535   3.888   3.789   8.655 -0.0951  0.0449 -0.2156
 5301SOL    HW127536   3.898   3.693   8.656 -2.7111 -0.2415 -1.3316
 5301SOL    HW227537   3.793   3.801   8.661 -0.2572 -0.8545 -0.9185
 5302SOL     OW27538   0.958   2.452   2.235 -0.0140 -0.3366  0.1771
 5302SOL    HW127539   0.976   2.364   2.203 -2.2273 -0.0076 -1.9402
 5302SOL    HW227540   0.977   2.515   2.165 -0.0992  0.3931  0.8157
 5303SOL     OW27541   3.442   3.999   4.610 -0.9808 -0.1867 -0.3164
 5303SOL    HW127542   3.391   3.998   4.691 -0.2240 -3.6762  0.1165
 5303SOL    HW227543   3.522   3.957   4.642  0.1532  1.6341 -0.7559
 5304SOL     OW27544   1.255   2.440   9.485  0.0753  0.0242 -0.2755
 5304SOL    HW127545   1.186   2.374   9.495  2.6164 -2.3257  1.7724
 5304SOL    HW227546   1.244   2.495   9.562 -0.5470 -0.6606  0.1340
 5305SOL     OW27547   1.066   3.939   6.115 -0.2342  0.0016 -0.2252
 5305SOL    HW127548   1.142   3.997   6.103  0.9357 -1.6435 -0.8096
 5305SOL    HW227549   1.004   3.961   6.046 -1.3452  0.0100  0.7897
 5306SOL     OW27550   0.958   1.126   0.856  0.0958 -0.6921  0.1845
 5306SOL    HW127551   1.051   1.111   0.835  0.4044  2.8728 -1.0371
 5306SOL    HW227552   0.925   1.165   0.775  0.5551 -2.7140 -0.9926
 5307SOL     OW27553   0.666   4.341  13.524  0.0607  0.5140 -0.5451
 5307SOL    HW127554   0.632   4.297  13.602  1.6705  1.5110  0.7028
 5307SOL    HW227555   0.589   4.392  13.501 -0.7854 -0.6186 -0.2185
 5308SOL     OW27556   3.803   1.219  16.824  0.2606 -0.2178  0.4318
 5308SOL    HW127557   3.805   1.138  16.773 -3.7817  0.3887 -0.6314
 5308SOL    HW227558   3.865   1.277  16.781  0.9338 -0.2540  1.3413
 5309SOL     OW27559   4.385   4.447   2.569  0.1441 -0.0174  0.1058
 5309SOL    HW127560   4.345   4.414   2.650  0.0243 -2.3255 -0.9169
 5309SOL    HW227561   4.453   4.380   2.559 -0.1992 -0.8131  2.9729
 5310SOL     OW27562   0.830   3.226   8.544 -0.3421  0.0752  0.1073
 5310SOL    HW127563   0.856   3.318   8.546  4.5557 -1.3860  3.0807
 5310SOL    HW227564   0.907   3.186   8.584  0.2179  0.4573 -0.6066
 5311SOL     OW27565   3.994   1.876   9.477  0.3638 -0.2177  0.0246
 5311SOL    HW127566   4.067   1.894   9.418 -0.7996  4.3569 -0.0212
 5311SOL    HW227567   4.025   1.910   9.561 -0.9127  1.3002 -0.1148
 5312SOL     OW27568   2.979   4.307  17.528  0.4612  0.5929 -0.2758
 5312SOL    HW127569   2.923   4.283  17.602 -0.9467  0.6282 -1.3212
 5312SOL    HW227570   2.931   4.388  17.507 -1.2813 -0.0818  1.1243
 5313SOL     OW27571   1.696   4.724   2.825  0.1607  0.1263 -0.0746
 5313SOL    HW127572   1.622   0.044   2.844 -0.5834  0.0194 -2.7366
 5313SOL    HW227573   1.757   0.051   2.789 -0.0986 -0.6935 -1.9796
 5314SOL     OW27574   0.681   2.671   8.310  0.3454  0.6705  0.2913
 5314SOL    HW127575   0.643   2.584   8.325  1.9248 -0.1825 -0.7566
 5314SOL    HW227576   0.661   2.691   8.219 -0.7572 -0.1057  0.3548
 5315SOL     OW27577   3.202   2.190   3.828 -0.2329 -0.0936  0.7049
 5315SOL    HW127578   3.189   2.224   3.916  0.9556  1.2335  0.3631
 5315SOL    HW227579   3.188   2.098   3.851 -0.3304 -0.7633 -2.0522
 5316SOL     OW27580   4.473   3.564  16.688 -0.0727 -0.4874  0.4107
 5316SOL    HW127581   4.380   3.544  16.696 -0.1332 -0.9725 -1.4558
 5316SOL    HW227582   4.470   3.608  16.604  1.9131 -1.4258 -0.1485
 5317SOL     OW27583   0.298   1.193   6.609 -0.2276 -0.3232  0.2911
 5317SOL    HW127584   0.327   1.150   6.690  2.8438 -1.9668 -1.6974
 5317SOL    HW227585   0.245   1.264   6.646 -1.7175 -1.4299  0.2812
 5318SOL     OW27586   0.818   4.308   7.936 -0.9180  0.1384  0.0212
 5318SOL    HW127587   0.796   4.400   7.951 -0.1261  0.9496 -3.8952
 5318SOL    HW227588   0.733   4.280   7.903 -0.5343 -1.6155  0.4987
 5319SOL     OW27589   3.358   2.348  13.689 -0.0817 -0.2199  0.6502
 5319SOL    HW127590   3.375   2.336  13.595 -0.2170  1.4377  0.4171
 5319SOL    HW227591   3.397   2.436  13.694 -0.1146 -0.1383 -0.6488
 5320SOL     OW27592   3.636   4.208  10.354  0.4882 -0.3043  0.0224
 5320SOL    HW127593   3.703   4.214  10.422  1.4112  3.7310 -1.2457
 5320SOL    HW227594   3.578   4.278  10.386 -0.2245 -0.9029  0.0396
 5321SOL     OW27595   1.768   1.593   6.251 -0.4266 -0.2511 -0.1163
 5321SOL    HW127596   1.789   1.609   6.159 -0.5158  3.9043  0.5419
 5321SOL    HW227597   1.820   1.656   6.302 -0.6814  1.5618 -2.0968
 5322SOL     OW27598   3.188   3.775  10.925 -0.9041  0.3599  0.2446
 5322SOL    HW127599   3.198   3.869  10.910 -1.1075  0.5020  1.0295
 5322SOL    HW227600   3.267   3.746  10.970  0.5666  2.1081 -1.1939
 5323SOL     OW27601   2.988   1.904   5.624  0.0345 -0.2357 -0.5194
 5323SOL    HW127602   3.065   1.878   5.575  0.8102  1.9037 -0.4554
 5323SOL    HW227603   2.942   1.952   5.555  0.2285  0.4309 -0.1827
 5324SOL     OW27604   3.644   3.867   5.491 -0.3782 -0.0419 -0.3326
 5324SOL    HW127605   3.683   3.926   5.427  1.8279 -1.8995 -0.6935
 5324SOL    HW227606   3.720   3.865   5.550 -1.2745  2.3693  0.9159
 5325SOL     OW27607   3.704   1.308   6.145  0.3202 -0.5529 -0.7557
 5325SOL    HW127608   3.692   1.254   6.223  2.8940  1.6154  1.1606
 5325SOL    HW227609   3.797   1.329   6.148 -0.1523  1.6330 -1.3203
 5326SOL     OW27610   1.472   3.747   4.516 -0.0230  0.8909  0.1750
 5326SOL    HW127611   1.428   3.831   4.529  1.0111  1.6504 -1.3297
 5326SOL    HW227612   1.533   3.780   4.451  1.3233 -3.1450 -0.6617
 5327SOL     OW27613   2.422   1.193   1.587  0.1013  0.0032 -0.1843
 5327SOL    HW127614   2.480   1.215   1.514 -1.5354 -0.4015 -1.6065
 5327SOL    HW227615   2.340   1.206   1.540 -0.9829  0.6853  1.9217
 5328SOL     OW27616   1.528   4.353   0.889  0.0257 -0.3900  0.0627
 5328SOL    HW127617   1.459   4.356   0.822 -0.7377  0.3676  0.8945
 5328SOL    HW227618   1.581   4.427   0.860  0.0598 -0.9546 -1.3120
 5329SOL     OW27619   3.994   4.506   7.178 -0.0893  0.0942  0.3331
 5329SOL    HW127620   4.020   4.426   7.224 -0.0245 -0.4712 -0.6790
 5329SOL    HW227621   3.927   4.538   7.239  2.3687  2.1125  1.9915
 5330SOL     OW27622   3.337   3.499   1.493 -0.2632  0.5095 -0.4176
 5330SOL    HW127623   3.255   3.545   1.477  0.6695  1.8437 -1.3287
 5330SOL    HW227624   3.386   3.524   1.415 -0.0054 -0.5204 -0.5865
 5331SOL     OW27625   4.428   1.948  13.563  0.1062 -0.2700 -0.4957
 5331SOL    HW127626   4.354   1.954  13.503  0.8181  0.6186 -1.2758
 5331SOL    HW227627   4.391   2.011  13.626 -0.2280 -0.1412 -0.8202
 5332SOL     OW27628   4.352   3.245   1.972 -0.3095  1.1193  0.0376
 5332SOL    HW127629   4.407   3.254   1.894 -0.1386 -1.6335 -0.1464
 5332SOL    HW227630   4.392   3.306   2.035 -1.4291  1.8300  0.0643
 5333SOL     OW27631   4.297   1.711   3.617 -0.4550  0.4616 -0.2459
 5333SOL    HW127632   4.205   1.733   3.600 -0.9918  0.1529  2.1775
 5333SOL    HW227633   4.290   1.703   3.712  0.0708  0.6188 -0.1939
 5334SOL     OW27634   2.780   2.573   9.932  0.0727  0.3795  0.0399
 5334SOL    HW127635   2.743   2.530  10.009 -1.7769  1.2941 -0.3412
 5334SOL    HW227636   2.834   2.508   9.888 -1.3660 -0.8632  0.0928
 5335SOL     OW27637   0.615   2.234   7.027  0.0641 -0.3754 -0.0727
 5335SOL    HW127638   0.570   2.238   6.943  0.5493 -0.2844 -0.3281
 5335SOL    HW227639   0.540   2.253   7.084 -1.7336 -0.2576 -2.4971
 5336SOL     OW27640   1.030   4.230   8.488  0.2069 -0.4114 -0.4096
 5336SOL    HW127641   1.037   4.297   8.420 -2.8678 -0.0263 -0.3139
 5336SOL    HW227642   1.006   4.154   8.435  0.7996 -0.4595 -0.6105
 5337SOL     OW27643   0.093   3.794  16.114  0.2910  0.4797  0.2504
 5337SOL    HW127644   0.156   3.758  16.051 -0.5074 -2.9119  1.3984
 5337SOL    HW227645   0.056   3.713  16.151  0.2458 -0.0616 -0.9686
 5338SOL     OW27646   2.099   2.920   4.827 -0.7487  0.2008 -0.4569
 5338SOL    HW127647   2.070   2.948   4.914 -1.8084  0.5552 -0.9272
 5338SOL    HW227648   2.057   2.991   4.779 -3.4910 -0.7847  0.4478
 5339SOL     OW27649   1.656   1.916   7.765 -0.3224  0.2858 -0.4896
 5339SOL    HW127650   1.626   1.910   7.856  1.0786  1.1791  0.0244
 5339SOL    HW227651   1.579   1.900   7.711 -0.4520  0.8826 -0.4744
 5340SOL     OW27652   2.526   4.356   2.167 -0.2585 -0.5774  0.2848
 5340SOL    HW127653   2.568   4.281   2.123 -0.7345 -0.2245 -0.7740
 5340SOL    HW227654   2.475   4.295   2.220 -1.6176  1.7341  1.5704
 5341SOL     OW27655   1.155   0.166   1.539 -0.6436 -0.1914 -0.0942
 5341SOL    HW127656   1.229   0.172   1.600 -0.1445 -0.3397 -0.6868
 5341SOL    HW227657   1.170   0.248   1.492  0.4068  0.1359  0.8082
 5342SOL     OW27658   1.479   2.076   4.937 -0.3583  0.1516 -0.4188
 5342SOL    HW127659   1.532   2.045   5.010  0.3922 -2.9428 -2.2694
 5342SOL    HW227660   1.397   2.034   4.959 -0.0073 -0.1806  0.2488
 5343SOL     OW27661   0.435   3.850   9.944 -0.3009 -0.0065 -0.1440
 5343SOL    HW127662   0.384   3.807  10.012 -1.0573  0.4485 -0.4306
 5343SOL    HW227663   0.508   3.877  10.001  0.1440 -1.8153  0.1353
 5344SOL     OW27664   4.683   1.316  13.453  0.2740  0.0372  0.5758
 5344SOL    HW127665   4.668   1.263  13.531 -1.1780  0.2389  0.4287
 5344SOL    HW227666   4.642   1.252  13.395  0.8772  0.8433 -0.7546
 5345SOL     OW27667   2.666   0.029  11.236 -0.5037 -0.1820 -0.2838
 5345SOL    HW127668   2.628   0.117  11.226 -0.3194 -0.2283 -1.4420
 5345SOL    HW227669   2.743   0.064  11.280  1.2070 -1.8743 -1.9067
 5346SOL     OW27670   1.481   2.719  12.546  0.6067 -0.2762 -0.0130
 5346SOL    HW127671   1.524   2.787  12.599  2.1064 -1.2734  0.0586
 5346SOL    HW227672   1.390   2.740  12.565  1.2144  2.0717  0.2999
 5347SOL     OW27673   4.120   1.252  12.159  0.1371  0.2192  0.2270
 5347SOL    HW127674   4.065   1.321  12.197  1.1367  1.5028 -0.6553
 5347SOL    HW227675   4.198   1.258  12.215 -0.3291 -0.2788  0.9275
 5348SOL     OW27676   0.856   1.809   8.766  0.1410 -0.4661  0.1978
 5348SOL    HW127677   0.917   1.878   8.741 -0.3054  0.0815  0.6293
 5348SOL    HW227678   0.910   1.732   8.786 -1.4665 -1.9850 -1.3405
 5349SOL     OW27679   3.024   4.002   0.816 -1.0284 -0.3050 -0.2045
 5349SOL    HW127680   2.986   4.014   0.729  1.3979  0.6537 -1.1150
 5349SOL    HW227681   2.952   4.007   0.880 -1.4445 -0.1288 -0.6902
 5350SOL     OW27682   0.738   4.448   0.307  0.4547 -0.3813  0.0667
 5350SOL    HW127683   0.736   4.459   0.212 -1.4055 -0.0561  0.1382
 5350SOL    HW227684   0.646   4.428   0.327 -0.1785  3.0558  0.5573
 5351SOL     OW27685   0.617   4.462  14.062 -0.5736  0.0896  0.2212
 5351SOL    HW127686   0.656   4.379  14.091 -1.7057 -1.7366 -3.5420
 5351SOL    HW227687   0.684   4.489  14.001 -1.2916  1.9167  0.2474
 5352SOL     OW27688   2.894   1.437   1.559 -0.1280 -0.4097 -0.5955
 5352SOL    HW127689   2.973   1.420   1.507  0.9007  1.1441  0.4451
 5352SOL    HW227690   2.917   1.379   1.631 -0.4550  0.5313  0.2561
 5353SOL     OW27691   4.362   1.069  16.609  0.3163  0.5223 -0.1467
 5353SOL    HW127692   4.343   1.125  16.533 -0.7680 -1.2037 -1.1317
 5353SOL    HW227693   4.447   1.029  16.593  0.7642  0.3206  2.8101
 5354SOL     OW27694   0.247   0.248   4.945 -0.3800 -0.6216  0.4151
 5354SOL    HW127695   0.243   0.334   4.987 -2.3545 -0.4868 -0.0569
 5354SOL    HW227696   0.272   0.205   5.027  0.0808 -1.2600 -0.0644
 5355SOL     OW27697   0.620   0.674  16.871  0.4017  0.1492  0.0800
 5355SOL    HW127698   0.561   0.746  16.846  2.2928  1.1674 -1.5181
 5355SOL    HW227699   0.696   0.733  16.869  0.4812  0.0480  0.1565
 5356SOL     OW27700   3.569   2.297   7.715 -0.6058 -0.2464  0.5774
 5356SOL    HW127701   3.537   2.256   7.795  0.8865 -2.2797  0.1589
 5356SOL    HW227702   3.593   2.227   7.653  0.2314  0.5926 -0.0473
 5357SOL     OW27703   2.197   1.324   7.627 -0.7542 -0.0349  0.0475
 5357SOL    HW127704   2.104   1.302   7.623 -1.0242  1.2061 -0.6608
 5357SOL    HW227705   2.179   1.418   7.635  1.4319  0.5924 -2.4575
 5358SOL     OW27706   3.839   0.392   7.141  0.4837 -0.1847 -0.3010
 5358SOL    HW127707   3.782   0.319   7.116  2.7599 -1.8934 -0.4168
 5358SOL    HW227708   3.917   0.372   7.091  1.1008 -0.7014  0.8688
 5359SOL     OW27709   2.319   3.590   7.105  0.1503  0.5187  0.1467
 5359SOL    HW127710   2.262   3.590   7.182  2.5516 -3.0113  1.9427
 5359SOL    HW227711   2.264   3.627   7.037  0.1047  0.3865  0.1104
 5360SOL     OW27712   0.231   2.687   9.253  0.1533 -0.3993  0.1020
 5360SOL    HW127713   0.282   2.727   9.182  0.4859  0.2070  0.6899
 5360SOL    HW227714   0.290   2.612   9.264  0.5359 -0.2025 -0.5926
 5361SOL     OW27715   0.031   3.581   3.405  0.0552  0.1349 -0.0973
 5361SOL    HW127716   0.051   3.634   3.482 -2.5152 -1.7543  1.8454
 5361SOL    HW227717   0.096   3.610   3.341 -0.7412  0.4169 -0.7677
 5362SOL     OW27718   2.079   1.573   7.622 -0.3950 -0.0515  0.0562
 5362SOL    HW127719   2.062   1.661   7.589  0.0592 -0.7929 -2.2098
 5362SOL    HW227720   1.988   1.545   7.631  0.0494 -0.8349  2.0898
 5363SOL     OW27721   1.661   2.996   2.085  0.3412 -0.2505 -0.3359
 5363SOL    HW127722   1.602   2.973   2.013  0.0546 -1.6318  0.3343
 5363SOL    HW227723   1.626   3.071   2.134  1.4166  0.8435 -1.2421
 5364SOL     OW27724   1.372   3.163   4.126 -0.6397 -0.6448  0.5050
 5364SOL    HW127725   1.291   3.204   4.155  0.1019  0.0868  1.5519
 5364SOL    HW227726   1.431   3.185   4.199 -1.4524 -2.7443  1.8013
 5365SOL     OW27727   3.210   3.298  17.536  0.7387 -0.7406 -0.0596
 5365SOL    HW127728   3.175   3.355  17.468  0.6425  1.2642  1.6813
 5365SOL    HW227729   3.174   3.343  17.612  1.5170 -0.4059  0.1138
 5366SOL     OW27730   0.245   3.792   0.451 -0.1287 -0.6580  0.4114
 5366SOL    HW127731   0.288   3.767   0.369  0.2624 -0.8113  0.6618
 5366SOL    HW227732   0.310   3.854   0.484 -0.1159 -0.2185 -0.4242
 5367SOL     OW27733   3.581   3.674  17.751  0.4569 -0.1365 -0.5567
 5367SOL    HW127734   3.546   3.652  17.665  0.1062 -2.3615  0.1597
 5367SOL    HW227735   3.503   3.699   0.049  1.3443 -0.8286  1.1890
 5368SOL     OW27736   2.142   1.906   1.680  0.8401 -0.2146 -0.4385
 5368SOL    HW127737   2.120   1.992   1.645  0.7868  0.6817  1.8215
 5368SOL    HW227738   2.206   1.880   1.614  1.8981 -0.3482  0.6470
 5369SOL     OW27739   3.571   4.092   1.252  0.1235 -0.0236 -0.2109
 5369SOL    HW127740   3.488   4.065   1.292  1.0199 -2.3536  0.0205
 5369SOL    HW227741   3.632   4.066   1.320 -1.0679  0.3634  0.9964
 5370SOL     OW27742   1.176   0.420   5.749 -0.3457 -0.5487  0.1636
 5370SOL    HW127743   1.229   0.396   5.673 -0.4744 -0.2129 -0.0300
 5370SOL    HW227744   1.238   0.485   5.785 -1.6838  0.1978  1.1099
 5371SOL     OW27745   2.030   0.714   7.515  0.1655  0.0023  0.0132
 5371SOL    HW127746   2.079   0.632   7.525  0.4552  0.2736  0.8315
 5371SOL    HW227747   1.975   0.712   7.594 -0.5276  1.9197 -0.4179
 5372SOL     OW27748   1.302   1.378   6.547  0.5237  0.6716  0.0171
 5372SOL    HW127749   1.397   1.376   6.558  0.3773 -0.1654  1.1397
 5372SOL    HW227750   1.291   1.332   6.463  2.0073 -0.1679  0.2698
 5373SOL     OW27751   3.075   0.591   3.016  0.0905 -0.8664  0.0997
 5373SOL    HW127752   3.148   0.584   2.955  0.2785 -1.9221  0.4539
 5373SOL    HW227753   3.088   0.677   3.056  1.2812 -1.6213  1.3048
 5374SOL     OW27754   2.919   3.793   2.334  0.0397 -0.4477  0.0199
 5374SOL    HW127755   2.881   3.791   2.246 -0.6338 -0.8030  0.3206
 5374SOL    HW227756   3.009   3.773   2.308  0.2181  0.5186 -0.0750
 5375SOL     OW27757   1.033   4.543   8.026  0.8015 -0.1012 -0.5571
 5375SOL    HW127758   0.943   4.567   8.048  1.2034 -0.3623  1.3959
 5375SOL    HW227759   1.081   4.524   8.107  3.2474  1.9564 -1.5571
 5376SOL     OW27760   2.655   1.809   7.034 -0.1042  0.0847  0.2379
 5376SOL    HW127761   2.711   1.886   7.027  0.9880 -0.5969  1.5014
 5376SOL    HW227762   2.683   1.801   7.126 -0.0157 -0.0548  0.1986
 5377SOL     OW27763   2.722   4.565   1.192  0.3035  0.3015 -1.0512
 5377SOL    HW127764   2.683   4.589   1.276  1.3141  1.9615 -1.0567
 5377SOL    HW227765   2.705   4.639   1.134 -0.8367  1.3725  0.6599
 5378SOL     OW27766   0.390   0.720   2.020 -0.1712 -0.1418  0.0080
 5378SOL    HW127767   0.359   0.676   1.941 -2.0338 -0.0910  0.7045
 5378SOL    HW227768   0.306   0.713   2.065 -0.2342 -0.7282 -0.1973
 5379SOL     OW27769   2.581   2.072   3.529 -0.0160  0.1873 -0.2011
 5379SOL    HW127770   2.517   2.137   3.498 -2.7932 -1.7645  1.4188
 5379SOL    HW227771   2.651   2.088   3.466  0.8431  1.6241  1.1237
 5380SOL     OW27772   2.491   1.101   2.079 -0.0319 -0.3782  0.0352
 5380SOL    HW127773   2.533   1.137   2.001 -0.4840  1.0343  0.4476
 5380SOL    HW227774   2.417   1.049   2.050 -1.3854  1.3679  0.3788
 5381SOL     OW27775   2.273   2.868   4.370 -0.3142 -0.0821 -0.0737
 5381SOL    HW127776   2.320   2.898   4.448  0.2081  0.4353 -0.5892
 5381SOL    HW227777   2.345   2.890   4.311  0.9128 -0.2780  1.3484
 5382SOL     OW27778   4.221   0.070  14.663  0.1484  0.3893  0.4312
 5382SOL    HW127779   4.190   4.718  14.656 -0.6416  0.8781 -2.0270
 5382SOL    HW227780   4.134   0.107  14.673  0.2936  0.7355  0.4055
 5383SOL     OW27781   0.236   3.370   6.917 -0.1813 -0.3841 -0.4107
 5383SOL    HW127782   0.310   3.370   6.857  1.8707 -0.4809  2.1280
 5383SOL    HW227783   0.209   3.279   6.913 -2.4586  0.2951 -0.5458
 5384SOL     OW27784   0.676   2.769   8.058 -0.2168  0.0963 -0.0239
 5384SOL    HW127785   0.626   2.764   7.977 -1.5147  0.9818  0.7330
 5384SOL    HW227786   0.647   2.856   8.083 -2.7931 -0.7166 -0.1776
 5385SOL     OW27787   1.128   2.143  11.482  0.4571 -0.4032  0.1232
 5385SOL    HW127788   1.170   2.155  11.397 -1.0359  0.1752 -0.5264
 5385SOL    HW227789   1.089   2.058  11.464 -1.0841  1.1279 -3.7294
 5386SOL     OW27790   3.559   4.180   8.328  0.7426  0.0539 -0.2273
 5386SOL    HW127791   3.492   4.213   8.388 -0.3595 -2.3570 -0.1294
 5386SOL    HW227792   3.631   4.167   8.390 -0.5155  1.4400  1.5244
 5387SOL     OW27793   2.299   4.188   6.595 -0.5255 -0.2528  0.0127
 5387SOL    HW127794   2.385   4.168   6.557 -0.4114 -0.5976  0.4376
 5387SOL    HW227795   2.319   4.261   6.654 -0.1241 -2.5021  2.6837
 5388SOL     OW27796   4.284   0.471   5.266 -0.6405 -0.2178  0.4206
 5388SOL    HW127797   4.220   0.541   5.256 -1.6102 -1.0043  1.0371
 5388SOL    HW227798   4.283   0.421   5.185  1.1349  0.4690 -0.0277
 5389SOL     OW27799   2.413   3.459   4.977  0.1848 -0.0994  0.2996
 5389SOL    HW127800   2.358   3.384   5.000  0.2758  0.0118  0.8647
 5389SOL    HW227801   2.365   3.484   4.898  0.6605  0.0507  0.0577
 5390SOL     OW27802   3.843   2.719   2.358 -0.3209 -0.5059 -0.0341
 5390SOL    HW127803   3.811   2.709   2.269  1.3241 -0.0701 -0.6659
 5390SOL    HW227804   3.878   2.630   2.371  1.0618 -0.0313 -0.5340
 5391SOL     OW27805   3.756   1.961  16.138  0.0091 -0.8409  0.3854
 5391SOL    HW127806   3.681   1.903  16.143 -1.0902  0.5780  0.3201
 5391SOL    HW227807   3.801   1.952  16.222  1.0189  0.8713  0.0242
 5392SOL     OW27808   4.501   4.320  11.757 -0.0526 -0.0406 -0.0193
 5392SOL    HW127809   4.572   4.375  11.791  0.8938  0.4269 -2.7754
 5392SOL    HW227810   4.555   4.241  11.760  2.8045  1.9615  1.1057
 5393SOL     OW27811   3.871   3.985  14.884  0.1117 -0.0599 -0.2827
 5393SOL    HW127812   3.840   3.905  14.842  0.1669 -1.6929  2.7546
 5393SOL    HW227813   3.791   4.036  14.889 -1.1988 -2.3173  1.4377
 5394SOL     OW27814   1.959   2.124   2.016  0.3351 -0.0844 -0.1678
 5394SOL    HW127815   1.914   2.185   2.075 -1.4882 -0.4792 -1.1633
 5394SOL    HW227816   1.879   2.083   1.984  1.0017 -0.9596 -0.7015
 5395SOL     OW27817   2.917   1.389   5.814 -0.2589 -0.1260  0.3548
 5395SOL    HW127818   2.935   1.405   5.907  2.1084  1.3657 -0.3764
 5395SOL    HW227819   3.007   1.401   5.783 -0.3045  0.1954  0.3446
 5396SOL     OW27820   2.816   1.975   6.648  0.0194  0.0211  0.1956
 5396SOL    HW127821   2.760   2.013   6.715 -0.9219 -0.0965 -0.5215
 5396SOL    HW227822   2.898   2.023   6.659  0.6169 -0.7289 -1.0055
 5397SOL     OW27823   3.222   0.788  15.382  0.6545  0.0227  0.4748
 5397SOL    HW127824   3.195   0.696  15.381  0.3174  0.1388 -0.9181
 5397SOL    HW227825   3.138   0.829  15.401 -0.1790 -1.8993  0.9350
 5398SOL     OW27826   3.216   0.027  15.943  0.1336 -0.6243 -0.5158
 5398SOL    HW127827   3.279   0.087  15.901 -1.3348  0.7951 -0.7120
 5398SOL    HW227828   3.165   0.096  15.986  1.1865 -0.7561  0.9343
 5399SOL     OW27829   3.499   3.486   8.636 -0.2581  0.1672  0.1781
 5399SOL    HW127830   3.431   3.552   8.623 -0.9293 -0.5548  0.0027
 5399SOL    HW227831   3.457   3.408   8.672  0.0633 -0.0444  0.0990
 5400SOL     OW27832   1.623   3.523   5.173 -0.1999  0.3826  0.1565
 5400SOL    HW127833   1.603   3.460   5.104 -0.7255  0.4706  0.2299
 5400SOL    HW227834   1.676   3.588   5.125  1.4533 -0.1034  1.3046
 5401SOL     OW27835   2.632   3.116   7.617 -0.1948 -0.1622  0.0368
 5401SOL    HW127836   2.643   3.059   7.693 -3.9036 -2.1286 -0.9415
 5401SOL    HW227837   2.578   3.184   7.659 -0.6771 -0.5864  0.1019
 5402SOL     OW27838   3.710   0.987   5.805 -0.1272  0.2985  0.4794
 5402SOL    HW127839   3.735   1.077   5.826  0.0005  1.0857 -2.9603
 5402SOL    HW227840   3.672   0.961   5.889 -1.2618 -1.7327 -0.6601
 5403SOL     OW27841   4.021   0.790   2.633 -0.1403 -0.0262  0.5007
 5403SOL    HW127842   4.040   0.821   2.722 -1.4266  3.7958 -0.5741
 5403SOL    HW227843   4.018   0.697   2.655 -0.8646 -0.0766  0.1695
 5404SOL     OW27844   4.440   1.934   7.071 -0.8073 -0.3503 -0.2105
 5404SOL    HW127845   4.437   1.840   7.088 -1.3871 -0.1017  1.0359
 5404SOL    HW227846   4.534   1.948   7.070 -1.0126  1.1403  1.3215
 5405SOL     OW27847   0.799   3.694  14.889 -0.1157 -0.1563  0.1802
 5405SOL    HW127848   0.744   3.750  14.944  1.0618 -0.4067  1.6111
 5405SOL    HW227849   0.853   3.660  14.960 -2.3758 -0.7497  1.6339
 5406SOL     OW27850   2.422   3.845   6.422  0.3022  0.4488  0.3338
 5406SOL    HW127851   2.331   3.821   6.405  0.4842 -0.3406  0.4897
 5406SOL    HW227852   2.434   3.852   6.516  0.2357 -0.4865  0.4101
 5407SOL     OW27853   3.560   0.707   9.085  0.6575 -0.5285  0.0645
 5407SOL    HW127854   3.640   0.727   9.134  1.0786 -2.5794  0.2205
 5407SOL    HW227855   3.503   0.706   9.162  2.4377  0.8830  1.3752
 5408SOL     OW27856   2.860   0.576   2.704 -0.0015  0.0117  0.7150
 5408SOL    HW127857   2.831   0.500   2.754  2.0912 -1.7479 -0.7239
 5408SOL    HW227858   2.795   0.639   2.734 -2.0346 -2.5349  1.5880
 5409SOL     OW27859   3.611   3.017   6.424  0.2876  0.8001 -0.6017
 5409SOL    HW127860   3.636   2.999   6.333  1.0130  1.2957 -0.5027
 5409SOL    HW227861   3.524   2.979   6.439 -0.4655  0.9728 -4.5063
 5410SOL     OW27862   0.149   3.242  15.737 -0.1910 -0.2787 -0.2898
 5410SOL    HW127863   0.105   3.287  15.808 -0.3761 -0.3208 -0.3769
 5410SOL    HW227864   0.200   3.178  15.786 -0.3913  0.5239  0.9439
 5411SOL     OW27865   0.587   1.714   3.155 -0.0873 -0.2059 -0.5015
 5411SOL    HW127866   0.558   1.780   3.218 -0.6718 -0.2652 -0.7085
 5411SOL    HW227867   0.505   1.669   3.138  0.9819 -2.2101 -0.3533
 5412SOL     OW27868   4.077   3.580  11.551  0.5634 -0.3209  0.2364
 5412SOL    HW127869   4.055   3.540  11.467  1.8898  1.5087 -0.9872
 5412SOL    HW227870   4.110   3.668  11.529  0.5505 -0.6771 -1.1715
 5413SOL     OW27871   1.892   3.482   8.461  0.2977  0.1427 -0.2442
 5413SOL    HW127872   1.954   3.472   8.389  1.4655 -0.4072  0.8490
 5413SOL    HW227873   1.954   3.475   8.533 -0.4226 -1.9945  0.1521
 5414SOL     OW27874   1.023   3.567   5.231  0.1378  0.2247  0.2925
 5414SOL    HW127875   0.988   3.509   5.164  1.3104 -0.9694  0.6893
 5414SOL    HW227876   1.109   3.599   5.204  0.7423  0.0622  1.9994
 5415SOL     OW27877   3.869   3.804  10.971  0.1308 -0.1644 -0.4199
 5415SOL    HW127878   3.818   3.877  11.004  0.2423 -0.4514  0.3891
 5415SOL    HW227879   3.834   3.732  11.024 -0.7277 -0.8990 -1.9925
 5416SOL     OW27880   2.003   0.161   8.775  0.5233  0.0495 -0.6439
 5416SOL    HW127881   2.048   0.078   8.792 -1.2274 -0.3233  2.1990
 5416SOL    HW227882   1.916   0.134   8.802  0.4777  3.2981  2.5864
 5417SOL     OW27883   3.652   1.872   3.091  0.0153  0.3967 -0.0150
 5417SOL    HW127884   3.661   1.807   3.022  0.9324  0.8604 -0.3412
 5417SOL    HW227885   3.560   1.864   3.114 -0.6483  0.7746 -2.5472
 5418SOL     OW27886   4.369   2.812   5.892  0.3060  0.4077 -0.0871
 5418SOL    HW127887   4.320   2.738   5.857  3.1041 -1.1075 -0.8400
 5418SOL    HW227888   4.440   2.815   5.828 -0.4863  3.1737 -0.8554
 5419SOL     OW27889   3.870   0.003  10.220 -0.0064 -0.2959 -0.0010
 5419SOL    HW127890   3.847   4.661  10.267 -1.0246  0.6551  1.1225
 5419SOL    HW227891   3.965   4.734  10.208  0.0404  2.1928 -1.0022
 5420SOL     OW27892   2.264   1.133   8.581  0.3497  0.1961 -0.1233
 5420SOL    HW127893   2.174   1.127   8.612  0.7344  0.7318  1.1047
 5420SOL    HW227894   2.290   1.053   8.627  0.7953  0.5626  0.2599
 5421SOL     OW27895   1.358   2.165  10.292 -0.3102 -0.3428 -0.1230
 5421SOL    HW127896   1.409   2.138  10.216  0.1158  0.9801 -0.3073
 5421SOL    HW227897   1.286   2.208  10.246  0.4815 -1.5347 -2.4537
 5422SOL     OW27898   3.913   3.954   0.929 -0.1607 -0.4048 -0.2903
 5422SOL    HW127899   3.855   3.918   0.862  2.4201 -2.6694 -1.2726
 5422SOL    HW227900   3.980   3.889   0.947 -0.3794 -0.5158  0.1029
 5423SOL     OW27901   2.612   1.704   7.908 -0.0445  0.4157  0.3986
 5423SOL    HW127902   2.682   1.769   7.903  1.2018 -0.9952 -0.3726
 5423SOL    HW227903   2.599   1.684   7.815  2.4191  2.0679 -0.3173
 5424SOL     OW27904   3.184   2.448   8.741  0.0020 -0.1738 -0.3715
 5424SOL    HW127905   3.128   2.386   8.694 -2.2143  0.4620  1.4596
 5424SOL    HW227906   3.242   2.476   8.669 -0.6648  0.5908 -0.6125
 5425SOL     OW27907   0.164   1.701   5.579  0.4283  0.0091  0.4195
 5425SOL    HW127908   0.187   1.673   5.668 -0.3035  0.5457  0.7823
 5425SOL    HW227909   0.069   1.686   5.584  0.1193  2.2455  0.9908
 5426SOL     OW27910   0.718   2.900   4.826  0.3487 -0.0927  0.1481
 5426SOL    HW127911   0.661   2.968   4.789  0.3190 -0.0152  0.3347
 5426SOL    HW227912   0.701   2.823   4.773 -0.5707  0.1788  0.0509
 5427SOL     OW27913   2.972   1.853  12.482  0.5164  0.2733 -0.6271
 5427SOL    HW127914   2.977   1.933  12.534 -0.2054  2.1164 -3.4507
 5427SOL    HW227915   2.941   1.890  12.400  0.3380  3.9109  1.0842
 5428SOL     OW27916   1.367   3.165   7.810  0.5960 -0.1263 -0.2373
 5428SOL    HW127917   1.390   3.177   7.718  0.7194  0.1405 -0.1707
 5428SOL    HW227918   1.365   3.257   7.836  0.2265  0.1416 -1.2272
 5429SOL     OW27919   4.713   3.423   3.159 -0.0865 -0.4507  0.0694
 5429SOL    HW127920   0.062   3.387   3.141 -0.2813 -1.8844  2.0006
 5429SOL    HW227921   4.731   3.512   3.129 -0.6179  0.0989  1.3905
 5430SOL     OW27922   4.118   3.232   1.054  0.7527  0.1848 -0.6465
 5430SOL    HW127923   4.187   3.185   1.006  0.0326 -0.5187 -0.9899
 5430SOL    HW227924   4.034   3.202   1.020  1.2882 -1.1940 -0.7719
 5431SOL     OW27925   3.867   3.966   2.853  0.7550  0.3548  1.1828
 5431SOL    HW127926   3.904   4.051   2.827  0.7732  0.0363  0.1821
 5431SOL    HW227927   3.805   3.995   2.920  0.3291 -1.0914  1.4018
 5432SOL     OW27928   1.496   1.078   2.393  0.5022 -0.1382  0.0716
 5432SOL    HW127929   1.416   1.095   2.345  1.5838  0.2854 -1.5743
 5432SOL    HW227930   1.522   1.168   2.413 -1.5927  0.3183  0.6776
 5433SOL     OW27931   3.429   4.017   1.569 -0.0934  0.7740  0.3387
 5433SOL    HW127932   3.406   4.082   1.503  1.7988  1.4626  0.3595
 5433SOL    HW227933   3.456   4.078   1.638 -1.5591  0.0989  1.5091
 5434SOL     OW27934   2.106   2.990  11.853 -0.2710 -0.2213  0.1537
 5434SOL    HW127935   2.151   3.070  11.824  0.2812 -1.0168 -1.1821
 5434SOL    HW227936   2.031   3.022  11.903  1.2378  1.8155  1.1285
 5435SOL     OW27937   0.021   2.026   7.329  0.3858  0.0430  0.0397
 5435SOL    HW127938   4.704   1.972   7.385 -2.9030  0.5657 -2.7123
 5435SOL    HW227939   4.722   1.999   7.245 -0.9828 -0.7141  0.8950
 5436SOL     OW27940   4.605   2.850   5.191 -0.9120 -0.6271  0.4529
 5436SOL    HW127941   4.582   2.757   5.194  0.4216 -0.9990 -0.7463
 5436SOL    HW227942   4.589   2.860   5.097  2.2665 -0.6794 -0.0887
 5437SOL     OW27943   0.138   1.393   5.483 -0.1056  0.5348  0.1022
 5437SOL    HW127944   0.141   1.485   5.458  1.1994  0.7869  1.2155
 5437SOL    HW227945   0.230   1.371   5.470  0.4911  2.3080  1.2082
 5438SOL     OW27946   4.007   1.688   6.883  0.6494  0.4027  0.0352
 5438SOL    HW127947   4.001   1.747   6.807  2.3698 -2.2450 -2.1694
 5438SOL    HW227948   3.914   1.668   6.892  0.7525 -0.0243  0.1153
 5439SOL     OW27949   2.904   2.882   3.425  0.2811  0.0644 -0.0905
 5439SOL    HW127950   2.884   2.916   3.338 -0.3040  2.0567  0.8299
 5439SOL    HW227951   2.908   2.962   3.478 -1.7379 -0.9588  1.6171
 5440SOL     OW27952   0.800   2.180   2.818 -0.0167 -0.3674 -0.4589
 5440SOL    HW127953   0.830   2.097   2.782 -0.6333 -0.1839 -1.3704
 5440SOL    HW227954   0.795   2.157   2.911  0.9412  1.6229  0.0940
 5441SOL     OW27955   3.426   4.659   2.081  0.6447  0.5222 -0.1962
 5441SOL    HW127956   3.494   4.706   2.130  1.9365 -0.0076 -1.4694
 5441SOL    HW227957   3.476   4.610   2.016 -1.7475 -1.1284 -0.7563
 5442SOL     OW27958   3.896   3.581  10.813 -0.2512 -0.2805  0.8022
 5442SOL    HW127959   3.892   3.664  10.860 -0.4199  0.3314 -0.2987
 5442SOL    HW227960   3.984   3.550  10.837 -1.0454 -2.6839  0.6529
 5443SOL     OW27961   4.178   3.557   5.420 -0.7444 -0.0018  0.7835
 5443SOL    HW127962   4.235   3.514   5.484  0.2792 -1.9439 -1.4603
 5443SOL    HW227963   4.109   3.493   5.433 -1.7970  1.3771  1.9831
 5444SOL     OW27964   0.243   3.593  17.021  0.4836 -0.0771 -0.0763
 5444SOL    HW127965   0.203   3.506  17.028  2.8994 -1.1485  0.3922
 5444SOL    HW227966   0.311   3.579  17.087  0.8015  3.9775  0.4106
 5445SOL     OW27967   1.882   1.882   9.384 -0.2561  0.2236  0.8755
 5445SOL    HW127968   1.880   1.953   9.447 -0.4066  1.3264 -0.3700
 5445SOL    HW227969   1.973   1.856   9.398 -0.1910 -1.3695 -2.3620
 5446SOL     OW27970   1.480   1.630   6.445  0.6660  0.4676 -0.1165
 5446SOL    HW127971   1.423   1.667   6.512 -1.1534 -2.3541 -0.0780
 5446SOL    HW227972   1.566   1.625   6.486  0.8191 -0.1508 -0.5056
 5447SOL     OW27973   4.540   2.821   6.861  0.4494 -0.6056  0.4183
 5447SOL    HW127974   4.451   2.851   6.879  0.9432  0.1845  1.5266
 5447SOL    HW227975   4.569   2.897   6.810  0.6828 -0.2068  1.1629
 5448SOL     OW27976   3.619   0.368   8.521  0.1809  0.4639  0.0624
 5448SOL    HW127977   3.625   0.387   8.427  0.1190  0.3829  0.0420
 5448SOL    HW227978   3.641   0.275   8.527 -0.9117  0.1434 -0.7539
 5449SOL     OW27979   2.900   4.312   4.021 -0.0786 -0.2933  0.8871
 5449SOL    HW127980   2.882   4.341   3.932 -1.0400  0.4228  1.3147
 5449SOL    HW227981   2.994   4.321   4.032 -0.2983  0.0011  2.5608
 5450SOL     OW27982   1.826   4.340   2.466 -0.2708 -0.0637  0.0991
 5450SOL    HW127983   1.774   4.405   2.513  1.5715  0.2608  1.6624
 5450SOL    HW227984   1.826   4.374   2.377 -1.3127  1.0842  0.5415
 5451SOL     OW27985   4.327   1.905   3.928 -0.5665 -0.6332 -0.0254
 5451SOL    HW127986   4.403   1.964   3.926 -0.0465 -1.2660  1.6633
 5451SOL    HW227987   4.373   1.824   3.948  0.6055 -0.0943 -0.5286
 5452SOL     OW27988   1.361   4.510   6.433 -0.3435  0.1425 -0.2209
 5452SOL    HW127989   1.421   4.583   6.422 -0.0327 -0.0840 -0.0301
 5452SOL    HW227990   1.390   4.466   6.513 -0.2341 -0.6122 -0.6738
 5453SOL     OW27991   2.585   4.649   8.654 -0.0941  0.4248 -0.2249
 5453SOL    HW127992   2.490   4.651   8.655 -0.1148  0.3664 -1.2279
 5453SOL    HW227993   2.605   0.002   8.671 -2.1346  1.2071 -2.0303
 5454SOL     OW27994   3.427   4.429   7.551 -0.1706 -0.3314 -0.1151
 5454SOL    HW127995   3.448   4.377   7.473 -1.3769 -2.0676  0.7330
 5454SOL    HW227996   3.427   4.514   7.507 -4.0627 -0.7603 -0.9157
 5455SOL     OW27997   1.769   4.604  10.627 -0.4253 -0.7536  0.0965
 5455SOL    HW127998   1.702   4.592  10.694 -1.7772  3.6287 -0.4650
 5455SOL    HW227999   1.845   4.621  10.683 -0.9832  0.2517  0.5529
 5456SOL     OW28000   1.244   2.315   1.707  0.9648 -0.3397 -0.0604
 5456SOL    HW128001   1.158   2.301   1.667  0.8915 -3.0155  1.0530
 5456SOL    HW228002   1.214   2.366   1.783 -0.7376  0.4849 -1.2660
 5457SOL     OW28003   0.432   2.464   6.758 -0.2050 -0.4883 -0.3324
 5457SOL    HW128004   0.386   2.477   6.841 -0.2668 -1.0398 -0.2765
 5457SOL    HW228005   0.418   2.370   6.742  0.4561 -0.4894 -0.9413
 5458SOL     OW28006   4.276   0.335   5.026  0.3916  0.0260  0.1034
 5458SOL    HW128007   4.371   0.320   5.026  0.5515  0.9955 -1.3543
 5458SOL    HW228008   4.262   0.287   4.945  0.1891  1.2863 -0.6121
 5459SOL     OW28009   3.118   4.325   5.664 -0.1475  0.5096 -0.1583
 5459SOL    HW128010   3.056   4.307   5.593  1.0026 -0.7651 -0.8444
 5459SOL    HW228011   3.113   4.420   5.654  1.0022  0.5821 -0.0496
 5460SOL     OW28012   3.075   0.445   5.566 -0.2506 -0.1449  0.0303
 5460SOL    HW128013   3.001   0.502   5.543 -0.3401  0.2779  1.3192
 5460SOL    HW228014   3.140   0.515   5.560 -1.1346  0.4257 -2.7938
 5461SOL     OW28015   1.654   3.872   5.284 -0.8088  0.4807 -0.5800
 5461SOL    HW128016   1.628   3.964   5.273  1.6628  1.1571 -0.7462
 5461SOL    HW228017   1.571   3.828   5.302 -2.1443  3.7368  1.1571
 5462SOL     OW28018   3.829   3.711  15.142 -0.2006  0.0161  0.1822
 5462SOL    HW128019   3.773   3.760  15.201  0.1191 -0.4520  0.8695
 5462SOL    HW228020   3.761   3.680  15.081 -1.8012  2.7108  0.6375
 5463SOL     OW28021   0.443   2.602  17.396 -0.0999  0.8304  0.1862
 5463SOL    HW128022   0.434   2.628  17.304  1.6946 -0.0306 -0.2366
 5463SOL    HW228023   0.427   2.685  17.440 -1.6087  1.0067 -0.6822
 5464SOL     OW28024   3.252   4.459  14.177 -0.2492  0.3947  0.5381
 5464SOL    HW128025   3.179   4.420  14.224 -0.7534 -0.3788 -0.8888
 5464SOL    HW228026   3.325   4.402  14.204  0.4207 -1.0162 -4.3219
 5465SOL     OW28027   2.887   2.491  12.757  0.1007  0.2067 -0.0071
 5465SOL    HW128028   2.927   2.476  12.843 -1.6219 -1.2435  0.5406
 5465SOL    HW228029   2.845   2.405  12.748  1.8430 -0.8278  1.7751
 5466SOL     OW28030   0.510   0.626  13.252  0.1246 -0.7211 -0.5819
 5466SOL    HW128031   0.441   0.646  13.316  1.3543  0.7881  0.2699
 5466SOL    HW228032   0.478   0.671  13.174  2.2067  2.4090  0.3889
 5467SOL     OW28033   1.462   3.141   6.390  0.4887  0.2007  0.1152
 5467SOL    HW128034   1.548   3.180   6.407  0.4411 -0.8650  2.9246
 5467SOL    HW228035   1.404   3.216   6.397 -1.9085 -1.5604 -0.7604
 5468SOL     OW28036   2.895   2.069  16.197  0.0842 -0.1998 -0.3599
 5468SOL    HW128037   2.919   2.146  16.248  0.1036 -1.9311  2.2714
 5468SOL    HW228038   2.804   2.082  16.171  0.4159 -2.2438 -2.5871
 5469SOL     OW28039   2.201   3.971   2.387 -0.2526 -0.0324 -0.8561
 5469SOL    HW128040   2.262   3.963   2.461 -1.4626 -0.5338  0.0868
 5469SOL    HW228041   2.130   4.027   2.419 -0.8654  0.1345 -2.5113
 5470SOL     OW28042   1.767   0.986  10.170 -0.0703 -0.2256  0.1808
 5470SOL    HW128043   1.808   0.938  10.241  2.6360  0.7513 -0.7265
 5470SOL    HW228044   1.826   0.961  10.099  0.8052  1.9976  0.1212
 5471SOL     OW28045   0.098   2.470  15.431 -0.0220 -0.0026  0.2500
 5471SOL    HW128046   0.119   2.407  15.500  3.0054  3.4261  2.4454
 5471SOL    HW228047   0.165   2.451  15.366 -0.9239 -0.7882 -0.4535
 5472SOL     OW28048   3.520   2.490  14.310 -0.0108 -0.0033  0.5007
 5472SOL    HW128049   3.439   2.524  14.272 -0.9628 -3.1643 -0.3278
 5472SOL    HW228050   3.512   2.520  14.400 -0.1006 -0.8644  0.7819
 5473SOL     OW28051   2.265   0.754   8.934  0.1207  0.0478 -0.8728
 5473SOL    HW128052   2.187   0.804   8.957  1.2475 -0.8285  4.9313
 5473SOL    HW228053   2.266   0.759   8.839 -1.0358 -0.2768 -0.9087
 5474SOL     OW28054   1.285   4.335   8.966  0.5392  0.4367  0.1376
 5474SOL    HW128055   1.272   4.422   8.928  0.4902  1.9083  3.5290
 5474SOL    HW228056   1.359   4.305   8.913  1.4769 -1.3933  2.4784
 5475SOL     OW28057   1.401   0.077   3.194  0.4595  0.0541  0.2654
 5475SOL    HW128058   1.484   0.062   3.148  0.3662  0.6166 -0.0889
 5475SOL    HW228059   1.433   0.069   3.283 -1.8155 -2.3004  0.9027
 5476SOL     OW28060   0.911   3.617   0.152 -0.6442 -0.1988 -0.3070
 5476SOL    HW128061   0.842   3.577   0.099 -1.2225 -0.6477  0.7626
 5476SOL    HW228062   0.876   3.598   0.240  0.1366  0.6578  0.1838
 5477SOL     OW28063   4.216   1.918   9.329  0.5852  0.0350  0.4026
 5477SOL    HW128064   4.271   1.996   9.332 -1.1774  1.3496 -1.8143
 5477SOL    HW228065   4.241   1.880   9.245 -1.1138 -1.2839  0.5018
 5478SOL     OW28066   4.292   3.463   7.566 -0.6155 -0.3648 -0.4483
 5478SOL    HW128067   4.232   3.412   7.512  0.5479  0.4955 -2.5398
 5478SOL    HW228068   4.332   3.395   7.620  1.1198  0.4261 -0.7131
 5479SOL     OW28069   4.355   1.057   3.387 -0.3408 -0.0823  0.3675
 5479SOL    HW128070   4.259   1.060   3.389 -0.2779  0.4228  2.3957
 5479SOL    HW228071   4.383   1.087   3.474  1.9684  0.8600 -0.7019
 5480SOL     OW28072   4.468   3.881   7.040  0.6612 -0.0927  0.1121
 5480SOL    HW128073   4.405   3.949   7.064  0.3241 -0.5156  0.4246
 5480SOL    HW228074   4.484   3.839   7.124 -0.2473 -0.0929  0.2880
 5481SOL     OW28075   1.580   2.931   8.544 -0.1314 -0.0399  0.3549
 5481SOL    HW128076   1.676   2.928   8.549 -0.1039  0.2945  0.0716
 5481SOL    HW228077   1.565   2.836   8.544 -0.2105 -0.0205  2.2281
 5482SOL     OW28078   3.127   0.212  17.231 -0.1086  0.8887 -0.0153
 5482SOL    HW128079   3.151   0.298  17.266  0.9131  0.5551  0.1068
 5482SOL    HW228080   3.087   0.237  17.148  1.7532 -0.2260 -1.2241
 5483SOL     OW28081   0.864   0.080  13.429  0.2269 -0.1667  0.0669
 5483SOL    HW128082   0.960   0.071  13.422  0.2390  0.6081 -0.8597
 5483SOL    HW228083   0.843   0.059  13.520 -1.9697 -0.3030 -0.4726
 5484SOL     OW28084   2.181   1.153  14.369  0.1245 -0.0435  0.0144
 5484SOL    HW128085   2.102   1.117  14.409  1.8492 -2.5471  1.1489
 5484SOL    HW228086   2.162   1.239  14.330 -1.4702 -0.0987  0.6643
 5485SOL     OW28087   3.960   0.858   7.095 -0.2643  0.1236  0.4596
 5485SOL    HW128088   3.912   0.815   7.024  1.5786 -2.0983  0.5631
 5485SOL    HW228089   4.044   0.862   7.050 -1.0314 -0.7511 -1.0681
 5486SOL     OW28090   2.516   2.712   7.870  0.0059 -0.1402  0.5094
 5486SOL    HW128091   2.452   2.686   7.936  1.6129 -0.7141  1.8348
 5486SOL    HW228092   2.597   2.672   7.900  1.2136  1.4321 -0.6701
 5487SOL     OW28093   3.080   0.348   1.885 -0.3539  0.2552  0.3736
 5487SOL    HW128094   3.055   0.268   1.838 -1.1507  1.1875 -0.8122
 5487SOL    HW228095   2.995   0.385   1.907  0.9122  2.1384  2.1134
 5488SOL     OW28096   1.910   0.996   3.186  0.4376 -0.3272 -0.8461
 5488SOL    HW128097   1.980   0.939   3.155  1.5049  0.7330 -0.3850
 5488SOL    HW228098   1.839   0.965   3.130 -0.5891  0.2703  0.1137
 5489SOL     OW28099   0.171   1.080   4.588 -0.3952  0.3659  0.2795
 5489SOL    HW128100   0.167   1.173   4.566  1.4858  0.6569  1.1308
 5489SOL    HW228101   0.237   1.045   4.528 -0.5563  2.6383 -1.2143
 5490SOL     OW28102   3.718   1.643   8.446 -0.0139  0.4704  0.0433
 5490SOL    HW128103   3.727   1.737   8.460  2.1958  0.2712  0.0306
 5490SOL    HW228104   3.733   1.612   8.535  0.4808  0.6011  0.0064
 5491SOL     OW28105   2.187   1.316   9.238  0.1924  0.2713  0.0811
 5491SOL    HW128106   2.137   1.311   9.156 -0.8633 -2.2902  0.8773
 5491SOL    HW228107   2.130   1.377   9.286 -0.4161 -0.5615  0.4257
 5492SOL     OW28108   2.621   1.156   7.881 -0.2284  0.6685  0.0055
 5492SOL    HW128109   2.537   1.140   7.924 -1.4798  3.5887 -1.2856
 5492SOL    HW228110   2.589   1.224   7.822  0.7746  0.3168 -0.9468
 5493SOL     OW28111   4.333   4.137  10.320 -0.3740 -0.2750  0.1837
 5493SOL    HW128112   4.242   4.154  10.294 -0.0910  0.1232 -0.5492
 5493SOL    HW228113   4.385   4.168  10.246 -0.6275 -0.8292 -0.2245
 5494SOL     OW28114   0.921   3.867  12.524  0.3572 -0.2868 -0.2259
 5494SOL    HW128115   0.901   3.786  12.478  0.0681  0.6246 -1.7002
 5494SOL    HW228116   1.016   3.870  12.511  0.2737  0.8257 -0.6112
 5495SOL     OW28117   1.986   1.509  10.748 -0.0472  0.1029 -0.2564
 5495SOL    HW128118   1.942   1.488  10.665  1.7580 -2.7191 -0.5275
 5495SOL    HW228119   2.079   1.503  10.726  0.3103  2.8543  0.5147
 5496SOL     OW28120   1.745   3.994   1.848  0.4242 -0.6905 -0.0590
 5496SOL    HW128121   1.651   3.982   1.838  0.4238  0.1536 -1.0454
 5496SOL    HW228122   1.771   3.902   1.839 -0.0758 -0.7727 -0.6275
 5497SOL     OW28123   1.382   0.203   8.978 -0.1246  0.1910 -0.4434
 5497SOL    HW128124   1.441   0.210   9.054 -0.2504 -0.0355 -0.3237
 5497SOL    HW228125   1.408   0.124   8.930 -2.0000 -1.1676  0.7743
 5498SOL     OW28126   4.207   4.178  14.386  0.4991  0.8541 -0.3334
 5498SOL    HW128127   4.206   4.087  14.355 -1.3922  1.3241 -1.6209
 5498SOL    HW228128   4.273   4.217  14.329 -0.0517 -0.0658 -1.6038
 5499SOL     OW28129   1.659   2.166  16.556  0.1987 -0.6119 -0.7188
 5499SOL    HW128130   1.697   2.249  16.586 -0.7714 -1.1250  1.9553
 5499SOL    HW228131   1.741   2.117  16.554  1.6701  1.7737  0.9361
 5500SOL     OW28132   4.162   2.910   9.246 -0.5160  0.2649  0.3197
 5500SOL    HW128133   4.220   2.949   9.181 -2.2494  1.8354 -0.2826
 5500SOL    HW228134   4.230   2.886   9.309 -0.9297  1.7546  1.3302
 5501SOL     OW28135   4.314   0.049  13.860 -0.4198 -0.0658 -0.0562
 5501SOL    HW128136   4.238   4.736  13.835  0.7356 -1.9891  0.3348
 5501SOL    HW228137   4.366   0.016  13.787 -0.4295  0.3275 -0.2431
 5502SOL     OW28138   4.553   3.794   0.336  0.3567 -0.0106 -0.0496
 5502SOL    HW128139   4.507   3.803   0.252  1.0497  0.2515 -0.3998
 5502SOL    HW228140   4.550   3.887   0.357  1.1835  0.1582 -0.6792
 5503SOL     OW28141   4.277   1.857  10.276 -0.3383 -0.1389  0.0263
 5503SOL    HW128142   4.370   1.841  10.292 -0.0514  1.0795 -0.3957
 5503SOL    HW228143   4.271   1.813  10.192 -0.3126  2.0476 -1.1315
 5504SOL     OW28144   1.541   0.716   7.551 -0.1615 -0.2930  0.3439
 5504SOL    HW128145   1.621   0.679   7.588 -0.5093 -1.3401  0.0442
 5504SOL    HW228146   1.498   0.759   7.625  0.7778  1.2610  0.0018
 5505SOL     OW28147   1.881   4.205   1.828  0.1111  0.4936 -0.3202
 5505SOL    HW128148   1.821   4.131   1.826  0.3707  0.2858 -0.2918
 5505SOL    HW228149   1.816   4.275   1.832  0.4136  0.6986  0.9547
 5506SOL     OW28150   4.544   3.253   3.031 -0.6640  0.3256  0.3310
 5506SOL    HW128151   4.590   3.256   2.947  0.0225  2.9113  0.7929
 5506SOL    HW228152   4.584   3.328   3.076 -3.9901  1.8297  0.7354
 5507SOL     OW28153   2.248   2.587  11.706  0.1176 -0.2570  0.3314
 5507SOL    HW128154   2.293   2.512  11.745 -1.8253 -2.0468 -0.8440
 5507SOL    HW228155   2.192   2.618  11.777  0.9350  2.3378 -0.1531
 5508SOL     OW28156   4.169   3.619   2.195 -0.4771 -0.0859 -0.0643
 5508SOL    HW128157   4.137   3.595   2.282  2.0096  0.5809  1.0411
 5508SOL    HW228158   4.253   3.655   2.222 -0.6879  1.1876 -1.1044
 5509SOL     OW28159   1.614   1.458   2.815 -0.2078 -0.2973 -0.7083
 5509SOL    HW128160   1.640   1.378   2.860 -2.4004  0.5924  2.1013
 5509SOL    HW228161   1.694   1.508   2.798  0.3310 -0.7257  0.5878
 5510SOL     OW28162   0.179   1.496   8.499 -0.4983  0.0223 -0.6165
 5510SOL    HW128163   0.261   1.527   8.538 -1.9011 -0.2995  2.6714
 5510SOL    HW228164   0.114   1.537   8.557 -0.0668 -1.4871  0.9287
 5511SOL     OW28165   1.439   0.939   5.759 -0.2081  0.1354  0.4639
 5511SOL    HW128166   1.486   0.930   5.841  0.4040  3.1667  0.4441
 5511SOL    HW228167   1.485   1.004   5.707 -0.1961 -1.3278 -1.3731
 5512SOL     OW28168   2.117   0.962   0.711  0.3400 -0.0917 -0.6846
 5512SOL    HW128169   2.200   0.950   0.665  1.2653 -1.2739  1.3432
 5512SOL    HW228170   2.143   1.045   0.751  0.1473 -0.7038  0.6814
 5513SOL     OW28171   1.981   0.317  16.861 -0.0426 -0.6018 -0.0292
 5513SOL    HW128172   1.998   0.371  16.938  0.1677 -1.3012  0.4180
 5513SOL    HW228173   2.064   0.269  16.856  1.0698  1.3759 -0.3395
 5514SOL     OW28174   3.456   4.189   1.818  0.0719  0.6278 -0.3132
 5514SOL    HW128175   3.530   4.207   1.761  1.1044  1.2824  1.2367
 5514SOL    HW228176   3.490   4.214   1.904  2.0151 -2.0374 -0.2830
 5515SOL     OW28177   0.060   1.583   3.646 -0.6863  0.5922  0.1775
 5515SOL    HW128178   0.036   1.514   3.583  2.0629 -1.1600  1.0222
 5515SOL    HW228179   4.714   1.599   3.688 -0.1462 -0.0435  1.5027
 5516SOL     OW28180   1.747   4.226   8.949  0.1728  0.0073  0.1031
 5516SOL    HW128181   1.769   4.276   9.028  0.7762 -2.3258  1.3989
 5516SOL    HW228182   1.661   4.256   8.922 -0.0147  0.4350  1.1846
 5517SOL     OW28183   3.483   1.160  12.448  0.4107 -0.1514  0.0353
 5517SOL    HW128184   3.506   1.143  12.540 -0.4790  0.7627  0.4301
 5517SOL    HW228185   3.435   1.083  12.417  0.6828  0.3509 -1.5832
 5518SOL     OW28186   1.716   0.252  12.975 -0.5428  0.4360 -0.0222
 5518SOL    HW128187   1.724   0.312  12.901 -1.2586  3.9611  2.7506
 5518SOL    HW228188   1.727   0.310  13.051  1.9122 -1.2773  0.9165
 5519SOL     OW28189   2.002   2.020   7.100  0.1318  0.5864 -0.2248
 5519SOL    HW128190   1.969   2.097   7.055  2.8756  0.4540 -2.4932
 5519SOL    HW228191   1.999   2.057   7.188  1.7795 -1.6615  0.7871
 5520SOL     OW28192   3.917   0.242   6.715  0.2403 -0.0885  0.2092
 5520SOL    HW128193   4.002   0.243   6.672 -0.8280 -1.9546 -1.9268
 5520SOL    HW228194   3.871   0.195   6.646  1.6266 -2.6420  0.9732
 5521SOL     OW28195   2.728   2.291   4.963 -0.1736 -0.6597 -0.1929
 5521SOL    HW128196   2.813   2.290   5.007  0.5619 -1.6482 -1.6133
 5521SOL    HW228197   2.683   2.362   5.009 -0.9421 -1.5371  0.3936
 5522SOL     OW28198   2.547   0.467   7.694 -0.2328 -0.1206  0.1432
 5522SOL    HW128199   2.574   0.397   7.754  2.8870 -1.4491 -2.7995
 5522SOL    HW228200   2.554   0.541   7.755  1.0790  0.1466 -0.3221
 5523SOL     OW28201   0.178   0.040   8.430 -0.3809 -0.1212 -0.6907
 5523SOL    HW128202   0.239   4.707   8.411  0.1553  0.4354 -1.0434
 5523SOL    HW228203   0.238   0.114   8.433 -1.1454  0.6020 -3.1404
 5524SOL     OW28204   4.599   2.276   7.052 -0.0909 -0.2101 -0.0923
 5524SOL    HW128205   4.600   2.183   7.028  0.6140 -0.5660  1.3322
 5524SOL    HW228206   4.658   2.323   6.993 -0.4504  2.3968  1.6540
 5525SOL     OW28207   1.787   2.565   8.751 -0.2762 -0.4821 -0.0710
 5525SOL    HW128208   1.771   2.487   8.805  1.1008 -0.2260  0.6840
 5525SOL    HW228209   1.832   2.520   8.680 -3.2756 -1.2039 -1.5361
 5526SOL     OW28210   3.420   1.020   0.251 -0.3713 -0.5608  0.0443
 5526SOL    HW128211   3.512   0.996   0.261 -0.2502  0.0152  0.2875
 5526SOL    HW228212   3.403   1.066   0.333  0.9835  1.9782 -1.0967
 5527SOL     OW28213   0.438   3.973   5.524  0.0021 -0.0057 -0.1145
 5527SOL    HW128214   0.438   4.064   5.496 -1.8582 -0.2918 -1.0492
 5527SOL    HW228215   0.365   3.946   5.467  0.8862 -0.9632 -0.7976
 5528SOL     OW28216   2.426   2.312  16.181 -0.3725 -0.2781 -0.3318
 5528SOL    HW128217   2.406   2.402  16.156 -3.2935 -1.0102 -0.6687
 5528SOL    HW228218   2.417   2.310  16.276 -1.9347 -0.6896 -0.4957
 5529SOL     OW28219   4.270   2.663  12.122  0.5665  0.8128 -0.2223
 5529SOL    HW128220   4.351   2.707  12.148  0.4579  0.4625  0.7307
 5529SOL    HW228221   4.198   2.726  12.117  0.3110  0.4403 -1.2743
 5530SOL     OW28222   4.567   3.532   8.382 -0.5416  0.0561  0.2813
 5530SOL    HW128223   4.581   3.561   8.292  3.8438 -1.5121  0.4627
 5530SOL    HW228224   4.471   3.527   8.379 -0.5660  0.0140  1.1080
 5531SOL     OW28225   3.852   2.655  13.759 -0.2536 -0.6049 -0.3125
 5531SOL    HW128226   3.933   2.692  13.723 -0.6053 -0.4232 -0.9086
 5531SOL    HW228227   3.791   2.709  13.709 -0.2822 -0.9725 -0.6680
 5532SOL     OW28228   0.119   2.891   3.589  0.2212 -0.0001  0.6045
 5532SOL    HW128229   0.035   2.916   3.552  0.7522 -0.0650 -0.6351
 5532SOL    HW228230   0.159   2.884   3.502 -0.6160  1.3573  0.1259
 5533SOL     OW28231   4.117   4.075   1.953 -0.2264 -0.0299  0.2291
 5533SOL    HW128232   4.207   4.086   1.922  0.3358  1.5253  2.4099
 5533SOL    HW228233   4.112   3.984   1.982 -0.9518 -0.3256 -0.8360
 5534SOL     OW28234   3.219   3.586  11.837 -0.2796  0.1880  0.1816
 5534SOL    HW128235   3.286   3.632  11.787  0.6942  2.3854  3.5006
 5534SOL    HW228236   3.281   3.525  11.878 -1.4499 -0.9443  0.2885
 5535SOL     OW28237   3.011   3.904   2.864 -0.1139  0.4134 -0.1797
 5535SOL    HW128238   3.052   3.837   2.809 -1.2222 -1.1107  0.8540
 5535SOL    HW228239   2.942   3.847   2.898  0.7941  0.5996  1.9562
 5536SOL     OW28240   1.615   3.236   5.680  0.4286  0.0820  0.1450
 5536SOL    HW128241   1.617   3.301   5.609  1.2496  0.0873  0.1710
 5536SOL    HW228242   1.533   3.261   5.722  1.5821  1.9229  1.3563
 5537SOL     OW28243   3.032   1.045   7.506 -0.4390 -0.1739  0.7564
 5537SOL    HW128244   2.965   1.065   7.440  1.6377 -0.2347 -1.3904
 5537SOL    HW228245   3.074   1.131   7.515  1.2606 -0.8821 -0.3893
 5538SOL     OW28246   0.717   4.194  13.997  0.6605  0.3026 -0.6248
 5538SOL    HW128247   0.803   4.163  13.969  0.4657  0.3635 -1.2820
 5538SOL    HW228248   0.703   4.129  14.066 -1.0036  1.1423 -0.1664
 5539SOL     OW28249   0.300   1.706   2.265 -0.2513 -0.0837 -0.3014
 5539SOL    HW128250   0.316   1.685   2.357 -2.8996  0.6345  0.3313
 5539SOL    HW228251   0.225   1.648   2.252  0.7608 -1.3266 -0.6010
 5540SOL     OW28252   3.968   1.006  12.460  0.5314 -0.3781  0.2885
 5540SOL    HW128253   3.890   0.977  12.509 -0.4779  1.4299 -0.2554
 5540SOL    HW228254   3.979   1.098  12.485 -2.6695 -0.2443  1.2531
 5541SOL     OW28255   4.681   4.550   5.861 -0.1560  0.7309  0.3552
 5541SOL    HW128256   4.686   4.634   5.907  0.6689  0.5899  0.5077
 5541SOL    HW228257   0.010   4.496   5.900  2.3591  3.7419  0.2055
 5542SOL     OW28258   3.709   4.281   7.055  0.1493 -0.0171  0.0011
 5542SOL    HW128259   3.673   4.256   6.970  0.0656 -1.6457  0.5181
 5542SOL    HW228260   3.803   4.280   7.038 -0.0069 -1.4422 -0.7580
 5543SOL     OW28261   3.965   1.643   1.636  0.2298 -0.0615  0.4015
 5543SOL    HW128262   4.001   1.676   1.718 -0.9653  0.4724  0.7175
 5543SOL    HW228263   3.969   1.719   1.579  2.3597  0.0275  0.6765
 5544SOL     OW28264   0.455   4.270   2.813  0.1890 -0.7275 -0.3011
 5544SOL    HW128265   0.479   4.240   2.725  0.3575  0.2863 -0.6106
 5544SOL    HW228266   0.369   4.303   2.783 -1.0394 -2.2434  1.5908
 5545SOL     OW28267   3.208   4.566   3.600 -0.1788 -0.0279 -0.0782
 5545SOL    HW128268   3.200   4.486   3.548 -1.1247 -0.1025  0.1901
 5545SOL    HW228269   3.247   4.531   3.680  0.0938 -1.0300 -0.6500
 5546SOL     OW28270   3.661   1.643   1.665  0.1697 -0.5341  0.4838
 5546SOL    HW128271   3.657   1.640   1.569  1.2826 -1.2716  0.4713
 5546SOL    HW228272   3.755   1.645   1.682 -0.0252 -0.1141  1.4895
 5547SOL     OW28273   1.636   0.287   5.824 -0.0920 -0.2471  0.0814
 5547SOL    HW128274   1.651   0.308   5.731 -0.0423 -1.8641 -0.2716
 5547SOL    HW228275   1.601   0.199   5.810 -2.1106  0.2162  2.3074
 5548SOL     OW28276   2.869   1.689   0.767 -0.4704 -0.4387  0.6835
 5548SOL    HW128277   2.814   1.717   0.839 -0.6447  1.1077 -0.0508
 5548SOL    HW228278   2.931   1.760   0.779 -0.4672 -0.3311  0.0157
 5549SOL     OW28279   3.461   0.338   5.436 -0.1930  0.3634 -0.3048
 5549SOL    HW128280   3.527   0.317   5.370  0.7007  0.1012  0.6563
 5549SOL    HW228281   3.499   0.412   5.483  0.3327 -0.9525  1.3987
 5550SOL     OW28282   0.239   4.261   8.316  0.0797  0.3215 -0.0169
 5550SOL    HW128283   0.258   4.252   8.223 -0.7832  2.0417 -0.3559
 5550SOL    HW228284   0.153   4.300   8.302 -0.0101  0.0377 -0.2431
 5551SOL     OW28285   4.517   2.862   1.345  0.4193  0.9307 -0.1177
 5551SOL    HW128286   4.536   2.771   1.368  0.7655  1.3726  1.3597
 5551SOL    HW228287   4.537   2.906   1.427  2.2577  0.5592 -0.3755
 5552SOL     OW28288   4.308   2.188  15.649 -0.0100 -0.2958 -0.0885
 5552SOL    HW128289   4.240   2.250  15.624  0.0559  0.0027  0.4649
 5552SOL    HW228290   4.389   2.212  15.602 -0.9639 -0.6318 -1.9142
 5553SOL     OW28291   4.622   0.718   8.431 -0.1407 -0.0200 -0.2775
 5553SOL    HW128292   4.705   0.742   8.390 -0.2609  2.0690  0.7231
 5553SOL    HW228293   4.637   0.642   8.487 -3.3073 -0.8593 -0.5927
 5554SOL     OW28294   2.474   2.006   2.053  0.5104 -0.2967  0.8156
 5554SOL    HW128295   2.379   1.998   2.058  0.4645  0.9465  1.9023
 5554SOL    HW228296   2.486   2.066   1.978  1.8172  1.6451  2.5874
 5555SOL     OW28297   4.544   2.056   6.660 -0.4683  0.4849  0.0572
 5555SOL    HW128298   4.539   2.067   6.565  0.4567 -1.5954 -0.2342
 5555SOL    HW228299   4.451   2.038   6.674 -0.0958 -1.8959 -0.5294
 5556SOL     OW28300   0.432   0.019   6.045 -0.0919  0.3730 -0.2243
 5556SOL    HW128301   0.369   0.078   6.004 -0.9714 -0.7103 -0.4340
 5556SOL    HW228302   0.507   0.030   5.987  0.1448 -1.7633 -0.3263
 5557SOL     OW28303   4.297   2.981   6.938 -0.3721 -0.3776  0.0893
 5557SOL    HW128304   4.321   3.064   6.978  1.6835 -1.2669  0.6861
 5557SOL    HW228305   4.216   2.968   6.988 -1.1168 -0.3847 -1.1057
 5558SOL     OW28306   4.553   1.587   3.754 -0.2249  0.3268  0.2983
 5558SOL    HW128307   4.460   1.565   3.767 -0.6768  2.6540  0.9839
 5558SOL    HW228308   4.599   1.517   3.799 -1.6793 -0.7388  0.1386
 5559SOL     OW28309   0.234   4.198  10.428 -0.5342 -0.3253 -0.3007
 5559SOL    HW128310   0.250   4.111  10.391  0.2950  0.0790 -0.9034
 5559SOL    HW228311   0.175   4.236  10.363 -0.3720  1.6179  0.6733
 5560SOL     OW28312   1.120   2.604   3.772  0.1305 -0.3547  0.1585
 5560SOL    HW128313   1.163   2.689   3.771 -2.9341  1.2027 -1.8664
 5560SOL    HW228314   1.195   2.547   3.758  0.9889  0.4660  1.4433
 5561SOL     OW28315   3.693   0.131   7.941  0.1822 -0.4849  0.9681
 5561SOL    HW128316   3.748   0.067   7.986  1.4871 -0.2847 -0.3315
 5561SOL    HW228317   3.760   0.169   7.884 -0.5563  1.1826  1.1959
 5562SOL     OW28318   0.176   3.222  17.645  0.0201  0.1446  0.3523
 5562SOL    HW128319   0.245   3.280  17.677 -0.7081  0.2027  1.8341
 5562SOL    HW228320   0.219   3.140  17.669  0.0132  0.1336  0.3261
 5563SOL     OW28321   3.289   1.494  12.241  0.0983 -0.1963  0.2906
 5563SOL    HW128322   3.294   1.420  12.181  0.1387  2.1884 -2.7002
 5563SOL    HW228323   3.342   1.466  12.316  0.4223  2.5202  1.0743
 5564SOL     OW28324   4.128   3.271   6.276  0.1738  0.1721 -0.6786
 5564SOL    HW128325   4.051   3.250   6.223 -1.2290  1.6916  0.7542
 5564SOL    HW228326   4.117   3.366   6.282  4.2869  0.4897  1.2508
 5565SOL     OW28327   3.171   4.394   8.990 -0.5465 -0.3547 -0.2990
 5565SOL    HW128328   3.110   4.364   8.922  0.7167 -1.9278 -0.7323
 5565SOL    HW228329   3.128   4.472   9.025 -1.0763 -0.7993  0.0440
 5566SOL     OW28330   4.524   2.605   4.170  0.3921  0.3203 -0.4704
 5566SOL    HW128331   4.465   2.567   4.106  0.1695 -0.9074  0.4687
 5566SOL    HW228332   4.608   2.602   4.124  0.6325 -0.4693  0.0079
 5567SOL     OW28333   0.947   0.665   2.785 -0.0609 -0.3845  0.6846
 5567SOL    HW128334   0.879   0.603   2.810 -0.7304 -0.3302 -0.9829
 5567SOL    HW228335   0.948   0.646   2.691  0.9782 -0.8809  0.8005
 5568SOL     OW28336   1.805   0.436  13.150  0.0274  0.0879 -0.3731
 5568SOL    HW128337   1.793   0.493  13.226  1.6568 -0.1505  0.0656
 5568SOL    HW228338   1.899   0.418  13.152 -0.5723 -3.2136 -1.7836
 5569SOL     OW28339   2.006   2.284   9.269 -0.5148  0.0562  0.1415
 5569SOL    HW128340   1.962   2.336   9.336 -0.4939  3.0773 -2.1922
 5569SOL    HW228341   2.071   2.343   9.232  0.0136 -0.5628  0.0839
 5570SOL     OW28342   1.667   2.769  10.810 -0.5721 -0.0548 -0.4100
 5570SOL    HW128343   1.745   2.818  10.784 -1.2279  0.7786 -0.8378
 5570SOL    HW228344   1.641   2.727  10.728  1.3356 -0.6852 -0.6822
 5571SOL     OW28345   2.251   1.674   8.071  0.5552  0.1658  0.0746
 5571SOL    HW128346   2.292   1.620   8.004  1.5475  0.5037  0.4047
 5571SOL    HW228347   2.299   1.752   8.043 -1.7902  0.7412 -2.3055
 5572SOL     OW28348   2.745   1.009   3.806  0.9026  0.0372  0.0588
 5572SOL    HW128349   2.793   1.074   3.755 -2.6426  0.1504 -3.0398
 5572SOL    HW228350   2.802   0.932   3.813 -1.5755 -1.9424 -1.7902
 5573SOL     OW28351   4.628   0.290  17.175  0.5310  0.8366  0.0534
 5573SOL    HW128352   4.686   0.364  17.196  1.8184  0.6970 -2.9809
 5573SOL    HW228353   4.686   0.256  17.107 -1.6429 -2.5815 -0.0704
 5574SOL     OW28354   3.458   1.262   6.015  0.3730  0.1354  0.1893
 5574SOL    HW128355   3.544   1.286   6.049  0.1375  0.9566  0.2020
 5574SOL    HW228356   3.473   1.172   5.985 -0.5084  0.1329 -0.2436
 5575SOL     OW28357   3.704   4.266   5.762  0.2419 -0.1621  0.5344
 5575SOL    HW128358   3.643   4.302   5.826  0.0714  0.8280 -0.1871
 5575SOL    HW228359   3.644   4.216   5.706  3.2870 -1.4004 -1.6054
 5576SOL     OW28360   3.604   2.722  15.214 -0.0852  0.3340  0.0879
 5576SOL    HW128361   3.619   2.798  15.271 -0.5335 -0.2105  0.9417
 5576SOL    HW228362   3.650   2.653  15.260  0.9845 -0.2272 -1.8557
 5577SOL     OW28363   2.327   4.250   1.739  0.1229 -0.1276 -0.0280
 5577SOL    HW128364   2.347   4.236   1.646 -3.1007 -0.8655 -0.6416
 5577SOL    HW228365   2.407   4.284   1.778 -0.7002  0.2724  1.3156
 5578SOL     OW28366   2.522   0.384   5.907 -0.0940 -0.2054  0.3335
 5578SOL    HW128367   2.463   0.394   5.833 -0.7978  1.6892  1.1332
 5578SOL    HW228368   2.551   0.474   5.922 -2.6897  0.9661 -1.7148
 5579SOL     OW28369   1.492   4.617   7.901  0.5562  0.2069 -0.0532
 5579SOL    HW128370   1.587   4.602   7.898  0.7596  1.2600  1.1323
 5579SOL    HW228371   1.460   4.544   7.849 -4.1165  1.6498  0.8649
 5580SOL     OW28372   0.304   0.189   9.019 -0.1489  0.1911 -0.0427
 5580SOL    HW128373   0.380   0.197   9.077  1.2143  0.5242 -1.8477
 5580SOL    HW228374   0.336   0.166   8.931 -0.7043 -1.8110  0.2972
 5581SOL     OW28375   2.732   2.682  12.944  0.8233 -0.5265  0.0460
 5581SOL    HW128376   2.719   2.591  12.972 -1.5786 -1.0907 -2.8851
 5581SOL    HW228377   2.797   2.714  13.007 -0.5936 -0.7663  1.6242
 5582SOL     OW28378   4.691   0.613   5.217  0.5317 -0.4095  0.3244
 5582SOL    HW128379   4.684   0.620   5.313  1.8832  2.7017  0.2024
 5582SOL    HW228380   0.015   0.685   5.208  1.1395 -1.0346 -0.3920
 5583SOL     OW28381   0.200   3.748   2.842 -0.0305 -0.3243  0.1688
 5583SOL    HW128382   0.161   3.750   2.929 -0.1242 -1.1206  0.1431
 5583SOL    HW228383   0.234   3.837   2.832 -0.1819 -0.1475  1.2086
 5584SOL     OW28384   3.007   0.315   3.610 -0.0293 -0.0106  0.5763
 5584SOL    HW128385   2.983   0.251   3.543  1.1469  0.7814 -0.6014
 5584SOL    HW228386   2.973   0.396   3.572 -0.6162 -0.1509  0.8006
 5585SOL     OW28387   4.580   1.379   2.106  0.1748  0.2017  0.0715
 5585SOL    HW128388   4.554   1.291   2.079  0.2558  1.3414 -3.7095
 5585SOL    HW228389   4.515   1.378   2.177 -0.4486 -2.0658 -0.5147
 5586SOL     OW28390   0.840   1.116   8.299 -0.0615 -0.2509 -0.1866
 5586SOL    HW128391   0.824   1.202   8.258 -0.6348 -0.9656 -1.4795
 5586SOL    HW228392   0.868   1.150   8.384 -0.1154  1.5898 -0.8986
 5587SOL     OW28393   3.800   1.209   7.109 -0.4106 -0.2287 -0.1107
 5587SOL    HW128394   3.892   1.225   7.130 -0.4216 -1.3363  0.8012
 5587SOL    HW228395   3.802   1.148   7.035  0.3905  1.2761 -1.3227
 5588SOL     OW28396   2.598   1.630   5.802 -0.1009 -0.0156 -0.0887
 5588SOL    HW128397   2.654   1.624   5.724 -0.1627 -1.8360  0.0042
 5588SOL    HW228398   2.661   1.655   5.870  0.0533  0.0665 -0.2613
 5589SOL     OW28399   1.572   0.917   6.022 -0.2292  0.1333  0.1203
 5589SOL    HW128400   1.537   0.835   6.056  1.0492 -0.0282  1.0659
 5589SOL    HW228401   1.588   0.973   6.098  2.0961 -1.3829  0.7546
 5590SOL     OW28402   0.504   3.070  14.538 -0.2455 -0.0318 -0.1182
 5590SOL    HW128403   0.421   3.022  14.532  0.2259 -0.9188  0.5190
 5590SOL    HW228404   0.500   3.143  14.599 -0.6909 -2.2252  2.4470
 5591SOL     OW28405   2.640   0.322  10.362  0.1919  0.4068 -0.3226
 5591SOL    HW128406   2.688   0.253  10.407 -1.3631 -0.5626 -0.1275
 5591SOL    HW228407   2.705   0.336  10.293 -0.6447  1.9370 -0.8060
 5592SOL     OW28408   1.795   3.267   8.223 -0.3205 -0.0220  0.2390
 5592SOL    HW128409   1.730   3.201   8.247 -1.1701  0.4605 -0.7498
 5592SOL    HW228410   1.737   3.340   8.204  1.6510  1.9983  2.0333
 5593SOL     OW28411   1.180   4.488   7.441 -0.2477  0.3980  0.0652
 5593SOL    HW128412   1.149   4.539   7.366  1.7571  1.0455 -0.3200
 5593SOL    HW228413   1.096   4.450   7.468  0.0073 -2.5107 -3.1931
 5594SOL     OW28414   3.961   3.234   6.518 -0.2223  0.5944  0.0914
 5594SOL    HW128415   3.871   3.249   6.490 -0.3402  1.1800  0.7762
 5594SOL    HW228416   4.003   3.271   6.440  1.5045  0.3066  0.8792
 5595SOL     OW28417   4.183   0.667   7.287 -0.8224  0.2927  0.4319
 5595SOL    HW128418   4.216   0.610   7.217 -0.9388  2.8459 -1.6826
 5595SOL    HW228419   4.089   0.649   7.289 -0.6048 -0.4764  5.1629
 5596SOL     OW28420   0.770   3.167  11.802  0.5589  0.8524 -0.1303
 5596SOL    HW128421   0.763   3.205  11.715 -1.5620  2.4422  0.7645
 5596SOL    HW228422   0.685   3.124  11.803 -0.1406  2.3242  2.3068
 5597SOL     OW28423   0.973   3.801   2.829 -0.1974 -0.3882  0.5268
 5597SOL    HW128424   0.929   3.856   2.763 -0.6064  1.0212  1.9640
 5597SOL    HW228425   0.919   3.823   2.905  0.6061  0.8936  0.7344
 5598SOL     OW28426   3.256   0.716   4.988 -0.7949  0.3954  0.4004
 5598SOL    HW128427   3.230   0.753   5.072  0.4742 -2.0924  1.8937
 5598SOL    HW228428   3.272   0.798   4.941  1.3491 -0.7715 -0.9134
 5599SOL     OW28429   1.534   1.409  12.962 -0.0458  0.2398 -0.0085
 5599SOL    HW128430   1.484   1.380  12.887 -1.7373 -1.9010  1.9441
 5599SOL    HW228431   1.513   1.501  12.979 -1.0400 -0.0493  0.2885
 5600SOL     OW28432   2.970   0.403   7.121  0.3602 -0.3155  0.1987
 5600SOL    HW128433   2.896   0.430   7.066 -1.6022 -1.6415  2.1763
 5600SOL    HW228434   2.945   0.450   7.200 -0.3244  2.8935 -1.8989
 5601SOL     OW28435   2.704   4.046   3.019  0.0157  0.2389  0.3336
 5601SOL    HW128436   2.708   4.037   2.923 -1.8858  2.0660  0.0991
 5601SOL    HW228437   2.661   4.131   3.016 -0.0196  0.2140  0.0852
 5602SOL     OW28438   2.342   2.288   2.654  0.2917  0.1263  0.0058
 5602SOL    HW128439   2.327   2.202   2.615 -2.0867 -0.3017  1.8540
 5602SOL    HW228440   2.412   2.326   2.600  0.9308 -2.3459 -0.9463
 5603SOL     OW28441   0.020   4.734  15.977 -0.2959  0.2306 -0.1060
 5603SOL    HW128442   4.675   0.034  15.952 -1.1404 -0.8840  1.0044
 5603SOL    HW228443   0.080   0.051  15.926  0.6253 -1.9087 -1.3553
 5604SOL     OW28444   1.740   4.726   5.739  0.1881  0.0926 -0.4217
 5604SOL    HW128445   1.825   0.031   5.749 -0.0417  0.2397  0.8020
 5604SOL    HW228446   1.707   0.038   5.664 -1.2221 -0.3222 -0.0689
 5605SOL     OW28447   0.888   0.338   2.154 -0.4590  0.6185  0.0377
 5605SOL    HW128448   0.872   0.390   2.076 -0.7666 -1.5278 -1.3134
 5605SOL    HW228449   0.949   0.270   2.126 -1.3200 -1.0479  2.1978
 5606SOL     OW28450   1.434   1.512  16.974  0.0431  1.0622  0.2137
 5606SOL    HW128451   1.514   1.478  16.934 -0.9439 -0.0649 -0.7663
 5606SOL    HW228452   1.470   1.529  17.061  3.9074 -0.7644 -1.0323
 5607SOL     OW28453   0.803   3.397   7.944 -0.2105  0.0523  0.4420
 5607SOL    HW128454   0.890   3.421   7.974 -0.1977 -0.4974  0.8504
 5607SOL    HW228455   0.751   3.478   7.949 -1.9369 -0.9900 -0.7170
 5608SOL     OW28456   3.708   1.302   1.724 -0.0313 -0.4701  0.4140
 5608SOL    HW128457   3.720   1.211   1.752 -0.6384 -0.2033  1.5631
 5608SOL    HW228458   3.724   1.291   1.631 -2.1190  0.9018 -0.1055
 5609SOL     OW28459   2.162   4.666   9.294  0.4305  0.2094 -0.1809
 5609SOL    HW128460   2.194   4.733   9.235 -0.5863 -0.4896 -1.5413
 5609SOL    HW228461   2.146   4.718   9.373  1.3613  1.3332 -0.7428
 5610SOL     OW28462   1.509   4.457   2.304  0.4249 -0.0737  0.0200
 5610SOL    HW128463   1.440   4.482   2.242  0.9368  3.0952  0.7083
 5610SOL    HW228464   1.465   4.450   2.389  0.4323  3.1366  0.2948
 5611SOL     OW28465   2.555   4.197   2.708  0.8278 -0.7427  0.2062
 5611SOL    HW128466   2.609   4.120   2.722  0.0117 -1.3692 -0.0569
 5611SOL    HW228467   2.591   4.259   2.771 -1.4295 -0.3527  1.1303
 5612SOL     OW28468   3.093   3.404  17.751  0.0698  0.0399 -0.3424
 5612SOL    HW128469   3.105   3.457   0.078  0.8639 -0.6982  0.0369
 5612SOL    HW228470   3.057   3.325   0.039 -0.0051 -0.7986 -2.0598
 5613SOL     OW28471   4.165   3.711  14.047 -0.3918 -0.2119 -0.0940
 5613SOL    HW128472   4.140   3.749  13.963 -1.5942 -2.9673 -0.9695
 5613SOL    HW228473   4.110   3.763  14.107  1.0994 -0.1267  1.2025
 5614SOL     OW28474   4.489   0.797   8.225  0.6944 -0.1397  0.0737
 5614SOL    HW128475   4.417   0.735   8.214  0.7985  0.0755 -1.7955
 5614SOL    HW228476   4.520   0.766   8.310 -0.1552  0.5476  0.6426
 5615SOL     OW28477   0.446   0.882   4.901  0.0106  0.0263  0.1309
 5615SOL    HW128478   0.400   0.965   4.898 -0.2773 -0.0961  1.0860
 5615SOL    HW228479   0.463   0.866   4.994  0.0338  1.4135  0.3543
 5616SOL     OW28480   1.053   4.251   7.227  0.2184  0.2949 -0.2122
 5616SOL    HW128481   0.964   4.263   7.193 -0.4366 -0.8024  1.1445
 5616SOL    HW228482   1.036   4.282   7.315  2.3316 -0.7590  0.5748
 5617SOL     OW28483   4.103   4.327   7.347 -0.8612 -0.2007  0.4606
 5617SOL    HW128484   4.088   4.242   7.304  0.3240  0.7059 -1.7148
 5617SOL    HW228485   4.157   4.301   7.421  1.3875  2.4476 -0.2494
 5618SOL     OW28486   3.660   3.573   1.945  0.5874  0.1126 -0.1229
 5618SOL    HW128487   3.686   3.482   1.960  0.0679  0.1435  0.9430
 5618SOL    HW228488   3.604   3.565   1.868  1.0811 -3.4153 -0.0949
 5619SOL     OW28489   2.317   1.210   5.525  0.4884  0.5083  0.3012
 5619SOL    HW128490   2.365   1.197   5.442 -0.4134  0.3086 -0.1842
 5619SOL    HW228491   2.249   1.265   5.486 -0.3955  0.0345  1.2074
 5620SOL     OW28492   3.253   2.559   7.209 -0.0327  0.7336 -0.0290
 5620SOL    HW128493   3.281   2.635   7.157  0.4611 -0.4848 -1.5664
 5620SOL    HW228494   3.168   2.539   7.169 -0.0554 -1.2033  1.0032
 5621SOL     OW28495   2.754   3.020   2.375  0.4728  0.4670 -0.1089
 5621SOL    HW128496   2.701   2.969   2.315 -1.3135 -0.5517  2.3311
 5621SOL    HW228497   2.823   2.954   2.375 -0.4570 -0.4928 -0.2112
 5622SOL     OW28498   3.552   3.152   9.914 -0.0761 -0.1083 -0.0701
 5622SOL    HW128499   3.521   3.103   9.838  0.1263 -3.5414  2.0611
 5622SOL    HW228500   3.478   3.129   9.969  0.3664  0.0309  0.5811
 5623SOL     OW28501   1.751   2.031   3.335  0.1895 -0.4856 -0.7413
 5623SOL    HW128502   1.681   2.077   3.381  2.2189  2.2797 -0.4252
 5623SOL    HW228503   1.820   2.098   3.335  0.0366 -0.3423  2.3968
 5624SOL     OW28504   3.572   0.080   4.540  0.3718 -0.0644  0.0451
 5624SOL    HW128505   3.478   0.094   4.533  0.3357  0.5100  1.6595
 5624SOL    HW228506   3.574   4.723   4.541 -1.5516 -0.0988  1.0930
 5625SOL     OW28507   2.994   2.140   5.781 -0.0736 -0.3689  0.4579
 5625SOL    HW128508   3.070   2.166   5.729  0.6216 -1.8077  0.7538
 5625SOL    HW228509   2.994   2.046   5.763 -1.3990  0.4097 -3.4878
 5626SOL     OW28510   2.468   3.255   9.273 -0.9386 -0.1778 -0.5205
 5626SOL    HW128511   2.528   3.207   9.214  1.5395  2.4027 -0.0883
 5626SOL    HW228512   2.527   3.305   9.330 -1.2397  0.1078 -0.4607
 5627SOL     OW28513   2.090   1.406   8.213 -0.0606 -0.2079 -0.1146
 5627SOL    HW128514   2.177   1.394   8.252  0.1271 -0.1280 -0.5118
 5627SOL    HW228515   2.046   1.327   8.244  0.1196 -0.8084 -1.3779
 5628SOL     OW28516   0.241   2.775  17.705  0.3415 -0.3446 -0.1603
 5628SOL    HW128517   0.284   2.858  17.687  0.5394 -0.1916  1.0280
 5628SOL    HW228518   0.248   2.773   0.049 -1.7516 -0.7278 -0.0162
 5629SOL     OW28519   0.411   2.063   2.362  0.3589 -0.1850 -0.2962
 5629SOL    HW128520   0.396   2.148   2.405 -1.7836 -1.0263  0.6105
 5629SOL    HW228521   0.426   2.009   2.439  1.4360 -1.7311 -1.6003
 5630SOL     OW28522   4.363   4.029  13.982  0.5036  0.4368  0.3098
 5630SOL    HW128523   4.297   3.997  13.922  1.4370 -1.9840  0.5897
 5630SOL    HW228524   4.438   4.005  13.928  1.4575  1.9427  0.9540
 5631SOL     OW28525   4.693   3.061   8.730  0.3838  0.1012  0.2476
 5631SOL    HW128526   4.689   2.979   8.781 -0.8124  0.2154  0.3396
 5631SOL    HW228527   4.661   3.125   8.794 -2.5499 -0.5762 -0.5357
 5632SOL     OW28528   1.923   2.369  11.991  0.2679  0.1208  0.2394
 5632SOL    HW128529   1.867   2.402  11.920  0.9410 -0.9343 -0.7924
 5632SOL    HW228530   1.925   2.449  12.043  1.2712  0.5353 -0.4395
 5633SOL     OW28531   1.393   0.519  13.656 -0.1498 -0.1192  0.4448
 5633SOL    HW128532   1.324   0.482  13.601  1.3282 -0.1835 -1.3650
 5633SOL    HW228533   1.415   0.449  13.717 -0.1410 -0.6023 -0.1061
 5634SOL     OW28534   1.184   3.132   2.451  0.4279 -0.2262  0.2403
 5634SOL    HW128535   1.227   3.184   2.519 -0.0287  0.5267 -0.0373
 5634SOL    HW228536   1.152   3.056   2.499  0.8618 -0.7987 -0.3793
 5635SOL     OW28537   1.709   0.510   3.433  0.4180  0.5132  0.3099
 5635SOL    HW128538   1.791   0.463   3.421 -0.4029 -0.6146 -0.9044
 5635SOL    HW228539   1.740   0.600   3.424 -0.6009  0.6910 -1.4890
 5636SOL     OW28540   1.220   3.685   5.095 -0.0613 -0.7123 -0.2045
 5636SOL    HW128541   1.310   3.717   5.090  0.5743 -2.6333 -1.0118
 5636SOL    HW228542   1.209   3.637   5.013  2.9064 -1.9453  0.1479
 5637SOL     OW28543   4.513   3.577   8.649 -0.2755 -0.2135 -0.2006
 5637SOL    HW128544   4.511   3.672   8.656  0.2678 -0.3690  1.8350
 5637SOL    HW228545   4.514   3.566   8.553 -0.1322  0.2658 -0.2550
 5638SOL     OW28546   0.633   0.295  12.833 -0.5413 -0.0477 -0.2914
 5638SOL    HW128547   0.593   0.208  12.830 -0.7582 -0.0099  1.5437
 5638SOL    HW228548   0.688   0.292  12.755 -1.9130  1.3114 -1.3154
 5639SOL     OW28549   4.657   4.399   0.558  0.4520  0.2983  0.0093
 5639SOL    HW128550   4.619   4.406   0.470  2.2134 -0.9262 -0.8461
 5639SOL    HW228551   4.726   4.466   0.559  0.3519  0.3906  0.5110
 5640SOL     OW28552   1.303   4.249   5.573 -0.1193  0.4500 -0.3607
 5640SOL    HW128553   1.219   4.252   5.619  0.3304 -0.1864  0.5127
 5640SOL    HW228554   1.330   4.162   5.602  0.8340  0.6061 -0.7847
 5641SOL     OW28555   0.832   2.198   8.249  0.9551  0.1572  0.0614
 5641SOL    HW128556   0.833   2.264   8.179 -0.1774 -1.7054 -1.6921
 5641SOL    HW228557   0.812   2.265   8.315  0.6507  0.2210 -0.0984
 5642SOL     OW28558   1.012   2.712   9.541 -0.3362  0.0286  0.1368
 5642SOL    HW128559   1.100   2.677   9.556 -0.2538 -0.7112 -2.1508
 5642SOL    HW228560   1.023   2.787   9.600 -1.8385  0.6658 -0.4009
 5643SOL     OW28561   1.722   2.424   6.308  0.0007 -0.4868  0.4110
 5643SOL    HW128562   1.659   2.390   6.372  0.2420 -0.3913  0.6973
 5643SOL    HW228563   1.665   2.484   6.260 -1.1287 -1.3328  0.6925
 5644SOL     OW28564   2.056   0.225   4.543 -0.3813  0.3253  1.0115
 5644SOL    HW128565   1.987   0.285   4.570 -0.3418 -0.3655  2.6211
 5644SOL    HW228566   2.125   0.263   4.598 -0.7967 -0.7028  2.2421
 5645SOL     OW28567   0.650   2.163  17.079 -0.4041  0.0560 -0.2424
 5645SOL    HW128568   0.689   2.220  17.145  0.4320 -2.3436  1.3074
 5645SOL    HW228569   0.575   2.121  17.121  1.1857 -0.3269  2.1571
 5646SOL     OW28570   4.316   1.792   3.166 -0.9270 -0.2212  0.1819
 5646SOL    HW128571   4.355   1.733   3.231 -1.2072  0.5311  1.0351
 5646SOL    HW228572   4.328   1.734   3.091  1.7157  1.4344 -0.6703
 5647SOL     OW28573   0.559   4.564   5.555  0.0144 -0.8070  0.1589
 5647SOL    HW128574   0.639   4.585   5.602 -0.5106 -1.2591  1.2374
 5647SOL    HW228575   0.502   4.579   5.630  0.4227  1.1423  0.0862
 5648SOL     OW28576   1.375   0.144  11.336 -0.1394 -0.1779  0.6654
 5648SOL    HW128577   1.368   0.179  11.247  2.7223 -0.5232  0.3034
 5648SOL    HW228578   1.461   0.170  11.369  0.1799  1.2522 -1.2401
 5649SOL     OW28579   0.643   0.843   5.387 -0.0744  0.3473  0.3251
 5649SOL    HW128580   0.612   0.900   5.457  1.2739  0.5847  0.7242
 5649SOL    HW228581   0.647   0.752   5.418 -0.2006  0.8833  1.9018
 5650SOL     OW28582   0.506   3.065   7.305  0.3139  0.4438  0.3770
 5650SOL    HW128583   0.491   3.101   7.392 -1.7223 -0.2435  0.3206
 5650SOL    HW228584   0.507   2.970   7.317  1.0651  0.4157  0.0893
 5651SOL     OW28585   2.652   4.446  11.998 -0.7625  0.1953  0.7633
 5651SOL    HW128586   2.639   4.425  12.090  1.5250 -1.2978  0.7246
 5651SOL    HW228587   2.746   4.461  11.993 -0.8819  0.9704  0.7709
 5652SOL     OW28588   2.268   3.464   9.167  0.0078 -0.0345 -0.7438
 5652SOL    HW128589   2.295   3.411   9.242  2.2125 -0.2046 -1.6530
 5652SOL    HW228590   2.345   3.447   9.113 -0.2089 -1.9331 -0.4770
 5653SOL     OW28591   1.310   2.665   1.932 -0.1968  0.2723  0.0045
 5653SOL    HW128592   1.375   2.690   1.997 -1.7544 -1.2110  2.1403
 5653SOL    HW228593   1.283   2.752   1.905  0.9188  0.8297  0.7030
 5654SOL     OW28594   0.886   2.813   6.071 -0.0702  0.0936  0.3018
 5654SOL    HW128595   0.925   2.897   6.046 -1.9488  1.1062  0.7766
 5654SOL    HW228596   0.970   2.775   6.099 -0.2953  1.0681  2.3144
 5655SOL     OW28597   0.213   2.612   8.412  0.2578  0.3272 -0.1458
 5655SOL    HW128598   0.194   2.705   8.394  1.3913  0.4161 -0.8814
 5655SOL    HW228599   0.171   2.586   8.330 -0.3638 -1.8950  0.8902
 5656SOL     OW28600   2.692   2.812   9.149 -0.4984 -0.0319  0.1981
 5656SOL    HW128601   2.633   2.737   9.160 -0.2612 -0.1917  0.3618
 5656SOL    HW228602   2.752   2.774   9.086 -2.3483 -0.7960 -1.0968
 5657SOL     OW28603   2.973   1.965   7.624  0.6511  0.6454 -0.1332
 5657SOL    HW128604   2.893   1.993   7.668  2.2424  4.4562  0.3020
 5657SOL    HW228605   2.958   2.008   7.540  0.0664 -0.2076 -0.4615
 5658SOL     OW28606   3.541   3.193   7.116 -0.2006  0.0072 -0.4895
 5658SOL    HW128607   3.458   3.163   7.153  0.5392  1.2663  2.2497
 5658SOL    HW228608   3.520   3.284   7.097 -0.6861  0.4742  2.1733
 5659SOL     OW28609   4.416   0.166   7.866  0.0027 -0.2275  0.1527
 5659SOL    HW128610   4.343   0.228   7.864  0.1490 -0.0385  0.8070
 5659SOL    HW228611   4.389   0.080   7.834  2.9171 -0.6889 -1.0435
 5660SOL     OW28612   2.791   3.742   4.877  0.1545 -0.0617  0.1693
 5660SOL    HW128613   2.722   3.788   4.923 -0.1447 -0.6390  0.2944
 5660SOL    HW228614   2.813   3.673   4.939  0.8714  0.8748  0.9521
 5661SOL     OW28615   0.057   1.099   7.875  0.2467  0.1258  0.2162
 5661SOL    HW128616   0.111   1.071   7.949 -1.3590 -0.3668  1.1892
 5661SOL    HW228617   0.072   1.030   7.810 -1.2499  0.5772 -0.5998
 5662SOL     OW28618   2.157   4.113  17.556 -0.2392 -0.9378  0.4997
 5662SOL    HW128619   2.110   4.059  17.492  0.2704 -1.3370  0.4570
 5662SOL    HW228620   2.162   4.048  17.627 -0.8731 -1.3199  0.1942
 5663SOL     OW28621   3.002   1.375  10.810 -0.2719  0.9967 -0.3174
 5663SOL    HW128622   2.965   1.358  10.723  0.2530  0.4874 -0.4454
 5663SOL    HW228623   3.079   1.430  10.796 -0.9321  1.7220 -1.1318
 5664SOL     OW28624   1.466   3.842   3.493  0.0857  0.0168  0.2593
 5664SOL    HW128625   1.485   3.889   3.574 -0.1105  0.0212  0.3023
 5664SOL    HW228626   1.554   3.846   3.454  0.6190 -1.6741  1.3003
 5665SOL     OW28627   1.161   3.115  12.892 -0.0358  0.4463  0.0462
 5665SOL    HW128628   1.113   3.133  12.972 -1.6963  0.7754 -1.0320
 5665SOL    HW228629   1.208   3.198  12.891 -0.0508  0.4183 -2.4758
 5666SOL     OW28630   3.178   4.234   2.905 -0.3017  0.6019 -0.4342
 5666SOL    HW128631   3.153   4.188   2.985 -0.5870 -0.7466 -1.2905
 5666SOL    HW228632   3.244   4.298   2.929  1.8307 -2.0656  0.8142
 5667SOL     OW28633   4.165   4.620   8.039 -0.5024  0.0783 -0.4049
 5667SOL    HW128634   4.090   4.646   8.092 -0.4305  0.6001 -0.5569
 5667SOL    HW228635   4.144   4.668   7.959 -0.5449 -2.1354 -1.7079
 5668SOL     OW28636   0.115   0.844   4.857 -0.1408  0.1609  0.1213
 5668SOL    HW128637   0.168   0.909   4.810 -1.0985  0.6424 -0.3026
 5668SOL    HW228638   0.068   0.902   4.917 -0.6408  0.3019 -0.4059
 5669SOL     OW28639   4.574   2.553   8.891 -0.6827 -0.4386 -0.0351
 5669SOL    HW128640   4.486   2.556   8.926 -1.3655 -2.3397 -1.5499
 5669SOL    HW228641   4.621   2.494   8.950 -0.1794  0.7127  0.7173
 5670SOL     OW28642   2.897   2.332   3.959  0.1050 -0.9233 -0.1542
 5670SOL    HW128643   2.987   2.353   3.984  0.1778 -0.3389 -0.8909
 5670SOL    HW228644   2.913   2.258   3.900 -0.6264 -0.0187 -1.5018
 5671SOL     OW28645   0.338   1.469   8.898 -0.0629  0.4842  0.1839
 5671SOL    HW128646   0.348   1.558   8.863  1.2222  0.2694  0.0094
 5671SOL    HW228647   0.301   1.473   8.986 -1.6516 -1.5972 -0.3790
 5672SOL     OW28648   0.432   3.493   8.842 -0.1424 -0.0691  0.1136
 5672SOL    HW128649   0.351   3.523   8.802 -0.3832 -2.4585 -1.1558
 5672SOL    HW228650   0.424   3.399   8.828  1.3451 -0.2866  0.6341
 5673SOL     OW28651   1.208   2.513   4.801  0.9312 -0.0331  0.7145
 5673SOL    HW128652   1.210   2.463   4.719  1.8680  1.1950 -0.0197
 5673SOL    HW228653   1.282   2.472   4.846  0.6488 -0.1297  1.0872
 5674SOL     OW28654   3.696   0.610   8.622  0.1805 -0.2054  0.0960
 5674SOL    HW128655   3.682   0.525   8.581  0.3636 -1.4265  2.6092
 5674SOL    HW228656   3.656   0.657   8.548 -0.1838 -0.1941  0.3021
 5675SOL     OW28657   4.028   2.347   3.768  0.1998 -0.1878 -0.3213
 5675SOL    HW128658   4.114   2.380   3.744  0.0006  0.4580 -0.1705
 5675SOL    HW228659   3.990   2.350   3.680  0.1586  0.2848 -0.2880
 5676SOL     OW28660   1.518   3.633   7.937  0.7615  0.3006  0.2179
 5676SOL    HW128661   1.574   3.639   8.014 -0.7519  0.6161  1.3131
 5676SOL    HW228662   1.466   3.712   7.955  1.0697  0.6234 -0.3114
 5677SOL     OW28663   4.324   2.291   6.205 -0.5409  0.4955 -0.3240
 5677SOL    HW128664   4.415   2.296   6.176 -1.0009 -0.5058 -1.9624
 5677SOL    HW228665   4.290   2.240   6.131 -3.4193 -0.3511  1.5935
 5678SOL     OW28666   1.402   2.903   8.205 -0.3712  0.3070  0.0389
 5678SOL    HW128667   1.451   2.826   8.177  0.7727  1.6341 -1.5851
 5678SOL    HW228668   1.422   2.965   8.135 -0.9610  0.2702 -0.1598
 5679SOL     OW28669   2.560   0.775  12.021  0.7962 -0.2877 -0.2898
 5679SOL    HW128670   2.490   0.761  11.957 -0.5255  2.0726  0.6395
 5679SOL    HW228671   2.507   0.817  12.089  0.7861 -0.1777 -0.3652
 5680SOL     OW28672   1.653   2.971   6.046 -0.3076  0.0330  0.0491
 5680SOL    HW128673   1.596   3.049   6.042 -0.8747 -0.4253 -0.9493
 5680SOL    HW228674   1.703   2.990   6.125  0.2331 -0.1000 -0.2674
 5681SOL     OW28675   0.006   1.145   2.789 -0.2246  0.3680 -0.4711
 5681SOL    HW128676   4.726   1.107   2.875 -0.9626  1.6006 -0.0766
 5681SOL    HW228677   0.027   1.063   2.745  2.4363  0.9407 -0.2463
 5682SOL     OW28678   0.874   1.830   3.057 -0.7702  0.1009 -0.3507
 5682SOL    HW128679   0.846   1.917   3.029 -0.3534 -0.0079 -1.0990
 5682SOL    HW228680   0.793   1.780   3.067 -0.4526 -0.6742 -1.6092
 5683SOL     OW28681   2.396   0.939   3.211 -0.1466 -0.0766  0.0899
 5683SOL    HW128682   2.405   0.875   3.140 -0.4598 -0.1446  0.1092
 5683SOL    HW228683   2.486   0.963   3.234 -0.5270  1.5430 -0.1056
 5684SOL     OW28684   0.020   1.068   8.510  0.2013  0.3309  0.0520
 5684SOL    HW128685   0.007   1.070   8.415  0.5704  0.2034  0.0021
 5684SOL    HW228686   4.695   1.133   8.541 -0.1134 -0.5808  1.3154
 5685SOL     OW28687   3.345   2.315  15.439 -0.3714  0.0063  0.7102
 5685SOL    HW128688   3.251   2.332  15.430 -0.1973  0.7470  0.2436
 5685SOL    HW228689   3.371   2.397  15.481  1.3663 -1.1619  1.8846
 5686SOL     OW28690   1.033   2.607   8.410  0.4127 -0.4004 -0.4819
 5686SOL    HW128691   1.119   2.603   8.453 -0.7807  1.7595  2.0869
 5686SOL    HW228692   1.059   2.672   8.345 -0.2238  1.8273  1.4947
 5687SOL     OW28693   0.579   1.443   4.404  0.0130  0.5172  0.1044
 5687SOL    HW128694   0.552   1.529   4.373  1.6150  0.3553 -1.7480
 5687SOL    HW228695   0.672   1.454   4.423  0.2345 -0.9667 -0.1241
 5688SOL     OW28696   4.392   4.658   8.773 -0.4489  0.4747 -0.3319
 5688SOL    HW128697   4.371   4.596   8.843 -0.3780  2.1285  1.1592
 5688SOL    HW228698   4.417   4.605   8.697 -1.4704  0.1978 -0.4738
 5689SOL     OW28699   1.605   1.791   0.538 -0.0444  0.5854 -0.4770
 5689SOL    HW128700   1.641   1.874   0.568  2.1563 -0.0340 -1.4000
 5689SOL    HW228701   1.511   1.805   0.549  0.0453  0.1175  0.9604
 5690SOL     OW28702   4.075   4.200  10.594 -0.2761  0.0988 -1.2688
 5690SOL    HW128703   4.128   4.276  10.571 -1.7181  1.7604  0.9706
 5690SOL    HW228704   4.127   4.123  10.571  0.9082 -0.5868  3.6794
 5691SOL     OW28705   3.005   1.541   2.529 -0.2647  0.2747  0.4450
 5691SOL    HW128706   2.940   1.525   2.461  1.9505  0.1966 -1.6403
 5691SOL    HW228707   3.083   1.501   2.492  0.6887  2.8128 -0.2964
 5692SOL     OW28708   0.336   4.397   6.732 -0.3620 -0.1636 -0.3101
 5692SOL    HW128709   0.363   4.307   6.749  0.0631 -0.0805 -0.5489
 5692SOL    HW228710   0.275   4.410   6.805  0.2349 -1.6081  0.4431
 5693SOL     OW28711   0.855   3.863   5.809  0.0254 -0.2300  0.8021
 5693SOL    HW128712   0.764   3.865   5.781  0.2583 -0.1637  0.0711
 5693SOL    HW228713   0.864   3.767   5.810  0.7846 -0.1731 -2.2924
 5694SOL     OW28714   4.466   3.636   9.341 -0.0966  0.4714  0.4376
 5694SOL    HW128715   4.410   3.559   9.334  0.2877  0.3631 -1.4094
 5694SOL    HW228716   4.394   3.699   9.330 -0.2764  0.0621 -0.6788
 5695SOL     OW28717   4.696   2.088   2.251 -0.2317 -0.5688 -0.4343
 5695SOL    HW128718   0.001   2.114   2.170  1.0820  0.9331  0.7428
 5695SOL    HW228719   0.019   2.125   2.315 -0.0345 -1.3559 -0.1675
 5696SOL     OW28720   4.240   3.799  14.925  0.0497 -0.2186  0.3827
 5696SOL    HW128721   4.304   3.865  14.899 -0.6858 -0.4319 -1.9760
 5696SOL    HW228722   4.195   3.845  14.996 -0.1631  0.4828 -0.2102
 5697SOL     OW28723   3.882   1.878   6.688  0.2033  0.4332  0.2667
 5697SOL    HW128724   3.861   1.829   6.609  0.5812  1.4423 -0.4586
 5697SOL    HW228725   3.798   1.914   6.716  0.6370  0.4262  1.5754
 5698SOL     OW28726   1.346   4.461   0.694 -0.1557  0.3241  0.3750
 5698SOL    HW128727   1.351   4.552   0.723 -0.1317  0.5191 -0.2352
 5698SOL    HW228728   1.253   4.452   0.672 -0.1139  2.6277 -0.7334
 5699SOL     OW28729   3.080   0.869   2.951 -0.2840 -0.1395 -0.3781
 5699SOL    HW128730   3.059   0.961   2.935  0.3963 -0.0472 -0.7282
 5699SOL    HW228731   3.136   0.834   2.882  1.7221  0.8778  0.7500
 5700SOL     OW28732   3.769   0.043   5.217 -0.2128  0.7611 -0.0133
 5700SOL    HW128733   3.807   0.009   5.297 -2.0534  1.5956  1.2144
 5700SOL    HW228734   3.843   0.050   5.157  0.7811  0.0332  1.1392
 5701SOL     OW28735   0.650   1.300   2.256 -0.3408 -0.2535 -0.3046
 5701SOL    HW128736   0.592   1.375   2.248 -0.8334 -0.8879 -2.7445
 5701SOL    HW228737   0.581   1.233   2.259 -1.2488  0.7329  0.7100
 5702SOL     OW28738   1.393   0.472  11.483 -0.2717  0.3339  0.5160
 5702SOL    HW128739   1.457   0.543  11.490 -0.6755  1.0497 -3.0164
 5702SOL    HW228740   1.426   0.418  11.555 -1.0163 -0.5324  0.2040
 5703SOL     OW28741   3.547   0.656   5.804  0.2615 -0.0576 -0.3877
 5703SOL    HW128742   3.580   0.573   5.839 -0.3253  0.1596  0.6819
 5703SOL    HW228743   3.591   0.717   5.864  1.0697 -1.2595  0.2500
 5704SOL     OW28744   2.791   4.631  11.774  0.5499 -0.1937  0.0273
 5704SOL    HW128745   2.705   4.656  11.808  0.3737 -0.9871  0.1723
 5704SOL    HW228746   2.823   4.581  11.849  1.4794 -0.2510 -0.4009
 5705SOL     OW28747   0.906   2.446   2.695 -0.0803  0.1353  0.1844
 5705SOL    HW128748   0.906   2.487   2.608 -0.4141  1.4194  0.7947
 5705SOL    HW228749   0.911   2.353   2.673  0.8676  0.3158 -0.3676
 5706SOL     OW28750   3.873   2.505  17.604 -0.0657  0.0048  0.2251
 5706SOL    HW128751   3.778   2.507  17.602 -0.0191  0.8843 -1.0323
 5706SOL    HW228752   3.897   2.595  17.624  0.8121  0.2588 -1.9536
 5707SOL     OW28753   2.958   3.492   6.841  0.4548 -0.6828 -0.3003
 5707SOL    HW128754   2.928   3.550   6.910 -0.8405 -0.9433 -0.6541
 5707SOL    HW228755   2.911   3.412   6.865 -1.7699  0.5129 -0.7449
 5708SOL     OW28756   0.238   0.314   7.908 -0.4660 -0.2341  0.1500
 5708SOL    HW128757   0.178   0.350   7.843  0.9275 -1.6516 -1.9162
 5708SOL    HW228758   0.304   0.278   7.849 -1.6151  1.9208 -2.4753
 5709SOL     OW28759   2.369   0.700  14.949 -0.3233  0.2219  0.8199
 5709SOL    HW128760   2.440   0.739  14.899 -0.7320  0.2034  0.2271
 5709SOL    HW228761   2.357   0.622  14.895  0.9418  2.6130 -2.9001
 5710SOL     OW28762   2.419   0.757   3.008  0.4458 -0.6242 -0.5248
 5710SOL    HW128763   2.324   0.744   3.013  0.4901 -1.1001 -0.9620
 5710SOL    HW228764   2.445   0.766   2.916 -0.6719  0.5318 -0.7453
 5711SOL     OW28765   4.061   2.073  15.265  0.0383  0.3593  0.0858
 5711SOL    HW128766   4.073   2.087  15.171 -2.0547 -1.8972 -0.5336
 5711SOL    HW228767   3.965   2.075  15.265  0.0318  0.1342 -0.6088
 5712SOL     OW28768   3.195   2.036  10.030 -0.2675  0.3922 -0.3417
 5712SOL    HW128769   3.185   2.101  10.099  0.8436  0.7575 -0.5294
 5712SOL    HW228770   3.276   1.997  10.062 -2.8293 -3.3444  1.6635
 5713SOL     OW28771   1.407   4.287  16.147 -0.0552  0.2772  1.0104
 5713SOL    HW128772   1.381   4.379  16.152 -1.0361  0.1066 -1.1160
 5713SOL    HW228773   1.378   4.261  16.235 -1.1934  1.0683  0.8651
 5714SOL     OW28774   1.760   3.702   1.866 -0.0966 -0.2725  0.3940
 5714SOL    HW128775   1.832   3.673   1.810  0.1781  0.0322  0.5934
 5714SOL    HW228776   1.695   3.637   1.838  0.5539 -0.7996  0.1192
 5715SOL     OW28777   1.872   0.728  11.554  0.6241 -0.2068  0.0207
 5715SOL    HW128778   1.904   0.752  11.642 -0.6193  2.5830 -0.3013
 5715SOL    HW228779   1.932   0.781  11.503 -1.1351  0.5697 -1.2036
 5716SOL     OW28780   0.854   2.960   5.330 -0.1158 -0.2120  0.1451
 5716SOL    HW128781   0.843   2.987   5.238 -1.0800  1.3256  0.7021
 5716SOL    HW228782   0.855   3.050   5.362  0.0400  0.7319 -2.4622
 5717SOL     OW28783   0.377   1.163  13.476 -0.3588 -0.3114  0.1533
 5717SOL    HW128784   0.411   1.078  13.448  1.1691  0.4468 -0.2786
 5717SOL    HW228785   0.453   1.218  13.462  1.0354 -2.1292  0.6544
 5718SOL     OW28786   0.249   2.099  13.153  0.1854 -0.1648 -0.1104
 5718SOL    HW128787   0.172   2.053  13.183 -1.2928  1.9668 -0.6236
 5718SOL    HW228788   0.284   2.142  13.231  2.1456 -1.2154 -0.3947
 5719SOL     OW28789   1.010   4.453  14.432  0.3563  0.4192  0.5245
 5719SOL    HW128790   1.090   4.419  14.391 -0.5081  0.2789 -1.0361
 5719SOL    HW228791   1.004   4.403  14.513  2.5783  0.7709  0.9187
 5720SOL     OW28792   2.264   1.910  12.068  0.2164  0.2916  0.2936
 5720SOL    HW128793   2.260   1.879  11.978 -1.3723  0.6128  0.2626
 5720SOL    HW228794   2.205   1.985  12.072 -0.7812 -0.5823  2.1283
 5721SOL     OW28795   2.998   2.131   7.396 -0.2028 -0.2822  0.0205
 5721SOL    HW128796   3.065   2.186   7.355  0.9556  0.6350  3.1262
 5721SOL    HW228797   2.927   2.178   7.353  0.0856 -0.3670 -0.5486
 5722SOL     OW28798   3.048   2.802  17.506  0.4642  0.3493 -0.0813
 5722SOL    HW128799   2.961   2.768  17.486  0.4041  0.0069  0.7572
 5722SOL    HW228800   3.059   2.774  17.597  1.3957 -0.0636 -0.3173
 5723SOL     OW28801   0.377   2.632   9.545  0.1217  0.0536 -0.2348
 5723SOL    HW128802   0.381   2.728   9.550  1.3291  0.0267 -0.6956
 5723SOL    HW228803   0.334   2.607   9.627 -1.7637  1.3977 -0.8168
 5724SOL     OW28804   4.231   2.532  11.482  0.6730 -0.0482 -0.2807
 5724SOL    HW128805   4.290   2.535  11.407  1.3238 -1.5501  0.1633
 5724SOL    HW228806   4.292   2.548  11.554  1.6001 -1.9727 -0.6458
 5725SOL     OW28807   4.651   0.998   5.423  0.2628  0.3079 -0.0997
 5725SOL    HW128808   4.625   1.048   5.500  0.2404 -1.8452  1.2640
 5725SOL    HW228809   4.567   0.959   5.398 -0.5100  1.3607  0.8814
 5726SOL     OW28810   3.937   1.505   6.448 -0.0784 -0.7481  0.0973
 5726SOL    HW128811   4.012   1.560   6.470 -1.2204  0.2979  1.3412
 5726SOL    HW228812   3.977   1.420   6.428  2.2515  0.2208  0.5540
 5727SOL     OW28813   2.015   4.199   5.639  0.1704 -0.7113  0.4859
 5727SOL    HW128814   2.095   4.249   5.653 -0.6301  0.5589  0.4530
 5727SOL    HW228815   1.953   4.229   5.705 -0.3445  0.1338 -0.3819
 5728SOL     OW28816   3.544   2.315   4.681  0.1385  0.2076  0.7035
 5728SOL    HW128817   3.576   2.389   4.631  0.9116 -1.3048 -1.0518
 5728SOL    HW228818   3.603   2.331   4.754  3.0462 -1.0340 -1.3761
 5729SOL     OW28819   1.464   3.446  13.533  0.0283 -0.1198  0.3102
 5729SOL    HW128820   1.437   3.354  13.537 -0.9893  0.1446 -0.5991
 5729SOL    HW228821   1.383   3.492  13.510 -0.1149 -0.7667 -0.5119
 5730SOL     OW28822   1.701   2.544  14.540 -0.0459 -0.4274  0.1629
 5730SOL    HW128823   1.628   2.482  14.544 -0.7400  0.2320 -2.6129
 5730SOL    HW228824   1.673   2.622  14.493  0.1155 -1.3042 -1.3887
 5731SOL     OW28825   2.424   2.479   2.255  0.1406  0.2065  0.2613
 5731SOL    HW128826   2.470   2.464   2.337  1.7257  0.7694 -0.5001
 5731SOL    HW228827   2.496   2.510   2.199 -0.9969 -1.2591 -2.0154
 5732SOL     OW28828   3.396   3.668   0.558 -0.1177 -0.3807  0.0294
 5732SOL    HW128829   3.390   3.763   0.547 -0.2745 -0.3056  0.7386
 5732SOL    HW228830   3.313   3.649   0.515 -1.9358 -1.0910  3.8508
 5733SOL     OW28831   2.536   0.941  14.078  0.2455 -0.2108 -0.0761
 5733SOL    HW128832   2.461   0.995  14.104 -0.7547 -0.0037 -3.4392
 5733SOL    HW228833   2.489   0.892  14.011  1.2945  0.9202 -1.6339
 5734SOL     OW28834   4.115   2.945   7.853  0.2169 -0.6928 -0.2058
 5734SOL    HW128835   4.096   2.863   7.807  1.7771 -0.2954 -1.5750
 5734SOL    HW228836   4.199   2.926   7.895 -0.0716  1.1384  1.1977
 5735SOL     OW28837   3.403   1.100   6.984  0.2691  0.2232  1.2985
 5735SOL    HW128838   3.449   1.023   7.019  0.7920  1.1177  2.5542
 5735SOL    HW228839   3.467   1.169   6.966 -0.5778  0.3532 -1.2299
 5736SOL     OW28840   2.597   0.826   9.504 -0.0140 -0.2464  0.0099
 5736SOL    HW128841   2.650   0.844   9.582 -2.6527 -0.5813  1.8582
 5736SOL    HW228842   2.564   0.737   9.517 -1.2480  0.0393 -1.1855
 5737SOL     OW28843   2.572   2.037   4.385  0.7074  0.0603  0.1229
 5737SOL    HW128844   2.478   2.055   4.396  0.0275 -2.9916 -0.5614
 5737SOL    HW228845   2.585   2.088   4.306  1.2314  1.3467  1.0355
 5738SOL     OW28846   0.802   1.254   6.281  0.2109 -0.9010  0.2368
 5738SOL    HW128847   0.814   1.169   6.240  2.9520 -0.9852  1.1876
 5738SOL    HW228848   0.806   1.315   6.207 -2.7716  1.2485  1.8357
 5739SOL     OW28849   0.370   4.357   8.062 -0.0867  0.5622  0.6101
 5739SOL    HW128850   0.453   4.402   8.078 -0.2385  1.6126 -1.5568
 5739SOL    HW228851   0.316   4.434   8.043  1.9599  1.9194  0.2503
 5740SOL     OW28852   3.631   1.792   9.639 -0.2526  0.2603  0.3104
 5740SOL    HW128853   3.635   1.703   9.671 -2.1268 -0.3672 -1.1880
 5740SOL    HW228854   3.703   1.829   9.690  1.5826 -0.5494 -1.6894
 5741SOL     OW28855   2.032   4.578   1.161  0.9658 -0.5446 -0.0693
 5741SOL    HW128856   2.026   4.660   1.210  1.6800  0.5036 -1.7271
 5741SOL    HW228857   1.953   4.590   1.107  1.4092  1.9951 -0.1598
 5742SOL     OW28858   2.697   1.315   4.515  0.2366  0.3995  0.2528
 5742SOL    HW128859   2.614   1.361   4.503 -0.0611  0.1038  1.1654
 5742SOL    HW228860   2.719   1.335   4.606  2.8143  1.5243 -0.6117
 5743SOL     OW28861   4.363   4.244  14.171 -0.6531 -0.2602  0.1774
 5743SOL    HW128862   4.386   4.324  14.124  2.1361 -0.5343  1.0450
 5743SOL    HW228863   4.360   4.182  14.098 -2.1238  0.5635 -0.4542
 5744SOL     OW28864   1.087   2.482  10.011 -0.2976  0.2445  0.0014
 5744SOL    HW128865   1.070   2.534  10.090  0.0377 -0.2696  0.4148
 5744SOL    HW228866   1.083   2.550   9.944 -0.4932  0.1442 -0.0889
 5745SOL     OW28867   3.045   1.765   1.822  0.7932 -0.1795 -0.2403
 5745SOL    HW128868   3.136   1.796   1.823  0.3277  1.1849 -0.6771
 5745SOL    HW228869   3.010   1.822   1.890  0.6155  0.1715 -0.6287
 5746SOL     OW28870   3.602   1.292   4.756  0.2521  0.1857 -0.7118
 5746SOL    HW128871   3.521   1.244   4.742  1.1297 -1.6026  0.3479
 5746SOL    HW228872   3.666   1.221   4.761 -2.4804 -2.1997  0.3704
 5747SOL     OW28873   3.181   1.599   7.795 -0.7137  0.0197 -0.7882
 5747SOL    HW128874   3.191   1.693   7.779 -1.7172  0.0487 -1.1990
 5747SOL    HW228875   3.091   1.581   7.822 -0.4504 -1.5353 -0.9767
 5748SOL     OW28876   1.173   3.325   5.370 -0.6009  0.1081 -0.1591
 5748SOL    HW128877   1.107   3.385   5.405  1.2963  2.1099 -0.0242
 5748SOL    HW228878   1.242   3.387   5.347  0.0247 -0.0901  1.1994
 5749SOL     OW28879   2.061   1.098   9.983  0.4212  0.3071 -0.0282
 5749SOL    HW128880   2.091   1.110  10.073  1.7249  1.7272 -0.6594
 5749SOL    HW228881   1.993   1.033  10.001  0.1374  0.6115  0.0039
 5750SOL     OW28882   0.630   0.685  13.736 -0.0551  1.1920 -0.2508
 5750SOL    HW128883   0.694   0.713  13.670  3.0574 -3.8502  0.6286
 5750SOL    HW228884   0.659   0.720  13.820 -1.6018  0.2157  0.7103
 5751SOL     OW28885   4.688   1.021   3.015  0.1004 -0.0989  0.6038
 5751SOL    HW128886   4.645   0.936   3.012 -2.5198  1.1782  1.6379
 5751SOL    HW228887   0.024   1.007   3.073 -0.1505 -1.9687  0.4808
 5752SOL     OW28888   0.049   3.359  15.961 -0.0674  0.3635 -0.0335
 5752SOL    HW128889   0.079   3.310  16.038  1.2795  1.4904  0.1481
 5752SOL    HW228890   0.094   3.442  15.977 -2.1318  1.6136 -0.7213
 5753SOL     OW28891   2.066   0.966   7.965 -0.1691 -0.1528  0.1467
 5753SOL    HW128892   2.065   1.060   7.985 -0.2613  0.0802 -0.9703
 5753SOL    HW228893   1.988   0.942   8.016  0.8104 -2.1280  0.6852
 5754SOL     OW28894   3.945   2.732   0.105  0.2897  0.2198  0.5578
 5754SOL    HW128895   4.019   2.720   0.164 -0.5143  0.8879  1.7196
 5754SOL    HW228896   3.883   2.779   0.162 -0.0913 -1.5544  1.6019
 5755SOL     OW28897   1.600   2.737   3.834  0.5829 -0.3298 -0.1187
 5755SOL    HW128898   1.571   2.736   3.925 -0.0074  0.9420 -0.2834
 5755SOL    HW228899   1.605   2.647   3.803 -1.6041 -0.4188 -0.2242
 5756SOL     OW28900   4.458   3.835   4.237 -0.3725 -0.0703  0.9781
 5756SOL    HW128901   4.528   3.889   4.200  0.1493 -1.1951  0.3257
 5756SOL    HW228902   4.388   3.900   4.241  0.9646  1.4276  0.3110
 5757SOL     OW28903   0.829   3.760   1.620  0.4593 -0.1745  0.8905
 5757SOL    HW128904   0.871   3.809   1.691 -3.0411 -0.6262  3.3044
 5757SOL    HW228905   0.740   3.795   1.628 -0.1273 -1.3962 -0.3060
 5758SOL     OW28906   3.438   3.183   2.142  0.2704  0.0595 -0.2159
 5758SOL    HW128907   3.480   3.120   2.084 -0.0553 -1.1730  0.8756
 5758SOL    HW228908   3.372   3.220   2.083  1.3118  1.7207 -0.3299
 5759SOL     OW28909   0.284   1.101   4.867 -0.1048  0.3501 -0.4661
 5759SOL    HW128910   0.260   1.119   4.776 -1.5347  0.6241 -0.0369
 5759SOL    HW228911   0.248   1.178   4.913 -2.4768 -0.7412 -0.4647
 5760SOL     OW28912   1.813   1.313   3.402  0.1271 -0.0117 -0.0183
 5760SOL    HW128913   1.775   1.360   3.329 -1.6113  0.1949  1.0349
 5760SOL    HW228914   1.825   1.381   3.468 -0.0969  0.6840 -0.7119
 5761SOL     OW28915   1.119   4.671   2.239  0.3696  0.6074 -0.0574
 5761SOL    HW128916   1.067   4.701   2.164  1.3148 -0.4978 -1.1711
 5761SOL    HW228917   1.201   4.639   2.200  1.1764  0.7943  1.4962
 5762SOL     OW28918   4.354   4.057   7.218  0.2238 -0.0410 -0.3663
 5762SOL    HW128919   4.338   3.990   7.285 -0.9257  1.4131  0.8131
 5762SOL    HW228920   4.266   4.086   7.194 -0.0897 -0.5180  0.2078
 5763SOL     OW28921   4.649   0.163   1.030 -0.5971 -0.2312  0.2099
 5763SOL    HW128922   4.655   0.110   1.109 -1.3467  1.0978  1.1413
 5763SOL    HW228923   4.595   0.228   1.073  0.4907  0.7572  0.0683
 5764SOL     OW28924   2.428   0.700   3.777 -0.1753 -0.2359  0.3394
 5764SOL    HW128925   2.410   0.669   3.688 -1.7541 -1.8806  1.2233
 5764SOL    HW228926   2.376   0.637   3.827 -0.6188 -0.9712 -1.0425
 5765SOL     OW28927   4.465   0.638   6.642  0.1681 -0.3800 -0.4524
 5765SOL    HW128928   4.552   0.659   6.676 -0.1308 -0.0209  0.0926
 5765SOL    HW228929   4.454   0.557   6.691  3.0886 -0.3611  0.2191
 5766SOL     OW28930   3.034   4.602   7.391 -0.5267  0.6346  0.4801
 5766SOL    HW128931   3.097   4.555   7.336 -0.7709 -0.9082  1.5287
 5766SOL    HW228932   3.091   4.650   7.452  0.3948 -1.0429  0.9307
 5767SOL     OW28933   2.683   2.084  10.504 -0.0420  0.6094 -0.8152
 5767SOL    HW128934   2.730   2.042  10.575  0.5244  1.4812 -0.6818
 5767SOL    HW228935   2.635   2.010  10.467  0.8546  0.4135 -1.5748
 5768SOL     OW28936   0.145   2.016   5.665 -0.4529 -0.3033  0.2020
 5768SOL    HW128937   0.117   1.996   5.575  0.6057 -0.3974 -0.1042
 5768SOL    HW228938   0.087   2.092   5.673  1.5982  1.3321 -0.3676
 5769SOL     OW28939   2.422   2.300   9.038 -0.1768  0.5170  0.0011
 5769SOL    HW128940   2.418   2.234   8.969 -1.5486  1.2437 -0.6141
 5769SOL    HW228941   2.344   2.352   9.017 -1.5696 -1.4299  0.4331
 5770SOL     OW28942   0.765   3.994   6.540 -0.5278  0.1533  0.4045
 5770SOL    HW128943   0.779   4.083   6.574  0.7191 -0.1904  0.7731
 5770SOL    HW228944   0.844   3.959   6.499 -2.4690 -0.1173 -3.1167
 5771SOL     OW28945   2.631   2.118  16.114 -0.5875  0.1809  0.2010
 5771SOL    HW128946   2.566   2.184  16.140  0.1223  1.0832 -0.3376
 5771SOL    HW228947   2.580   2.053  16.066 -0.3854  0.5843 -0.5500
 5772SOL     OW28948   2.985   4.620   8.988 -0.3993  0.1194 -0.1108
 5772SOL    HW128949   2.894   4.618   8.958 -0.9141 -0.5749  1.5052
 5772SOL    HW228950   2.980   4.643   9.081  0.7575 -2.1126  0.5009
 5773SOL     OW28951   4.137   0.267   7.852 -0.6977 -0.1259  0.4370
 5773SOL    HW128952   4.049   0.291   7.822 -0.6873 -0.0965  0.4304
 5773SOL    HW228953   4.116   0.175   7.866  1.9683 -1.0543 -1.7494
 5774SOL     OW28954   2.051   1.582   6.419 -0.3267 -0.4647  0.0052
 5774SOL    HW128955   2.032   1.531   6.340  2.7390  0.5864 -1.4478
 5774SOL    HW228956   2.015   1.665   6.387  1.8524  0.0218 -1.2448
 5775SOL     OW28957   1.297   2.605   7.942  0.0423 -0.6124 -0.0225
 5775SOL    HW128958   1.309   2.512   7.922 -3.9790 -0.9102 -0.9980
 5775SOL    HW228959   1.365   2.621   8.008  0.0916 -0.0377 -0.2154
 5776SOL     OW28960   4.673   2.250   2.961  0.2306  0.4742  0.2874
 5776SOL    HW128961   4.604   2.256   3.027 -3.2288 -1.2387 -3.1638
 5776SOL    HW228962   4.692   2.157   2.973 -0.5439  0.1397 -1.0989
 5777SOL     OW28963   2.853   1.356   6.676 -0.8980  0.4356 -0.6700
 5777SOL    HW128964   2.880   1.279   6.727 -0.6348  1.2404  0.3843
 5777SOL    HW228965   2.773   1.365   6.728 -1.5200 -1.3109 -1.3242
 5778SOL     OW28966   3.996   3.267  14.631  0.0597  0.1349 -0.0895
 5778SOL    HW128967   3.979   3.219  14.550 -0.8904  0.5570 -0.1410
 5778SOL    HW228968   4.086   3.299  14.622  0.4130 -0.1006  2.6280
 5779SOL     OW28969   2.855   2.625   4.278  0.6166 -0.2182 -1.2028
 5779SOL    HW128970   2.810   2.674   4.347  0.5249  0.4240 -1.7244
 5779SOL    HW228971   2.802   2.644   4.201 -2.3084 -1.6820  0.4744
 5780SOL     OW28972   1.281   4.637   8.572 -0.3944 -0.4703 -0.1088
 5780SOL    HW128973   1.251   4.716   8.527 -0.9096  0.9347  2.7121
 5780SOL    HW228974   1.326   4.598   8.497  2.5429  1.0754  0.8367
 5781SOL     OW28975   3.516   3.047   8.786 -0.0557 -0.5579  0.1549
 5781SOL    HW128976   3.593   3.090   8.749 -0.9450  2.8549  2.2485
 5781SOL    HW228977   3.449   3.099   8.742  1.1115  1.0237  0.2213
 5782SOL     OW28978   4.728   3.936  12.699 -0.2175 -0.4145 -0.1134
 5782SOL    HW128979   0.004   3.861  12.756 -0.5881 -0.7257 -0.4361
 5782SOL    HW228980   4.642   3.966  12.730 -0.0535 -1.5848  1.4925
 5783SOL     OW28981   3.251   3.902   5.726 -0.3437  0.1472 -0.7583
 5783SOL    HW128982   3.162   3.888   5.757 -0.1079 -0.9020 -0.5712
 5783SOL    HW228983   3.304   3.844   5.781 -1.6140 -0.7542 -0.5033
 5784SOL     OW28984   4.247   2.464   3.654 -0.3023 -0.3313 -0.0503
 5784SOL    HW128985   4.240   2.555   3.628  1.6589 -0.0851  0.2382
 5784SOL    HW228986   4.336   2.445   3.622 -0.1894 -1.6846  1.0412
 5785SOL     OW28987   4.245   0.076  17.416 -0.8602 -0.0181  0.1352
 5785SOL    HW128988   4.200   0.137  17.358  1.0127  1.0940 -0.1567
 5785SOL    HW228989   4.215   0.114  17.499 -0.5042 -1.8117  1.0931
 5786SOL     OW28990   0.656   3.157  17.101 -0.0318 -0.3004  0.0796
 5786SOL    HW128991   0.628   3.161  17.009 -2.3167  1.7439  0.8812
 5786SOL    HW228992   0.724   3.090  17.092 -2.5044 -2.5139 -2.0548
 5787SOL     OW28993   0.132   2.768   6.629 -0.1429 -0.2908 -0.4044
 5787SOL    HW128994   0.178   2.801   6.551  0.2450  0.8833  0.3331
 5787SOL    HW228995   0.162   2.841   6.683 -3.0396  1.0661 -0.6510
 5788SOL     OW28996   1.655   4.577  13.976 -0.0132 -0.2442  0.2247
 5788SOL    HW128997   1.629   4.669  13.978 -0.4114 -0.3624  0.3669
 5788SOL    HW228998   1.705   4.578  14.058 -1.8700  1.0775  1.3544
 5789SOL     OW28999   4.684   1.353   8.172  0.1643  0.3960  0.5620
 5789SOL    HW129000   4.605   1.302   8.154 -0.7867  2.3622 -0.8545
 5789SOL    HW229001   4.735   1.293   8.225 -0.6864 -3.5477 -3.0807
 5790SOL     OW29002   1.120   3.258  12.366  1.1121 -0.3062 -0.5049
 5790SOL    HW129003   1.199   3.285  12.319  0.9754  0.6130 -0.2033
 5790SOL    HW229004   1.143   3.170  12.395  0.7276 -0.5634 -0.9961
 5791SOL     OW29005   3.653   4.733   2.852  0.1372  0.0437  0.3180
 5791SOL    HW129006   3.599   0.073   2.845 -1.2432 -0.8827  0.6136
 5791SOL    HW229007   3.735   0.033   2.819 -0.3124 -0.9442 -1.9011
 5792SOL     OW29008   1.164   1.108  10.724  0.4855  0.4539  0.5797
 5792SOL    HW129009   1.136   1.142  10.809 -0.8599 -0.5357  0.5391
 5792SOL    HW229010   1.159   1.014  10.746 -2.2057  0.1433 -1.4090
 5793SOL     OW29011   1.798   2.790  14.290 -0.4608  0.2788 -0.1304
 5793SOL    HW129012   1.779   2.857  14.225 -1.4354  0.1189 -0.0094
 5793SOL    HW229013   1.711   2.788  14.330  0.4662  2.1299  2.0050
 5794SOL     OW29014   0.432   3.111   3.248 -0.0626  0.2347  0.2999
 5794SOL    HW129015   0.511   3.142   3.293  0.2042  0.3302 -0.2322
 5794SOL    HW229016   0.463   3.087   3.160  1.2600 -0.1627  0.8763
 5795SOL     OW29017   3.881   1.498   8.940 -0.1937 -1.0656 -0.6927
 5795SOL    HW129018   3.876   1.552   8.861 -2.4341 -0.3540 -0.0841
 5795SOL    HW229019   3.875   1.411   8.902  2.1870 -0.5864 -2.1773
 5796SOL     OW29020   3.796   1.744   6.480  0.3203 -0.7645 -0.3446
 5796SOL    HW129021   3.706   1.722   6.456  0.2372 -1.1603  0.3137
 5796SOL    HW229022   3.840   1.665   6.450  1.0517 -1.3001  2.0739
 5797SOL     OW29023   4.638   0.565   7.802  0.4343  0.5481 -0.2010
 5797SOL    HW129024   4.545   0.578   7.783  0.3633  0.7434  0.2857
 5797SOL    HW229025   4.655   0.642   7.857  0.2158  0.4718 -0.0292
 5798SOL     OW29026   0.433   2.923   1.695 -0.6761 -0.0146 -0.0259
 5798SOL    HW129027   0.360   2.924   1.758  0.5085 -1.6968  1.3621
 5798SOL    HW229028   0.439   2.833   1.666  1.9270  0.2724 -0.3761
 5799SOL     OW29029   3.195   2.096   8.793  0.4432  0.4777 -0.3492
 5799SOL    HW129030   3.137   2.152   8.742  0.8979 -0.0076 -1.3997
 5799SOL    HW229031   3.276   2.146   8.792 -0.2899  1.6791 -0.0849
 5800SOL     OW29032   0.922   3.434   9.514  0.5116 -0.4449  0.0180
 5800SOL    HW129033   0.833   3.458   9.539  0.6675  0.7070 -0.5211
 5800SOL    HW229034   0.967   3.519   9.512 -2.0771  0.9267  0.3911
 5801SOL     OW29035   2.569   1.007   5.234  0.5338  0.1108  0.4252
 5801SOL    HW129036   2.641   1.026   5.295  0.7845  2.6566 -0.6712
 5801SOL    HW229037   2.506   0.973   5.297 -0.8021 -0.5022 -1.2531
 5802SOL     OW29038   3.939   0.155   8.679 -0.2045 -0.0379  0.1900
 5802SOL    HW129039   3.952   0.249   8.694 -0.5407 -0.1086  0.9151
 5802SOL    HW229040   4.024   0.128   8.647 -0.2389  2.5328 -2.1111
 5803SOL     OW29041   2.867   3.509   5.032  0.1690  0.1946  0.1702
 5803SOL    HW129042   2.867   3.497   5.127 -1.7658  3.4901  0.5886
 5803SOL    HW229043   2.781   3.472   5.016  1.1160 -1.7626 -0.4068
 5804SOL     OW29044   0.734   4.305   8.536 -0.2641  0.9672  0.5227
 5804SOL    HW129045   0.723   4.220   8.579 -0.3387  0.8370  0.2415
 5804SOL    HW229046   0.826   4.325   8.555  0.2519  0.2160 -1.2183
 5805SOL     OW29047   3.329   0.963  12.339  0.4019 -0.2420 -0.4186
 5805SOL    HW129048   3.317   0.881  12.386 -1.7493 -0.8022 -1.9023
 5805SOL    HW229049   3.376   0.937  12.260  1.0744 -0.8625  0.1956
 5806SOL     OW29050   0.531   2.131  10.239 -0.0684 -0.4259  0.2216
 5806SOL    HW129051   0.553   2.092  10.324  0.4860 -1.6588 -0.4792
 5806SOL    HW229052   0.542   2.052  10.187  1.1270  2.3325 -3.6681
 5807SOL     OW29053   0.987   3.418  10.727  0.4613 -0.2065  0.1483
 5807SOL    HW129054   1.058   3.405  10.665  2.6035 -0.1577  2.5805
 5807SOL    HW229055   0.935   3.483  10.680  0.4239 -0.8919 -0.7397
 5808SOL     OW29056   1.076   1.637  12.072  0.7426  0.0189 -0.0217
 5808SOL    HW129057   1.133   1.570  12.109  1.5914  0.7846  0.0568
 5808SOL    HW229058   1.012   1.578  12.032  0.3452  1.8776 -2.1482
 5809SOL     OW29059   3.530   3.023   1.949  0.1734 -0.4309  0.0437
 5809SOL    HW129060   3.445   2.980   1.939 -0.6883  2.2778 -4.2629
 5809SOL    HW229061   3.588   2.949   1.932 -0.8130 -1.2545  0.2512
 5810SOL     OW29062   3.401   2.866  15.100  0.2624 -0.4818 -0.0894
 5810SOL    HW129063   3.482   2.831  15.138  0.7865  0.5441 -0.2758
 5810SOL    HW229064   3.344   2.792  15.120 -1.4968  1.4897  2.1677
 5811SOL     OW29065   4.250   2.217   8.407 -0.2363  0.4222 -0.0510
 5811SOL    HW129066   4.210   2.182   8.487 -1.2345 -0.2984 -0.8552
 5811SOL    HW229067   4.230   2.148   8.343  2.1081 -1.2456  0.9828
 5812SOL     OW29068   2.811   1.990  10.725  0.1778 -0.9233 -0.1690
 5812SOL    HW129069   2.790   1.985  10.818 -0.1864 -1.0600 -0.2578
 5812SOL    HW229070   2.904   1.969  10.724  0.7165  1.4956  0.9149
 5813SOL     OW29071   4.440   4.510  12.439 -0.3431 -0.0110  0.0809
 5813SOL    HW129072   4.453   4.468  12.524 -2.6645 -2.0368 -0.5784
 5813SOL    HW229073   4.356   4.557  12.442 -0.2738  0.0732  0.7661
 5814SOL     OW29074   0.297   3.669   5.560 -0.2595  0.6525  0.2958
 5814SOL    HW129075   0.312   3.679   5.466  0.2815 -0.2012  0.2914
 5814SOL    HW229076   0.247   3.588   5.564 -0.5825  0.7411 -1.9387
 5815SOL     OW29077   2.419   1.508  10.375 -0.1262  0.1482  0.5737
 5815SOL    HW129078   2.389   1.436  10.320  0.1803 -0.7940  1.6493
 5815SOL    HW229079   2.496   1.475  10.421 -0.1830  0.9736  1.2686
 5816SOL     OW29080   0.464   3.544   0.392  0.1345  0.5347  0.2703
 5816SOL    HW129081   0.403   3.513   0.460 -1.2636  0.5776 -0.9604
 5816SOL    HW229082   0.466   3.638   0.410  2.9340  0.2056  1.7030
 5817SOL     OW29083   2.259   3.801   6.103 -0.1502 -0.1916 -0.2903
 5817SOL    HW129084   2.303   3.719   6.126  2.3664  0.7466 -1.7075
 5817SOL    HW229085   2.197   3.815   6.173 -0.3553 -0.0496 -0.4997
 5818SOL     OW29086   1.633   2.494   3.645  0.0504 -0.2512 -0.5180
 5818SOL    HW129087   1.641   2.468   3.553 -0.1228 -0.8348 -0.3677
 5818SOL    HW229088   1.713   2.459   3.683 -1.7387 -2.5745  1.0986
 5819SOL     OW29089   2.926   2.079   5.030  0.3033 -0.4743  0.5120
 5819SOL    HW129090   2.923   2.158   5.085  0.6841 -0.8933  1.1446
 5819SOL    HW229091   2.861   2.017   5.062 -0.0632  0.3138  1.3044
 5820SOL     OW29092   4.341   3.674  16.162  0.0487  0.2937 -0.0227
 5820SOL    HW129093   4.322   3.605  16.099  0.5424 -0.0925  0.2504
 5820SOL    HW229094   4.322   3.755  16.116 -1.5351 -0.5785 -0.8951
 5821SOL     OW29095   1.510   1.586   3.062 -0.3391 -0.5307  0.1594
 5821SOL    HW129096   1.547   1.560   2.978 -1.5914  1.8003 -1.1114
 5821SOL    HW229097   1.485   1.678   3.055  0.6685 -0.3357 -1.0238
 5822SOL     OW29098   1.389   3.434   6.137  0.1783  0.1881 -0.5092
 5822SOL    HW129099   1.362   3.426   6.228 -1.1283 -1.9138 -1.0816
 5822SOL    HW229100   1.320   3.493   6.105 -0.8202 -1.3770 -1.2602
 5823SOL     OW29101   3.881   3.789   7.127  0.1263 -0.0585 -0.0738
 5823SOL    HW129102   3.863   3.713   7.181 -4.3307  1.5350  0.6493
 5823SOL    HW229103   3.850   3.763   7.041  0.3155 -1.2061  0.2134
 5824SOL     OW29104   4.139   4.730   7.093  0.4698  0.2794 -0.1024
 5824SOL    HW129105   4.076   4.737   7.021 -0.1942 -1.4052  0.3135
 5824SOL    HW229106   4.117   4.639   7.112  0.8137  0.0890 -0.6016
 5825SOL     OW29107   0.579   3.755   3.777  0.1240  0.1067 -0.7357
 5825SOL    HW129108   0.642   3.819   3.744 -1.1557  0.7923 -1.8619
 5825SOL    HW229109   0.535   3.740   3.694  1.6868  0.5208 -1.6358
 5826SOL     OW29110   2.352   2.149  11.778  0.1198 -0.0730  0.3176
 5826SOL    HW129111   2.366   2.057  11.800 -2.7003 -0.8023 -0.8800
 5826SOL    HW229112   2.258   2.158  11.792  0.1071  0.0696  0.1468
 5827SOL     OW29113   1.274   2.288  16.600  0.0530 -0.6371  0.3558
 5827SOL    HW129114   1.259   2.303  16.507 -0.9245 -0.9035  0.4615
 5827SOL    HW229115   1.312   2.201  16.607 -2.0006 -1.5773 -0.2619
 5828SOL     OW29116   4.080   1.242   4.136 -0.1681  0.2072 -0.4401
 5828SOL    HW129117   4.033   1.285   4.065 -1.9963 -1.9109 -0.4951
 5828SOL    HW229118   4.110   1.323   4.178 -0.1365 -0.6025  1.1184
 5829SOL     OW29119   0.412   4.206   2.533 -0.3463 -0.2526  0.0547
 5829SOL    HW129120   0.342   4.222   2.470 -0.4703  0.0017  0.2557
 5829SOL    HW229121   0.458   4.289   2.518  0.4413 -1.1136 -2.3842
 5830SOL     OW29122   1.421   3.701  15.207 -0.5274 -0.0571 -0.3699
 5830SOL    HW129123   1.502   3.676  15.161 -1.0267 -1.5243 -0.4462
 5830SOL    HW229124   1.454   3.718  15.295  0.5169  1.6669 -1.0833
 5831SOL     OW29125   2.596   3.002   5.430  0.1389 -0.1584 -0.1468
 5831SOL    HW129126   2.613   2.994   5.524  0.2192 -0.1890 -0.1638
 5831SOL    HW229127   2.688   2.983   5.412  0.5011  1.0574  0.4139
 5832SOL     OW29128   1.480   2.740   4.082  0.1536 -0.0756 -0.3312
 5832SOL    HW129129   1.420   2.665   4.079  1.4363 -1.0645 -1.1576
 5832SOL    HW229130   1.504   2.745   4.175 -0.8619  1.0077 -0.1250
 5833SOL     OW29131   4.263   1.932   5.619 -0.5749  0.7247 -0.3441
 5833SOL    HW129132   4.337   1.992   5.612 -1.3998  1.7327 -0.4719
 5833SOL    HW229133   4.264   1.912   5.712  2.4371  1.2358 -0.2565
 5834SOL     OW29134   0.602   2.571   7.272 -0.1224  0.1969  0.2281
 5834SOL    HW129135   0.605   2.496   7.331 -0.9478  1.6346  2.1185
 5834SOL    HW229136   0.695   2.580   7.251 -0.6829  2.8472 -1.1517
 5835SOL     OW29137   1.423   2.296   6.565 -0.4295  0.3466  0.0704
 5835SOL    HW129138   1.426   2.390   6.584 -2.4999  0.3354  0.3878
 5835SOL    HW229139   1.485   2.261   6.629 -0.0447  1.1032  0.1196
 5836SOL     OW29140   2.270   3.267   7.239 -0.0065  0.0670  0.2011
 5836SOL    HW129141   2.196   3.323   7.214  0.2298  0.4335  0.3239
 5836SOL    HW229142   2.239   3.177   7.226  0.6894  0.0213 -1.0877
 5837SOL     OW29143   1.942   0.097   6.527 -0.0158 -0.4392 -0.2444
 5837SOL    HW129144   1.893   0.128   6.451 -1.7114  0.1284  1.0889
 5837SOL    HW229145   1.953   0.182   6.570 -0.4241 -0.7053  0.3909
 5838SOL     OW29146   2.171   1.379   8.689  0.1832  0.5806  0.5414
 5838SOL    HW129147   2.229   1.439   8.642  0.9724 -1.2315 -0.8035
 5838SOL    HW229148   2.211   1.296   8.664  0.7999  0.5833  1.5007
 5839SOL     OW29149   3.794   1.137   5.119  0.3496  0.5844 -0.4115
 5839SOL    HW129150   3.710   1.113   5.082 -1.6808  1.0195  3.8736
 5839SOL    HW229151   3.774   1.230   5.133 -1.3224  0.0158  0.9803
 5840SOL     OW29152   3.411   3.827  12.016  0.0476  0.2059 -0.0345
 5840SOL    HW129153   3.401   3.748  11.962 -1.0565  0.8252 -0.7156
 5840SOL    HW229154   3.404   3.896  11.950 -1.3129  0.9455  0.8944
 5841SOL     OW29155   3.721   0.189   9.088 -0.4878 -0.2751  0.0161
 5841SOL    HW129156   3.637   0.230   9.106 -0.2670  1.5768 -3.0364
 5841SOL    HW229157   3.763   0.257   9.036 -0.3537 -0.9242 -0.7369
 5842SOL     OW29158   2.639   0.170   8.789 -0.3319  0.5967  0.1174
 5842SOL    HW129159   2.623   0.253   8.744  1.9455  1.3300  0.6419
 5842SOL    HW229160   2.722   0.186   8.834 -1.2348  2.0028  1.2419
 5843SOL     OW29161   4.000   0.015   7.827 -0.2269 -0.0458 -0.0658
 5843SOL    HW129162   3.914   4.712   7.825 -0.6095  0.8306 -1.4748
 5843SOL    HW229163   3.999   0.053   7.739 -1.3616 -1.9007 -0.8381
 5844SOL     OW29164   1.189   3.944  12.152  0.0894 -0.3202 -0.4996
 5844SOL    HW129165   1.096   3.929  12.171  0.3571 -2.8184 -1.1279
 5844SOL    HW229166   1.238   3.880  12.204  1.6687 -0.1983 -1.8548
 5845SOL     OW29167   0.011   4.663   8.238 -0.2013  0.1076  0.0947
 5845SOL    HW129168   4.735   0.012   8.202  1.7729 -0.1966 -1.4510
 5845SOL    HW229169   0.075   4.683   8.307  0.7601 -1.0613 -0.4479
 5846SOL     OW29170   3.162   1.786   8.737 -0.7244 -0.0024  0.2682
 5846SOL    HW129171   3.252   1.765   8.713 -0.8157  0.8582 -0.7963
 5846SOL    HW229172   3.173   1.881   8.733  1.6417 -0.3187 -1.1472
 5847SOL     OW29173   2.311   0.671  16.887  0.0249  0.3104 -0.4353
 5847SOL    HW129174   2.245   0.622  16.838 -0.0124 -0.8180  0.7243
 5847SOL    HW229175   2.385   0.643  16.834  0.8176  2.3251 -0.4115
 5848SOL     OW29176   0.685   2.606   1.711 -0.5718  0.3493  0.3331
 5848SOL    HW129177   0.738   2.571   1.640  0.1150 -0.5204  1.2666
 5848SOL    HW229178   0.604   2.639   1.672  0.2755 -0.5538 -2.1622
 5849SOL     OW29179   3.621   2.188  17.246  0.0300  0.3912 -0.6009
 5849SOL    HW129180   3.602   2.217  17.157 -3.3613 -0.0318 -0.0467
 5849SOL    HW229181   3.657   2.101  17.230  0.4335 -0.0098  2.5216
 5850SOL     OW29182   4.184   2.529   4.107 -0.4469 -0.0246 -0.2605
 5850SOL    HW129183   4.160   2.437   4.104  0.0864 -0.1460 -1.0214
 5850SOL    HW229184   4.193   2.543   4.201  2.1886 -0.4484 -0.4382
 5851SOL     OW29185   2.089   1.413   3.378 -0.3790  0.1528  0.2856
 5851SOL    HW129186   2.040   1.459   3.446 -1.6174 -3.3797  1.7961
 5851SOL    HW229187   2.175   1.456   3.381  0.4689 -1.6156  1.0180
 5852SOL     OW29188   3.181   3.485   9.492 -0.3865  0.2185 -0.0006
 5852SOL    HW129189   3.230   3.487   9.410  0.2240 -0.4979  0.3552
 5852SOL    HW229190   3.254   3.475   9.553 -0.5799  0.4518  0.2693
 5853SOL     OW29191   3.745   1.956  12.973  0.1613  0.2130  0.9274
 5853SOL    HW129192   3.832   1.987  12.999  0.1058  0.5594  0.6996
 5853SOL    HW229193   3.701   1.954  13.058  1.6638 -1.2749  1.6628
 5854SOL     OW29194   3.664   4.284   9.271 -0.3712 -0.0221  0.5335
 5854SOL    HW129195   3.644   4.268   9.363 -0.9016  0.2118  0.4546
 5854SOL    HW229196   3.745   4.232   9.267 -0.0339  0.5133  0.3293
 5855SOL     OW29197   1.153   3.449   8.772 -0.3734 -0.0008 -0.7059
 5855SOL    HW129198   1.097   3.503   8.827  0.8477  1.3749 -0.8255
 5855SOL    HW229199   1.235   3.495   8.753 -0.9135  0.0027 -2.9843
 5856SOL     OW29200   0.723   1.333   3.725  0.0441 -0.3860 -0.3524
 5856SOL    HW129201   0.800   1.278   3.712  1.2686  1.6685 -1.9199
 5856SOL    HW229202   0.668   1.276   3.671 -1.9453  0.9796  0.2441
 5857SOL     OW29203   0.317   4.273   8.742  0.0215  0.3753  0.1045
 5857SOL    HW129204   0.365   4.219   8.805  0.7993 -0.0223 -0.8321
 5857SOL    HW229205   0.331   4.225   8.661  1.3929 -0.4454  0.8236
 5858SOL     OW29206   0.521   3.804   0.403 -0.3666  0.6658 -0.1933
 5858SOL    HW129207   0.571   3.803   0.321 -0.0087  0.5814  0.0291
 5858SOL    HW229208   0.585   3.831   0.468  0.7625  0.6880 -1.3104
 5859SOL     OW29209   3.592   0.809  11.138 -0.4057 -0.1799 -0.0695
 5859SOL    HW129210   3.667   0.750  11.129 -1.2068 -1.2684  0.4193
 5859SOL    HW229211   3.572   0.782  11.227 -1.0925  1.9122  0.4149
 5860SOL     OW29212   1.961   4.075   2.857  0.4804 -0.1575 -0.3419
 5860SOL    HW129213   1.910   4.156   2.864 -1.1428 -1.1296 -0.9500
 5860SOL    HW229214   1.928   4.025   2.932 -0.8463  1.5514  0.2296
 5861SOL     OW29215   3.192   4.389   4.729 -0.0294  0.5353 -0.2427
 5861SOL    HW129216   3.163   4.437   4.807 -1.3946 -1.2294  0.3348
 5861SOL    HW229217   3.261   4.345   4.779  0.7568 -0.3930 -2.1297
 5862SOL     OW29218   2.137   4.526   7.307 -0.4208  0.0630  0.2086
 5862SOL    HW129219   2.132   4.434   7.331 -0.6886  0.5665  2.0693
 5862SOL    HW229220   2.205   4.515   7.241 -0.4757 -1.7198  0.4640
 5863SOL     OW29221   1.829   2.684   7.699  0.4327  0.0396  0.2539
 5863SOL    HW129222   1.795   2.773   7.685 -0.1764 -0.2137  0.1629
 5863SOL    HW229223   1.798   2.643   7.619  0.6371 -2.1141  1.2993
 5864SOL     OW29224   1.292   0.341   3.252 -0.1238  0.6826 -0.2403
 5864SOL    HW129225   1.347   0.265   3.234  0.0218  0.8009 -0.2955
 5864SOL    HW229226   1.362   0.402   3.229 -0.8429  2.2139  1.6922
 5865SOL     OW29227   4.094   2.738   7.027 -0.3868 -0.3171 -0.0592
 5865SOL    HW129228   4.022   2.793   7.058 -1.3404 -0.4565 -2.0391
 5865SOL    HW229229   4.047   2.659   7.054  0.3052 -0.8794 -0.5168
 5866SOL     OW29230   4.368   0.321   6.695 -0.3270  0.4818 -0.0677
 5866SOL    HW129231   4.283   0.360   6.671 -0.2554  1.1733  0.8126
 5866SOL    HW229232   4.334   0.268   6.767 -0.7045  1.2011  0.2889
 5867SOL     OW29233   3.024   1.169   6.924 -0.4987  0.2156 -0.3222
 5867SOL    HW129234   3.093   1.131   6.870  0.4173  1.5557 -0.1062
 5867SOL    HW229235   3.072   1.168   7.007  0.3453 -3.1843 -0.8511
 5868SOL     OW29236   4.174   4.298   0.194 -0.0817  0.7224  0.1245
 5868SOL    HW129237   4.092   4.248   0.184  1.3797 -1.4131 -1.1675
 5868SOL    HW229238   4.167   4.354   0.116 -0.3463  1.1794  0.4755
 5869SOL     OW29239   0.686   3.327   3.091 -0.0240  0.5635 -0.2203
 5869SOL    HW129240   0.705   3.333   2.998  1.6382  1.8878  0.2009
 5869SOL    HW229241   0.673   3.232   3.093  0.1933  0.5300 -0.3506
 5870SOL     OW29242   0.548   2.217   6.327  0.0041 -0.4377 -0.0914
 5870SOL    HW129243   0.454   2.232   6.335  0.4413  2.8101 -1.3490
 5870SOL    HW229244   0.586   2.287   6.275  0.6595 -0.1787  0.7193
 5871SOL     OW29245   2.014   2.196  12.410 -0.1913 -0.1701 -0.7291
 5871SOL    HW129246   1.982   2.264  12.469 -0.8775 -1.5292  0.4740
 5871SOL    HW229247   2.093   2.179  12.461 -1.6125 -2.1809  0.7971
 5872SOL     OW29248   0.013   0.300   5.961  0.0127  0.3144  0.1166
 5872SOL    HW129249   4.732   0.214   5.998  1.2918  0.4494  1.1089
 5872SOL    HW229250   4.726   0.352   6.037 -0.7683 -0.1479  0.1748
 5873SOL     OW29251   2.669   0.316   2.660  0.3904  0.6943  0.1274
 5873SOL    HW129252   2.698   0.315   2.569  2.6198 -0.6566  0.8553
 5873SOL    HW229253   2.611   0.241   2.672  1.4318  0.1143  1.5270
 5874SOL     OW29254   1.486   2.591   4.868 -0.1609  0.1427 -0.2443
 5874SOL    HW129255   1.474   2.619   4.777 -0.1958 -3.1694 -1.2465
 5874SOL    HW229256   1.491   2.674   4.915  1.4424 -0.6309  0.9537
 5875SOL     OW29257   4.227   0.312   8.246 -0.7273  0.1492 -0.1992
 5875SOL    HW129258   4.181   0.305   8.329  0.5562 -0.7917  0.4315
 5875SOL    HW229259   4.146   0.336   8.200 -1.2537  1.1813  1.2536
 5876SOL     OW29260   0.541   3.222   1.229 -0.5491 -0.2604 -0.0886
 5876SOL    HW129261   0.622   3.217   1.281  0.1296  2.3562 -0.8877
 5876SOL    HW229262   0.470   3.211   1.292 -1.5660 -4.7448 -2.0326
 5877SOL     OW29263   0.082   2.543  12.797 -0.1093 -0.2242  0.6115
 5877SOL    HW129264   0.106   2.531  12.705 -1.4090  1.7122  0.0161
 5877SOL    HW229265   0.168   2.528  12.837 -0.1084  0.7736  0.9765
 5878SOL     OW29266   4.569   4.238   6.963 -0.2651  0.5421 -0.4836
 5878SOL    HW129267   4.500   4.284   6.916 -2.2234 -3.2221 -1.2885
 5878SOL    HW229268   4.571   4.294   7.040  2.5583  1.7512 -1.4301
 5879SOL     OW29269   3.257   3.924   8.254 -0.0757 -0.5007  0.1235
 5879SOL    HW129270   3.277   3.846   8.201 -2.1061 -2.5004  2.2973
 5879SOL    HW229271   3.164   3.903   8.260 -0.2508  0.1958 -0.1688
 5880SOL     OW29272   4.427   0.033   2.569  0.3919  0.6044 -0.0020
 5880SOL    HW129273   4.426   4.677   2.551  4.6116  1.0356 -2.3184
 5880SOL    HW229274   4.339   0.055   2.539  0.6737  0.0040 -1.2801
 5881SOL     OW29275   0.699   2.846   6.296 -0.1455 -0.4028 -0.6592
 5881SOL    HW129276   0.691   2.759   6.335  2.3958  0.2285  1.2493
 5881SOL    HW229277   0.786   2.839   6.258 -0.9522 -0.1713 -2.5636
 5882SOL     OW29278   3.810   0.915   4.009 -0.6959 -0.1739 -0.0979
 5882SOL    HW129279   3.817   1.010   4.000  0.8298 -0.3012 -0.2318
 5882SOL    HW229280   3.716   0.899   4.003 -0.6410 -1.0383  1.3901
 5883SOL     OW29281   4.633   2.762  17.021  0.0274 -0.0465  0.4377
 5883SOL    HW129282   4.544   2.796  17.033 -0.6047 -0.7893 -2.1026
 5883SOL    HW229283   4.675   2.795  17.100 -0.6949 -0.2609  0.9158
 5884SOL     OW29284   1.665   3.477   6.097 -0.0608  0.0278  0.1572
 5884SOL    HW129285   1.709   3.553   6.134 -0.6841  1.7748 -2.6757
 5884SOL    HW229286   1.576   3.460   6.131 -0.2203 -0.1308 -0.3411
 5885SOL     OW29287   2.232   0.661   8.245  0.0192 -0.0668  0.5569
 5885SOL    HW129288   2.293   0.589   8.261  1.6835  1.0597 -0.7238
 5885SOL    HW229289   2.287   0.725   8.200 -1.3750 -0.3749 -1.5789
 5886SOL     OW29290   1.731   1.513   3.224 -0.0851 -0.0875 -0.2258
 5886SOL    HW129291   1.734   1.588   3.283  0.4160  0.5377 -1.0583
 5886SOL    HW229292   1.666   1.539   3.159  0.7017  1.2459 -0.4669
 5887SOL     OW29293   0.121   2.232   1.765 -0.5535 -0.1189  0.1898
 5887SOL    HW129294   0.160   2.167   1.824  0.2406  1.1165  1.0248
 5887SOL    HW229295   0.034   2.239   1.806 -1.0951 -1.4906 -0.7556
 5888SOL     OW29296   3.874   3.942   2.244  0.9017 -0.2284  0.2449
 5888SOL    HW129297   3.911   3.913   2.160  0.0992  0.8788 -0.4994
 5888SOL    HW229298   3.861   3.856   2.285 -0.4804  1.0772  2.5255
 5889SOL     OW29299   1.792   2.929  14.770  0.6747  0.3967 -0.1478
 5889SOL    HW129300   1.749   3.012  14.792 -1.2718  0.1124 -2.8761
 5889SOL    HW229301   1.786   2.894  14.859  1.6964  1.0252  0.1618
 5890SOL     OW29302   0.683   0.083   9.748  0.0866 -0.4639  0.4549
 5890SOL    HW129303   0.761   0.138   9.757 -2.4937  3.1490  0.6371
 5890SOL    HW229304   0.623   0.151   9.720  0.8359 -0.8774 -2.1078
 5891SOL     OW29305   4.643   1.082  14.315 -0.7240 -0.8803  0.7081
 5891SOL    HW129306   4.610   1.109  14.400  0.7149 -1.4158  1.4272
 5891SOL    HW229307   4.728   1.125  14.317 -0.6745 -0.8319 -1.7083
 5892SOL     OW29308   4.375   3.199  17.468  0.0172  0.1725  0.5678
 5892SOL    HW129309   4.345   3.110  17.485  0.5003  0.1974  1.5428
 5892SOL    HW229310   4.375   3.234  17.557 -2.2901  1.2059  0.1732
 5893SOL     OW29311   2.650   2.881   2.740  0.2250 -0.0529  0.6998
 5893SOL    HW129312   2.640   2.828   2.819 -3.7220 -0.5114 -0.1266
 5893SOL    HW229313   2.624   2.820   2.671 -0.7263  2.9699 -1.6370
 5894SOL     OW29314   3.496   2.766   8.790  0.4303  0.6532  0.3423
 5894SOL    HW129315   3.521   2.856   8.771 -0.4515  0.7448 -0.3866
 5894SOL    HW229316   3.466   2.776   8.881 -1.0493  0.7522 -0.1516
 5895SOL     OW29317   3.404   0.528   3.056 -0.1308  0.2247 -0.0922
 5895SOL    HW129318   3.367   0.510   2.970 -2.5142  0.6059  0.8306
 5895SOL    HW229319   3.489   0.557   3.024 -0.3255  1.0411  0.1255
 5896SOL     OW29320   1.770   3.031  14.135  0.1915  0.2133 -0.4514
 5896SOL    HW129321   1.733   3.110  14.174  0.6144 -0.3161  1.0418
 5896SOL    HW229322   1.788   3.056  14.044 -2.8944 -3.1187 -1.9362
 5897SOL     OW29323   1.133   2.792   8.261  0.3175 -0.5680 -0.5676
 5897SOL    HW129324   1.227   2.798   8.277 -0.0383  1.6326  0.7361
 5897SOL    HW229325   1.122   2.886   8.276  0.9227 -0.3787 -1.3277
 5898SOL     OW29326   4.621   1.353   0.205 -0.5709 -0.1547  0.1896
 5898SOL    HW129327   4.608   1.394   0.291  0.1685  0.3413  0.0680
 5898SOL    HW229328   4.531   1.327   0.185 -0.4547 -1.4544  1.3575
 5899SOL     OW29329   3.645   3.665   6.411 -0.2059 -0.4200  0.2264
 5899SOL    HW129330   3.555   3.681   6.384 -0.2544  1.9616  1.8569
 5899SOL    HW229331   3.682   3.631   6.330 -1.2709  0.1783 -0.5000
 5900SOL     OW29332   1.584   3.961  11.485 -0.6400  0.4096  0.0723
 5900SOL    HW129333   1.554   3.968  11.575  0.7471  0.3854  0.5444
 5900SOL    HW229334   1.511   3.913  11.447  0.5637 -1.2572 -0.1771
 5901SOL     OW29335   0.938   2.902   4.610  0.1086 -0.0071  0.0113
 5901SOL    HW129336   0.894   2.817   4.605 -0.9441  0.6181 -1.6076
 5901SOL    HW229337   0.993   2.891   4.688 -1.0020 -0.7555  0.6987
 5902SOL     OW29338   2.930   0.814   6.975 -0.3373 -0.0465 -0.1491
 5902SOL    HW129339   2.906   0.832   7.066  0.3425  0.9729 -0.1686
 5902SOL    HW229340   3.026   0.815   6.973 -0.3208 -0.8150  0.2093
 5903SOL     OW29341   0.906   0.284   0.363 -0.3761 -0.4136 -0.2537
 5903SOL    HW129342   0.969   0.212   0.354 -1.3308 -1.3937  0.9980
 5903SOL    HW229343   0.905   0.294   0.458  0.4289  0.2471 -0.3083
 5904SOL     OW29344   2.189   0.383   3.509  0.8468 -0.1944 -0.2669
 5904SOL    HW129345   2.250   0.316   3.479 -1.1265 -2.0698 -0.0616
 5904SOL    HW229346   2.245   0.460   3.523 -1.5831  1.4696  0.2197
 5905SOL     OW29347   4.361   1.802   6.762  0.3418  0.6131 -0.6122
 5905SOL    HW129348   4.425   1.812   6.832  0.7773 -2.7947 -0.5001
 5905SOL    HW229349   4.311   1.883   6.772 -1.0267  0.0376 -2.7109
 5906SOL     OW29350   1.559   1.690   2.118  0.0828 -0.1854  0.3524
 5906SOL    HW129351   1.468   1.690   2.088  0.3908  2.1660 -0.5871
 5906SOL    HW229352   1.546   1.678   2.212  0.2309  0.2655  0.4308
 5907SOL     OW29353   4.133   0.972   4.956 -0.4792 -0.0724  0.1086
 5907SOL    HW129354   4.157   0.977   4.863  0.3470  0.3326  0.3411
 5907SOL    HW229355   4.220   0.977   4.996  0.2071 -1.7454 -1.1609
 5908SOL     OW29356   4.449   0.888   3.874 -0.2160 -0.1470 -0.2308
 5908SOL    HW129357   4.541   0.873   3.857 -0.5324 -0.9507 -1.2351
 5908SOL    HW229358   4.403   0.809   3.844  0.5814 -0.9370  0.6613
 5909SOL     OW29359   0.020   2.105   9.450 -0.4501 -0.4961 -0.0472
 5909SOL    HW129360   0.095   2.157   9.480 -0.0895 -0.5061 -0.9160
 5909SOL    HW229361   4.681   2.146   9.489  0.9502  0.2734  1.9350
 5910SOL     OW29362   1.278   2.048   5.459  0.1292 -0.4834 -0.2772
 5910SOL    HW129363   1.262   1.979   5.523 -0.7893 -1.8281 -1.9595
 5910SOL    HW229364   1.292   2.004   5.376  0.3486 -0.2288 -0.3750
 5911SOL     OW29365   1.737   0.217   4.193  0.2268 -0.2407 -0.1848
 5911SOL    HW129366   1.789   0.244   4.117  0.3091  1.5623  0.5126
 5911SOL    HW229367   1.806   0.177   4.247  0.5153  1.8874  1.0123
 5912SOL     OW29368   0.909   2.237   3.515 -0.4363 -0.4007  0.4574
 5912SOL    HW129369   0.833   2.180   3.527 -0.6681 -0.1812  0.0254
 5912SOL    HW229370   0.872   2.322   3.538 -3.4408 -2.3679  2.8578
 5913SOL     OW29371   4.113   1.972  15.012 -0.5286 -0.2886 -0.1222
 5913SOL    HW129372   4.185   1.911  15.027  1.7178  2.4421  0.1221
 5913SOL    HW229373   4.065   1.929  14.941 -2.9514 -0.1810  1.4355
 5914SOL     OW29374   3.843   1.852   5.210  0.1986 -0.1546 -0.1888
 5914SOL    HW129375   3.790   1.921   5.249 -0.7018 -0.6565 -0.5177
 5914SOL    HW229376   3.779   1.782   5.215 -1.2364  1.1247 -0.8405
 5915SOL     OW29377   0.535   0.058   1.992  0.0824 -0.1678  0.0893
 5915SOL    HW129378   0.576   0.031   1.910 -1.9185 -1.8478 -0.3350
 5915SOL    HW229379   0.599   0.122   2.025 -0.7676  0.8811 -0.2970
 5916SOL     OW29380   0.178   1.403   4.497 -0.5669  0.0554 -0.4123
 5916SOL    HW129381   0.110   1.464   4.527 -0.5907  0.0185 -0.3914
 5916SOL    HW229382   0.249   1.426   4.557 -1.1691  0.9887 -0.0603
 5917SOL     OW29383   2.455   2.954   6.644  0.6627  0.0355  0.1574
 5917SOL    HW129384   2.498   2.973   6.728 -2.0574  0.6533  1.3913
 5917SOL    HW229385   2.364   2.963   6.671  0.6691 -0.1944  0.2575
 5918SOL     OW29386   2.247   2.500  16.623 -0.1756 -0.0005  0.2145
 5918SOL    HW129387   2.164   2.451  16.619  0.3577 -1.0157  1.8354
 5918SOL    HW229388   2.219   2.585  16.589  1.3251  0.5420  0.3339
 5919SOL     OW29389   4.367   0.843  16.396  0.2533 -0.2852 -0.3079
 5919SOL    HW129390   4.453   0.884  16.395 -0.0358  0.3522  0.4552
 5919SOL    HW229391   4.319   0.901  16.337 -0.5266  0.0909  0.6874
 5920SOL     OW29392   1.965   0.350   6.034  0.7135  0.0386 -0.2480
 5920SOL    HW129393   2.049   0.365   6.077 -0.5258  0.5874  1.9919
 5920SOL    HW229394   1.920   0.434   6.025 -0.8286 -0.9562 -1.7412
 5921SOL     OW29395   0.889   3.515   2.833 -0.1318 -0.4238  0.7606
 5921SOL    HW129396   0.819   3.568   2.871 -1.2221 -0.3922 -1.2896
 5921SOL    HW229397   0.939   3.586   2.794 -1.1284 -0.4225 -0.5001
 5922SOL     OW29398   1.786   2.205   9.795  0.1613  0.2185 -0.1565
 5922SOL    HW129399   1.693   2.224   9.811 -0.5294 -2.8607 -0.6441
 5922SOL    HW229400   1.823   2.215   9.883 -3.0242  1.3948  1.0564
 5923SOL     OW29401   2.953   2.683   6.557 -0.0682  0.1571  0.4787
 5923SOL    HW129402   2.987   2.664   6.470 -0.0294 -0.1231  0.5561
 5923SOL    HW229403   2.881   2.746   6.551  0.3580  0.7347  1.2995
 5924SOL     OW29404   0.239   0.016   2.234 -0.0005  0.0018  0.2895
 5924SOL    HW129405   0.287   0.097   2.251  1.0391 -0.8045  1.1991
 5924SOL    HW229406   0.231   0.017   2.139 -0.6738  0.3245  0.3492
 5925SOL     OW29407   2.647   3.131  17.239 -0.0312 -0.3342  0.0673
 5925SOL    HW129408   2.629   3.100  17.150 -0.0909 -0.8664  0.2615
 5925SOL    HW229409   2.574   3.191  17.249  1.3382  1.1984  0.7896
 5926SOL     OW29410   3.501   2.962   7.458 -0.2129  0.5904  0.3137
 5926SOL    HW129411   3.528   2.881   7.415 -0.7685  0.6759 -0.1858
 5926SOL    HW229412   3.561   3.024   7.415  1.0510  0.8561  2.4550
 5927SOL     OW29413   4.356   2.658   7.101 -0.1404 -0.2619  0.3832
 5927SOL    HW129414   4.262   2.670   7.091 -0.1356 -0.8940 -0.3787
 5927SOL    HW229415   4.367   2.566   7.079 -2.1587 -0.6057  0.8801
 5928SOL     OW29416   0.316   2.980   1.152 -0.0773 -0.3974 -0.1445
 5928SOL    HW129417   0.407   3.004   1.136 -0.3113  3.8165  5.2011
 5928SOL    HW229418   0.280   3.066   1.172 -0.4616 -0.0812 -2.1649
 5929SOL     OW29419   3.670   2.811   4.582  0.2209  0.4046 -0.3832
 5929SOL    HW129420   3.669   2.825   4.488  1.0019 -1.2612 -0.6446
 5929SOL    HW229421   3.761   2.779   4.588  0.3421  1.0504  1.4192
 5930SOL     OW29422   0.650   0.209   3.351 -0.1493  0.2581  0.1943
 5930SOL    HW129423   0.734   0.178   3.317  0.8474 -0.2908  3.1307
 5930SOL    HW229424   0.633   0.131   3.404 -2.1836  0.2104 -0.5288
 5931SOL     OW29425   4.368   2.948   7.979  0.5073 -0.1534 -0.3124
 5931SOL    HW129426   4.439   2.987   8.029  0.1227  0.7270 -0.4518
 5931SOL    HW229427   4.416   2.902   7.911 -0.6071  1.8172 -2.4353
 5932SOL     OW29428   2.669   1.291  12.158  0.3834  0.5875 -0.1087
 5932SOL    HW129429   2.684   1.383  12.136 -0.7602  1.0508  1.0875
 5932SOL    HW229430   2.742   1.278  12.219 -1.0856  1.5844  1.8540
 5933SOL     OW29431   2.099   1.260   7.961 -0.1788  0.3159 -0.0883
 5933SOL    HW129432   2.075   1.339   7.913 -2.0468 -0.5872 -0.6585
 5933SOL    HW229433   2.076   1.293   8.048 -0.0257  1.3174 -0.4267
 5934SOL     OW29434   2.300   2.688   6.749  0.3415 -0.0860  0.3117
 5934SOL    HW129435   2.329   2.625   6.815 -2.0574  1.1031  2.4694
 5934SOL    HW229436   2.382   2.691   6.699 -0.0709 -1.5541 -0.4597
 5935SOL     OW29437   0.773   2.408  17.009  0.4038 -0.0626 -0.8385
 5935SOL    HW129438   0.775   2.313  16.999  0.8666 -0.0694 -0.6664
 5935SOL    HW229439   0.700   2.427  16.950 -1.5914 -1.2529  1.2603
 5936SOL     OW29440   2.836   2.764   4.552  0.3206 -0.4732  0.4794
 5936SOL    HW129441   2.877   2.680   4.570  1.4826 -0.0954 -0.4633
 5936SOL    HW229442   2.891   2.833   4.591  0.1240 -0.3085  0.4670
 5937SOL     OW29443   3.428   2.952   9.795  0.2265 -0.0377  0.3109
 5937SOL    HW129444   3.344   2.974   9.755 -0.4585 -4.9321 -0.9615
 5937SOL    HW229445   3.395   2.930   9.882 -1.2958 -0.9654 -0.4970
 5938SOL     OW29446   0.147   4.706   7.665  0.6649  0.2673  0.1798
 5938SOL    HW129447   0.113   4.654   7.738 -1.0506 -1.2253 -1.6862
 5938SOL    HW229448   0.201   4.637   7.627  1.1770  0.0646  1.2567
 5939SOL     OW29449   1.013   0.373  16.092 -0.1036 -0.0168 -0.5894
 5939SOL    HW129450   1.035   0.360  16.184  1.3514 -0.5529 -1.0148
 5939SOL    HW229451   0.918   0.378  16.100  0.1176  0.9430  1.4164
 5940SOL     OW29452   4.438   1.763   8.525 -0.4163  0.1568 -0.8462
 5940SOL    HW129453   4.474   1.679   8.499 -1.0645 -1.3248  3.0022
 5940SOL    HW229454   4.349   1.749   8.491 -1.1465 -1.6776  1.8089
 5941SOL     OW29455   3.001   4.026   6.462 -0.1338  0.1440  0.2549
 5941SOL    HW129456   3.079   4.054   6.511  0.0010 -0.0916  0.1707
 5941SOL    HW229457   3.043   3.976   6.393 -0.8352  2.2571 -1.6909
 5942SOL     OW29458   0.616   3.892   1.259 -0.3038 -0.4641 -0.5254
 5942SOL    HW129459   0.660   3.848   1.186 -1.1544 -0.2693 -1.1617
 5942SOL    HW229460   0.526   3.907   1.227 -0.2611 -1.5973 -1.1793
 5943SOL     OW29461   2.612   0.592  10.261  0.3687 -0.6966  0.2249
 5943SOL    HW129462   2.620   0.626  10.350  0.8220 -0.7046  0.1857
 5943SOL    HW229463   2.621   0.502  10.292  1.9903 -0.4822  0.3981
 5944SOL     OW29464   3.344   0.298   1.853 -0.4700 -0.1323 -0.2713
 5944SOL    HW129465   3.251   0.319   1.862 -0.4019 -0.7779  2.0836
 5944SOL    HW229466   3.336   0.204   1.873 -1.0529 -0.2054 -0.8583
 5945SOL     OW29467   1.773   4.715   8.683  0.2288  0.3599  0.0354
 5945SOL    HW129468   1.706   4.650   8.663 -1.3482  1.8770  0.4650
 5945SOL    HW229469   1.834   4.713   8.609 -0.9003  0.5766 -0.8996
 5946SOL     OW29470   0.638   4.603   4.254 -0.3953  0.3006  0.3284
 5946SOL    HW129471   0.613   4.592   4.346  1.3643 -0.4448  0.7139
 5946SOL    HW229472   0.726   4.568   4.254 -0.5253 -0.0231  0.5023
 5947SOL     OW29473   3.463   3.566   2.316  0.4715 -0.0312 -0.6062
 5947SOL    HW129474   3.421   3.553   2.231  0.2663 -0.9566 -0.3592
 5947SOL    HW229475   3.432   3.654   2.337  4.2527  0.6813  1.9347
 5948SOL     OW29476   4.633   0.304   9.398  0.2152 -0.2600 -0.0578
 5948SOL    HW129477   4.727   0.306   9.417  0.0082 -0.6859  1.0171
 5948SOL    HW229478   4.640   0.256   9.316 -0.8814 -1.3407  0.4868
 5949SOL     OW29479   1.594   3.245   2.195 -0.2310  0.3949 -0.0023
 5949SOL    HW129480   1.534   3.319   2.183  0.4301  0.6388 -1.8785
 5949SOL    HW229481   1.674   3.284   2.229 -0.4268  0.3863  0.4637
 5950SOL     OW29482   2.421   4.685  17.443 -0.2413 -0.0388 -0.4760
 5950SOL    HW129483   2.413   4.611  17.504  1.1455  0.9539  0.9051
 5950SOL    HW229484   2.449   0.021  17.497 -2.0523  0.7311 -0.5845
 5951SOL     OW29485   3.728   2.953  17.418  0.1717  0.5230 -0.2001
 5951SOL    HW129486   3.694   2.922  17.334 -0.2688 -2.3906  1.0674
 5951SOL    HW229487   3.813   2.910  17.430 -0.7823 -0.9208  1.2805
 5952SOL     OW29488   0.273   3.095   8.249 -0.3712  0.0154  0.1092
 5952SOL    HW129489   0.248   3.117   8.339 -0.7568 -0.3437  0.0908
 5952SOL    HW229490   0.238   3.172   8.206 -0.4210 -0.5376 -0.8332
 5953SOL     OW29491   4.155   4.045   5.808 -0.0572  0.1084 -0.9180
 5953SOL    HW129492   4.125   3.957   5.786  3.8805 -1.2780 -0.7541
 5953SOL    HW229493   4.229   4.053   5.747 -0.8136 -0.0628 -1.8456
 5954SOL     OW29494   0.707   0.300   6.039  0.2645  0.4504 -0.4523
 5954SOL    HW129495   0.696   0.375   5.980 -0.9537  0.6807  0.0564
 5954SOL    HW229496   0.701   0.232   5.972 -0.8274 -0.9003  1.0199
 5955SOL     OW29497   1.239   2.641   3.167 -0.1423 -0.0957 -0.2210
 5955SOL    HW129498   1.309   2.644   3.102 -2.1634  0.6050 -2.3602
 5955SOL    HW229499   1.162   2.668   3.118 -0.3432 -0.9680 -0.3836
 5956SOL     OW29500   3.518   4.635   5.197  0.1478 -0.6950  0.0430
 5956SOL    HW129501   3.605   4.668   5.177 -0.1383  0.6030  0.9570
 5956SOL    HW229502   3.473   4.644   5.113 -0.9913  0.3365  0.7562
 5957SOL     OW29503   0.589   1.245   8.544  0.7318 -1.0236  0.0712
 5957SOL    HW129504   0.584   1.164   8.596 -1.3911 -1.3460 -0.6377
 5957SOL    HW229505   0.650   1.300   8.593  0.8991 -0.7073 -0.4821
 5958SOL     OW29506   4.326   4.591   0.440 -0.3560  0.4714  0.3758
 5958SOL    HW129507   4.235   4.592   0.412 -0.5199 -2.2394  0.7881
 5958SOL    HW229508   4.375   4.644   0.377 -1.4173  0.5313 -0.3922
 5959SOL     OW29509   2.578   4.108   6.062 -0.1652 -0.1803  0.7471
 5959SOL    HW129510   2.553   4.105   6.154 -0.1340 -0.0383  0.7601
 5959SOL    HW229511   2.563   4.017   6.035  2.5486  0.0737 -1.5763
 5960SOL     OW29512   2.750   0.318  12.818 -0.2612 -0.2530  0.4073
 5960SOL    HW129513   2.760   0.259  12.893 -0.4280 -1.6689 -0.6757
 5960SOL    HW229514   2.752   0.255  12.746 -0.2814 -0.3108  0.4565
 5961SOL     OW29515   0.827   0.088   0.953 -0.2194 -0.2738  0.2276
 5961SOL    HW129516   0.837   0.179   0.924 -1.5474 -0.4244 -0.7049
 5961SOL    HW229517   0.835   0.035   0.874 -2.9850  1.8202 -1.4672
 5962SOL     OW29518   4.099   4.441   8.372 -0.4289 -0.1437 -0.2332
 5962SOL    HW129519   4.097   4.402   8.285 -2.0759 -2.8793  1.0163
 5962SOL    HW229520   4.047   4.377   8.422 -0.9399 -1.1673 -2.0760
 5963SOL     OW29521   4.551   0.682  15.844 -0.6729 -0.0320 -0.2972
 5963SOL    HW129522   4.501   0.743  15.898  1.8388  0.6919  1.2121
 5963SOL    HW229523   4.483   0.659  15.781 -0.8524  1.2165 -0.5569
 5964SOL     OW29524   4.265   0.590  16.871  0.2876 -0.0069  0.0030
 5964SOL    HW129525   4.253   0.656  16.803  1.6276  0.4963  0.2571
 5964SOL    HW229526   4.192   0.609  16.930  1.5179  0.8550  1.2381
 5965SOL     OW29527   4.186   0.335  16.807 -0.3270 -0.5025  0.4202
 5965SOL    HW129528   4.217   0.400  16.870 -2.2102  0.5833  0.2495
 5965SOL    HW229529   4.206   0.385  16.728 -0.0054  1.9490  2.0758
 5966SOL     OW29530   3.618   0.568   7.152  0.0428  0.1361 -0.3215
 5966SOL    HW129531   3.670   0.648   7.149  0.5149 -0.1478  0.3342
 5966SOL    HW229532   3.692   0.508   7.144 -0.6767 -0.9109  0.6909
 5967SOL     OW29533   0.604   1.602   4.681 -0.1494  0.1404  0.6332
 5967SOL    HW129534   0.607   1.621   4.587 -1.0085  2.4709  1.0620
 5967SOL    HW229535   0.527   1.545   4.687  0.8857 -1.3738 -0.6134
 5968SOL     OW29536   1.512   3.029   4.690  0.0782  0.3110 -0.3399
 5968SOL    HW129537   1.486   3.120   4.677  1.6020  0.8695  0.5473
 5968SOL    HW229538   1.431   2.999   4.731  1.5229 -1.9866  0.8100
 5969SOL     OW29539   0.277   2.673   5.483 -0.1029  0.0071  0.5060
 5969SOL    HW129540   0.327   2.600   5.520  2.1366  0.6585 -1.2274
 5969SOL    HW229541   0.201   2.685   5.539 -0.0097 -2.6852  1.2377
 5970SOL     OW29542   0.081   4.245   8.950  0.2127 -0.3211  0.0872
 5970SOL    HW129543   0.111   4.154   8.950 -1.1433 -0.7713 -0.9680
 5970SOL    HW229544   4.726   4.232   8.934  0.3910  1.2279 -2.1125
 5971SOL     OW29545   4.485   1.409   2.378 -0.6176  0.0053 -0.4209
 5971SOL    HW129546   4.501   1.338   2.441 -0.9256  0.4315  0.1332
 5971SOL    HW229547   4.393   1.432   2.391  0.3915  2.1829  2.9220
 5972SOL     OW29548   3.124   1.069   4.777  0.5433  0.4272  0.2381
 5972SOL    HW129549   3.057   1.053   4.844  0.8410 -1.1425  0.1713
 5972SOL    HW229550   3.065   1.073   4.703 -0.5984 -1.3480  1.0592
 5973SOL     OW29551   0.315   0.382   1.889 -0.3029  0.1820 -0.7806
 5973SOL    HW129552   0.260   0.434   1.831  0.4661  1.3078 -0.5055
 5973SOL    HW229553   0.264   0.388   1.970 -0.4275  0.1612 -0.8584
 5974SOL     OW29554   0.269   2.332  15.584 -0.7019  0.3233  0.0771
 5974SOL    HW129555   0.282   2.296  15.497 -2.0521 -0.2562  0.1188
 5974SOL    HW229556   0.193   2.281  15.612  0.2192  0.2277  2.4482
 5975SOL     OW29557   2.880   2.285  15.061  0.0954  0.0479  0.1326
 5975SOL    HW129558   2.884   2.190  15.048 -0.1023  0.1345 -0.5239
 5975SOL    HW229559   2.901   2.291  15.154 -1.0857 -0.3159  0.4231
 5976SOL     OW29560   3.846   1.327  12.360 -0.4309 -0.2118 -0.2138
 5976SOL    HW129561   3.922   1.314  12.417 -0.0831  0.8440 -0.4489
 5976SOL    HW229562   3.801   1.402  12.399 -1.8463 -1.0316 -0.2524
 5977SOL     OW29563   1.095   1.345   6.760  0.2262 -0.0618 -0.4318
 5977SOL    HW129564   1.046   1.270   6.726 -1.3548  1.5250 -1.6455
 5977SOL    HW229565   1.158   1.345   6.688 -0.4112  1.3361 -0.9701
 5978SOL     OW29566   3.116   1.270   9.487 -0.2629  0.0440 -0.1746
 5978SOL    HW129567   3.147   1.216   9.560  1.0229 -2.0023 -2.2258
 5978SOL    HW229568   3.085   1.350   9.528 -0.7579 -1.1111  1.7014
 5979SOL     OW29569   4.137   0.963   4.649 -0.1164 -0.5723 -0.2412
 5979SOL    HW129570   4.127   1.050   4.610 -1.0922 -0.5604  0.0351
 5979SOL    HW229571   4.217   0.931   4.608  0.5608  0.0275  0.5885
 5980SOL     OW29572   4.621   0.284   1.619 -0.4058 -0.5268 -0.5182
 5980SOL    HW129573   4.532   0.255   1.602 -0.8860  2.1621 -2.5393
 5980SOL    HW229574   4.678   0.220   1.576  0.2606  1.0565 -1.9897
 5981SOL     OW29575   3.893   3.393   5.186 -0.3714  0.4142 -0.3051
 5981SOL    HW129576   3.834   3.325   5.152  0.9354 -1.3463  0.9418
 5981SOL    HW229577   3.957   3.332   5.222 -0.9043 -0.5440 -0.9700
 5982SOL     OW29578   0.373   3.665  13.949 -0.0139  0.1555  0.3766
 5982SOL    HW129579   0.340   3.593  14.001  0.3467  0.3366  0.8521
 5982SOL    HW229580   0.400   3.614  13.873  0.4265  2.5990 -1.1415
 5983SOL     OW29581   2.534   0.202  15.144  0.4258 -0.2973 -0.5204
 5983SOL    HW129582   2.485   0.168  15.069  0.9902 -2.2082 -0.0402
 5983SOL    HW229583   2.587   0.265  15.094 -0.2635  1.0239  0.4433
 5984SOL     OW29584   0.476   0.491   6.274  0.3632  0.0882  0.2448
 5984SOL    HW129585   0.571   0.480   6.277  0.2110 -1.0092  0.9579
 5984SOL    HW229586   0.460   0.397   6.278 -0.1659  0.0477 -3.3694
 5985SOL     OW29587   1.532   4.152  17.326  0.4868  0.1699  0.3018
 5985SOL    HW129588   1.576   4.236  17.318 -0.7445  0.8817  1.1423
 5985SOL    HW229589   1.440   4.175  17.314 -0.1623 -3.4080 -1.8124
 5986SOL     OW29590   3.505   3.666   8.204 -0.3077  0.2453  0.0309
 5986SOL    HW129591   3.542   3.686   8.290  1.4515  0.7714 -0.8374
 5986SOL    HW229592   3.587   3.688   8.160  1.1873 -2.4659  1.5348
 5987SOL     OW29593   1.764   2.125   1.235  0.4615 -0.2505  0.2665
 5987SOL    HW129594   1.760   2.194   1.302 -0.4180  1.2247 -1.3018
 5987SOL    HW229595   1.849   2.091   1.264 -0.3716 -1.9941  0.6034
 5988SOL     OW29596   4.465   2.886   1.060 -0.4681  0.1415  0.4953
 5988SOL    HW129597   4.540   2.939   1.037 -1.7779  1.2884 -1.1136
 5988SOL    HW229598   4.511   2.851   1.137  0.2561  0.7027  0.3043
 5989SOL     OW29599   3.837   3.552   9.340  0.0519  0.2355  0.0324
 5989SOL    HW129600   3.860   3.633   9.385 -2.1634  1.6587 -1.3837
 5989SOL    HW229601   3.910   3.534   9.281  0.5643  1.5676  0.2601
 5990SOL     OW29602   3.165   2.048   3.563 -0.1197  0.2305 -0.3792
 5990SOL    HW129603   3.071   2.030   3.554 -0.4382  1.9553 -0.4189
 5990SOL    HW229604   3.177   2.050   3.658 -0.3955  1.1629 -0.3661
 5991SOL     OW29605   3.576   1.030   2.163 -0.1432 -0.0127  0.4014
 5991SOL    HW129606   3.485   0.998   2.161 -0.0442 -0.0187 -3.6696
 5991SOL    HW229607   3.612   0.941   2.171  1.1377  0.6876  2.3824
 5992SOL     OW29608   4.078   3.807   6.753 -0.0287  0.1880 -0.3703
 5992SOL    HW129609   4.011   3.747   6.786  1.3741 -1.4620 -0.5131
 5992SOL    HW229610   4.128   3.814   6.834 -0.7901  0.1322  0.1080
 5993SOL     OW29611   2.579   1.268  11.395 -0.0407  0.3295 -0.4949
 5993SOL    HW129612   2.583   1.328  11.470 -2.0901  2.3248 -1.9642
 5993SOL    HW229613   2.622   1.318  11.325 -0.3362 -0.5373 -1.3097
 5994SOL     OW29614   2.482   1.618  14.490 -0.1931 -0.0967 -0.2545
 5994SOL    HW129615   2.457   1.610  14.582  0.9733 -0.9615 -0.0074
 5994SOL    HW229616   2.438   1.696  14.456 -1.2713 -0.0216  1.2710
 5995SOL     OW29617   1.856   3.746   5.411  0.0656  0.6672 -0.5407
 5995SOL    HW129618   1.906   3.811   5.461 -0.4032  0.6832 -0.0993
 5995SOL    HW229619   1.805   3.806   5.357 -2.2278 -1.4834 -0.7367
 5996SOL     OW29620   3.070   2.907  14.334  0.0395  0.8553  0.3409
 5996SOL    HW129621   3.090   2.849  14.407  0.1554  0.5678  0.0792
 5996SOL    HW229622   3.157   2.930  14.299  0.2832 -0.2599  0.2377
 5997SOL     OW29623   2.791   2.507   2.435  0.2764  0.1701  0.1986
 5997SOL    HW129624   2.876   2.550   2.441 -0.0523  0.9376 -0.7467
 5997SOL    HW229625   2.745   2.568   2.378  0.7000  1.0822  0.8247
 5998SOL     OW29626   3.530   4.608   5.455  0.0635 -0.1893  0.9167
 5998SOL    HW129627   3.468   4.535   5.458 -0.4265  0.2332  1.0513
 5998SOL    HW229628   3.520   4.620   5.360 -0.3042 -0.4498  0.9225
 5999SOL     OW29629   4.014   2.580  17.217  0.6451  0.0691  0.4066
 5999SOL    HW129630   3.981   2.511  17.274  1.1703 -0.9343 -0.5063
 5999SOL    HW229631   4.049   2.529  17.143 -0.8033  0.8181 -0.7823
 6000SOL     OW29632   0.833   0.715   8.593  0.3896  0.6888 -0.1363
 6000SOL    HW129633   0.841   0.783   8.526  0.5347  1.8199  1.0159
 6000SOL    HW229634   0.904   0.659   8.563  1.9032  1.4105  2.0849
 6001SOL     OW29635   2.713   3.988   2.151 -0.2678  0.1895 -0.0074
 6001SOL    HW129636   2.734   3.903   2.113  0.9795  1.7963 -2.8758
 6001SOL    HW229637   2.635   3.965   2.203 -0.0294 -1.5671 -0.4499
 6002SOL     OW29638   1.027   0.985   8.054 -0.6407  0.4147 -0.1454
 6002SOL    HW129639   1.101   0.933   8.023 -1.7138  0.2258 -2.4014
 6002SOL    HW229640   1.053   1.074   8.030  1.4717  0.5293  2.5322
 6003SOL     OW29641   3.289   3.716   9.106 -0.6386  0.0179  0.0019
 6003SOL    HW129642   3.236   3.796   9.114 -2.2032 -0.7298 -2.8396
 6003SOL    HW229643   3.242   3.660   9.167  3.7562 -1.4221  2.0728
 6004SOL     OW29644   0.953   1.066   6.821 -0.2434 -0.0603  0.6931
 6004SOL    HW129645   0.872   1.113   6.842  1.1199  1.5620  2.4073
 6004SOL    HW229646   0.924   1.018   6.744  2.9512 -1.0807  0.1581
 6005SOL     OW29647   2.582   4.482  17.351  0.1155 -0.1019 -0.0809
 6005SOL    HW129648   2.539   4.430  17.419 -0.4304  1.6776  0.9559
 6005SOL    HW229649   2.529   4.562  17.350  1.2467  0.6026 -3.2182
 6006SOL     OW29650   1.349   4.016   6.879  0.5895  0.2509 -0.8517
 6006SOL    HW129651   1.406   4.071   6.824 -0.1099  1.3710 -0.4573
 6006SOL    HW229652   1.291   4.083   6.915 -0.8749  0.1415 -3.0293
 6007SOL     OW29653   1.622   3.234   8.983  0.7376  0.0885  0.2105
 6007SOL    HW129654   1.573   3.313   9.004  1.2257  0.4684 -0.0867
 6007SOL    HW229655   1.619   3.229   8.888 -1.2920  0.7151  0.2439
 6008SOL     OW29656   2.591   3.819   1.151 -0.3970  0.3771 -0.0432
 6008SOL    HW129657   2.552   3.792   1.068 -1.5604  0.6081  0.4377
 6008SOL    HW229658   2.633   3.901   1.126  1.0089 -0.5274 -0.6633
 6009SOL     OW29659   3.071   3.222   4.951  0.0543  0.0127 -0.1447
 6009SOL    HW129660   2.986   3.183   4.971 -0.0448  0.5723  0.5390
 6009SOL    HW229661   3.053   3.232   4.857 -2.6918  0.2677  0.4008
 6010SOL     OW29662   4.042   3.719   6.284  0.7280 -0.1210  0.5192
 6010SOL    HW129663   3.950   3.741   6.266  1.1663  1.1388 -0.1554
 6010SOL    HW229664   4.071   3.808   6.302  1.5064 -0.0289 -1.1698
 6011SOL     OW29665   0.921   3.857   9.289  0.2448 -0.4129 -0.0711
 6011SOL    HW129666   0.845   3.820   9.333  0.0901 -1.0210 -0.8633
 6011SOL    HW229667   0.950   3.938   9.332  1.4266 -0.9508  0.1455
 6012SOL     OW29668   3.081   4.549   6.243 -0.3438 -0.1959  0.8058
 6012SOL    HW129669   3.123   4.526   6.326 -2.6924 -1.5887  1.6031
 6012SOL    HW229670   3.021   4.477   6.226  1.1548 -1.2037 -0.1656
 6013SOL     OW29671   2.956   1.045   6.540 -0.3083  0.2314 -0.1603
 6013SOL    HW129672   2.949   0.969   6.597  0.3901 -0.2285 -0.6825
 6013SOL    HW229673   2.874   1.085   6.568  1.0670  2.3919  0.7675
 6014SOL     OW29674   4.055   3.730   0.986 -0.5817 -0.3887 -0.2166
 6014SOL    HW129675   3.974   3.681   1.001 -1.5642  1.2430 -0.2174
 6014SOL    HW229676   4.119   3.660   0.997  2.4864  2.6101  0.9026
 6015SOL     OW29677   2.525   4.638   7.552 -0.4815 -0.3761  0.0937
 6015SOL    HW129678   2.507   4.564   7.610  2.2217 -2.5114 -1.7579
 6015SOL    HW229679   2.615   4.619   7.524  0.2012  0.5591  1.6355
 6016SOL     OW29680   0.271   1.230  14.079  0.2255 -1.0540  0.4503
 6016SOL    HW129681   0.203   1.280  14.034  0.2788 -1.0605  0.3616
 6016SOL    HW229682   0.266   1.154  14.021 -0.1759 -0.0307 -0.8811
 6017SOL     OW29683   1.006   3.395   3.690  0.0586 -0.0848 -0.2591
 6017SOL    HW129684   1.101   3.385   3.686  0.4937  3.6371  0.7251
 6017SOL    HW229685   0.976   3.306   3.711 -1.6533  0.7606  0.9137
 6018SOL     OW29686   1.082   4.605   4.197  0.1566  0.0849 -0.1514
 6018SOL    HW129687   1.163   4.655   4.203  0.1394  0.1976 -0.8610
 6018SOL    HW229688   1.108   4.515   4.177 -1.0319 -0.2026 -0.3925
 6019SOL     OW29689   0.668   1.496   7.602 -0.2615 -0.4957  0.4836
 6019SOL    HW129690   0.594   1.471   7.548 -0.5562 -2.0745  1.5977
 6019SOL    HW229691   0.705   1.574   7.561  1.7714 -1.6252  0.1300
 6020SOL     OW29692   3.287   1.793   7.024  0.5866 -0.3197  0.0765
 6020SOL    HW129693   3.235   1.716   7.002  2.0078 -1.3817  0.4788
 6020SOL    HW229694   3.228   1.843   7.081  1.5205 -0.3972  1.1087
 6021SOL     OW29695   0.714   0.693   5.720 -0.1241  0.5890 -0.1554
 6021SOL    HW129696   0.677   0.625   5.776  0.0771 -0.1674 -0.9309
 6021SOL    HW229697   0.796   0.651   5.693 -0.3887 -0.1874  0.2629
 6022SOL     OW29698   1.146   3.477   2.247 -0.1178 -0.7361 -0.4409
 6022SOL    HW129699   1.069   3.421   2.258  0.9433 -1.7816  1.6621
 6022SOL    HW229700   1.102   3.547   2.197  1.3218  0.7578  0.3698
 6023SOL     OW29701   0.947   0.925   4.149  0.0032  0.4238 -0.0220
 6023SOL    HW129702   0.925   0.931   4.056  0.6748 -1.7714 -0.3256
 6023SOL    HW229703   0.893   0.998   4.178 -1.4605 -0.5091 -0.3978
 6024SOL     OW29704   3.519   1.596   4.144 -0.7848  0.0566  0.4210
 6024SOL    HW129705   3.602   1.601   4.193 -0.6853  1.7145  0.0730
 6024SOL    HW229706   3.542   1.550   4.064 -1.2251 -1.5332  1.2066
 6025SOL     OW29707   0.082   4.491  12.090  0.7173  0.1866  0.1240
 6025SOL    HW129708   0.046   4.498  12.178  2.4381 -1.1858  0.9196
 6025SOL    HW229709   0.145   4.563  12.092 -0.0315  0.8432  0.2386
 6026SOL     OW29710   1.039   1.651   8.943 -0.4765  0.0208 -0.1260
 6026SOL    HW129711   0.945   1.651   8.962 -0.4157 -2.6983  0.1903
 6026SOL    HW229712   1.069   1.669   9.032 -1.1953  1.4967 -0.1959
 6027SOL     OW29713   1.894   0.951   7.302 -0.5669  0.5769 -0.4644
 6027SOL    HW129714   1.807   0.925   7.272 -0.3820 -1.1555  0.5102
 6027SOL    HW229715   1.894   0.940   7.397  0.1180  2.0307 -0.2909
 6028SOL     OW29716   0.384   1.467  13.843  0.3980  0.3801  0.4605
 6028SOL    HW129717   0.366   1.374  13.832 -0.4810  0.8778 -2.3291
 6028SOL    HW229718   0.352   1.495  13.757 -1.2498  1.7178  1.5277
 6029SOL     OW29719   0.673   2.736   6.798  0.2419  0.1420 -0.0025
 6029SOL    HW129720   0.628   2.659   6.832 -1.3406  1.4657  0.8751
 6029SOL    HW229721   0.605   2.802   6.816 -1.2707 -1.6886  0.9322
 6030SOL     OW29722   4.446   3.895   2.065 -0.1993 -0.7084  0.2544
 6030SOL    HW129723   4.370   3.911   2.122  0.5246  1.4341  0.6011
 6030SOL    HW229724   4.511   3.863   2.127 -1.6422 -0.7169  1.7845
 6031SOL     OW29725   4.348   0.048  14.919  0.5557  0.4337  0.1100
 6031SOL    HW129726   4.374   0.139  14.901  3.6851 -0.6962 -0.9176
 6031SOL    HW229727   4.285   0.031  14.849 -0.1462 -2.4160  1.4673
 6032SOL     OW29728   3.519   2.992   6.106  0.4918 -0.0170  0.7117
 6032SOL    HW129729   3.576   2.930   6.152  0.6551 -1.7923 -1.8445
 6032SOL    HW229730   3.440   2.938   6.096 -1.2026  2.8571 -1.4722
 6033SOL     OW29731   0.488   0.411   4.797  0.0876 -0.0251  0.0783
 6033SOL    HW129732   0.549   0.473   4.759 -2.2415  0.5814 -2.6651
 6033SOL    HW229733   0.411   0.467   4.790  1.0630  1.1806 -1.0732
 6034SOL     OW29734   4.661   4.454   6.408  0.3067 -0.2140 -0.0193
 6034SOL    HW129735   4.589   4.392   6.394  0.4349 -0.1883 -0.8213
 6034SOL    HW229736   4.624   4.512   6.474  0.5753 -1.4368  1.2031
 6035SOL     OW29737   2.596   4.520   1.557  0.0219  0.2900 -0.0223
 6035SOL    HW129738   2.594   4.471   1.639  0.9736  0.9615  0.3967
 6035SOL    HW229739   2.510   4.508   1.516  0.6458 -2.6171 -0.4775
 6036SOL     OW29740   0.200   2.522   9.721  0.6314  0.3489 -0.5123
 6036SOL    HW129741   0.227   2.515   9.813 -0.4731  2.8826  0.0045
 6036SOL    HW229742   0.130   2.587   9.718  2.1552  1.8117 -3.8004
 6037SOL     OW29743   3.341   2.851   3.761 -0.4274 -0.0527 -0.0603
 6037SOL    HW129744   3.283   2.811   3.826  0.9580  0.6398  1.6020
 6037SOL    HW229745   3.283   2.888   3.695 -0.8616 -2.4229 -1.0081
 6038SOL     OW29746   0.320   2.006  17.467  0.2607 -0.1451 -0.3640
 6038SOL    HW129747   0.372   2.056  17.530 -0.1667 -1.8369  1.3270
 6038SOL    HW229748   0.342   1.915  17.490  0.5926  0.4833  1.7975
 6039SOL     OW29749   3.366   4.489   3.864  0.8587 -0.0024  0.6479
 6039SOL    HW129750   3.292   4.450   3.911  1.1615 -3.4639 -1.7807
 6039SOL    HW229751   3.396   4.546   3.935  1.0370  2.4974 -1.4525
 6040SOL     OW29752   3.226   2.208  10.218 -0.0555  0.0669 -0.0165
 6040SOL    HW129753   3.212   2.193  10.311 -0.1840 -0.0117 -0.0474
 6040SOL    HW229754   3.320   2.218  10.203 -0.2861  0.5209 -1.1939
 6041SOL     OW29755   0.046   1.485   1.566  0.1085 -0.9501 -0.0200
 6041SOL    HW129756   0.027   1.391   1.568 -2.4591 -0.4529 -0.7586
 6041SOL    HW229757   0.052   1.502   1.660  0.9443  0.7820 -0.3901
 6042SOL     OW29758   2.816   2.193   2.118 -0.4926  0.0711  0.5599
 6042SOL    HW129759   2.852   2.116   2.074 -1.6557  1.0617 -2.1160
 6042SOL    HW229760   2.758   2.235   2.054 -0.0286 -0.9101 -0.4893
 6043SOL     OW29761   4.107   3.313   5.534  0.8524  0.5324  0.1951
 6043SOL    HW129762   4.094   3.283   5.444 -0.4208 -0.6808  0.7831
 6043SOL    HW229763   4.202   3.313   5.541  0.9386 -0.6082 -0.8815
 6044SOL     OW29764   4.200   2.748  14.700 -0.7118  0.7141  0.4453
 6044SOL    HW129765   4.191   2.840  14.725  1.4394  0.9499  0.3684
 6044SOL    HW229766   4.253   2.762  14.621 -0.6821  1.7379  0.6500
 6045SOL     OW29767   2.451   2.289   1.272 -0.4564 -0.3071 -0.4570
 6045SOL    HW129768   2.533   2.315   1.230 -0.3359  1.8976  1.1509
 6045SOL    HW229769   2.403   2.371   1.268 -0.7782 -0.5101 -0.7324
 6046SOL     OW29770   3.796   1.673   8.707 -0.6052 -0.2605 -0.0396
 6046SOL    HW129771   3.740   1.712   8.774  0.5613 -0.0136  0.7756
 6046SOL    HW229772   3.870   1.733   8.702 -0.3041 -0.5635  0.8788
 6047SOL     OW29773   2.592   2.032   2.564 -0.0263 -0.2809  0.0506
 6047SOL    HW129774   2.579   2.030   2.659  2.9312  1.8573  0.4877
 6047SOL    HW229775   2.504   2.004   2.536 -0.4094  0.9468  0.0445
 6048SOL     OW29776   1.987   2.732   2.170  0.1428 -0.1583  0.2437
 6048SOL    HW129777   2.006   2.825   2.182  0.5288 -0.0032 -1.5959
 6048SOL    HW229778   2.073   2.691   2.155  0.1674  0.3375 -0.9488
 6049SOL     OW29779   3.388   3.164  13.754  0.5453  0.3515  0.1276
 6049SOL    HW129780   3.473   3.204  13.735 -0.4382  1.8139 -1.2327
 6049SOL    HW229781   3.414   3.073  13.737  0.2021  0.2480  0.1619
 6050SOL     OW29782   2.752   2.219   4.691 -0.3067  0.0744 -0.4300
 6050SOL    HW129783   2.741   2.271   4.771  0.5476 -0.0824 -0.2017
 6050SOL    HW229784   2.752   2.289   4.626 -3.1793 -1.2379 -1.8092
 6051SOL     OW29785   3.611   2.141   5.094 -0.1293  0.2223 -0.5112
 6051SOL    HW129786   3.613   2.130   5.189 -2.7015  1.9133 -0.2499
 6051SOL    HW229787   3.520   2.113   5.084 -0.5277  1.5302 -0.6002
 6052SOL     OW29788   4.360   1.686   5.504 -0.2167 -0.1187 -0.2754
 6052SOL    HW129789   4.317   1.619   5.558 -0.8589  0.8775  0.4504
 6052SOL    HW229790   4.308   1.761   5.534  1.5407  1.4330 -1.1433
 6053SOL     OW29791   3.382   0.433   8.067  0.3917 -0.4482 -0.0780
 6053SOL    HW129792   3.434   0.388   8.000 -1.1073 -1.7577 -0.3481
 6053SOL    HW229793   3.434   0.408   8.143 -0.2786 -1.5762 -0.0090
 6054SOL     OW29794   1.411   1.066   4.184 -0.3964  0.2214  0.3366
 6054SOL    HW129795   1.399   1.066   4.089  2.1710  1.5929  0.0251
 6054SOL    HW229796   1.497   1.107   4.192  0.4695 -1.5244 -0.1413
 6055SOL     OW29797   3.343   1.989   2.891 -0.7650  0.3054 -0.2609
 6055SOL    HW129798   3.342   1.966   2.984 -1.1438  1.9647  0.1482
 6055SOL    HW229799   3.259   1.953   2.859 -0.3877  0.5265 -1.5020
 6056SOL     OW29800   2.809   2.044   8.520 -0.1375 -0.3723  0.6157
 6056SOL    HW129801   2.821   2.027   8.427  0.5704  0.5858  0.5282
 6056SOL    HW229802   2.748   1.975   8.546 -0.1525 -0.1788  1.0945
 6057SOL     OW29803   1.909   1.979   7.816 -0.5107  0.5804  0.3653
 6057SOL    HW129804   1.915   2.074   7.805 -0.1497  0.3285 -1.5337
 6057SOL    HW229805   1.817   1.962   7.794 -0.0296 -1.8193  0.2372
 6058SOL     OW29806   0.010   3.237   1.956 -0.0356  0.4147  0.5542
 6058SOL    HW129807   4.686   3.165   1.952  1.2433 -0.7769  2.5155
 6058SOL    HW229808   4.698   3.311   1.990 -0.4283  0.4928 -0.1984
 6059SOL     OW29809   4.632   1.144   9.780 -0.2910  0.3382  0.1977
 6059SOL    HW129810   4.540   1.165   9.790  0.1270  0.9006  2.8583
 6059SOL    HW229811   4.653   1.143   9.873 -1.3392  0.3650  0.4286
 6060SOL     OW29812   3.133   1.123  10.583  0.0389 -0.0651  0.2178
 6060SOL    HW129813   3.112   1.054  10.520 -0.6662 -1.2986  1.7970
 6060SOL    HW229814   3.154   1.076  10.664 -2.0585 -2.8379 -0.8490
 6061SOL     OW29815   4.033   3.098   3.615  0.1082 -0.1777 -0.1999
 6061SOL    HW129816   4.127   3.110   3.609  0.3250 -1.1073  1.3362
 6061SOL    HW229817   4.007   3.143   3.535  2.3647  0.4815 -0.5418
 6062SOL     OW29818   2.865   3.579   7.561 -0.3791  0.4606 -0.1636
 6062SOL    HW129819   2.818   3.659   7.586 -0.8163  0.5272 -1.1896
 6062SOL    HW229820   2.930   3.616   7.501 -0.6202  0.4825 -0.4148
 6063SOL     OW29821   0.333   0.546  11.547  0.2783  0.0047  0.0155
 6063SOL    HW129822   0.247   0.531  11.586  0.6386 -2.5666 -0.1872
 6063SOL    HW229823   0.374   0.459  11.549  0.1657 -0.0406  0.3171
 6064SOL     OW29824   2.649   1.907   0.608 -0.2929 -0.3580  0.1333
 6064SOL    HW129825   2.584   1.852   0.566 -1.1032  0.9756 -0.3394
 6064SOL    HW229826   2.601   1.911   0.691  0.1980 -1.0200  0.4477
 6065SOL     OW29827   0.966   0.422   2.438 -0.0033  0.4020 -0.6345
 6065SOL    HW129828   0.912   0.400   2.362 -0.3329 -1.7459  0.2321
 6065SOL    HW229829   1.051   0.436   2.397 -0.2385 -1.3250 -1.7235
 6066SOL     OW29830   1.648   4.679   1.948  0.0317 -0.5927 -1.0240
 6066SOL    HW129831   1.606   4.666   1.863 -1.0372  0.9705 -0.7420
 6066SOL    HW229832   1.737   4.652   1.927  0.9401 -0.0046  2.1239
 6067SOL     OW29833   0.525   2.085   2.945  0.5939  0.0810 -0.4036
 6067SOL    HW129834   0.581   2.032   2.888 -0.3259  0.3649 -1.5801
 6067SOL    HW229835   0.460   2.019   2.968 -0.5506  1.4155  0.1756
 6068SOL     OW29836   3.113   0.528   8.173 -0.0069  0.1790  0.3179
 6068SOL    HW129837   3.209   0.525   8.175  0.0643  2.2240  0.4899
 6068SOL    HW229838   3.092   0.435   8.165  0.6686  0.0158  0.4861
 6069SOL     OW29839   0.062   2.594   8.191  0.1953 -0.1649  0.2183
 6069SOL    HW129840   4.737   2.664   8.183  1.5699  0.8573 -1.7813
 6069SOL    HW229841   0.049   2.537   8.115 -1.3342  0.8637 -0.2797
 6070SOL     OW29842   0.052   3.538   8.946 -0.2380  0.3281 -0.6012
 6070SOL    HW129843   0.090   3.603   8.888  1.9492  0.2296  0.7403
 6070SOL    HW229844   0.105   3.462   8.925 -0.9110  0.2245 -1.9078
 6071SOL     OW29845   2.166   0.847   5.357  0.2750 -0.0067  0.8530
 6071SOL    HW129846   2.261   0.842   5.358  0.1731 -1.8365  1.9399
 6071SOL    HW229847   2.146   0.900   5.280  3.7843  2.3610  1.5927
 6072SOL     OW29848   4.187   2.396   7.040  0.4656 -0.2357  0.2436
 6072SOL    HW129849   4.093   2.412   7.049  0.6048 -0.1416  1.5519
 6072SOL    HW229850   4.184   2.370   6.948  0.1775 -0.6323  0.3653
 6073SOL     OW29851   3.123   2.729   5.645  0.1431  0.2095 -0.2822
 6073SOL    HW129852   3.176   2.650   5.652  0.4449  0.2957 -1.5380
 6073SOL    HW229853   3.129   2.761   5.555  0.5263 -0.6570 -0.5598
 6074SOL     OW29854   2.710   0.553   1.534  0.0416 -0.5922  0.3806
 6074SOL    HW129855   2.679   0.503   1.610  0.7270 -1.8335 -0.1611
 6074SOL    HW229856   2.634   0.532   1.479  0.3844 -0.8573  0.0133
 6075SOL     OW29857   4.656   2.827   8.158  0.3179 -0.1789  0.0915
 6075SOL    HW129858   4.631   2.904   8.210 -2.0508 -1.8676  1.5022
 6075SOL    HW229859   4.692   2.855   8.075  2.0021 -1.9065  0.2210
 6076SOL     OW29860   1.318   2.010   9.004  0.3512  0.1828 -0.0662
 6076SOL    HW129861   1.357   2.001   8.917 -1.6652  0.7934 -1.0387
 6076SOL    HW229862   1.359   2.089   9.039 -0.8070  0.7687 -0.0176
 6077SOL     OW29863   2.061   1.827   9.693  0.1985 -0.2320  0.2046
 6077SOL    HW129864   1.987   1.770   9.675 -0.2464  0.0686  1.1130
 6077SOL    HW229865   2.098   1.785   9.770 -0.5550 -0.2625  0.5491
 6078SOL     OW29866   0.857   2.482   7.690  0.0839  0.1739  0.0747
 6078SOL    HW129867   0.902   2.539   7.627  0.7779 -0.2473  0.1911
 6078SOL    HW229868   0.845   2.550   7.756 -0.1995 -0.2804  0.4889
 6079SOL     OW29869   3.909   4.563   1.650 -0.0866  0.4511  0.1871
 6079SOL    HW129870   3.824   4.608   1.646  0.3328  1.4238  2.0869
 6079SOL    HW229871   3.972   4.634   1.635  2.3892 -1.7344  0.3196
 6080SOL     OW29872   4.729   4.461  10.338  0.3809  0.7118  0.1557
 6080SOL    HW129873   0.073   4.501  10.364 -0.7298  1.2840  2.7082
 6080SOL    HW229874   4.699   4.532  10.281  1.1495  0.7380 -0.2247
 6081SOL     OW29875   1.336   2.074   6.898 -0.3411  0.2473 -0.0387
 6081SOL    HW129876   1.411   2.110   6.851  1.2167 -1.4052  1.1947
 6081SOL    HW229877   1.301   2.157   6.931 -1.4763 -0.4800  0.5727
 6082SOL     OW29878   0.223   0.847  12.416 -0.1839 -0.0891  0.4957
 6082SOL    HW129879   0.128   0.849  12.409 -0.1713 -0.3540  0.2640
 6082SOL    HW229880   0.242   0.930  12.372  1.6389 -0.1570  1.1482
 6083SOL     OW29881   4.031   0.822  15.817  0.3089  0.0928  0.3831
 6083SOL    HW129882   3.994   0.910  15.831 -0.2058 -0.2282  1.0305
 6083SOL    HW229883   3.974   0.764  15.866  4.2901 -2.6176  1.8053
 6084SOL     OW29884   0.574   3.683  11.899  0.3563 -0.2730  0.1397
 6084SOL    HW129885   0.626   3.603  11.896  3.0359  1.4469 -0.2845
 6084SOL    HW229886   0.485   3.652  11.912  0.2328 -0.5874 -1.3807
 6085SOL     OW29887   2.397   4.352  11.598  0.3600  0.5992 -0.0008
 6085SOL    HW129888   2.315   4.388  11.565 -1.6117 -1.1387  2.9544
 6085SOL    HW229889   2.459   4.425  11.586 -1.1692  1.7548 -0.7859
 6086SOL     OW29890   1.429   0.247   3.915  0.5721  0.0453 -0.1605
 6086SOL    HW129891   1.404   0.337   3.897  0.0597  0.2240  1.4548
 6086SOL    HW229892   1.523   0.256   3.928 -0.0175 -1.5956  5.2726
 6087SOL     OW29893   3.264   2.782  10.392 -0.5283  0.0744  0.0196
 6087SOL    HW129894   3.168   2.771  10.393 -0.6822  1.3763 -0.0429
 6087SOL    HW229895   3.291   2.743  10.309  0.6228 -1.6383  1.2210
 6088SOL     OW29896   4.208   4.454   6.813 -0.1867  0.0852 -0.1251
 6088SOL    HW129897   4.254   4.426   6.892  0.8075 -0.4394 -0.8757
 6088SOL    HW229898   4.248   4.540   6.799  1.1042 -0.6491 -1.0238
 6089SOL     OW29899   2.350   3.568   8.496 -0.2465 -0.2734  0.1738
 6089SOL    HW129900   2.264   3.609   8.507 -2.0742 -4.0313  0.1125
 6089SOL    HW229901   2.361   3.550   8.590  0.6628  1.5120  0.3990
 6090SOL     OW29902   1.739   3.333   3.676 -0.9924  0.4498 -0.3822
 6090SOL    HW129903   1.680   3.326   3.600  2.1066 -4.2211 -2.3835
 6090SOL    HW229904   1.709   3.260   3.729 -1.2222  0.3249 -0.6799
 6091SOL     OW29905   4.471   1.411   4.079  0.2620 -0.1609 -0.2641
 6091SOL    HW129906   4.526   1.407   4.000  0.5620  2.4939 -0.1889
 6091SOL    HW229907   4.438   1.321   4.081  1.2258 -0.5513 -2.0525
 6092SOL     OW29908   1.564   3.203  14.578  0.2060  0.4221  0.7568
 6092SOL    HW129909   1.621   3.268  14.619 -1.9919  1.8355  1.5292
 6092SOL    HW229910   1.627   3.149  14.530  2.1584  1.6110  1.9964
 6093SOL     OW29911   3.775   2.768   9.425 -0.3987 -0.6609  0.4362
 6093SOL    HW129912   3.692   2.804   9.393  0.4420  0.5573 -0.3522
 6093SOL    HW229913   3.798   2.815   9.505 -1.5584  0.0869  0.3300
 6094SOL     OW29914   3.698   4.153   3.765  0.4127  0.4450  0.2966
 6094SOL    HW129915   3.708   4.077   3.707  0.9084  1.2242 -0.6529
 6094SOL    HW229916   3.782   4.198   3.758  0.8762 -0.2782  1.1576
 6095SOL     OW29917   0.291   0.298   8.356  0.6549 -0.7148 -0.0026
 6095SOL    HW129918   0.201   0.276   8.334  1.0434  1.8051 -4.0304
 6095SOL    HW229919   0.315   0.355   8.283 -1.3698 -1.7152 -1.4260
 6096SOL     OW29920   1.237   2.851   3.779  0.3056 -0.1245  0.3461
 6096SOL    HW129921   1.306   2.880   3.839 -1.2736 -1.9499  3.0072
 6096SOL    HW229922   1.283   2.862   3.695  1.3961 -0.4381  0.8971
 6097SOL     OW29923   1.199   0.267   9.797  0.0050  0.1893 -0.4846
 6097SOL    HW129924   1.270   0.223   9.844  0.2881  0.1172 -0.9864
 6097SOL    HW229925   1.249   0.311   9.729  0.4709  0.9775  0.3676
 6098SOL     OW29926   1.881   0.002  11.363 -0.6415  0.5765  0.9245
 6098SOL    HW129927   1.815   4.683  11.402 -0.1801 -0.3763  0.3136
 6098SOL    HW229928   1.880   0.073  11.427  2.5330  0.8146  0.6953
 6099SOL     OW29929   1.123   3.354   0.746 -0.5223  0.3014 -0.2253
 6099SOL    HW129930   1.211   3.383   0.766 -0.0878 -2.1853  1.4867
 6099SOL    HW229931   1.144   3.272   0.701  1.2412  0.5293  0.1952
 6100SOL     OW29932   0.866   1.293   6.543 -0.6846  0.0262 -0.7354
 6100SOL    HW129933   0.847   1.283   6.450  2.4158  1.7046 -1.5398
 6100SOL    HW229934   0.831   1.381   6.559  3.1388  1.5338 -0.7887
 6101SOL     OW29935   4.323   4.512   5.309 -0.0860  0.0556  0.1948
 6101SOL    HW129936   4.233   4.525   5.339  1.1219  0.7845  3.4486
 6101SOL    HW229937   4.318   4.487   5.216  1.5581 -1.5153  0.5312
 6102SOL     OW29938   4.595   4.554  11.299 -0.1536 -0.0544 -0.5147
 6102SOL    HW129939   4.530   4.515  11.358  0.6163  0.5238  0.7193
 6102SOL    HW229940   4.672   4.573  11.352 -1.5212 -1.1886  1.8826
 6103SOL     OW29941   2.048   3.399  17.334 -0.1557  0.6591 -0.0845
 6103SOL    HW129942   2.043   3.348  17.253 -1.0997  0.1035  0.3187
 6103SOL    HW229943   2.092   3.333  17.388  2.1424  2.0354 -0.3082
 6104SOL     OW29944   1.883   3.565   2.497  0.1115 -0.1499  0.3324
 6104SOL    HW129945   1.967   3.566   2.450 -0.0219 -0.8189  0.0865
 6104SOL    HW229946   1.831   3.604   2.426 -0.9137  1.3847  1.9228
 6105SOL     OW29947   2.600   2.422  17.109 -0.0742 -0.1212 -0.5165
 6105SOL    HW129948   2.541   2.413  17.183  2.3755 -1.7019  1.2242
 6105SOL    HW229949   2.611   2.517  17.106  0.2430 -0.1272  0.4824
 6106SOL     OW29950   0.098   3.963   1.927  0.0533  0.6625 -0.2949
 6106SOL    HW129951   0.145   3.995   1.850 -0.6799  2.2496 -0.0903
 6106SOL    HW229952   0.024   3.920   1.885  1.3975 -3.2327  1.3049
 6107SOL     OW29953   0.604   0.294  12.194 -0.1346 -0.3085  0.1327
 6107SOL    HW129954   0.633   0.276  12.283  0.9016  0.8629  0.0238
 6107SOL    HW229955   0.634   0.384  12.181  1.1720 -0.7956 -0.1521
 6108SOL     OW29956   2.604   2.728   2.969 -0.0269  0.0528 -0.4566
 6108SOL    HW129957   2.554   2.665   3.022  0.0096  1.6113  1.4019
 6108SOL    HW229958   2.603   2.802   3.029 -0.4694  1.4220 -2.1304
 6109SOL     OW29959   2.773   2.294   5.396  0.7253 -0.0985 -0.1559
 6109SOL    HW129960   2.744   2.213   5.354 -0.0844 -0.1154  0.4388
 6109SOL    HW229961   2.716   2.308   5.471  0.2201 -0.0501 -0.5492
 6110SOL     OW29962   3.745   2.122   3.174  0.3897 -0.3452  0.3586
 6110SOL    HW129963   3.743   2.040   3.126  1.1476 -0.3448  0.3229
 6110SOL    HW229964   3.657   2.153   3.152  0.6926 -0.5622 -1.1631
 6111SOL     OW29965   1.744   0.153   8.910  0.1828 -0.4170 -0.7293
 6111SOL    HW129966   1.680   0.086   8.932 -0.7454  1.3887  2.0765
 6111SOL    HW229967   1.725   0.162   8.816  0.0984 -0.2695 -0.6975
 6112SOL     OW29968   3.977   4.498   5.380  0.4063  0.1598 -0.4654
 6112SOL    HW129969   3.901   4.472   5.432  1.2846  0.9024  1.1793
 6112SOL    HW229970   4.002   4.584   5.412  0.1479 -0.2934  0.9214
 6113SOL     OW29971   2.643   4.582  16.654  0.6407  0.2393 -0.0259
 6113SOL    HW129972   2.668   4.597  16.563 -0.4385 -0.7060 -0.4815
 6113SOL    HW229973   2.704   4.513  16.683  0.5615  0.1217 -0.1398
 6114SOL     OW29974   3.644   1.948   8.598 -0.4794 -0.0586 -0.4380
 6114SOL    HW129975   3.616   2.015   8.535  1.0587  1.6186  0.6441
 6114SOL    HW229976   3.738   1.963   8.607 -0.6391  0.3639  0.6062
 6115SOL     OW29977   2.114   2.713   9.512  0.2267 -0.4753 -0.3119
 6115SOL    HW129978   2.204   2.736   9.535 -0.8208 -0.2345  3.6057
 6115SOL    HW229979   2.120   2.619   9.528 -2.0797 -0.1657  2.4078
 6116SOL     OW29980   2.837   4.599  11.036  0.5712  0.4688  0.3650
 6116SOL    HW129981   2.758   4.547  11.047 -0.5243  1.9519 -0.4387
 6116SOL    HW229982   2.847   4.651  11.116  0.4215 -0.5866  1.0667
 6117SOL     OW29983   4.022   0.280   3.142  0.3204  0.3277  0.4678
 6117SOL    HW129984   3.967   0.358   3.132 -1.1868 -1.1241 -2.6094
 6117SOL    HW229985   3.979   0.246   3.220 -0.7012 -1.3944 -0.8306
 6118SOL     OW29986   2.630   1.572   5.290  0.0279  0.3818 -0.3604
 6118SOL    HW129987   2.710   1.523   5.273  0.7933  1.3506  0.5071
 6118SOL    HW229988   2.557   1.510   5.293 -1.3447  1.9943 -0.5161
 6119SOL     OW29989   1.270   0.047   7.958 -0.0840 -0.2856 -0.4490
 6119SOL    HW129990   1.201   4.719   7.964 -0.2563  0.0290  0.9923
 6119SOL    HW229991   1.336   4.736   8.005  1.5692 -1.2451 -3.7678
 6120SOL     OW29992   4.270   1.528   1.072 -0.0689 -0.4111  0.3559
 6120SOL    HW129993   4.364   1.545   1.067  0.2117 -2.0580  0.0634
 6120SOL    HW229994   4.234   1.606   1.030  1.5555 -0.0351 -0.3284
 6121SOL     OW29995   3.418   1.903   8.308  0.4632 -0.4019 -0.0195
 6121SOL    HW129996   3.448   1.967   8.373  1.9286  0.2478 -1.3476
 6121SOL    HW229997   3.479   1.909   8.234  0.6680 -0.9997  0.1030
 6122SOL     OW29998   1.027   1.409   0.773  0.1294  0.5091 -0.0052
 6122SOL    HW129999   0.966   1.480   0.792 -0.0900  0.5228 -0.7624
 6122SOL    HW230000   0.984   1.344   0.718  1.2532 -0.2850  0.0509
 6123SOL     OW30001   2.772   0.366   6.027  0.4624  0.0066 -0.0439
 6123SOL    HW130002   2.839   0.346   5.961 -0.4584 -0.1304 -0.9390
 6123SOL    HW230003   2.687   0.335   5.995 -0.7057  1.5955  1.5218
 6124SOL     OW30004   0.850   3.293   4.374 -0.3674  0.7295 -0.2799
 6124SOL    HW130005   0.890   3.323   4.455  1.7513 -2.1015 -0.2839
 6124SOL    HW230006   0.757   3.309   4.390 -0.8545  0.3616 -2.6492
 6125SOL     OW30007   3.510   1.851   3.980 -0.0328  0.0341  0.4512
 6125SOL    HW130008   3.586   1.900   4.011  0.0047  0.8933 -0.9867
 6125SOL    HW230009   3.512   1.766   4.025 -2.1374 -0.6686 -0.7626
 6126SOL     OW30010   1.681   2.334  17.149 -0.0315 -0.2862  0.7803
 6126SOL    HW130011   1.605   2.391  17.161  0.5900  0.0302  3.1873
 6126SOL    HW230012   1.714   2.317  17.237  1.3430 -2.5030 -0.1733
 6127SOL     OW30013   1.483   1.290   3.581 -0.1368 -0.5635 -0.1871
 6127SOL    HW130014   1.522   1.373   3.556  0.1659 -0.4768  0.5790
 6127SOL    HW230015   1.434   1.277   3.500  0.9668  1.8060 -1.2535
 6128SOL     OW30016   4.476   0.043   3.513  0.1502  0.2605  0.4415
 6128SOL    HW130017   4.416   4.718   3.474 -2.4608  3.0705 -0.0984
 6128SOL    HW230018   4.449   0.032   3.604 -0.4894  1.2553  0.3792
 6129SOL     OW30019   2.858   4.016  10.460 -0.1457 -0.2018  0.0327
 6129SOL    HW130020   2.940   4.008  10.509  0.7686 -2.8476 -1.9142
 6129SOL    HW230021   2.836   4.108  10.468 -1.4898 -0.7847  2.9494
 6130SOL     OW30022   4.362   2.549  16.200  0.2655  0.2339  1.2399
 6130SOL    HW130023   4.347   2.472  16.143 -0.0194  1.1956  0.0073
 6130SOL    HW230024   4.408   2.516  16.277  0.2641 -2.6642  0.0200
 6131SOL     OW30025   3.003   2.747  12.786 -0.2931 -0.2428 -0.4597
 6131SOL    HW130026   2.929   2.699  12.749 -1.8670  1.5920  0.2978
 6131SOL    HW230027   2.968   2.836  12.786 -1.3956 -0.6901 -2.7924
 6132SOL     OW30028   2.303   0.478   2.152  0.2736  0.1340  0.0342
 6132SOL    HW130029   2.309   0.456   2.245 -0.3808 -1.5094 -0.3104
 6132SOL    HW230030   2.210   0.502   2.144  0.2376 -0.5942 -1.6663
 6133SOL     OW30031   1.353   0.777  16.199  0.4047  0.7013  0.5911
 6133SOL    HW130032   1.355   0.871  16.181  3.4555  0.5973  0.2956
 6133SOL    HW230033   1.277   0.772  16.256  1.1249 -1.5550  1.3772
 6134SOL     OW30034   2.647   4.394  12.832  0.0782 -1.1551 -0.0178
 6134SOL    HW130035   2.685   4.343  12.903  1.9696 -0.6820 -0.6767
 6134SOL    HW230036   2.700   4.474  12.831  0.2189 -1.2529 -1.2411
 6135SOL     OW30037   2.447   4.496  15.960  0.7215 -0.0168  0.4485
 6135SOL    HW130038   2.518   4.456  15.910  0.1789  0.9291 -1.0757
 6135SOL    HW230039   2.374   4.479  15.901  1.2107  2.3700 -0.8609
 6136SOL     OW30040   4.199   4.410   9.571 -0.2688  0.9592  0.8985
 6136SOL    HW130041   4.228   4.479   9.511 -0.0565  0.3199  0.2678
 6136SOL    HW230042   4.105   4.412   9.556  0.1053 -0.1809 -1.5760
 6137SOL     OW30043   1.801   0.942  17.145  0.0539  0.0993 -0.0084
 6137SOL    HW130044   1.709   0.957  17.166 -0.0020  0.7884 -0.7298
 6137SOL    HW230045   1.789   0.872  17.081  1.6899 -0.1740 -0.0368
 6138SOL     OW30046   4.013   2.386   9.716  0.2871 -0.1866 -0.0236
 6138SOL    HW130047   3.987   2.345   9.633 -1.2772  1.8628 -0.5445
 6138SOL    HW230048   3.962   2.466   9.709 -0.9876 -0.9174  0.8639
 6139SOL     OW30049   2.366   2.332   7.727 -0.5200 -0.0488 -0.0632
 6139SOL    HW130050   2.346   2.340   7.820  0.3921 -2.3890  0.3170
 6139SOL    HW230051   2.300   2.387   7.683 -0.2874  0.7111  0.5304
 6140SOL     OW30052   4.681   3.015   4.508  0.4705 -0.2967 -0.0430
 6140SOL    HW130053   4.677   3.090   4.447 -3.8502 -1.4051 -1.0857
 6140SOL    HW230054   4.704   2.940   4.453 -2.5483 -1.1100 -0.2083
 6141SOL     OW30055   4.279   3.111   2.743  0.4869 -0.1930  0.3883
 6141SOL    HW130056   4.201   3.145   2.699  2.4436  2.1549 -1.2021
 6141SOL    HW230057   4.281   3.164   2.823 -2.3826 -0.4714  0.6661
 6142SOL     OW30058   2.889   1.666  10.454 -0.4080  0.2390 -0.2949
 6142SOL    HW130059   2.921   1.657  10.544  1.9332  3.0003 -0.8502
 6142SOL    HW230060   2.953   1.610  10.410 -2.0854 -2.3662  0.5959
 6143SOL     OW30061   3.528   4.298   6.326  0.1602  0.2256 -0.3302
 6143SOL    HW130062   3.558   4.316   6.237  2.6853 -1.2933  0.2319
 6143SOL    HW230063   3.482   4.219   6.299 -2.7193  1.6768  0.3132
 6144SOL     OW30064   3.479   3.587  11.636  0.0301  0.3544 -0.2547
 6144SOL    HW130065   3.467   3.666  11.688 -0.6144 -0.5407  0.9470
 6144SOL    HW230066   3.425   3.614  11.561 -0.8413  0.8634  0.5573
 6145SOL     OW30067   4.246   1.494   5.122 -0.0636 -0.4945 -0.3873
 6145SOL    HW130068   4.321   1.526   5.171 -0.7703 -0.9850  1.0173
 6145SOL    HW230069   4.238   1.567   5.061 -0.5773  1.3150  1.8484
 6146SOL     OW30070   1.736   1.560   7.329 -0.2455 -0.2877 -0.1581
 6146SOL    HW130071   1.738   1.650   7.360 -2.9821 -0.0846 -0.5342
 6146SOL    HW230072   1.669   1.516   7.382  1.1465 -1.7635  0.3547
 6147SOL     OW30073   3.510   0.173  12.995  0.4484 -0.3482 -0.3776
 6147SOL    HW130074   3.553   0.258  12.994 -1.7432  0.7591  1.3482
 6147SOL    HW230075   3.424   0.196  13.030  0.8346  0.1445  0.2524
 6148SOL     OW30076   1.219   2.504   4.327  0.3641  0.2843 -0.0383
 6148SOL    HW130077   1.195   2.596   4.321 -0.9312 -0.1133 -0.8613
 6148SOL    HW230078   1.251   2.480   4.240 -0.7736 -1.2085 -0.0389
 6149SOL     OW30079   3.806   4.264  16.861 -0.2590  0.2713 -0.1871
 6149SOL    HW130080   3.739   4.270  16.793  1.3595  0.5321 -1.7714
 6149SOL    HW230081   3.854   4.185  16.836  2.1639  1.5505  0.4077
 6150SOL     OW30082   3.157   2.171   4.347 -0.2422  0.0198  0.2309
 6150SOL    HW130083   3.068   2.153   4.377 -0.1838 -1.7589 -0.6615
 6150SOL    HW230084   3.197   2.215   4.422 -1.6987  0.7917  0.5589
 6151SOL     OW30085   2.470   1.791  15.630 -0.1544  0.3738 -0.0368
 6151SOL    HW130086   2.388   1.742  15.629 -0.6073  1.1255 -0.0211
 6151SOL    HW230087   2.433   1.878  15.647  1.3542  0.7014  1.5010
 6152SOL     OW30088   4.446   1.737   2.102  0.1501 -0.3325 -0.0123
 6152SOL    HW130089   4.356   1.706   2.105 -0.5974  1.7051 -1.0258
 6152SOL    HW230090   4.457   1.787   2.183  1.9100 -1.1037  0.2097
 6153SOL     OW30091   4.274   3.669   8.146 -0.0390 -0.0023 -0.3918
 6153SOL    HW130092   4.274   3.574   8.144  1.2325 -0.0020 -0.4853
 6153SOL    HW230093   4.283   3.671   8.241  4.7214 -1.5437 -0.8286
 6154SOL     OW30094   2.371   1.723   1.989 -0.0974 -0.2696  0.5512
 6154SOL    HW130095   2.441   1.666   2.022 -0.9154 -0.3606  2.1445
 6154SOL    HW230096   2.398   1.796   2.045 -0.6251 -0.7789  1.4756
 6155SOL     OW30097   0.259   1.971   8.718 -0.2077  0.6950  0.0459
 6155SOL    HW130098   0.235   2.041   8.658 -1.9501 -0.5732 -0.7404
 6155SOL    HW230099   0.351   1.990   8.738 -0.1281 -0.1575  0.4976
 6156SOL     OW30100   0.443   3.741   8.357 -0.1530  0.3104 -0.0529
 6156SOL    HW130101   0.453   3.785   8.272 -1.4031  0.6264 -0.0414
 6156SOL    HW230102   0.531   3.734   8.393 -0.2856  0.0948  0.2300
 6157SOL     OW30103   1.122   1.049  11.408  0.2909 -0.0161  0.0760
 6157SOL    HW130104   1.160   1.086  11.488  2.4464 -1.3396 -0.3520
 6157SOL    HW230105   1.058   0.996  11.457 -0.2636 -1.1333 -1.8603
 6158SOL     OW30106   1.727   4.721  14.925 -0.1714 -0.3736 -0.2519
 6158SOL    HW130107   1.812   4.680  14.911  1.6893  3.6588 -0.8763
 6158SOL    HW230108   1.676   4.644  14.950 -1.8088  1.2809  1.4948
 6159SOL     OW30109   4.655   4.612   6.646 -0.0426 -0.3712  0.0130
 6159SOL    HW130110   4.643   4.698   6.687  0.1008 -0.4976  0.3238
 6159SOL    HW230111   0.005   4.624   6.612  0.2247 -0.4748  0.6590
 6160SOL     OW30112   0.492   3.678  16.557 -0.3909  0.3854 -0.8926
 6160SOL    HW130113   0.457   3.704  16.642  2.0998  1.5850 -0.2303
 6160SOL    HW230114   0.421   3.709  16.501 -1.9370 -0.8190  0.3572
 6161SOL     OW30115   1.881   1.104  12.199  0.2022 -0.1824 -0.8506
 6161SOL    HW130116   1.965   1.148  12.187 -0.7688  1.8623 -0.2578
 6161SOL    HW230117   1.831   1.163  12.142  0.8166 -0.2152 -1.4334
 6162SOL     OW30118   4.624   0.678   9.498  0.2887  0.5397  0.3924
 6162SOL    HW130119   4.613   0.770   9.522  0.0847  0.5743  0.1643
 6162SOL    HW230120   4.688   0.685   9.427 -1.5782 -1.1354 -1.4410
 6163SOL     OW30121   3.858   4.036   3.506 -0.0802  0.4652  0.5599
 6163SOL    HW130122   3.881   4.003   3.593  1.3386  0.5965  0.2371
 6163SOL    HW230123   3.919   3.996   3.444  0.1813  1.9482 -0.1448
 6164SOL     OW30124   2.190   3.229  17.479  0.4735 -0.3615 -0.8412
 6164SOL    HW130125   2.270   3.281  17.476 -0.6916  1.3647 -2.2209
 6164SOL    HW230126   2.188   3.190  17.566  1.0247 -0.8075 -1.0218
 6165SOL     OW30127   1.029   1.142   5.075 -0.3773  0.1283  0.1095
 6165SOL    HW130128   1.109   1.090   5.072 -0.6634 -0.1803 -1.9516
 6165SOL    HW230129   1.005   1.154   4.983  0.6580  3.7236  0.3213
 6166SOL     OW30130   3.525   3.429   2.812  0.1568  0.2113  0.1562
 6166SOL    HW130131   3.610   3.385   2.813 -0.8957 -1.7860  1.7451
 6166SOL    HW230132   3.535   3.477   2.730  1.2290  0.6991  0.5627
 6167SOL     OW30133   1.084   1.413   7.765 -0.3804  0.0570  0.1109
 6167SOL    HW130134   0.999   1.416   7.809 -0.5976  0.8122 -0.3699
 6167SOL    HW230135   1.102   1.319   7.759  0.6952  0.3947 -1.8512
 6168SOL     OW30136   3.362   3.714  11.435 -0.3867 -0.0996  0.1119
 6168SOL    HW130137   3.274   3.714  11.397 -0.5906  1.8619  0.6196
 6168SOL    HW230138   3.425   3.735  11.366 -0.1171 -1.3453 -0.0353
 6169SOL     OW30139   2.832   3.065  14.387  0.4403  0.1925 -0.3653
 6169SOL    HW130140   2.804   3.008  14.459  2.3639  2.0881  1.9002
 6169SOL    HW230141   2.901   3.005  14.358  2.2733  1.4435  1.3871
 6170SOL     OW30142   0.060   1.362  14.000 -0.3997  0.5388 -0.2065
 6170SOL    HW130143   4.706   1.345  14.014 -0.5209  1.2283 -0.1346
 6170SOL    HW230144   0.057   1.448  13.958 -0.2217 -0.0508 -1.4226
 6171SOL     OW30145   2.713   2.420  13.006  0.5447  0.1045  0.2907
 6171SOL    HW130146   2.727   2.328  12.984  0.1352  0.6401 -2.2225
 6171SOL    HW230147   2.734   2.426  13.099 -0.1398  1.1563  0.3755
 6172SOL     OW30148   3.568   2.254   9.165 -0.3837  0.1965  0.2102
 6172SOL    HW130149   3.557   2.303   9.085  1.2667  2.4708  1.3816
 6172SOL    HW230150   3.545   2.316   9.234  0.1284  0.9986 -0.3480
 6173SOL     OW30151   3.168   1.774   5.431 -0.1571  0.4045 -0.8466
 6173SOL    HW130152   3.098   1.736   5.378 -0.4058 -0.4208  0.0904
 6173SOL    HW230153   3.231   1.703   5.439  0.1951  0.5968 -1.8290
 6174SOL     OW30154   4.006   2.174   4.436 -0.2814 -0.0305  0.4640
 6174SOL    HW130155   3.987   2.158   4.528 -0.7562 -1.5538  0.0962
 6174SOL    HW230156   3.970   2.261   4.417  0.7586  0.1771 -0.5203
 6175SOL     OW30157   1.358   2.997  15.545  0.3715 -0.1862  0.8378
 6175SOL    HW130158   1.278   2.981  15.495 -0.0648 -1.6043  1.9975
 6175SOL    HW230159   1.325   3.043  15.622 -0.9418 -0.9739  0.7416
 6176SOL     OW30160   1.587   4.341   1.785  0.0881  0.1736  0.0285
 6176SOL    HW130161   1.526   4.320   1.856  1.0540  0.6427  0.9782
 6176SOL    HW230162   1.609   4.256   1.749  0.3510 -0.3858  1.5144
 6177SOL     OW30163   3.911   2.559   4.479  0.5554 -0.0862  0.0554
 6177SOL    HW130164   3.911   2.515   4.394 -2.4693 -0.6516  0.3452
 6177SOL    HW230165   3.898   2.486   4.539 -1.1055  0.3078  0.1702
 6178SOL     OW30166   0.008   0.544   7.399 -0.7395  0.1640  0.0533
 6178SOL    HW130167   4.732   0.452   7.420 -0.5851  0.6244  2.2011
 6178SOL    HW230168   4.654   0.563   7.384 -0.3214  1.1247 -1.2554
 6179SOL     OW30169   3.343   4.022  10.102  0.1936 -0.0056 -0.1621
 6179SOL    HW130170   3.427   3.977  10.091  1.3580  2.0211  0.4261
 6179SOL    HW230171   3.346   4.049  10.194 -3.1422  0.4326 -0.1596
 6180SOL     OW30172   3.211   3.239   0.934 -0.0203  0.3291 -0.4020
 6180SOL    HW130173   3.307   3.233   0.934 -0.1268 -1.7157  1.0649
 6180SOL    HW230174   3.204   3.323   0.978 -1.6093  0.9332 -1.8590
 6181SOL     OW30175   4.491   1.111   6.412 -0.3855  0.6634 -0.5702
 6181SOL    HW130176   4.484   1.176   6.482 -0.1349  0.0534  0.0257
 6181SOL    HW230177   4.586   1.100   6.410 -0.8462 -3.2324 -0.4689
 6182SOL     OW30178   2.023   0.416   6.467  0.1124 -0.1470  0.2056
 6182SOL    HW130179   2.062   0.449   6.386 -0.1030 -0.7483 -0.1434
 6182SOL    HW230180   1.935   0.404   6.431  0.1806 -0.5615  0.1679
 6183SOL     OW30181   2.300   2.504   1.233  0.6246  0.0410  0.3364
 6183SOL    HW130182   2.368   2.568   1.213  1.4483 -1.0400 -0.3418
 6183SOL    HW230183   2.221   2.555   1.218 -0.5172 -2.3391 -1.7983
 6184SOL     OW30184   1.953   4.551   9.688  0.0090  0.2197 -0.1636
 6184SOL    HW130185   1.912   4.488   9.628 -0.6319  0.7289 -0.2634
 6184SOL    HW230186   1.876   4.584   9.734  1.6292  3.3709  0.2319
 6185SOL     OW30187   4.732   3.129   1.374  0.4833  0.4992  0.0010
 6185SOL    HW130188   0.043   3.184   1.313  0.2564 -0.8165 -1.3664
 6185SOL    HW230189   0.056   3.056   1.376  2.3924  1.9970 -4.6916
 6186SOL     OW30190   1.560   2.518  16.918 -0.6985  0.3273 -0.2006
 6186SOL    HW130191   1.496   2.484  16.981 -2.5637  2.0275 -1.1791
 6186SOL    HW230192   1.572   2.449  16.852  0.2507 -0.6008  0.9353
 6187SOL     OW30193   3.196   4.430  11.300 -0.3816  0.2909 -0.0552
 6187SOL    HW130194   3.121   4.380  11.267  1.0204 -2.3303  0.7203
 6187SOL    HW230195   3.207   4.486  11.223 -0.2711 -0.3470 -0.5059
 6188SOL     OW30196   3.793   1.167   7.458 -0.0157 -0.0815 -0.3239
 6188SOL    HW130197   3.871   1.148   7.404 -0.6728 -0.1191 -1.2626
 6188SOL    HW230198   3.747   1.241   7.420 -0.6180 -2.0020 -3.3578
 6189SOL     OW30199   2.007   2.393  17.664 -0.3559  0.1513 -0.4201
 6189SOL    HW130200   2.012   2.309  17.709  0.9649  0.7507  0.5575
 6189SOL    HW230201   2.018   2.455  17.736 -0.3698  0.4957 -0.7180
 6190SOL     OW30202   4.530   2.367   7.777 -0.4737 -0.3979 -0.6847
 6190SOL    HW130203   4.506   2.446   7.826  0.2508  0.0362 -1.0352
 6190SOL    HW230204   4.489   2.301   7.833  1.0916  0.1515  1.1166
 6191SOL     OW30205   1.967   2.682   3.530  0.0312 -0.1570 -0.7903
 6191SOL    HW130206   1.878   2.705   3.559  0.3321  1.5217 -1.1623
 6191SOL    HW230207   2.003   2.771   3.521 -1.4584  0.5152 -0.1185
 6192SOL     OW30208   3.793   3.575  11.138  0.1084  0.2653 -0.4736
 6192SOL    HW130209   3.730   3.534  11.198 -2.0977 -0.3090 -3.2173
 6192SOL    HW230210   3.843   3.497  11.115  0.8925  0.6267 -0.0367
 6193SOL     OW30211   1.784   4.647   6.691  0.2663 -0.2427  0.5054
 6193SOL    HW130212   1.787   4.720   6.752  5.0646 -0.1703  0.1391
 6193SOL    HW230213   1.857   4.682   6.640  1.1511 -2.2753  0.3835
 6194SOL     OW30214   3.517   3.252   7.993 -0.2624 -0.7187  0.2613
 6194SOL    HW130215   3.529   3.158   8.004  1.4483 -0.4551  0.7581
 6194SOL    HW230216   3.476   3.277   8.076 -0.7553  0.1669 -0.2494
 6195SOL     OW30217   0.629   2.699  11.987 -0.1552 -0.0097 -0.2172
 6195SOL    HW130218   0.689   2.646  12.040 -0.0893 -0.8162 -1.0947
 6195SOL    HW230219   0.580   2.633  11.937 -0.1857  1.4259 -2.0838
 6196SOL     OW30220   1.000   0.774  17.661  0.6919  0.0618  0.5155
 6196SOL    HW130221   1.003   0.703  17.597  1.6814  0.3985  0.1952
 6196SOL    HW230222   1.080   0.748  17.706  1.6167  4.2863  1.3331
 6197SOL     OW30223   2.118   0.363   8.946  0.2899  0.5405 -0.4384
 6197SOL    HW130224   2.075   0.340   8.864  0.3081  1.4321 -0.6957
 6197SOL    HW230225   2.104   0.457   8.943  0.3450  0.6317  2.3404
 6198SOL     OW30226   3.142   2.560   4.215  0.0574 -0.0652 -0.0467
 6198SOL    HW130227   3.047   2.569   4.223  0.5115  1.3899  3.4942
 6198SOL    HW230228   3.171   2.651   4.219 -1.1240  0.3437 -0.7791
 6199SOL     OW30229   2.802   0.083   6.665 -0.3849 -0.4742  0.1104
 6199SOL    HW130230   2.742   0.060   6.736 -0.7227 -0.0098 -0.0232
 6199SOL    HW230231   2.738   0.102   6.596  1.5238 -0.1769 -1.5744
 6200SOL     OW30232   0.159   3.991   9.036  0.4547  0.2344 -0.4136
 6200SOL    HW130233   0.180   3.961   9.125  1.4481 -0.7841 -0.9948
 6200SOL    HW230234   0.122   3.912   8.997 -1.1516  0.0539  1.4592
 6201SOL     OW30235   1.130   2.813  12.061  0.3944 -0.3800 -0.8229
 6201SOL    HW130236   1.046   2.856  12.043  0.1428 -1.3278 -1.9135
 6201SOL    HW230237   1.190   2.888  12.067 -0.0518  0.0238 -1.3920
 6202SOL     OW30238   2.358   1.813   7.362  0.2859  0.0665 -0.3522
 6202SOL    HW130239   2.340   1.769   7.279  0.7386 -1.9211  0.6141
 6202SOL    HW230240   2.279   1.790   7.411  0.3227 -0.5902 -0.6026
 6203SOL     OW30241   2.184   2.342  15.646 -0.6615  0.0543  0.3620
 6203SOL    HW130242   2.133   2.283  15.701  0.4436 -1.2405 -0.0014
 6203SOL    HW230243   2.139   2.426  15.662  0.8777  1.3941 -2.3666
 6204SOL     OW30244   0.074   1.483   6.093  0.3264 -0.1950  0.3512
 6204SOL    HW130245   0.087   1.578   6.084 -0.4116 -0.2970 -1.8529
 6204SOL    HW230246   0.157   1.458   6.133  0.4606  1.0686  0.8672
 6205SOL     OW30247   4.086   1.963   7.517  0.5129 -0.0819  0.3352
 6205SOL    HW130248   4.103   1.982   7.424 -1.0297  0.1046  0.0885
 6205SOL    HW230249   3.992   1.948   7.516  0.5181 -0.0879 -0.1258
 6206SOL     OW30250   2.901   0.359   2.944 -0.0211  0.0558 -0.0811
 6206SOL    HW130251   2.822   0.410   2.963  2.1478  4.0093 -1.6844
 6206SOL    HW230252   2.971   0.422   2.963  0.7280 -0.6463 -0.5292
 6207SOL     OW30253   0.445   0.602   2.676  0.2626  0.3491  0.2943
 6207SOL    HW130254   0.402   0.636   2.598 -0.2639 -1.7041 -0.3083
 6207SOL    HW230255   0.383   0.547   2.724 -0.5093 -1.5081 -2.8529
 6208SOL     OW30256   2.131   0.925   2.460 -0.4713  0.0183 -0.1328
 6208SOL    HW130257   2.128   0.923   2.364  4.2847  0.5178 -0.3052
 6208SOL    HW230258   2.126   1.018   2.480  0.0730 -0.1242  0.6496
 6209SOL     OW30259   2.341   2.332   5.749 -0.0955 -0.4821  0.0163
 6209SOL    HW130260   2.349   2.368   5.837  2.5466  2.4587 -1.4522
 6209SOL    HW230261   2.305   2.406   5.700  1.4392 -0.0717 -0.4903
 6210SOL     OW30262   1.451   3.468  16.549  0.4898 -0.3140 -0.7102
 6210SOL    HW130263   1.515   3.400  16.528 -0.8667 -1.8850  0.3326
 6210SOL    HW230264   1.508   3.538  16.580  0.1496 -1.2556  1.9603
 6211SOL     OW30265   0.779   4.062   9.756  0.6965 -0.0640 -0.2729
 6211SOL    HW130266   0.717   4.102   9.695  0.1269 -0.1626  0.2398
 6211SOL    HW230267   0.717   4.020   9.815  0.7177  1.0093  0.5097
 6212SOL     OW30268   3.305   4.695   6.139 -0.1314  0.6942 -0.3928
 6212SOL    HW130269   3.237   0.009   6.096 -1.7444 -2.6424 -1.9329
 6212SOL    HW230270   3.252   4.622   6.168  0.7544  0.4713  0.6647
 6213SOL     OW30271   0.666   0.780   7.921  1.0906  0.0218  0.2758
 6213SOL    HW130272   0.750   0.787   7.876  0.2525  0.4065 -1.2409
 6213SOL    HW230273   0.659   0.862   7.970  3.1112  0.2485  0.1585
 6214SOL     OW30274   2.025   0.503   0.530  0.1585 -0.0794  0.1813
 6214SOL    HW130275   2.032   0.598   0.516  3.0691 -0.2454  0.4928
 6214SOL    HW230276   1.984   0.492   0.616  1.5031 -1.4559  0.6428
 6215SOL     OW30277   0.484   2.552   3.556  0.0458  0.5348  0.1507
 6215SOL    HW130278   0.457   2.638   3.589 -1.2519  0.0389  0.3496
 6215SOL    HW230279   0.475   2.565   3.462 -0.0932 -1.9128 -0.1670
 6216SOL     OW30280   1.259   2.353   2.775  0.3886 -0.2313 -0.3172
 6216SOL    HW130281   1.327   2.420   2.765  0.3249  0.1039  1.5331
 6216SOL    HW230282   1.180   2.405   2.763  0.4379 -0.5327 -2.0478
 6217SOL     OW30283   3.707   4.483   2.804  0.3793  0.3987  0.1393
 6217SOL    HW130284   3.648   4.557   2.811  0.5838  0.7122 -1.4320
 6217SOL    HW230285   3.755   4.473   2.886  2.0667 -0.3958 -0.9272
 6218SOL     OW30286   4.669   3.289  17.568  0.0358 -0.3064 -0.3737
 6218SOL    HW130287   4.616   3.232  17.624  0.1003 -0.9941 -0.9980
 6218SOL    HW230288   0.019   3.265  17.599 -0.0512  0.0023  0.1050
 6219SOL     OW30289   0.535   2.785   0.181  0.0715 -0.4619  0.0101
 6219SOL    HW130290   0.594   2.795   0.256 -1.3397 -1.7736  1.3068
 6219SOL    HW230291   0.492   2.870   0.176 -0.5472 -0.5930  3.0601
 6220SOL     OW30292   0.568   3.134   6.654  0.2665 -0.0300  0.2296
 6220SOL    HW130293   0.567   3.108   6.562 -3.0907  0.9220  0.0080
 6220SOL    HW230294   0.660   3.158   6.671  0.1898 -0.9810  1.9779
 6221SOL     OW30295   3.349   4.324   4.948 -0.1687 -0.5542 -0.9239
 6221SOL    HW130296   3.377   4.411   4.975  0.5534 -2.2044  3.5582
 6221SOL    HW230297   3.300   4.300   5.027  0.6520  0.6373 -0.0656
 6222SOL     OW30298   1.487   1.287   9.074  0.2946  0.1350 -0.3633
 6222SOL    HW130299   1.550   1.349   9.036 -0.9179  1.1221 -0.7810
 6222SOL    HW230300   1.458   1.346   9.144 -0.1146 -0.9449  0.3702
 6223SOL     OW30301   0.693   2.506  13.918 -0.0570 -0.2018 -0.1184
 6223SOL    HW130302   0.742   2.588  13.917 -0.1942 -0.1235 -0.3368
 6223SOL    HW230303   0.610   2.525  13.962 -0.2016  1.5697 -1.1621
 6224SOL     OW30304   2.854   2.076  10.140 -0.2434  0.1939  0.2955
 6224SOL    HW130305   2.899   2.011  10.193  0.1290  0.9821  0.9356
 6224SOL    HW230306   2.774   2.026  10.124 -0.2858 -0.4571  2.5629
 6225SOL     OW30307   4.230   4.067   3.009 -0.1693  0.2878 -0.0823
 6225SOL    HW130308   4.160   4.025   3.059  1.0935 -0.4957  1.0607
 6225SOL    HW230309   4.276   4.115   3.079 -0.6729  1.9743 -0.9118
 6226SOL     OW30310   3.106   1.845   0.306 -0.2168 -0.2243 -0.6566
 6226SOL    HW130311   3.185   1.803   0.271  0.7603 -0.4255  1.7772
 6226SOL    HW230312   3.078   1.776   0.366 -0.0029 -0.1472 -0.4711
 6227SOL     OW30313   0.269   1.832   8.964 -0.0303  0.1581 -0.1331
 6227SOL    HW130314   0.198   1.880   9.007 -0.6541 -0.3554 -0.5817
 6227SOL    HW230315   0.277   1.861   8.873  0.9107  2.4530  0.6923
 6228SOL     OW30316   1.746   4.061  13.610 -0.1418 -0.4117 -0.1129
 6228SOL    HW130317   1.825   4.040  13.660 -1.1146  1.2712  2.1557
 6228SOL    HW230318   1.699   3.979  13.600 -0.6418 -0.1074 -0.2781
 6229SOL     OW30319   4.042   3.142   6.759 -0.6171  0.2457 -0.3837
 6229SOL    HW130320   4.119   3.198   6.756 -0.7225  0.5311  2.4740
 6229SOL    HW230321   3.998   3.154   6.674 -3.8293  0.3642  1.2863
 6230SOL     OW30322   1.694   4.432   0.682  0.3521  0.2643  0.1461
 6230SOL    HW130323   1.767   4.475   0.636  1.7232  1.5887  3.5438
 6230SOL    HW230324   1.651   4.369   0.625  0.8317 -1.1514  1.3314
 6231SOL     OW30325   1.322   4.731  10.126 -0.2946  0.0701 -0.5676
 6231SOL    HW130326   1.231   0.021  10.121 -0.7302 -1.3600 -0.9042
 6231SOL    HW230327   1.331   4.736  10.221 -1.0173 -1.1398 -0.4361
 6232SOL     OW30328   2.435   1.390   2.692  0.3354 -0.3795 -0.4486
 6232SOL    HW130329   2.469   1.309   2.731 -1.7452 -0.9102  0.2857
 6232SOL    HW230330   2.511   1.447   2.681 -0.2209  0.4202 -0.1514
 6233SOL     OW30331   0.511   2.756  12.273 -0.6574 -0.1063 -0.6048
 6233SOL    HW130332   0.592   2.802  12.294  1.2726 -2.9375 -1.8911
 6233SOL    HW230333   0.537   2.731  12.184 -0.8670 -2.4162 -0.0174
 6234SOL     OW30334   3.267   0.183   3.116 -0.3900 -0.4008  0.0298
 6234SOL    HW130335   3.280   0.223   3.030  1.0431 -1.4412 -0.2248
 6234SOL    HW230336   3.350   0.151   3.150 -0.5114  0.5630  1.2734
 6235SOL     OW30337   1.426   0.056   2.597  0.6880  0.0566  0.0150
 6235SOL    HW130338   1.412   4.705   2.627  1.5106 -0.1384 -0.1688
 6235SOL    HW230339   1.436   0.096   2.684 -1.8718  1.1257 -0.1845
 6236SOL     OW30340   2.437   3.326   2.460 -0.5032 -0.2402 -0.4573
 6236SOL    HW130341   2.522   3.283   2.448  0.0826  0.3547  1.4868
 6236SOL    HW230342   2.426   3.300   2.552  0.9643  0.1714 -0.1715
 6237SOL     OW30343   2.007   4.539   5.509 -0.0305  0.1619  0.2725
 6237SOL    HW130344   2.046   4.462   5.467 -0.8433  0.0010 -0.1962
 6237SOL    HW230345   2.046   4.530   5.596  0.7810  2.6488  0.1678
 6238SOL     OW30346   0.931   0.914   5.336  0.2089 -0.0244 -0.5648
 6238SOL    HW130347   0.953   0.982   5.400 -1.6852 -2.0296  2.2463
 6238SOL    HW230348   0.835   0.909   5.345  0.2170  1.8972  0.6430
 6239SOL     OW30349   4.362   4.168   4.826  0.3027 -0.2198 -0.5092
 6239SOL    HW130350   4.402   4.174   4.739 -0.4148  1.2767 -0.7394
 6239SOL    HW230351   4.438   4.123   4.863 -0.2862 -0.4751  0.3845
 6240SOL     OW30352   4.725   0.234   5.333  0.4554  0.0763  0.4184
 6240SOL    HW130353   4.638   0.237   5.372 -0.6284  1.5250 -2.0658
 6240SOL    HW230354   0.010   0.141   5.330  0.6227  0.1416 -0.3175
 6241SOL     OW30355   1.254   0.365   7.650  0.1957  0.3341 -0.0735
 6241SOL    HW130356   1.311   0.293   7.624  0.8138  0.8640 -0.2086
 6241SOL    HW230357   1.230   0.340   7.739  0.5927 -0.9479 -0.3314
 6242SOL     OW30358   1.407   0.619   4.690 -0.3106 -0.0505 -0.3271
 6242SOL    HW130359   1.354   0.639   4.612 -3.9004 -1.6681  1.6695
 6242SOL    HW230360   1.341   0.575   4.743  1.9020 -0.5705  1.9347
 6243SOL     OW30361   1.515   0.977  17.309 -0.6722  0.3419 -0.0913
 6243SOL    HW130362   1.437   0.980  17.365 -0.9191  1.8136 -0.5321
 6243SOL    HW230363   1.482   1.015  17.228 -1.4295  0.2169  0.1606
 6244SOL     OW30364   2.481   0.266  11.447  0.0398 -0.1909 -0.6058
 6244SOL    HW130365   2.455   0.175  11.461  0.0382  0.0065  0.7038
 6244SOL    HW230366   2.504   0.261  11.354  0.6660 -1.2185 -0.4007
 6245SOL     OW30367   0.084   4.736   6.338  0.2397 -0.1220 -0.1277
 6245SOL    HW130368   0.112   4.683   6.412 -1.2763  0.9965  1.2364
 6245SOL    HW230369   0.059   0.072   6.392  0.0069 -0.5477  0.3482
 6246SOL     OW30370   2.930   3.744   0.184 -0.2030  0.5800  0.9765
 6246SOL    HW130371   3.021   3.717   0.188 -0.9731 -2.0675  0.6976
 6246SOL    HW230372   2.921   3.711   0.095  0.1445  0.3661  1.0222
 6247SOL     OW30373   1.171   0.532   6.611 -0.1641 -0.3040 -0.4895
 6247SOL    HW130374   1.113   0.537   6.535  1.5550 -0.6380 -1.8249
 6247SOL    HW230375   1.208   0.619   6.626  0.0847 -0.7081  1.2350
 6248SOL     OW30376   2.062   1.078   4.023 -0.5140 -0.2781 -0.1643
 6248SOL    HW130377   2.020   1.066   4.108 -1.8507  0.6496 -0.6967
 6248SOL    HW230378   2.043   1.169   4.002 -0.5844 -0.2313  0.1017
 6249SOL     OW30379   3.081   4.176   6.840 -0.3321  0.0855 -0.1083
 6249SOL    HW130380   3.137   4.109   6.879 -0.8578 -0.8503 -0.9672
 6249SOL    HW230381   3.136   4.254   6.845  0.1227 -0.4148  2.5072
 6250SOL     OW30382   2.312   2.983   0.533 -0.0859 -0.2759 -0.2245
 6250SOL    HW130383   2.286   2.942   0.451 -0.9893  0.7864 -0.4700
 6250SOL    HW230384   2.408   2.981   0.531 -0.1353 -1.6908 -0.8578
 6251SOL     OW30385   2.258   3.178   3.539  0.1182 -0.8008  0.3876
 6251SOL    HW130386   2.164   3.177   3.522  0.4350 -1.4934 -1.2714
 6251SOL    HW230387   2.246   3.119   3.613  0.3845 -0.7724  0.4520
 6252SOL     OW30388   1.156   3.439   8.336 -0.5837  0.0734  0.3245
 6252SOL    HW130389   1.155   3.509   8.401 -1.0664  0.0361  0.3569
 6252SOL    HW230390   1.206   3.370   8.381 -2.4745 -0.8117  1.0384
 6253SOL     OW30391   3.019   1.438   6.068 -0.2892  0.1156  0.2855
 6253SOL    HW130392   2.929   1.417   6.093  0.1421  2.5485  3.7946
 6253SOL    HW230393   3.072   1.391   6.132  0.2294  1.3631  0.7679
 6254SOL     OW30394   0.483   4.697   9.892  0.2848  0.2848  0.0495
 6254SOL    HW130395   0.572   4.727   9.875  1.3821 -2.0531  1.6396
 6254SOL    HW230396   0.429   0.006   9.829 -1.7127  0.1459  1.6725
 6255SOL     OW30397   1.315   3.999   8.729 -0.1833  0.0105 -0.6973
 6255SOL    HW130398   1.236   4.004   8.676 -1.0374 -1.9224  0.4433
 6255SOL    HW230399   1.295   3.947   8.807 -0.5713 -0.0151 -0.8180
 6256SOL     OW30400   2.718   2.860   6.548 -0.0484 -0.2371  0.3881
 6256SOL    HW130401   2.738   2.952   6.564  0.5409  0.0633 -2.0407
 6256SOL    HW230402   2.642   2.852   6.605 -0.4364  0.6564 -0.0156
 6257SOL     OW30403   4.231   1.671   9.552 -0.2223 -0.1859 -0.0151
 6257SOL    HW130404   4.220   1.702   9.462 -2.1593 -0.8414 -0.0241
 6257SOL    HW230405   4.326   1.663   9.554 -0.1423  0.4698 -1.1870
 6258SOL     OW30406   3.578   3.468   4.146 -0.2062 -0.1971 -0.1408
 6258SOL    HW130407   3.551   3.560   4.141 -1.4374 -0.4672  1.7191
 6258SOL    HW230408   3.659   3.456   4.095  0.4486  0.9461  0.6109
 6259SOL     OW30409   0.974   2.684   3.113  0.5507 -0.0417 -0.2144
 6259SOL    HW130410   0.917   2.612   3.141 -1.2378  0.5062 -2.4494
 6259SOL    HW230411   0.996   2.650   3.026 -0.9741 -1.0129 -0.2117
 6260SOL     OW30412   3.842   4.430   7.592  0.2393  0.2123 -0.7953
 6260SOL    HW130413   3.930   4.410   7.624  0.3367 -2.0480 -2.5385
 6260SOL    HW230414   3.824   4.481   7.671  2.2927  0.5299 -0.5190
 6261SOL     OW30415   1.806   1.718  13.034  0.2225  0.1734 -0.8328
 6261SOL    HW130416   1.808   1.636  12.984 -1.7797 -1.4517  1.7791
 6261SOL    HW230417   1.835   1.683  13.118  0.4216 -0.9242 -1.3492
 6262SOL     OW30418   4.285   0.678   4.966 -0.2406 -0.6403  0.3525
 6262SOL    HW130419   4.374   0.709   4.982 -0.7681  0.0619  1.9028
 6262SOL    HW230420   4.310   0.595   4.925  3.4404  0.7275 -0.1504
 6263SOL     OW30421   2.321   0.025   6.943 -0.7584 -0.8494  0.6163
 6263SOL    HW130422   2.360   0.112   6.938  1.2058 -1.6692  1.5993
 6263SOL    HW230423   2.294   0.009   6.853 -0.8109 -1.0284  0.6627
 6264SOL     OW30424   4.183   0.741   7.582  0.2232 -0.2965  0.1463
 6264SOL    HW130425   4.176   0.726   7.487 -0.9356 -3.1647  0.6894
 6264SOL    HW230426   4.092   0.767   7.595 -0.3617 -0.8971 -2.5798
 6265SOL     OW30427   4.285   0.221   4.764 -0.5737  0.1564  0.2814
 6265SOL    HW130428   4.363   0.166   4.763  0.4138  1.5691  0.0846
 6265SOL    HW230429   4.244   0.207   4.678 -1.2830  0.1296  0.6215
 6266SOL     OW30430   0.568   1.152   8.167  0.2984  0.0297  0.0490
 6266SOL    HW130431   0.605   1.181   8.250  1.6639  1.2384 -0.9937
 6266SOL    HW230432   0.649   1.113   8.135  0.8785  0.4451  1.0275
 6267SOL     OW30433   2.637   2.082   6.829  0.0878 -0.4675  0.2917
 6267SOL    HW130434   2.603   2.108   6.914 -0.1166 -0.7327  0.2909
 6267SOL    HW230435   2.559   2.054   6.780 -0.1739 -0.6025  0.7916
 6268SOL     OW30436   1.263   0.850   1.903 -0.1989 -0.2305  0.4282
 6268SOL    HW130437   1.218   0.908   1.965  1.1286  1.8545 -0.5431
 6268SOL    HW230438   1.339   0.904   1.881 -1.3122  0.6863 -1.1274
 6269SOL     OW30439   1.918   2.385   8.566 -0.6128 -0.3227  0.6828
 6269SOL    HW130440   1.923   2.305   8.619  1.8888 -0.4943  0.1936
 6269SOL    HW230441   1.913   2.358   8.474  1.8295  3.5096 -0.5517
 6270SOL     OW30442   0.925   2.503   7.289  0.8998  0.0447 -0.8957
 6270SOL    HW130443   0.932   2.449   7.211 -2.8889  0.1902 -1.3525
 6270SOL    HW230444   0.998   2.473   7.342  0.5392 -0.7093 -0.8271
 6271SOL     OW30445   3.850   1.305   7.714 -0.0235  0.3145  0.4885
 6271SOL    HW130446   3.779   1.362   7.685  1.5562  1.8914 -0.2207
 6271SOL    HW230447   3.829   1.233   7.654  0.5346  0.1767  0.4579
 6272SOL     OW30448   1.346   2.307   5.504 -0.4614  0.1616  0.2921
 6272SOL    HW130449   1.385   2.279   5.587 -1.8467 -0.2929  0.7912
 6272SOL    HW230450   1.318   2.222   5.469 -4.4147  1.6666 -0.2731
 6273SOL     OW30451   2.831   3.121   4.977 -0.5624 -0.2143  0.2368
 6273SOL    HW130452   2.767   3.192   4.984  0.2837  0.6642 -0.9138
 6273SOL    HW230453   2.757   3.065   4.954 -0.3155 -0.3916 -0.1234
 6274SOL     OW30454   0.013   2.722   9.688  0.4482 -0.8099  0.3894
 6274SOL    HW130455   0.071   2.748   9.617 -0.3018 -1.1800 -0.3671
 6274SOL    HW230456   0.041   2.777   9.762  0.2826  0.6219 -0.6222
 6275SOL     OW30457   0.284   0.128   3.979 -0.1070  0.0723 -0.3642
 6275SOL    HW130458   0.341   0.067   4.026 -0.1563  0.5908  0.3640
 6275SOL    HW230459   0.200   0.087   3.997 -0.2225  0.9037  0.9310
 6276SOL     OW30460   3.826   2.883   4.364 -0.4052  0.1174  0.9143
 6276SOL    HW130461   3.804   2.974   4.344  0.6805  0.1476 -0.1363
 6276SOL    HW230462   3.802   2.843   4.280  2.8187  0.5112 -0.1713
 6277SOL     OW30463   2.957   2.828   7.349  0.0200  0.2694 -0.3480
 6277SOL    HW130464   3.005   2.780   7.417 -0.5603 -0.0902 -0.1822
 6277SOL    HW230465   2.977   2.920   7.361  3.6513 -0.7135  1.1128
 6278SOL     OW30466   2.255   2.330   8.286 -0.2964 -0.4550 -0.4922
 6278SOL    HW130467   2.265   2.422   8.309  1.0299 -0.1592 -2.2883
 6278SOL    HW230468   2.297   2.295   8.364 -0.5884 -0.1529 -0.1977
 6279SOL     OW30469   1.730   1.797   7.480  0.3573  0.4583 -0.0751
 6279SOL    HW130470   1.775   1.778   7.562  0.1505  2.1608  0.4350
 6279SOL    HW230471   1.642   1.816   7.514 -0.9282 -0.6702 -2.8026
 6280SOL     OW30472   1.924   0.383   7.963  0.2174  0.0120 -0.0726
 6280SOL    HW130473   1.970   0.439   7.900  2.1062 -0.0884  1.2102
 6280SOL    HW230474   1.911   0.447   8.033 -0.2743 -0.5031  0.3004
 6281SOL     OW30475   0.561   4.603   2.869 -0.1189 -0.3197  1.0330
 6281SOL    HW130476   0.594   4.684   2.831 -1.7194  0.4060  1.2116
 6281SOL    HW230477   0.588   4.542   2.800 -0.4388  1.2114 -0.4389
 6282SOL     OW30478   1.340   0.142   1.712  0.8205  0.2185 -0.3663
 6282SOL    HW130479   1.421   0.194   1.713  1.2175 -0.4032  0.1406
 6282SOL    HW230480   1.371   0.054   1.732 -0.8140 -0.3892 -0.5447
 6283SOL     OW30481   2.440   3.181   4.097 -0.4435 -0.4404 -0.2808
 6283SOL    HW130482   2.516   3.181   4.038  0.5258 -2.0708  0.9418
 6283SOL    HW230483   2.439   3.087   4.117  0.1508 -0.4186 -0.1436
 6284SOL     OW30484   1.209   2.655   6.928 -0.1202  0.4242  0.6407
 6284SOL    HW130485   1.149   2.678   6.999 -0.5830 -0.5217  0.5568
 6284SOL    HW230486   1.169   2.574   6.896  0.5238  0.0277  0.8314
 6285SOL     OW30487   4.547   3.150   1.179 -1.0249 -0.2695 -0.3023
 6285SOL    HW130488   4.485   3.078   1.192  0.4559 -1.3945  0.4744
 6285SOL    HW230489   4.627   3.110   1.213  0.3993  3.2128  0.3646
 6286SOL     OW30490   4.509   0.369   8.260  0.1677  0.1803 -0.1590
 6286SOL    HW130491   4.548   0.361   8.173  1.9525 -1.9880  0.8184
 6286SOL    HW230492   4.448   0.295   8.263 -0.7641  1.0224  1.6010
 6287SOL     OW30493   0.263   2.659  12.325 -0.1816 -0.1051  0.3689
 6287SOL    HW130494   0.269   2.615  12.240  0.5746 -0.2852  0.5145
 6287SOL    HW230495   0.344   2.711  12.320 -0.0255 -0.2239  1.6486
 6288SOL     OW30496   3.016   0.306  10.559  0.1463 -0.0762 -1.0524
 6288SOL    HW130497   2.937   0.252  10.554 -0.7108  1.0207  0.9246
 6288SOL    HW230498   2.987   0.385  10.514  0.0068 -0.3797 -1.4997
 6289SOL     OW30499   3.437   4.249   2.076  0.1367 -0.4570 -0.2554
 6289SOL    HW130500   3.434   4.192   2.152 -0.8468  2.1511  1.6802
 6289SOL    HW230501   3.347   4.282   2.080  0.1699 -0.3472 -0.3832
 6290SOL     OW30502   2.349   1.903   1.487  0.4589 -0.3600 -0.7110
 6290SOL    HW130503   2.428   1.930   1.533 -0.1700  1.4931 -0.6976
 6290SOL    HW230504   2.301   1.980   1.456 -1.5401  0.3042  4.0964
 6291SOL     OW30505   4.247   2.244   9.794 -0.3601 -0.2586 -0.5438
 6291SOL    HW130506   4.167   2.293   9.774  0.5602  1.5975  0.3236
 6291SOL    HW230507   4.267   2.262   9.885  1.4512  0.1484 -1.0219
 6292SOL     OW30508   2.159   2.968   1.716  0.2229  0.0981  0.3960
 6292SOL    HW130509   2.147   2.882   1.755  0.1681 -1.0422 -2.1940
 6292SOL    HW230510   2.236   2.954   1.662 -2.1249 -2.6663 -2.1753
 6293SOL     OW30511   3.719   4.280   9.558 -0.1677 -0.1991  0.4272
 6293SOL    HW130512   3.799   4.316   9.596  0.2034 -1.1262  0.5093
 6293SOL    HW230513   3.661   4.357   9.557 -0.1316 -0.1262  2.8219
 6294SOL     OW30514   4.622   3.064   7.744 -0.0046  0.1798  0.3671
 6294SOL    HW130515   4.561   3.135   7.764  0.7317  1.1388 -0.8426
 6294SOL    HW230516   4.621   3.073   7.649  0.2929  1.7889  0.5259
 6295SOL     OW30517   2.096   1.069  10.280 -0.0286  0.2734  0.5471
 6295SOL    HW130518   2.011   1.046  10.317 -0.0709  0.4114  0.5357
 6295SOL    HW230519   2.142   0.986  10.296  0.4911  0.6072  0.7903
 6296SOL     OW30520   2.674   2.419   3.794 -0.4004  0.8109  0.1895
 6296SOL    HW130521   2.743   2.413   3.859 -0.0535  4.3087  0.1851
 6296SOL    HW230522   2.722   2.412   3.711 -0.3100 -0.2270  0.3343
 6297SOL     OW30523   2.561   4.165   9.481 -0.1272  0.7548 -0.3925
 6297SOL    HW130524   2.471   4.159   9.512 -0.8717  1.4592 -2.4140
 6297SOL    HW230525   2.601   4.188   9.565  0.3756 -0.9819 -0.1533
 6298SOL     OW30526   3.914   4.389   1.246 -0.2577 -0.3760  0.2473
 6298SOL    HW130527   3.835   4.420   1.200 -0.3723 -1.4913 -0.3178
 6298SOL    HW230528   3.958   4.336   1.181 -0.5047 -2.5589  1.8633
 6299SOL     OW30529   3.175   0.128   8.523  0.1105 -0.5843 -0.2642
 6299SOL    HW130530   3.142   0.214   8.550  0.8259 -0.8276  1.4071
 6299SOL    HW230531   3.259   0.109   8.564 -0.6349  1.6560  2.3085
 6300SOL     OW30532   1.699   1.587   6.605 -0.1012  0.2875 -0.0366
 6300SOL    HW130533   1.664   1.635   6.680  0.2234 -0.2241  0.4409
 6300SOL    HW230534   1.788   1.576   6.638  0.3320  0.1631 -1.2531
 6301SOL     OW30535   0.030   1.773   3.420  0.0509 -0.4253 -0.5090
 6301SOL    HW130536   0.074   1.845   3.465 -0.5037 -0.0728 -0.5384
 6301SOL    HW230537   0.019   1.709   3.490 -1.3355  0.5433  0.1418
 6302SOL     OW30538   4.444   1.144   2.188  0.1437  0.1895  0.3111
 6302SOL    HW130539   4.493   1.096   2.255 -0.1073  1.0158  1.0745
 6302SOL    HW230540   4.427   1.079   2.120 -1.5238 -1.3654  2.2384
 6303SOL     OW30541   0.949   1.636  13.175 -0.0894  0.1920 -0.4408
 6303SOL    HW130542   0.989   1.626  13.089 -0.4667  2.5510 -0.8906
 6303SOL    HW230543   1.019   1.680  13.222 -0.0822  0.1321 -0.3949
 6304SOL     OW30544   4.655   0.276   7.457 -0.2505 -0.4766 -0.5048
 6304SOL    HW130545   4.655   0.181   7.453  0.2856 -0.5157  0.3973
 6304SOL    HW230546   4.570   0.288   7.499 -0.2340  2.3185 -1.2235
 6305SOL     OW30547   2.130   4.448   5.748 -0.2996  1.0965  0.4739
 6305SOL    HW130548   2.079   4.465   5.827  0.8618 -0.1227  1.4771
 6305SOL    HW230549   2.203   4.508   5.761  0.5803  0.1245 -0.0435
 6306SOL     OW30550   2.904   1.999   5.348  0.1064 -0.6280  0.6494
 6306SOL    HW130551   2.898   1.918   5.298 -0.1486 -1.1022  1.4534
 6306SOL    HW230552   2.818   2.042   5.342 -0.0130 -0.9324  0.1417
 6307SOL     OW30553   3.625   4.632   7.149  0.5693  0.1757 -0.0627
 6307SOL    HW130554   3.685   4.596   7.214  0.4816  2.1218  1.0865
 6307SOL    HW230555   3.632   4.568   7.078 -0.1262  0.0599 -0.0291
 6308SOL     OW30556   2.749   3.671   1.320  0.2908 -0.4162  0.0291
 6308SOL    HW130557   2.687   3.719   1.266  1.2964 -0.7013 -1.4063
 6308SOL    HW230558   2.832   3.694   1.278 -0.4519 -0.0083 -1.2166
 6309SOL     OW30559   4.702   3.636   2.002  0.2531  0.0876 -0.0262
 6309SOL    HW130560   0.020   3.594   1.937  1.0911 -0.6500  1.1728
 6309SOL    HW230561   0.025   3.688   2.054 -0.3912 -0.3204  1.1457
 6310SOL     OW30562   2.205   0.393   2.421 -0.3980 -0.0868 -0.1824
 6310SOL    HW130563   2.287   0.342   2.416  0.4465  1.3639 -0.9299
 6310SOL    HW230564   2.147   0.322   2.393  1.0072 -1.3920  0.2038
 6311SOL     OW30565   1.436   3.743   8.491 -0.1515 -0.1678 -0.0461
 6311SOL    HW130566   1.509   3.702   8.445  1.3220  1.4414  0.8712
 6311SOL    HW230567   1.468   3.825   8.529  2.0942 -1.0049 -0.1820
 6312SOL     OW30568   2.160   4.260   8.723 -0.5219  0.6229  0.0325
 6312SOL    HW130569   2.182   4.183   8.776 -0.3088  0.0472 -0.8893
 6312SOL    HW230570   2.068   4.270   8.749 -0.2989 -1.2504  1.5011
 6313SOL     OW30571   0.913   1.418  11.069  0.2302  0.0274 -0.7732
 6313SOL    HW130572   0.992   1.447  11.113 -0.2519  0.4470 -0.1900
 6313SOL    HW230573   0.837   1.451  11.116 -1.0615 -1.3482 -1.8766
 6314SOL     OW30574   0.479   2.922   6.826  0.3525  0.5115  0.5345
 6314SOL    HW130575   0.443   2.943   6.912  0.1310  1.2940  0.2526
 6314SOL    HW230576   0.483   3.010   6.787 -0.4335  0.8385  1.1833
 6315SOL     OW30577   3.900   2.773   8.809 -0.4113  0.2366  0.0771
 6315SOL    HW130578   3.847   2.697   8.785 -0.7055  0.6816 -0.6979
 6315SOL    HW230579   3.987   2.739   8.828  0.5847  0.9140 -3.3176
 6316SOL     OW30580   4.467   1.149   3.803  0.1014 -0.0889 -0.1888
 6316SOL    HW130581   4.399   1.191   3.856  0.7098  2.1964 -1.2468
 6316SOL    HW230582   4.478   1.063   3.843  0.8345  0.3867  0.6292
 6317SOL     OW30583   2.171   0.955   6.542 -0.1333 -0.1286 -0.1965
 6317SOL    HW130584   2.224   0.993   6.472 -2.1853  0.8971 -1.1932
 6317SOL    HW230585   2.242   0.916   6.593  1.2132  0.5711 -1.5336
 6318SOL     OW30586   3.689   0.027   7.603 -0.3018 -0.1979  0.4733
 6318SOL    HW130587   3.730   4.708   7.667 -0.4662 -1.1894 -0.3030
 6318SOL    HW230588   3.600   4.731   7.611 -0.5756  0.2460 -0.7199
 6319SOL     OW30589   3.891   3.077   7.780 -0.0836  0.5258  0.3182
 6319SOL    HW130590   3.985   3.060   7.788  0.1011  1.2902 -0.3258
 6319SOL    HW230591   3.889   3.172   7.771 -2.6347  0.2829 -1.7675
 6320SOL     OW30592   0.065   1.900   8.199  0.2354  0.6123 -0.1438
 6320SOL    HW130593   0.075   1.893   8.294 -1.6139 -2.0580 -0.1645
 6320SOL    HW230594   0.019   1.982   8.180 -1.0505 -0.1792 -0.4254
 6321SOL     OW30595   4.581   3.291   6.137  0.4367  0.0642 -0.2317
 6321SOL    HW130596   4.508   3.235   6.162 -1.1113  2.0534 -0.2899
 6321SOL    HW230597   4.530   3.366   6.106  0.8242  0.1858 -0.5726
 6322SOL     OW30598   1.988   2.476  11.685  0.3565 -0.3162 -0.1783
 6322SOL    HW130599   2.052   2.528  11.733 -0.9950  1.4494 -0.3005
 6322SOL    HW230600   1.989   2.516  11.598 -1.3525  1.8527  0.7798
 6323SOL     OW30601   0.156   3.767   6.064 -0.0897 -0.0624 -0.4199
 6323SOL    HW130602   0.249   3.755   6.041 -0.0880  2.3152 -1.6167
 6323SOL    HW230603   0.166   3.766   6.159 -0.4747  2.4504 -0.3645
 6324SOL     OW30604   1.717   2.509  11.890  0.0335 -0.1905  0.9513
 6324SOL    HW130605   1.645   2.572  11.902  0.8980  0.9314  0.2819
 6324SOL    HW230606   1.769   2.569  11.836 -2.5788  0.6877 -0.5929
 6325SOL     OW30607   3.087   3.179  12.209 -0.0490 -0.5480  0.2826
 6325SOL    HW130608   3.115   3.097  12.251  1.9111 -1.3621 -2.6186
 6325SOL    HW230609   3.167   3.213  12.170  0.1708 -1.1436  0.2161
 6326SOL     OW30610   2.954   3.312   6.506  0.1270  0.6978  0.3077
 6326SOL    HW130611   2.886   3.246   6.520  1.4681 -0.4968  1.1415
 6326SOL    HW230612   2.999   3.277   6.429  0.1227  0.4314  0.4285
 6327SOL     OW30613   2.468   2.911   3.883 -0.1544 -0.1132 -0.0465
 6327SOL    HW130614   2.500   2.821   3.880 -1.6344 -0.6108 -0.4137
 6327SOL    HW230615   2.446   2.915   3.976 -4.3658  2.3062 -1.1605
 6328SOL     OW30616   4.398   2.613  11.257  0.4717 -0.2257 -0.2490
 6328SOL    HW130617   4.344   2.548  11.213 -0.3246  2.3294 -3.0637
 6328SOL    HW230618   4.485   2.620  11.219  0.4623 -1.1748 -0.4406
 6329SOL     OW30619   0.302   2.979   0.199 -0.0645  0.0113  0.2790
 6329SOL    HW130620   0.323   2.969   0.292  1.7268  2.1348  0.0953
 6329SOL    HW230621   0.258   3.064   0.194  0.4291  0.4753  3.5158
 6330SOL     OW30622   2.874   0.191   3.180  0.0982  0.2824 -0.3144
 6330SOL    HW130623   2.945   0.251   3.204  0.3336  0.1667 -0.7075
 6330SOL    HW230624   2.864   0.217   3.088 -0.5164 -1.3377 -0.6980
 6331SOL     OW30625   3.982   4.305  17.217 -0.1923 -0.0219 -0.4607
 6331SOL    HW130626   4.004   4.256  17.138 -0.0088 -0.2995 -0.2353
 6331SOL    HW230627   4.029   4.386  17.200  0.0868 -0.2983 -0.9812
 6332SOL     OW30628   2.541   0.938  15.938 -0.0411  0.8123  0.1954
 6332SOL    HW130629   2.610   1.004  15.924  0.6007  0.2080  0.5320
 6332SOL    HW230630   2.531   0.950  16.033 -0.0862 -2.2113  0.5761
 6333SOL     OW30631   1.069   2.760   6.373 -0.0556 -0.0088  0.1695
 6333SOL    HW130632   1.157   2.795   6.387 -0.6337  1.1353  0.9311
 6333SOL    HW230633   1.021   2.840   6.355  1.7026  0.9026 -0.4882
 6334SOL     OW30634   3.809   1.954   7.531 -0.0062 -0.2799  0.4468
 6334SOL    HW130635   3.777   1.970   7.442 -0.3119 -1.6245  0.3126
 6334SOL    HW230636   3.747   1.998   7.588 -0.5847 -0.6365  0.0958
 6335SOL     OW30637   0.029   0.017   3.454 -0.1421  0.0444 -0.3594
 6335SOL    HW130638   0.031   0.107   3.420 -0.3353  1.6422  3.8161
 6335SOL    HW230639   4.683   0.017   3.500  0.7354 -0.9226  1.2159
 6336SOL     OW30640   1.017   3.065   8.693  0.3630 -0.1469  0.2525
 6336SOL    HW130641   1.101   3.043   8.734  0.8048  1.2797  0.1072
 6336SOL    HW230642   0.997   2.987   8.640 -0.2903  0.1892  0.0038
 6337SOL     OW30643   1.829   2.019   0.974  0.9865 -0.1694 -0.2925
 6337SOL    HW130644   1.785   2.068   1.044  0.9188  0.3502 -0.7000
 6337SOL    HW230645   1.921   2.045   0.982  1.2515 -0.5016 -2.1779
 6338SOL     OW30646   1.107   3.985   5.786 -0.0953 -0.2685  0.1774
 6338SOL    HW130647   1.016   3.959   5.768  0.9927 -3.0194 -1.4384
 6338SOL    HW230648   1.111   4.080   5.775 -0.7440 -0.0805  1.5733
 6339SOL     OW30649   0.743   1.535   3.268  0.1232 -0.1011  0.1188
 6339SOL    HW130650   0.690   1.602   3.226 -0.5619  0.2038  1.4856
 6339SOL    HW230651   0.755   1.472   3.196  1.2405  0.7340 -0.4201
 6340SOL     OW30652   2.408   2.948  15.854 -0.0171  0.1194 -0.7220
 6340SOL    HW130653   2.464   2.998  15.794  2.0080  0.4326  1.4505
 6340SOL    HW230654   2.319   2.963  15.822  0.7176 -0.4425 -3.0391
 6341SOL     OW30655   2.945   3.210  11.816 -0.2189 -0.2465 -0.6119
 6341SOL    HW130656   2.868   3.219  11.872 -0.1889 -1.6533 -0.3491
 6341SOL    HW230657   2.915   3.136  11.763 -1.6354 -0.9653  1.2269
 6342SOL     OW30658   4.208   0.012   5.919  0.4230 -0.3965  0.2149
 6342SOL    HW130659   4.194   4.660   5.946  0.2845 -0.0965  1.1486
 6342SOL    HW230660   4.257   4.726   5.840 -0.3908 -1.1968 -0.0455
 6343SOL     OW30661   3.239   1.917   9.577 -0.1510 -0.2256 -0.4143
 6343SOL    HW130662   3.168   1.965   9.535 -0.6558 -1.6918 -1.2380
 6343SOL    HW230663   3.306   1.955   9.520  1.0220  1.0956  1.8452
 6344SOL     OW30664   0.348   3.920   4.650 -0.2067 -0.3697  0.4049
 6344SOL    HW130665   0.421   3.964   4.694 -0.8140  2.6709 -1.5932
 6344SOL    HW230666   0.387   3.846   4.604 -0.5919 -0.0631 -0.4164
 6345SOL     OW30667   2.921   1.647   8.739 -0.3214 -0.5584  0.0062
 6345SOL    HW130668   2.875   1.663   8.657 -1.9933 -3.0792  0.4510
 6345SOL    HW230669   3.004   1.692   8.722 -1.9032  1.7019 -1.7848
 6346SOL     OW30670   1.884   2.948   0.482  0.4355  0.7398 -0.1450
 6346SOL    HW130671   1.839   3.031   0.495  0.5549  0.8792 -0.6047
 6346SOL    HW230672   1.976   2.975   0.483  0.8104 -0.4733 -2.6526
 6347SOL     OW30673   0.543   0.511   7.220  0.8410 -0.4959  0.0675
 6347SOL    HW130674   0.601   0.587   7.230 -1.1588  0.8505  1.3183
 6347SOL    HW230675   0.522   0.499   7.128 -0.3671 -1.7115  0.4996
 6348SOL     OW30676   0.044   1.348  14.869 -0.2179 -0.1387 -0.3465
 6348SOL    HW130677   0.027   1.442  14.861  0.5016  0.0214  0.0102
 6348SOL    HW230678   0.132   1.351  14.906  0.0599 -0.0602 -1.0137
 6349SOL     OW30679   4.732   1.384   3.441 -0.0976 -0.7413  0.1074
 6349SOL    HW130680   4.660   1.356   3.497 -0.8289  1.5513  0.3285
 6349SOL    HW230681   0.025   1.309   3.391  0.5824  1.9660 -3.4761
 6350SOL     OW30682   1.641   1.743   6.815  0.0351  0.7845  0.1525
 6350SOL    HW130683   1.603   1.721   6.900  0.2831  0.7108  0.2427
 6350SOL    HW230684   1.582   1.815   6.790  1.3817  0.4927 -3.8977
 6351SOL     OW30685   3.504   1.805   3.411  0.0947  0.4508  0.3650
 6351SOL    HW130686   3.572   1.800   3.478 -0.2016 -0.3306  0.6004
 6351SOL    HW230687   3.506   1.715   3.379  1.1655  0.8044 -0.5574
 6352SOL     OW30688   3.314   4.550  17.562 -0.2232 -0.2260  0.0762
 6352SOL    HW130689   3.289   4.628  17.513 -0.6260 -0.4881 -0.1411
 6352SOL    HW230690   3.357   4.495  17.498 -1.8616 -1.4487  0.0222
 6353SOL     OW30691   0.341   3.852  14.976  0.2776  0.3834  0.1767
 6353SOL    HW130692   0.328   3.777  15.033  0.9190 -0.7802 -1.1903
 6353SOL    HW230693   0.306   3.922  15.031  0.7852  2.6869 -2.3873
 6354SOL     OW30694   2.457   0.827   5.401  0.2535 -0.0152  0.2498
 6354SOL    HW130695   2.500   0.826   5.487 -1.5608 -1.1197  1.1523
 6354SOL    HW230696   2.429   0.736   5.393 -1.4714  0.4197  1.3491
 6355SOL     OW30697   3.217   3.329   3.633 -0.0870 -0.2673 -0.3479
 6355SOL    HW130698   3.170   3.397   3.682  0.9181  0.0927  0.1202
 6355SOL    HW230699   3.182   3.256   3.685  0.5528 -0.2947  0.0483
 6356SOL     OW30700   0.432   0.448   6.708  0.4925 -0.1124 -0.4381
 6356SOL    HW130701   0.394   0.485   6.787 -0.7533  0.3573 -1.2647
 6356SOL    HW230702   0.371   0.469   6.638 -0.5813  2.0412  1.1630
 6357SOL     OW30703   0.124   1.705   4.349  0.0806  0.2714  0.6154
 6357SOL    HW130704   0.079   1.665   4.423  1.0645 -3.2550 -0.6593
 6357SOL    HW230705   0.198   1.742   4.396  2.4317 -2.4126 -0.9685
 6358SOL     OW30706   0.357   2.415   5.630  0.3515  0.3406  0.3208
 6358SOL    HW130707   0.304   2.389   5.705  0.0883  1.6360  0.5768
 6358SOL    HW230708   0.449   2.407   5.656  1.3239  1.5340 -2.7224
 6359SOL     OW30709   3.724   2.284   2.541  0.2886 -0.0153 -0.5616
 6359SOL    HW130710   3.704   2.325   2.626  1.3392 -0.0124 -0.3145
 6359SOL    HW230711   3.719   2.191   2.561  1.3878 -0.2164 -1.2061
 6360SOL     OW30712   2.243   3.612   7.467  0.2281  0.7505 -0.1865
 6360SOL    HW130713   2.306   3.618   7.540 -0.7769  1.0126  0.6575
 6360SOL    HW230714   2.207   3.526   7.489  0.7537  0.7259  0.5903
 6361SOL     OW30715   4.417   2.985   4.869  0.0016 -0.6798 -0.1252
 6361SOL    HW130716   4.426   3.078   4.845 -0.8375 -0.1822  1.4685
 6361SOL    HW230717   4.487   2.940   4.823 -1.6650 -1.8869 -1.4574
 6362SOL     OW30718   2.012   2.769   4.027 -0.6125 -0.6713  0.0831
 6362SOL    HW130719   1.982   2.716   4.101 -0.9125  0.0603  0.4740
 6362SOL    HW230720   2.106   2.754   4.019 -0.3167  1.6212 -0.6726
 6363SOL     OW30721   1.034   0.335   4.672 -0.3003  0.5056 -0.0065
 6363SOL    HW130722   1.115   0.289   4.693 -0.0640  1.5883  1.4191
 6363SOL    HW230723   1.053   0.422   4.708 -1.6118  1.0379 -0.6061
 6364SOL     OW30724   4.519   2.240   9.552 -0.3391 -0.1605 -0.2744
 6364SOL    HW130725   4.536   2.334   9.556  2.2281 -0.6663  0.3220
 6364SOL    HW230726   4.448   2.231   9.488  1.6143 -1.3391 -2.2630
 6365SOL     OW30727   3.464   3.416  10.014 -0.3379 -0.4048 -0.0785
 6365SOL    HW130728   3.467   3.412  10.109  1.3891  0.0577 -0.1147
 6365SOL    HW230729   3.489   3.327   9.991 -1.5516 -1.2086  1.7019
 6366SOL     OW30730   2.315   1.665  11.236  0.2011  0.4554 -0.3060
 6366SOL    HW130731   2.293   1.589  11.289 -2.0631  1.3952  0.1177
 6366SOL    HW230732   2.383   1.687  11.300 -0.8820  1.0922  0.6220
 6367SOL     OW30733   3.489   0.349   3.908 -0.0116 -0.7700 -0.1096
 6367SOL    HW130734   3.475   0.297   3.987 -0.5138 -0.6718 -0.1297
 6367SOL    HW230735   3.476   0.437   3.945 -1.0906 -0.2132 -1.7840
 6368SOL     OW30736   2.589   3.589   0.118  0.1225 -0.0364  0.8948
 6368SOL    HW130737   2.668   3.542   0.091  0.9194 -0.2347  3.6319
 6368SOL    HW230738   2.518   3.533   0.087 -0.7243  1.6754 -0.2816
 6369SOL     OW30739   3.330   4.376   9.664  0.0379 -1.1098  0.0050
 6369SOL    HW130740   3.320   4.450   9.724  2.8720  0.2126 -1.0945
 6369SOL    HW230741   3.335   4.304   9.726 -0.3947 -1.9558 -0.9439
 6370SOL     OW30742   0.121   3.213   7.381  0.5388  0.3081  0.3926
 6370SOL    HW130743   0.154   3.296   7.344 -1.1054  0.5651 -0.5153
 6370SOL    HW230744   0.040   3.204   7.330  0.4840  0.6270  0.4217
 6371SOL     OW30745   3.187   3.378   8.730  0.0394 -0.9199  0.1906
 6371SOL    HW130746   3.245   3.303   8.719  0.3111 -0.7581  0.5216
 6371SOL    HW230747   3.187   3.422   8.645  0.0537  0.3415  0.8418
 6372SOL     OW30748   0.472   0.195   7.802  0.2853 -0.4612 -0.5759
 6372SOL    HW130749   0.464   0.109   7.843 -1.3987  0.8937  1.9463
 6372SOL    HW230750   0.563   0.223   7.794 -0.3269  1.0676 -2.2476
 6373SOL     OW30751   3.116   0.642   9.244  0.1313 -0.0384 -0.0032
 6373SOL    HW130752   3.175   0.674   9.312 -3.4853  2.2262  2.1122
 6373SOL    HW230753   3.071   0.724   9.222 -0.7526 -0.2311  1.0675
 6374SOL     OW30754   0.017   2.236  15.625  0.1158 -0.3123  0.3969
 6374SOL    HW130755   4.727   2.269  15.710 -1.7383 -3.4183  0.9393
 6374SOL    HW230756   4.711   2.152  15.616  2.0706 -1.2707 -0.3699
 6375SOL     OW30757   0.245   2.749   7.530 -0.1383 -0.2346  0.3097
 6375SOL    HW130758   0.326   2.755   7.480 -0.1119 -2.1243  0.1139
 6375SOL    HW230759   0.204   2.834   7.512  1.8466  0.2040 -2.0764
 6376SOL     OW30760   4.109   1.430   1.936 -0.0410  0.1412 -0.4174
 6376SOL    HW130761   4.014   1.423   1.924 -0.0609  0.0082 -0.1842
 6376SOL    HW230762   4.113   1.525   1.940 -0.2679  0.1494 -0.3557
 6377SOL     OW30763   0.751   1.215   1.901 -0.3947  0.7277 -0.1176
 6377SOL    HW130764   0.732   1.309   1.903  0.9831  1.0262 -1.2346
 6377SOL    HW230765   0.712   1.192   1.986 -0.2577 -2.2745 -0.8478
 6378SOL     OW30766   4.543   2.633   2.086  0.6707 -0.0092 -0.3011
 6378SOL    HW130767   4.555   2.579   2.163  1.3822  0.4814 -0.0734
 6378SOL    HW230768   4.452   2.620   2.059  0.8975  1.6978 -1.8677
 6379SOL     OW30769   0.309   4.026   1.322  0.3001 -0.1668  0.1978
 6379SOL    HW130770   0.309   4.081   1.244  0.2163 -0.0976  0.2470
 6379SOL    HW230771   0.222   4.055   1.351  0.0529 -0.3072 -0.3977
 6380SOL     OW30772   4.153   1.964   8.329  0.0412  0.0170 -0.0848
 6380SOL    HW130773   4.063   1.980   8.356 -0.2398  3.1393 -2.8942
 6380SOL    HW230774   4.158   1.873   8.359  1.2609 -0.1130 -0.6503
 6381SOL     OW30775   4.316   3.073   9.108  0.3175  0.3469  0.3516
 6381SOL    HW130776   4.357   3.154   9.138 -1.7137  1.9317 -1.1184
 6381SOL    HW230777   4.306   3.089   9.014 -0.4471 -0.1058  0.3565
 6382SOL     OW30778   4.196   0.672  16.131 -0.1092 -0.1519  0.3726
 6382SOL    HW130779   4.217   0.732  16.060 -1.9043  0.0477  0.0181
 6382SOL    HW230780   4.115   0.635  16.097  0.1695 -0.1971 -0.2307
 6383SOL     OW30781   0.878   3.718   3.966 -0.0548 -0.1899 -0.2350
 6383SOL    HW130782   0.943   3.787   3.983  0.0451  0.0744 -1.6789
 6383SOL    HW230783   0.873   3.705   3.871 -0.6624 -0.0515 -0.2162
 6384SOL     OW30784   1.472   3.641   7.061  0.3271  0.4153  0.0947
 6384SOL    HW130785   1.506   3.609   6.977  0.5849 -0.5161  0.5532
 6384SOL    HW230786   1.554   3.666   7.105  1.3448 -1.1140 -0.9182
 6385SOL     OW30787   4.019   2.433   8.279 -0.3402 -0.5312 -0.5634
 6385SOL    HW130788   4.015   2.416   8.185 -0.6886 -0.3834 -0.5737
 6385SOL    HW230789   3.991   2.524   8.279 -0.2532 -0.5040 -1.4627
 6386SOL     OW30790   4.066   3.491   6.418  0.4602  0.3312 -0.0381
 6386SOL    HW130791   4.056   3.570   6.365  0.6177  0.4143  0.0550
 6386SOL    HW230792   4.149   3.506   6.463  0.6460 -0.5251 -0.0955
 6387SOL     OW30793   2.929   2.747  15.199 -0.3085  0.2650  0.2801
 6387SOL    HW130794   2.879   2.685  15.253 -1.9653 -0.2373 -1.8655
 6387SOL    HW230795   2.858   2.772  15.140 -0.8351 -0.8801  0.4199
 6388SOL     OW30796   2.922   0.157   7.025 -0.1669  0.0785  0.0653
 6388SOL    HW130797   2.851   0.157   7.088  1.2259  0.9253  1.6335
 6388SOL    HW230798   2.954   0.246   7.040 -1.0191  0.5588 -0.9495
 6389SOL     OW30799   1.273   0.946  15.333 -0.2310 -0.7266  0.0692
 6389SOL    HW130800   1.326   1.026  15.333  0.2555 -1.0520 -1.1132
 6389SOL    HW230801   1.259   0.929  15.240  0.1456  2.9983 -0.6701
 6390SOL     OW30802   3.691   4.525  11.603 -0.1336 -0.4184 -0.5435
 6390SOL    HW130803   3.768   4.522  11.661  0.4312  1.9032 -1.1637
 6390SOL    HW230804   3.629   4.579  11.651 -1.7556 -2.5467 -0.2725
 6391SOL     OW30805   0.502   3.378  11.444 -0.1521  0.1889  0.2908
 6391SOL    HW130806   0.510   3.428  11.525 -2.9686 -0.5565  1.0675
 6391SOL    HW230807   0.428   3.322  11.470  0.2021 -1.2854 -1.8732
 6392SOL     OW30808   3.501   4.108   0.027  0.0281  0.6342 -0.1576
 6392SOL    HW130809   3.461   4.184  17.736 -1.8713 -1.3003 -1.8176
 6392SOL    HW230810   3.492   4.045  17.708  1.8604 -0.9349  0.9871
 6393SOL     OW30811   2.727   3.504  13.585 -0.1923  0.4934 -0.2121
 6393SOL    HW130812   2.670   3.456  13.644  2.4265  0.0198  1.9469
 6393SOL    HW230813   2.802   3.445  13.575  1.3600  2.6598 -1.3821
 6394SOL     OW30814   2.036   0.925   8.957  0.3686 -0.1604 -0.3852
 6394SOL    HW130815   2.040   0.981   8.879 -1.5344  1.1973  0.5229
 6394SOL    HW230816   2.011   0.985   9.027  0.2348  3.2821 -3.3957
 6395SOL     OW30817   1.769   4.488   2.935 -0.2754  0.0981 -0.7147
 6395SOL    HW130818   1.827   4.457   2.865 -2.0517 -1.1084 -1.6627
 6395SOL    HW230819   1.721   4.562   2.899 -1.1944 -0.5685 -0.8747
 6396SOL     OW30820   0.754   0.756   2.099 -0.3908  0.5433  0.4497
 6396SOL    HW130821   0.816   0.782   2.167 -1.7089  2.1032  1.0772
 6396SOL    HW230822   0.703   0.835   2.078 -1.2940  0.1449  1.1531
 6397SOL     OW30823   0.481   3.525   6.265  0.3362 -0.0835 -0.3122
 6397SOL    HW130824   0.557   3.507   6.210 -0.1228  0.4015 -1.1050
 6397SOL    HW230825   0.479   3.620   6.251 -1.4509 -0.1774 -0.6919
 6398SOL     OW30826   1.012   3.040   7.962 -0.5919  0.0998  0.1953
 6398SOL    HW130827   0.924   3.073   7.981  0.5536  1.3079  3.3175
 6398SOL    HW230828   1.055   3.039   8.047 -0.7335 -0.4064  0.2585
 6399SOL     OW30829   1.315   1.279  16.351  0.2393  0.2465 -0.3138
 6399SOL    HW130830   1.404   1.315  16.346  0.6368 -0.6538  0.3237
 6399SOL    HW230831   1.270   1.364  16.359  0.3446  0.3852 -1.1530
 6400SOL     OW30832   0.598   3.948   5.754 -0.3675 -0.4271 -0.2466
 6400SOL    HW130833   0.529   3.966   5.690 -1.8001 -1.6812  0.9596
 6400SOL    HW230834   0.551   3.878   5.800 -2.5727  2.4315  1.8754
 6401SOL     OW30835   2.260   0.853  10.322 -0.2258  0.2344 -0.3051
 6401SOL    HW130836   2.255   0.837  10.416 -1.5519 -2.4633 -0.8416
 6401SOL    HW230837   2.250   0.763  10.292 -0.6298  1.3927 -3.7121
 6402SOL     OW30838   3.700   1.057  12.307  0.4441 -0.2239  0.2093
 6402SOL    HW130839   3.641   1.082  12.379 -0.4765  1.4713 -1.1206
 6402SOL    HW230840   3.767   1.123  12.322 -0.1664  0.1977  1.0909
 6403SOL     OW30841   1.439   3.473   4.450 -0.6239  0.0557 -0.1885
 6403SOL    HW130842   1.444   3.561   4.490  0.7342  0.5453 -1.4591
 6403SOL    HW230843   1.452   3.489   4.357  1.8338 -0.1722  0.1172
 6404SOL     OW30844   1.022   0.377   0.634  0.1064 -0.4409 -0.3345
 6404SOL    HW130845   1.112   0.408   0.625  0.4151 -1.3153 -0.2381
 6404SOL    HW230846   1.024   0.284   0.659  0.4368  0.2023  1.9700
 6405SOL     OW30847   4.069   0.761   7.918  0.1070 -0.0359  1.0815
 6405SOL    HW130848   4.109   0.813   7.988 -0.6342  2.4231 -0.3314
 6405SOL    HW230849   4.116   0.679   7.933 -0.0073 -0.3102 -0.0653
 6406SOL     OW30850   3.552   0.895   3.795  0.4160  0.4411 -0.1478
 6406SOL    HW130851   3.642   0.894   3.763  0.8901  2.0868  1.1557
 6406SOL    HW230852   3.540   0.810   3.837  2.4534  0.6345  0.8198
 6407SOL     OW30853   3.299   0.659   4.292 -0.0179 -0.3849 -0.0544
 6407SOL    HW130854   3.303   0.755   4.286  1.0907 -0.4506 -0.2665
 6407SOL    HW230855   3.205   0.652   4.314  0.5679 -0.8643  2.3559
 6408SOL     OW30856   4.187   1.883   7.752 -0.1494 -0.0152  0.0976
 6408SOL    HW130857   4.265   1.933   7.728  1.5080 -0.7567  3.8652
 6408SOL    HW230858   4.132   1.902   7.676 -0.4133 -0.1013  0.2647
 6409SOL     OW30859   3.345   2.257   8.302  0.1651 -0.0520 -0.2678
 6409SOL    HW130860   3.288   2.241   8.227 -0.3832 -0.7481  0.2995
 6409SOL    HW230861   3.290   2.316   8.353  0.0384 -1.0327  0.7282
 6410SOL     OW30862   1.172   4.353   9.854 -0.1778 -1.0598 -0.4301
 6410SOL    HW130863   1.109   4.398   9.911 -1.0148 -2.4205 -0.2949
 6410SOL    HW230864   1.228   4.429   9.836 -0.3170 -0.3026  2.3495
 6411SOL     OW30865   3.971   1.368  15.311  0.5873 -0.1586  0.2692
 6411SOL    HW130866   4.046   1.407  15.357 -0.6055 -0.9577  2.8700
 6411SOL    HW230867   4.002   1.385  15.222 -2.1083 -2.2787 -1.0525
 6412SOL     OW30868   4.706   4.127   9.775  0.1853  0.1690  0.0264
 6412SOL    HW130869   4.700   4.032   9.770  2.1694 -0.0825  2.5818
 6412SOL    HW230870   0.037   4.140   9.839 -0.3771  0.9343  0.4868
 6413SOL     OW30871   1.215   3.705   7.888 -0.1255 -0.9473 -0.5183
 6413SOL    HW130872   1.178   3.624   7.855 -1.4246 -0.3968 -0.4157
 6413SOL    HW230873   1.132   3.751   7.903  1.1393  0.9498  0.6914
 6414SOL     OW30874   4.037   2.801   6.562  0.3646  0.0166 -0.6505
 6414SOL    HW130875   4.117   2.785   6.612  0.4333  1.9149 -0.1277
 6414SOL    HW230876   3.991   2.870   6.611 -1.1812 -0.3214 -1.6449
 6415SOL     OW30877   0.755   2.414   4.135 -0.1204 -0.7829  0.3334
 6415SOL    HW130878   0.824   2.416   4.068  0.8628  1.2077  1.3878
 6415SOL    HW230879   0.785   2.483   4.194  3.9249 -2.7496  0.5473
 6416SOL     OW30880   0.360   0.469   5.582 -0.0767  0.4599  0.0918
 6416SOL    HW130881   0.289   0.451   5.520  0.1696 -0.4201  0.0754
 6416SOL    HW230882   0.355   0.388   5.632 -1.7279  0.9406  0.7194
 6417SOL     OW30883   2.031   1.863  11.349 -0.2556  0.2995 -1.2239
 6417SOL    HW130884   1.998   1.928  11.411  0.8032 -0.1498 -0.1992
 6417SOL    HW230885   1.973   1.789  11.365  0.4029  0.2583  0.9769
 6418SOL     OW30886   1.219   1.400   5.573 -0.1086 -0.4500 -0.4924
 6418SOL    HW130887   1.132   1.389   5.610  0.4791  0.4758  1.1447
 6418SOL    HW230888   1.213   1.359   5.486  2.5677  0.9880 -1.3618
 6419SOL     OW30889   3.805   0.505   4.355  0.2536 -0.3847 -0.0521
 6419SOL    HW130890   3.795   0.556   4.436  0.9936  0.8360 -0.7360
 6419SOL    HW230891   3.756   0.427   4.384 -0.7222 -0.0323 -0.7506
 6420SOL     OW30892   2.135   2.833   6.552  0.4952 -0.4584  0.3933
 6420SOL    HW130893   2.197   2.821   6.625  1.6937 -0.2614 -0.5801
 6420SOL    HW230894   2.123   2.745   6.516  1.0519 -0.4188  0.1039
 6421SOL     OW30895   1.273   3.988  12.680 -0.4236 -0.2611  0.1910
 6421SOL    HW130896   1.235   4.071  12.651 -0.4746 -0.1441  0.5956
 6421SOL    HW230897   1.244   3.933  12.607 -0.0401  0.2828 -0.3704
 6422SOL     OW30898   2.685   0.280   5.613  0.0288 -0.3543  0.1529
 6422SOL    HW130899   2.707   0.373   5.619 -1.9958  0.1359 -0.0264
 6422SOL    HW230900   2.728   0.252   5.532 -1.5989 -1.7707 -0.2033
 6423SOL     OW30901   3.809   1.314   3.713  0.0317  0.0834  0.2315
 6423SOL    HW130902   3.885   1.326   3.656  0.2599  0.1286  0.5499
 6423SOL    HW230903   3.753   1.289   3.639 -1.3790 -0.0859  1.3549
 6424SOL     OW30904   4.321   2.388  12.049  0.2866 -0.0540  0.5807
 6424SOL    HW130905   4.246   2.353  12.001 -1.3287  2.2149  1.4277
 6424SOL    HW230906   4.295   2.478  12.070 -1.7812 -0.5443  0.1564
 6425SOL     OW30907   2.723   3.127   4.640 -0.4255  0.6599  0.3571
 6425SOL    HW130908   2.641   3.165   4.673 -1.3841  0.6303 -1.9593
 6425SOL    HW230909   2.712   3.038   4.672 -0.8948  0.4771 -0.3112
 6426SOL     OW30910   1.153   2.768   5.728  0.5607  0.0969  0.8228
 6426SOL    HW130911   1.115   2.680   5.724  4.1367 -1.5006  2.0365
 6426SOL    HW230912   1.077   2.817   5.696 -0.1669 -0.7453  1.2467
 6427SOL     OW30913   4.625   4.297  10.549  0.3391  0.2104 -0.2864
 6427SOL    HW130914   4.674   4.352  10.487  0.7724 -1.3896 -1.3435
 6427SOL    HW230915   4.634   4.345  10.632 -4.6461 -0.9463  0.9172
 6428SOL     OW30916   3.264   0.083  14.869  0.3385 -0.0425  0.5655
 6428SOL    HW130917   3.208   0.156  14.894  1.7566  0.7640  1.4372
 6428SOL    HW230918   3.263   0.039  14.954 -1.6578 -0.7350  0.1557
 6429SOL     OW30919   4.056   3.330   7.818  0.0362  0.0285 -0.1468
 6429SOL    HW130920   4.141   3.342   7.776  0.0744  0.6659  0.1045
 6429SOL    HW230921   3.993   3.356   7.751 -1.0218  1.8244  1.5235
 6430SOL     OW30922   2.600   0.094   6.485 -0.3535  0.1040  0.7810
 6430SOL    HW130923   2.618   0.073   6.394  0.6308  0.8556  0.7921
 6430SOL    HW230924   2.508   0.068   6.485 -0.3045 -0.0268 -1.7232
 6431SOL     OW30925   0.124   2.579   4.720 -0.3921 -0.1670  0.1464
 6431SOL    HW130926   0.108   2.496   4.765  3.5596 -1.2074 -0.3297
 6431SOL    HW230927   0.211   2.571   4.682  1.1942 -0.3261  3.7524
 6432SOL     OW30928   3.313   3.525   6.641 -0.1163  0.6953 -0.1922
 6432SOL    HW130929   3.225   3.555   6.619 -1.1391  0.3165  3.3124
 6432SOL    HW230930   3.314   3.437   6.604 -0.7370  0.4766  0.3007
 6433SOL     OW30931   1.959   2.423   2.925  1.0167 -0.3444  0.1572
 6433SOL    HW130932   1.915   2.383   2.850 -0.8370  1.1740  0.4377
 6433SOL    HW230933   1.992   2.339   2.958  1.3385 -1.8709 -3.9762
 6434SOL     OW30934   0.218   3.584   4.013 -0.5496 -0.1510  0.8025
 6434SOL    HW130935   0.195   3.632   3.934  2.3017 -0.0383  0.0402
 6434SOL    HW230936   0.288   3.538   3.965  0.0809  1.9047 -0.2307
 6435SOL     OW30937   4.580   1.192   2.509  0.0745 -0.2337 -0.1760
 6435SOL    HW130938   4.521   1.117   2.507 -0.8228  0.4099  2.7450
 6435SOL    HW230939   4.666   1.155   2.533  1.1406  0.5994 -2.6865
 6436SOL     OW30940   0.002   4.736   8.964 -0.2675  0.1867  0.5913
 6436SOL    HW130941   4.673   4.675   8.933 -0.5576 -0.3573  2.2616
 6436SOL    HW230942   0.030   4.699   9.048  0.1295 -1.7002 -0.3803
 6437SOL     OW30943   4.725   2.853  14.335  0.1897 -0.7975  0.1120
 6437SOL    HW130944   4.683   2.797  14.270 -1.0573  0.2508  0.0032
 6437SOL    HW230945   4.669   2.839  14.411 -0.4505 -0.1595 -0.2403
 6438SOL     OW30946   4.116   1.604  11.617  0.2197 -0.4041 -0.0954
 6438SOL    HW130947   4.093   1.691  11.652  0.7607 -0.7780  1.1657
 6438SOL    HW230948   4.043   1.559  11.660 -0.1351  0.7565  0.5309
 6439SOL     OW30949   3.787   4.515   4.114  0.3591 -0.7226 -0.5553
 6439SOL    HW130950   3.827   4.549   4.194 -0.4777  0.7419 -0.7537
 6439SOL    HW230951   3.726   4.454   4.155 -0.7291 -0.6009 -1.9959
 6440SOL     OW30952   3.568   1.592  12.152 -0.2041 -0.2607 -0.0498
 6440SOL    HW130953   3.544   1.611  12.061 -1.9152  1.5980  0.8025
 6440SOL    HW230954   3.490   1.618  12.200  0.1769  2.2445 -0.7622
 6441SOL     OW30955   3.305   3.936  15.639  0.2427  0.5062  0.3001
 6441SOL    HW130956   3.245   3.864  15.657  1.5875 -0.0963  2.4344
 6441SOL    HW230957   3.383   3.894  15.676  1.3920  0.4261 -2.2133
 6442SOL     OW30958   0.818   2.493   3.266  0.4183 -0.6111 -0.2724
 6442SOL    HW130959   0.807   2.488   3.361 -0.0467 -3.6478 -0.4867
 6442SOL    HW230960   0.745   2.441   3.232  0.7816 -1.8489  0.8501
 6443SOL     OW30961   1.839   0.095   3.516  0.2441  0.2095 -0.4568
 6443SOL    HW130962   1.825   0.132   3.603  1.2976 -2.1321  0.7293
 6443SOL    HW230963   1.760   0.098   3.463  2.0672  1.6456 -3.0403
 6444SOL     OW30964   4.422   2.583   4.771 -0.0647 -0.1631 -0.0070
 6444SOL    HW130965   4.453   2.655   4.716  0.4518 -1.0191 -0.8170
 6444SOL    HW230966   4.421   2.504   4.717 -1.9327 -0.1004 -0.0816
 6445SOL     OW30967   2.052   4.401  12.046 -0.9686  0.2898  0.1298
 6445SOL    HW130968   1.960   4.383  12.069  0.7451 -1.8171  5.2450
 6445SOL    HW230969   2.048   4.495  12.027  0.0510 -0.3048 -2.9155
 6446SOL     OW30970   2.749   0.891   9.720 -0.3128  0.0378 -0.1115
 6446SOL    HW130971   2.840   0.873   9.697 -0.5726  0.8689 -1.7626
 6446SOL    HW230972   2.741   0.848   9.805  2.7027  1.2468  0.7474
 6447SOL     OW30973   1.483   2.506   9.773  0.5359 -0.2194  0.1808
 6447SOL    HW130974   1.504   2.416   9.796 -2.8096 -1.3835 -1.4128
 6447SOL    HW230975   1.563   2.558   9.784 -0.1705  0.5637  1.5974
 6448SOL     OW30976   3.732   1.129   2.805 -0.0108 -0.0003 -0.4055
 6448SOL    HW130977   3.800   1.064   2.787  1.0715  0.6814  1.1667
 6448SOL    HW230978   3.652   1.078   2.815  0.2244 -0.1214  0.9560
 6449SOL     OW30979   1.352   1.057   9.187  0.0682 -0.5512  0.1816
 6449SOL    HW130980   1.410   1.119   9.142 -1.6354 -0.1338 -1.4425
 6449SOL    HW230981   1.264   1.089   9.167 -0.5597 -0.9204  2.3418
 6450SOL     OW30982   4.055   4.366   2.617  0.2002 -0.2121 -0.1546
 6450SOL    HW130983   4.009   4.305   2.560 -0.3091  0.8833 -0.8971
 6450SOL    HW230984   4.076   4.440   2.560 -1.9200 -0.3551 -1.0967
 6451SOL     OW30985   0.601   3.126   0.975 -0.0777 -0.2617 -0.5005
 6451SOL    HW130986   0.682   3.082   1.001  0.4980  0.8346 -0.3975
 6451SOL    HW230987   0.583   3.186   1.047  1.0928 -1.6543  0.9476
 6452SOL     OW30988   3.156   2.167   1.813  0.2438 -0.3127 -0.0365
 6452SOL    HW130989   3.176   2.191   1.904  0.8177  3.0179 -1.0147
 6452SOL    HW230990   3.232   2.206   1.769  0.9873 -2.4870 -0.6377
 6453SOL     OW30991   2.656   1.018   3.224 -0.0371  0.5916 -0.3918
 6453SOL    HW130992   2.686   1.046   3.311  1.9048 -0.2072 -0.8042
 6453SOL    HW230993   2.722   0.955   3.198 -1.5093 -0.1840 -2.2424
 6454SOL     OW30994   3.126   2.841   5.404  0.2376  0.0136  0.3245
 6454SOL    HW130995   3.172   2.834   5.320  0.4766  0.5313  0.4101
 6454SOL    HW230996   3.111   2.935   5.401 -1.6495 -0.3009  0.0784
 6455SOL     OW30997   0.395   2.819   3.638 -1.0838 -0.1175 -0.9463
 6455SOL    HW130998   0.314   2.868   3.632 -0.4951  0.8582 -0.8340
 6455SOL    HW230999   0.421   2.838   3.548  0.7819 -0.8345 -0.5702
 6456SOL     OW31000   0.573   1.377  14.354  0.3828  0.0955 -0.1412
 6456SOL    HW131001   0.510   1.410  14.290 -0.7162  0.5590  1.1629
 6456SOL    HW231002   0.539   1.291  14.380 -1.6086  0.2666 -2.1019
 6457SOL     OW31003   2.264   3.645   3.175 -0.1230 -0.4423 -0.1873
 6457SOL    HW131004   2.307   3.624   3.092 -1.6492 -2.6684 -0.4262
 6457SOL    HW231005   2.225   3.559   3.194  0.2043  0.0877  2.8059
 6458SOL     OW31006   3.077   1.705   6.388  1.2091  0.2089 -0.0723
 6458SOL    HW131007   3.013   1.751   6.334  1.4351 -0.5229 -0.9592
 6458SOL    HW231008   3.035   1.630   6.428  1.2733 -0.7501 -1.8266
 6459SOL     OW31009   0.450   2.740   9.057 -0.0885 -0.0929 -0.3308
 6459SOL    HW131010   0.408   2.738   8.971 -1.2127  1.0594  0.1906
 6459SOL    HW231011   0.534   2.700   9.033  0.1428 -0.0827  0.4678
 6460SOL     OW31012   4.510   0.071  17.454  0.0870  0.6800 -0.1092
 6460SOL    HW131013   4.426   0.051  17.413 -0.0546 -1.5772  1.3012
 6460SOL    HW231014   4.543   0.137  17.393  1.8066 -0.8338 -0.8580
 6461SOL     OW31015   0.579   4.130  11.656  0.3759  0.5194  0.0458
 6461SOL    HW131016   0.560   4.223  11.657 -0.8489  0.2677 -0.4722
 6461SOL    HW231017   0.526   4.093  11.727  0.2251  2.0631  0.7472
 6462SOL     OW31018   4.722   4.234  12.141  0.1179 -0.5469  0.5234
 6462SOL    HW131019   4.662   4.291  12.189  1.0612  0.1291  0.8964
 6462SOL    HW231020   0.039   4.298  12.097 -0.6323  0.7247  1.4381
 6463SOL     OW31021   3.415   4.400  10.415  0.2254 -0.5747 -0.1105
 6463SOL    HW131022   3.408   4.472  10.477  0.2495 -0.2499 -0.4859
 6463SOL    HW231023   3.401   4.460  10.341 -0.0409 -0.9420 -0.3558
 6464SOL     OW31024   1.167   2.797   2.258  0.0626 -0.0346 -0.0834
 6464SOL    HW131025   1.246   2.749   2.282 -0.1892 -1.1034 -1.4141
 6464SOL    HW231026   1.091   2.749   2.292 -1.0453 -0.2684 -2.9321
 6465SOL     OW31027   0.326   1.080   4.095  0.3840 -0.1194 -1.2941
 6465SOL    HW131028   0.316   1.127   4.012  0.6951  0.7416 -0.8473
 6465SOL    HW231029   0.247   1.027   4.086  0.6322 -0.2270 -2.8151
 6466SOL     OW31030   0.148   4.133   3.087 -0.2270  0.1950 -0.1295
 6466SOL    HW131031   0.119   4.210   3.038 -0.3276 -0.5896 -1.2934
 6466SOL    HW231032   0.184   4.074   3.021 -3.0367 -1.1626 -0.4556
 6467SOL     OW31033   2.444   1.874   5.298 -0.4513 -0.1359  0.8094
 6467SOL    HW131034   2.376   1.919   5.248 -1.3898 -1.9177  0.4888
 6467SOL    HW231035   2.391   1.817   5.354 -2.1443 -0.0535 -0.6962
 6468SOL     OW31036   0.678   3.721   5.283  0.3973 -0.4623  0.3208
 6468SOL    HW131037   0.598   3.672   5.262  0.0167 -0.5357  1.9304
 6468SOL    HW231038   0.683   3.694   5.374  0.7360  0.1777  0.4895
 6469SOL     OW31039   1.161   3.062   1.181  0.4301  0.4855 -1.2593
 6469SOL    HW131040   1.169   3.131   1.115 -1.0555 -0.0137 -1.9838
 6469SOL    HW231041   1.252   3.037   1.197 -0.0757 -1.0610 -0.7729
 6470SOL     OW31042   4.291   1.218   8.478  0.4101 -0.5211 -0.4018
 6470SOL    HW131043   4.375   1.247   8.515  0.0065 -1.2540  1.0722
 6470SOL    HW231044   4.323   1.142   8.429  1.1760  0.3541 -1.2597
 6471SOL     OW31045   1.216   3.645  16.947  0.0379 -0.1078 -0.1043
 6471SOL    HW131046   1.208   3.618  16.856  0.2776  1.5171 -0.6110
 6471SOL    HW231047   1.160   3.723  16.941  0.3214 -0.0159 -1.6213
 6472SOL     OW31048   4.316   2.978   2.049  0.2352 -0.7747 -0.8691
 6472SOL    HW131049   4.312   3.041   2.121 -3.9436 -2.3154  0.1891
 6472SOL    HW231050   4.364   3.033   1.987  2.0356  0.3284  1.4892
 6473SOL     OW31051   4.115   2.080  12.104  0.0144 -0.3955  0.4012
 6473SOL    HW131052   4.132   2.002  12.156 -1.8778 -0.3340  1.1281
 6473SOL    HW231053   4.150   2.150  12.160  0.7102 -0.1636 -0.3232
 6474SOL     OW31054   0.684   1.985   8.166  0.2742  0.3397  1.1731
 6474SOL    HW131055   0.726   1.966   8.082 -0.6275  0.4007  0.6990
 6474SOL    HW231056   0.722   2.069   8.194  2.5673  0.2814 -1.7823
 6475SOL     OW31057   3.988   1.484   5.268 -0.3106  0.5899 -0.4046
 6475SOL    HW131058   3.927   1.443   5.207  0.1243  0.1886 -0.5710
 6475SOL    HW231059   4.058   1.504   5.206 -0.9094  0.9153 -0.9677
 6476SOL     OW31060   1.074   1.225  10.962 -0.2883  0.5555  0.4069
 6476SOL    HW131061   1.123   1.224  11.044 -0.0616 -0.0251  0.2640
 6476SOL    HW231062   0.992   1.270  10.983 -0.7043 -1.6040  3.4406
 6477SOL     OW31063   0.572   2.664  13.490  0.1447  0.2886 -0.4967
 6477SOL    HW131064   0.581   2.584  13.542 -0.8044  0.4691 -0.0702
 6477SOL    HW231065   0.649   2.654  13.433  1.4619  1.2668  1.1244
 6478SOL     OW31066   0.795   4.241   7.106 -0.3232  0.5848 -0.1713
 6478SOL    HW131067   0.704   4.258   7.081  0.0754  1.0598 -1.3273
 6478SOL    HW231068   0.790   4.155   7.147  0.3048 -0.1439 -1.6126
 6479SOL     OW31069   0.734   2.826   3.315  0.2027  0.4246  0.1014
 6479SOL    HW131070   0.779   2.751   3.276  2.0993  1.1347  0.8999
 6479SOL    HW231071   0.784   2.840   3.396  0.7328 -0.3603 -0.0906
 6480SOL     OW31072   4.722   4.294   6.670 -0.3073  0.1709  0.4697
 6480SOL    HW131073   4.737   4.363   6.605  1.1499 -1.1451 -0.5853
 6480SOL    HW231074   0.043   4.309   6.743  1.8804  2.3153 -1.7592
 6481SOL     OW31075   3.684   1.019  11.992  0.5657 -0.9130  0.9019
 6481SOL    HW131076   3.668   1.109  12.019 -3.1338 -0.9852 -1.0850
 6481SOL    HW231077   3.647   1.021  11.904 -0.6777  0.6446  1.4605
 6482SOL     OW31078   3.360   1.941   6.012  0.1618 -1.1618  0.0527
 6482SOL    HW131079   3.295   1.878   5.982 -0.6821  0.6987 -2.0499
 6482SOL    HW231080   3.336   1.970   6.099 -1.2967 -0.2556 -0.6519
 6483SOL     OW31081   2.290   4.012   2.127  0.4755 -0.0655  0.0941
 6483SOL    HW131082   2.206   4.027   2.084  0.2171  0.4132  0.7566
 6483SOL    HW231083   2.264   4.003   2.219 -0.8746 -1.6216 -0.4396
 6484SOL     OW31084   2.251   4.196   9.528 -0.1293 -0.0731  0.0977
 6484SOL    HW131085   2.161   4.179   9.558  0.7622 -0.0285  2.7149
 6484SOL    HW231086   2.245   4.267   9.464  0.4216  0.9531  1.1929
 6485SOL     OW31087   0.677   1.479  17.261  0.4152 -0.9297  0.4974
 6485SOL    HW131088   0.652   1.413  17.197  0.6318 -3.1912  2.7176
 6485SOL    HW231089   0.765   1.451  17.287 -0.0303 -1.1824  1.7642
 6486SOL     OW31090   1.017   1.278   3.565 -0.7191  0.3639  0.4750
 6486SOL    HW131091   1.059   1.251   3.483 -2.9958  1.2532 -0.9620
 6486SOL    HW231092   0.985   1.367   3.547  2.3323  1.7852  2.0070
 6487SOL     OW31093   4.444   2.681   7.484  0.5162 -0.3476 -0.3735
 6487SOL    HW131094   4.462   2.587   7.473  4.5224  0.1805  1.6597
 6487SOL    HW231095   4.348   2.681   7.486  0.5775  0.4947  1.9389
 6488SOL     OW31096   3.670   3.350   0.785 -0.2660 -0.3991 -0.5444
 6488SOL    HW131097   3.688   3.430   0.835 -2.0987 -0.0590 -0.4393
 6488SOL    HW231098   3.631   3.388   0.706 -0.9195 -0.6164 -0.3266
 6489SOL     OW31099   0.946   0.293  15.708 -0.7660 -0.1849  0.1232
 6489SOL    HW131100   0.927   0.381  15.675 -1.6745  0.0325  1.2116
 6489SOL    HW231101   0.871   0.235  15.691 -1.1321  0.3133  0.0423
 6490SOL     OW31102   1.784   3.229   6.165 -0.0817 -0.0781 -0.1677
 6490SOL    HW131103   1.819   3.204   6.080  1.0680  2.2358 -0.3772
 6490SOL    HW231104   1.741   3.311   6.138  0.6574  0.2066 -0.4857
 6491SOL     OW31105   1.802   4.343   6.120 -0.0166 -0.3338 -0.0412
 6491SOL    HW131106   1.765   4.402   6.054 -0.5697  0.1390  0.6779
 6491SOL    HW231107   1.724   4.330   6.175 -1.1991 -1.0079 -1.8814
 6492SOL     OW31108   3.387   3.116   2.391 -0.3840  0.0254  0.4088
 6492SOL    HW131109   3.399   3.150   2.302  0.6096  1.6295  1.1533
 6492SOL    HW231110   3.371   3.024   2.372 -0.8526  0.4194 -1.1239
 6493SOL     OW31111   4.697   4.501   4.107 -0.4134 -0.7131 -0.1239
 6493SOL    HW131112   4.685   4.431   4.171  0.2728 -1.1079 -0.4383
 6493SOL    HW231113   4.668   4.458   4.027  2.2120 -0.2704 -1.2861
 6494SOL     OW31114   2.260   0.723  12.033  0.6282  0.1683 -0.4037
 6494SOL    HW131115   2.258   0.786  12.105 -0.5375 -0.5744  0.2091
 6494SOL    HW231116   2.258   0.644  12.087  2.4338 -0.6821 -1.5864
 6495SOL     OW31117   2.562   4.410   9.356  0.3461 -0.0021  0.3291
 6495SOL    HW131118   2.616   4.400   9.278 -2.6014 -0.4398 -1.6385
 6495SOL    HW231119   2.591   4.327   9.392 -0.7689 -1.0812 -1.2688
 6496SOL     OW31120   1.199   2.506   5.103 -0.5086 -0.1711 -0.8527
 6496SOL    HW131121   1.278   2.470   5.144 -0.8987  0.4120  0.3877
 6496SOL    HW231122   1.233   2.514   5.014  1.7628  0.0254  0.0171
 6497SOL     OW31123   0.370   3.069   2.769  0.0359 -0.1240  0.0513
 6497SOL    HW131124   0.407   3.155   2.750  0.9570 -0.4625  0.3222
 6497SOL    HW231125   0.442   3.011   2.746  0.2611 -0.1221  0.7701
 6498SOL     OW31126   0.560   0.601   2.225 -0.2848  0.3814 -0.1115
 6498SOL    HW131127   0.626   0.654   2.179  2.2824 -1.1577  1.8298
 6498SOL    HW231128   0.500   0.591   2.151 -1.7241 -2.6714  1.4723
 6499SOL     OW31129   2.872   4.043   5.727 -0.1155 -0.3919 -0.2601
 6499SOL    HW131130   2.909   3.956   5.745  0.6450 -0.2427 -1.1498
 6499SOL    HW231131   2.797   4.025   5.671  0.6420 -0.5785 -1.2096
 6500SOL     OW31132   4.113   2.089  14.673  0.1586 -0.0818  0.0436
 6500SOL    HW131133   4.130   2.000  14.701  0.5036 -0.1737 -0.4717
 6500SOL    HW231134   4.021   2.097  14.702 -0.2581  0.7603 -1.5024
 6501SOL     OW31135   1.648   2.769   9.382 -0.0640 -0.5103 -0.8549
 6501SOL    HW131136   1.741   2.783   9.399  0.0539 -0.2613 -1.6820
 6501SOL    HW231137   1.616   2.832   9.446 -2.1288  2.0448 -4.3791
 6502SOL     OW31138   1.092   3.946   3.934  0.0018  0.5825 -0.1155
 6502SOL    HW131139   1.151   3.920   3.864 -0.5336 -1.7603  0.2918
 6502SOL    HW231140   1.143   3.934   4.014 -0.3112 -0.6704 -0.0945
 6503SOL     OW31141   2.023   3.345   1.531  0.0199  0.3754  0.3036
 6503SOL    HW131142   1.955   3.281   1.509  0.2579 -0.0420  0.7736
 6503SOL    HW231143   2.000   3.374   1.619  0.9723  1.5050  0.1838
 6504SOL     OW31144   2.190   1.702  11.552 -0.2332 -0.1280  0.3693
 6504SOL    HW131145   2.138   1.708  11.472  2.2800  0.3324 -1.2143
 6504SOL    HW231146   2.277   1.727  11.522 -0.5541 -0.8534 -1.1657
 6505SOL     OW31147   0.159   0.519   0.331 -0.0894  0.3622 -0.0709
 6505SOL    HW131148   0.097   0.506   0.402 -0.2476  0.3269 -0.2134
 6505SOL    HW231149   0.125   0.604   0.300 -0.9173 -0.2500 -0.8597
 6506SOL     OW31150   2.217   0.798  10.588  0.1677  0.0154 -0.0556
 6506SOL    HW131151   2.312   0.799  10.601  0.5514 -1.3396 -2.8017
 6506SOL    HW231152   2.185   0.815  10.676  0.3363 -0.4569  0.1000
 6507SOL     OW31153   1.178   0.852   9.855 -0.3434 -0.2763  0.1196
 6507SOL    HW131154   1.186   0.859   9.950 -0.5230  1.1072  0.0446
 6507SOL    HW231155   1.090   0.887   9.839  0.0074  0.0113 -1.1571
 6508SOL     OW31156   1.808   3.825   8.586  0.2366  0.2839 -0.6506
 6508SOL    HW131157   1.849   3.829   8.672 -1.0607  0.2919 -0.0406
 6508SOL    HW231158   1.800   3.920   8.578  2.4308  0.2477 -3.6602
 6509SOL     OW31159   0.132   3.526   6.582  0.3121 -0.0126  0.2733
 6509SOL    HW131160   0.196   3.597   6.590  1.3814 -0.7665 -1.5670
 6509SOL    HW231161   0.063   3.577   6.540 -0.6036 -0.1525  1.6233
 6510SOL     OW31162   3.992   4.600  17.625  0.6180 -0.0535 -0.0247
 6510SOL    HW131163   4.066   4.546  17.653  2.0142  1.4338 -0.7805
 6510SOL    HW231164   4.034   4.686  17.616  0.5262  0.0227  0.2903
 6511SOL     OW31165   1.154   3.978   4.218  0.3138 -0.0758 -0.0370
 6511SOL    HW131166   1.110   3.914   4.274 -2.8145  1.9335 -0.2128
 6511SOL    HW231167   1.149   4.056   4.274  0.5426  1.4682 -2.1534
 6512SOL     OW31168   2.162   2.499   8.809  0.6090 -0.2350 -0.1758
 6512SOL    HW131169   2.118   2.429   8.760 -0.4326 -0.1046  0.5688
 6512SOL    HW231170   2.197   2.553   8.739 -2.8014  0.6082 -1.2355
 6513SOL     OW31171   3.174   0.225  13.440  0.2217 -0.3441 -0.0251
 6513SOL    HW131172   3.207   0.290  13.502  1.6608 -2.0127  0.9170
 6513SOL    HW231173   3.080   0.234  13.456 -0.0141 -0.4102 -1.3447
 6514SOL     OW31174   2.693   3.153   4.009  0.0748 -0.2071  0.0985
 6514SOL    HW131175   2.746   3.126   4.084 -1.5511 -0.2003  1.2591
 6514SOL    HW231176   2.741   3.231   3.981  2.4462 -1.9635 -0.6499
 6515SOL     OW31177   4.460   3.971  14.240  0.5054 -0.2190  0.2443
 6515SOL    HW131178   4.480   4.062  14.260 -1.6218  0.3543 -0.2835
 6515SOL    HW231179   4.403   3.983  14.165  1.4821 -0.8501 -0.6022
 6516SOL     OW31180   2.305   0.588   2.555 -0.4758  0.8326  0.0850
 6516SOL    HW131181   2.306   0.661   2.492 -1.6273  0.8080  0.0434
 6516SOL    HW231182   2.259   0.520   2.507  0.1165  1.9164 -2.0559
 6517SOL     OW31183   0.502   0.216   6.223  0.1940  0.1026  0.0062
 6517SOL    HW131184   0.473   0.137   6.178  0.2393  0.0110  0.1399
 6517SOL    HW231185   0.566   0.252   6.162  2.3185 -0.5137  1.8984
 6518SOL     OW31186   3.654   2.412  16.750  0.6657 -0.2873  0.0408
 6518SOL    HW131187   3.562   2.424  16.730  0.7405  0.7192  0.3380
 6518SOL    HW231188   3.683   2.340  16.694 -0.6615 -1.1615  0.4768
 6519SOL     OW31189   3.614   0.877   5.172 -0.0790 -0.3550  0.3188
 6519SOL    HW131190   3.700   0.867   5.213 -0.1612  0.8264  0.7632
 6519SOL    HW231191   3.614   0.799   5.116  0.5149  0.8431 -1.3219
 6520SOL     OW31192   0.961   3.899   0.307  0.2108 -0.0991  0.0666
 6520SOL    HW131193   1.017   3.822   0.319 -0.1461 -0.4142 -0.2576
 6520SOL    HW231194   1.022   3.967   0.335  0.9336 -1.3149  1.4289
 6521SOL     OW31195   0.138   1.432   0.170  0.3606 -0.1990  0.1804
 6521SOL    HW131196   0.055   1.396   0.201 -0.2262 -0.2231 -1.4127
 6521SOL    HW231197   0.162   1.374   0.098  1.3103 -0.7995  0.9745
 6522SOL     OW31198   2.561   1.261   7.515  0.1117  0.4346  0.3519
 6522SOL    HW131199   2.515   1.309   7.584  0.9079  1.0530  0.4508
 6522SOL    HW231200   2.518   1.176   7.514 -0.5241  0.7567  0.5498
 6523SOL     OW31201   0.241   1.747  13.992 -0.0766  0.6781 -0.0454
 6523SOL    HW131202   0.290   1.759  13.910 -0.6240  2.8104 -0.0740
 6523SOL    HW231203   0.222   1.836  14.021  2.5360  1.5275 -0.9050
 6524SOL     OW31204   3.778   0.324   3.804 -0.4213 -0.4462  0.4768
 6524SOL    HW131205   3.690   0.286   3.799 -0.3384 -0.6746  0.7527
 6524SOL    HW231206   3.771   0.344   3.898 -0.4271 -0.9546  0.5865
 6525SOL     OW31207   2.497   1.925  15.971  0.2103  0.2667  0.1091
 6525SOL    HW131208   2.447   1.872  16.033 -1.1213  1.0070 -0.3265
 6525SOL    HW231209   2.551   1.861  15.924  1.4529  0.9012  0.6580
 6526SOL     OW31210   4.298   3.145   3.098 -0.1881  0.3437 -0.5924
 6526SOL    HW131211   4.254   3.227   3.077 -0.6271 -0.8026 -4.2025
 6526SOL    HW231212   4.391   3.167   3.092  0.3694 -1.8195  0.1216
 6527SOL     OW31213   3.716   1.623   1.364  0.3320  0.3989 -0.1272
 6527SOL    HW131214   3.662   1.616   1.285 -0.9160 -1.4895  0.8977
 6527SOL    HW231215   3.801   1.603   1.325 -0.2098 -0.3116 -0.9382
 6528SOL     OW31216   3.196   4.127  15.091  0.4312 -0.5880  0.7709
 6528SOL    HW131217   3.229   4.152  15.005  1.3724 -1.3450  0.9145
 6528SOL    HW231218   3.127   4.193  15.097  1.0150  0.0601  0.3703
 6529SOL     OW31219   4.263   2.519  17.455  0.2855  0.1280 -0.1053
 6529SOL    HW131220   4.328   2.458  17.491  1.8744  2.8183  1.5616
 6529SOL    HW231221   4.178   2.474  17.459 -0.6841  2.2226  2.5432
 6530SOL     OW31222   0.972   3.983  16.556 -0.1328 -0.1004 -0.5775
 6530SOL    HW131223   0.881   3.964  16.530  0.1690 -1.1598 -0.8686
 6530SOL    HW231224   0.968   3.978  16.651 -1.0038 -0.2443 -0.6206
 6531SOL     OW31225   3.654   4.313  17.258  0.1544 -0.1252  0.2031
 6531SOL    HW131226   3.719   4.331  17.326  1.8899 -1.1615 -1.1667
 6531SOL    HW231227   3.694   4.375  17.197 -3.2785  1.9912  0.1157
 6532SOL     OW31228   0.385   1.806  13.767  0.0135 -0.4315 -0.6065
 6532SOL    HW131229   0.426   1.876  13.717  0.2025 -0.0401  0.0883
 6532SOL    HW231230   0.458   1.744  13.769 -1.3548 -2.0029 -0.1299
 6533SOL     OW31231   0.304   3.212   7.945  0.4614  0.6206 -0.1348
 6533SOL    HW131232   0.236   3.193   7.881  1.2048 -1.1677 -0.3739
 6533SOL    HW231233   0.340   3.293   7.908  1.2373 -0.1511 -1.0542
 6534SOL     OW31234   0.530   0.917   5.135  0.7631  0.2974  0.0043
 6534SOL    HW131235   0.553   0.879   5.220 -0.2848  0.4725  0.3739
 6534SOL    HW231236   0.585   0.994   5.130  1.3083 -0.1751 -1.1887
 6535SOL     OW31237   0.729   1.476   1.969 -0.2558 -0.4235 -0.4777
 6535SOL    HW131238   0.681   1.530   2.032 -1.2412 -0.3940 -1.2613
 6535SOL    HW231239   0.811   1.526   1.965 -0.4648 -0.2104 -2.0693
 6536SOL     OW31240   2.994   2.442  15.491  0.7873 -0.3727 -0.4477
 6536SOL    HW131241   2.990   2.538  15.487 -2.1637 -0.3692  2.7217
 6536SOL    HW231242   2.994   2.423  15.585 -1.6226  0.1632 -0.3321
 6537SOL     OW31243   3.808   1.232   5.882 -0.0602 -0.2427  0.8789
 6537SOL    HW131244   3.836   1.323   5.891  0.0278 -0.3735  1.9822
 6537SOL    HW231245   3.884   1.192   5.924 -1.0076 -1.7061  1.2453
 6538SOL     OW31246   1.128   4.712   6.500  0.0668  0.0553  0.4116
 6538SOL    HW131247   1.124   4.617   6.491 -0.3404  0.0383  0.7668
 6538SOL    HW231248   1.172   4.733   6.417 -1.8389 -1.6686 -1.0106
 6539SOL     OW31249   2.358   4.488   1.457  0.1582 -0.3956  0.0063
 6539SOL    HW131250   2.290   4.514   1.394  0.4379  2.1940  0.8018
 6539SOL    HW231251   2.346   4.393   1.454  0.8799 -0.4615 -0.8722
 6540SOL     OW31252   3.402   3.356   5.492 -0.0565  0.2961  0.4321
 6540SOL    HW131253   3.479   3.377   5.439 -0.2339  1.0213  0.4609
 6540SOL    HW231254   3.408   3.418   5.564 -0.2791  0.1254  0.5973
 6541SOL     OW31255   2.179   1.486  12.172  0.6416  0.0213  0.1725
 6541SOL    HW131256   2.190   1.559  12.234 -0.1050 -0.6227  1.0584
 6541SOL    HW231257   2.109   1.519  12.116  1.9111  1.4679 -0.5763
 6542SOL     OW31258   4.387   0.351   3.239  0.3337  0.0844 -0.0428
 6542SOL    HW131259   4.418   0.348   3.329  1.0068  1.3468 -0.2275
 6542SOL    HW231260   4.457   0.403   3.199 -0.3500  1.2267  0.2267
 6543SOL     OW31261   2.788   1.362   9.472  0.3728 -0.2221  0.0869
 6543SOL    HW131262   2.781   1.455   9.494  1.5707 -0.2566  0.6202
 6543SOL    HW231263   2.798   1.322   9.558  0.4136 -1.5186 -0.5189
 6544SOL     OW31264   0.116   4.647  11.654 -0.3843 -0.1227 -0.4827
 6544SOL    HW131265   0.047   4.711  11.643 -1.4481 -1.0017  0.9610
 6544SOL    HW231266   0.140   4.631  11.563  2.2802  2.4343 -0.2212
 6545SOL     OW31267   2.507   4.699   7.273  0.3872 -0.3027  0.1792
 6545SOL    HW131268   2.502   4.656   7.358  1.7007  0.5366  0.6837
 6545SOL    HW231269   2.427   4.665   7.233  0.6630 -0.9520  0.1926
 6546SOL     OW31270   4.097   1.002   7.277  0.4296 -0.9715  0.4147
 6546SOL    HW131271   4.040   0.956   7.215  0.0427  0.6358 -0.4395
 6546SOL    HW231272   4.089   1.091   7.242 -1.8684 -0.7098  1.5655
 6547SOL     OW31273   3.877   2.894   7.199 -0.4050  0.0481  0.1503
 6547SOL    HW131274   3.855   2.965   7.139  0.1983 -0.0812 -0.2215
 6547SOL    HW231275   3.792   2.859   7.225 -0.0199 -1.2042 -0.2618
 6548SOL     OW31276   3.095   0.731   7.497 -0.1601  0.2477 -0.6429
 6548SOL    HW131277   3.075   0.642   7.525 -0.9584  0.0451 -1.8680
 6548SOL    HW231278   3.040   0.788   7.552 -0.6993  1.1185 -2.0872
 6549SOL     OW31279   4.312   0.837   4.512 -0.1998  0.2958  0.0939
 6549SOL    HW131280   4.364   0.816   4.590 -0.5042 -3.1909 -0.6414
 6549SOL    HW231281   4.341   0.765   4.455 -0.2224 -0.9034  1.5896
 6550SOL     OW31282   4.464   2.676   9.225 -0.3259  0.3337  0.2697
 6550SOL    HW131283   4.448   2.702   9.316 -0.5299 -1.4894  0.7582
 6550SOL    HW231284   4.470   2.760   9.181  1.7117 -0.2953 -0.6217
 6551SOL     OW31285   1.076   3.029   5.126  0.1799 -0.6174  0.4398
 6551SOL    HW131286   1.051   3.121   5.115  1.4574 -0.3321 -0.0557
 6551SOL    HW231287   0.993   2.996   5.092 -0.8422  0.9583  1.3877
 6552SOL     OW31288   3.767   0.806   3.625 -0.4597 -0.1135  0.3725
 6552SOL    HW131289   3.857   0.775   3.611 -0.5158 -0.1772  0.1540
 6552SOL    HW231290   3.762   0.869   3.554  3.8865 -1.4696 -1.1181
 6553SOL     OW31291   0.389   3.714   7.208 -0.2731 -0.4783  0.4486
 6553SOL    HW131292   0.410   3.759   7.126  0.7459 -0.3684  0.7765
 6553SOL    HW231293   0.295   3.708   7.193 -0.3888  0.7802  0.7007
 6554SOL     OW31294   0.621   3.167   3.960  0.3278  0.0163  0.1423
 6554SOL    HW131295   0.534   3.165   4.000 -0.3294  1.1946 -1.2397
 6554SOL    HW231296   0.677   3.175   4.037  2.6185 -2.0299 -1.3142
 6555SOL     OW31297   1.947   2.441  12.957  0.1411 -0.3140  0.2269
 6555SOL    HW131298   1.877   2.453  12.893 -0.2508 -0.8723  0.5491
 6555SOL    HW231299   2.023   2.423  12.902  0.9178 -0.2362  1.2889
 6556SOL     OW31300   3.610   1.628   1.125  0.2089 -0.0401  0.2253
 6556SOL    HW131301   3.677   1.574   1.082  1.4002  0.7873  1.0354
 6556SOL    HW231302   3.539   1.564   1.128 -0.2953  0.5558  0.9799
 6557SOL     OW31303   3.999   2.926   2.659  0.1634  0.3133  0.3349
 6557SOL    HW131304   3.907   2.910   2.638  1.1055 -2.0152 -2.0260
 6557SOL    HW231305   3.992   2.960   2.749 -0.1654  1.8672 -0.2766
 6558SOL     OW31306   2.179   4.471   6.143 -0.1845  0.1971  0.5599
 6558SOL    HW131307   2.260   4.470   6.092 -1.0932  0.2790 -0.8747
 6558SOL    HW231308   2.114   4.486   6.074 -0.6197 -1.0262  0.6940
 6559SOL     OW31309   0.662   0.417   5.796 -0.0889  0.0495 -0.0681
 6559SOL    HW131310   0.576   0.399   5.758  0.8330 -3.1769 -0.6015
 6559SOL    HW231311   0.727   0.380   5.737  1.1863  0.8715  0.8137
 6560SOL     OW31312   2.256   0.039   1.593 -1.0488 -0.5865  0.5431
 6560SOL    HW131313   2.305   4.738   1.666 -1.8392  0.0025  1.3956
 6560SOL    HW231314   2.318   0.016   1.524  0.0695 -1.6079  1.8988
 6561SOL     OW31315   4.532   1.202   5.179 -0.4346  0.4312  0.1243
 6561SOL    HW131316   4.559   1.236   5.265  1.8398  2.8178 -1.5231
 6561SOL    HW231317   4.436   1.205   5.182 -0.4140  1.1366  0.0647
 6562SOL     OW31318   3.389   0.156  12.625  0.1080 -0.7175 -0.4913
 6562SOL    HW131319   3.387   0.060  12.635  0.3160 -0.4151  2.1781
 6562SOL    HW231320   3.421   0.161  12.535 -0.7263  0.1883 -0.7305
 6563SOL     OW31321   4.486   2.600   7.920  0.1401 -0.0233  0.0348
 6563SOL    HW131322   4.398   2.622   7.889 -0.1424  0.2098  1.0197
 6563SOL    HW231323   4.472   2.623   8.012  0.1636 -2.6628  0.6967
 6564SOL     OW31324   4.343   4.400  15.002 -0.4172  0.1344  0.4725
 6564SOL    HW131325   4.315   4.339  14.934  0.4176 -1.0508  1.1870
 6564SOL    HW231326   4.299   4.362  15.078  0.3383 -1.9077 -0.1096
 6565SOL     OW31327   2.171   1.413   6.593 -0.0197 -0.2723 -0.5120
 6565SOL    HW131328   2.134   1.483   6.540  0.9678 -0.2072 -1.1055
 6565SOL    HW231329   2.109   1.346   6.563 -0.8214  0.5847 -0.7449
 6566SOL     OW31330   4.431   2.141  13.208  0.1569  0.6702 -0.3213
 6566SOL    HW131331   4.467   2.060  13.244  0.6395  1.8271  1.8383
 6566SOL    HW231332   4.501   2.207  13.203  0.7877 -0.1541 -2.0428
 6567SOL     OW31333   3.783   1.105   2.451  0.1755 -0.5427 -0.2110
 6567SOL    HW131334   3.764   1.195   2.478 -2.5783 -0.6364 -1.9384
 6567SOL    HW231335   3.702   1.060   2.471  1.1817 -2.7217 -1.1027
 6568SOL     OW31336   3.625   2.608   5.569  0.2565  0.1266 -0.2346
 6568SOL    HW131337   3.635   2.553   5.647  2.0032 -0.2785 -0.7544
 6568SOL    HW231338   3.608   2.543   5.501 -0.5404  0.3999 -0.3015
 6569SOL     OW31339   2.278   2.523   0.943  0.2903  0.3753  0.0117
 6569SOL    HW131340   2.348   2.571   0.987  1.5211 -2.0405  0.6832
 6569SOL    HW231341   2.201   2.569   0.977 -0.6832 -0.5516 -0.9396
 6570SOL     OW31342   4.484   1.011   6.956  0.1246  0.4222 -0.0534
 6570SOL    HW131343   4.461   1.104   6.957  1.0227  0.6262  1.5036
 6570SOL    HW231344   4.455   0.997   7.046  0.6286  0.2771  0.0898
 6571SOL     OW31345   4.642   3.114   8.276 -0.1376  0.2731 -0.0621
 6571SOL    HW131346   4.701   3.177   8.236  0.0290 -1.1993 -2.1519
 6571SOL    HW231347   4.676   3.112   8.365 -1.0233  3.3714  0.3304
 6572SOL     OW31348   4.009   2.431  16.739  0.4189 -0.0236 -0.2705
 6572SOL    HW131349   4.040   2.340  16.741  2.7795  0.7825 -0.3298
 6572SOL    HW231350   4.091   2.480  16.746 -0.3468  1.2617 -0.3622
 6573SOL     OW31351   2.805   1.624   9.523 -0.1525 -0.2588 -0.0026
 6573SOL    HW131352   2.864   1.692   9.491 -0.0138 -0.8171 -0.9383
 6573SOL    HW231353   2.728   1.638   9.467 -1.0094  0.7313  1.4213
 6574SOL     OW31354   3.808   4.713   5.708 -0.6819 -0.1520 -0.0791
 6574SOL    HW131355   3.798   4.619   5.693 -0.4388  0.1195 -1.8837
 6574SOL    HW231356   3.884   4.731   5.653 -1.3486 -1.4521 -1.4245
 6575SOL     OW31357   3.012   3.514  11.221  0.0756  0.6746 -0.0773
 6575SOL    HW131358   2.990   3.427  11.186  0.1530  0.5788  0.1101
 6575SOL    HW231359   3.006   3.500  11.315  1.1782  0.2552 -0.0565
 6576SOL     OW31360   2.351   1.517  14.051 -0.1193 -0.2723  0.1183
 6576SOL    HW131361   2.412   1.487  14.119  1.4837  0.4237 -1.0101
 6576SOL    HW231362   2.338   1.440  13.996  1.5456 -1.4785  1.4173
 6577SOL     OW31363   2.014   1.389   4.294  0.5530  0.3906 -0.2256
 6577SOL    HW131364   2.044   1.460   4.350  0.1116  1.5855 -1.5233
 6577SOL    HW231365   2.068   1.317   4.327  1.6101  1.7343  0.9883
 6578SOL     OW31366   2.892   2.143  13.076  0.2697  0.5975  0.1143
 6578SOL    HW131367   2.962   2.089  13.113 -0.2154  0.4217  0.7731
 6578SOL    HW231368   2.945   2.213  13.038  1.3790 -0.1826  0.1948
 6579SOL     OW31369   0.827   2.660   3.724 -0.9671  0.3470 -0.3635
 6579SOL    HW131370   0.782   2.743   3.741 -2.4547 -0.9064  1.8733
 6579SOL    HW231371   0.896   2.670   3.790  0.0944  3.6174 -1.9740
 6580SOL     OW31372   2.970   0.269   6.367  0.5179  0.5831 -0.4961
 6580SOL    HW131373   2.892   0.321   6.351 -0.3026  0.7517  4.1666
 6580SOL    HW231374   3.033   0.324   6.321 -0.8666  1.8560 -0.8474
 6581SOL     OW31375   2.046   2.637   5.502 -0.6388 -0.5381  0.1012
 6581SOL    HW131376   1.984   2.590   5.446  0.4982 -0.2170 -1.4003
 6581SOL    HW231377   2.028   2.727   5.475  1.5809 -0.1996 -0.2473
 6582SOL     OW31378   0.538   3.385   5.555  0.2307  0.0265 -0.3269
 6582SOL    HW131379   0.487   3.311   5.585  1.0269 -0.4547 -0.1532
 6582SOL    HW231380   0.470   3.452   5.562 -1.0546 -1.2382 -0.8897
 6583SOL     OW31381   4.072   0.517   9.147 -0.4551  0.1880 -0.1327
 6583SOL    HW131382   3.979   0.518   9.168 -0.4755 -0.6003 -0.1994
 6583SOL    HW231383   4.077   0.491   9.055 -2.2865 -2.3530  0.4935
 6584SOL     OW31384   3.108   2.469   5.278  0.2837  0.2935  0.1834
 6584SOL    HW131385   3.173   2.539   5.268  2.5643 -2.0172 -1.1577
 6584SOL    HW231386   3.064   2.481   5.362  0.1427 -2.2194  0.4434
 6585SOL     OW31387   4.424   3.174   3.546  0.3139  0.0727  0.2662
 6585SOL    HW131388   4.388   3.123   3.474  1.5817  1.8483 -1.6176
 6585SOL    HW231389   4.393   3.114   3.614 -0.2224  0.1731  0.1038
 6586SOL     OW31390   0.996   3.389   9.073  0.2780  0.2119 -0.4264
 6586SOL    HW131391   1.052   3.341   9.012 -1.3956 -0.7785 -1.1842
 6586SOL    HW231392   1.015   3.476   9.038 -0.5990 -0.4307 -2.4735
 6587SOL     OW31393   1.936   2.469  12.249  0.1923  0.1993 -0.3529
 6587SOL    HW131394   2.025   2.503  12.234  0.1747 -0.7768 -2.7231
 6587SOL    HW231395   1.944   2.436  12.338 -0.5410 -1.4417 -0.9081
 6588SOL     OW31396   0.132   4.056  12.255  0.2058 -0.3623 -0.6171
 6588SOL    HW131397   0.154   4.072  12.347 -0.7152 -0.4272 -0.3869
 6588SOL    HW231398   0.082   4.129  12.221  0.7182  0.4215  0.3195
 6589SOL     OW31399   0.259   4.082   1.662 -0.5302  0.4470  0.3031
 6589SOL    HW131400   0.322   4.116   1.599 -1.4313  0.7271 -0.4539
 6589SOL    HW231401   0.216   4.164   1.683 -1.5007 -0.0031  0.0681
 6590SOL     OW31402   0.698   2.015   7.574  0.3380  0.4016  0.1629
 6590SOL    HW131403   0.710   2.047   7.484  1.3057 -0.8991 -0.1814
 6590SOL    HW231404   0.609   2.045   7.593  0.3706 -0.7129  2.0539
 6591SOL     OW31405   2.580   0.953   7.579  0.3435 -0.3651 -0.4865
 6591SOL    HW131406   2.639   0.944   7.504  1.3166  0.7180  0.1611
 6591SOL    HW231407   2.515   0.891   7.544  0.2317  0.6703 -2.0985
 6592SOL     OW31408   3.012   1.070   8.823 -0.5406  0.4306 -0.1866
 6592SOL    HW131409   2.962   1.110   8.752 -0.4397  0.1875 -0.3978
 6592SOL    HW231410   2.974   1.119   8.896 -0.1486 -0.1298  0.4024
 6593SOL     OW31411   3.555   2.636   9.680 -0.2423 -0.1120  0.4018
 6593SOL    HW131412   3.551   2.709   9.618 -2.1067 -0.2055  0.4356
 6593SOL    HW231413   3.637   2.591   9.659 -0.3551 -0.8541  1.5801
 6594SOL     OW31414   1.488   0.785   7.906 -0.0445 -0.4354 -0.1226
 6594SOL    HW131415   1.523   0.720   7.966  0.1850 -0.1648  0.0395
 6594SOL    HW231416   1.401   0.791   7.945 -1.3127 -0.3222 -2.9973
 6595SOL     OW31417   0.286   1.163   7.576  0.4010 -0.1635 -0.0876
 6595SOL    HW131418   0.345   1.233   7.545  0.3929  0.0731  0.4312
 6595SOL    HW231419   0.208   1.217   7.588  1.5159  1.3914  0.2528
 6596SOL     OW31420   2.814   2.698   1.416  0.0710  0.5433 -0.0818
 6596SOL    HW131421   2.752   2.632   1.447  0.8570  0.5709  1.5293
 6596SOL    HW231422   2.802   2.708   1.321 -3.4122  2.1418  0.5207
 6597SOL     OW31423   0.040   1.613   3.057  0.3916 -0.7402 -0.8649
 6597SOL    HW131424   0.016   1.647   2.970 -1.2513  0.4978  0.0674
 6597SOL    HW231425   4.700   1.648   3.099  0.7129  0.0382 -0.9218
 6598SOL     OW31426   2.216   2.033   8.792 -0.0494 -0.0476 -0.0959
 6598SOL    HW131427   2.293   2.015   8.846  0.6979  3.0312 -0.1475
 6598SOL    HW231428   2.237   2.113   8.744 -0.4792  0.1764  0.0907
 6599SOL     OW31429   0.451   1.080   2.261 -0.1327 -0.6076 -0.5361
 6599SOL    HW131430   0.502   1.029   2.323 -1.9330 -1.2234  0.4396
 6599SOL    HW231431   0.465   1.029   2.182 -0.1258 -1.2857 -0.0900
 6600SOL     OW31432   0.590   2.711   9.303 -0.0045 -0.1573  0.8760
 6600SOL    HW131433   0.534   2.750   9.237 -1.6219  1.1561  3.0287
 6600SOL    HW231434   0.667   2.768   9.310  0.1731 -0.4385  1.2105
 6601SOL     OW31435   3.552   3.456   5.730 -0.2341 -0.0801 -0.0081
 6601SOL    HW131436   3.522   3.447   5.821  0.7049 -0.8125  0.2230
 6601SOL    HW231437   3.593   3.542   5.743 -0.4195 -0.2098  1.4720
 6602SOL     OW31438   3.058   0.257   5.384 -0.3959  0.1866  0.0591
 6602SOL    HW131439   3.054   0.318   5.458 -0.0352 -0.6370  0.7710
 6602SOL    HW231440   3.122   0.301   5.329  0.5102 -1.3759 -0.1373
 6603SOL     OW31441   1.864   0.575  12.324 -0.4114  0.4166 -0.6112
 6603SOL    HW131442   1.865   0.505  12.391 -0.6503 -0.4104 -1.4721
 6603SOL    HW231443   1.800   0.632  12.366  0.7502  1.6605 -0.5086
 6604SOL     OW31444   1.440   1.486  14.556 -0.5108  0.1477  0.2884
 6604SOL    HW131445   1.505   1.519  14.494 -0.2667 -0.3640  0.2724
 6604SOL    HW231446   1.493   1.471  14.634  2.1707 -1.7621 -1.8983
 6605SOL     OW31447   0.481   4.220   2.132  0.4262  0.2327 -0.7722
 6605SOL    HW131448   0.482   4.298   2.076 -0.8220  0.2139 -0.8203
 6605SOL    HW231449   0.407   4.226   2.192  1.8240  0.1821  0.9530
 6606SOL     OW31450   0.796   2.848  12.300 -0.5001 -0.4994 -0.6455
 6606SOL    HW131451   0.815   2.918  12.363 -0.3841  1.0420 -2.4009
 6606SOL    HW231452   0.803   2.775  12.361 -0.9290 -0.3261 -0.3843
 6607SOL     OW31453   2.135   3.760  15.825 -0.0986  0.2630  0.3924
 6607SOL    HW131454   2.047   3.758  15.788 -0.2520  1.4939  0.6840
 6607SOL    HW231455   2.149   3.665  15.821  1.1915  0.4323  0.7750
 6608SOL     OW31456   4.276   0.977   6.369 -0.7228  0.1836 -0.5034
 6608SOL    HW131457   4.348   1.040   6.372 -0.2389 -0.3974  0.2338
 6608SOL    HW231458   4.323   0.907   6.415 -0.6852 -0.6684 -1.8412
 6609SOL     OW31459   2.568   0.833   0.755  0.2177  0.2418  0.3221
 6609SOL    HW131460   2.540   0.876   0.836  3.2362  0.8040  1.0751
 6609SOL    HW231461   2.582   0.743   0.785 -1.8216  0.5588  2.2287
 6610SOL     OW31462   1.179   1.488   4.952 -0.4450  0.1957 -0.4225
 6610SOL    HW131463   1.130   1.556   4.998  1.8661  1.6108 -0.0347
 6610SOL    HW231464   1.117   1.466   4.883 -0.5685 -0.7180 -0.0335
 6611SOL     OW31465   1.723   4.453  11.907  0.2162 -0.1609  0.4343
 6611SOL    HW131466   1.638   4.471  11.948  0.1775 -0.0639  0.3106
 6611SOL    HW231467   1.766   4.535  11.934  0.3824  0.9749 -3.3089
 6612SOL     OW31468   3.384   4.462   2.890  0.7478  0.4023 -0.6546
 6612SOL    HW131469   3.320   4.522   2.929 -0.7071 -1.0335 -0.8362
 6612SOL    HW231470   3.464   4.483   2.938  0.8286  0.9372 -1.0290
 6613SOL     OW31471   3.097   0.542   2.377  0.1864 -0.3300  0.3423
 6613SOL    HW131472   3.112   0.507   2.289  0.9156  1.0572 -0.0895
 6613SOL    HW231473   3.106   0.637   2.365  0.2405 -0.5168 -1.0786
 6614SOL     OW31474   1.566   2.864   6.498  0.0801 -0.7117  0.0644
 6614SOL    HW131475   1.565   2.833   6.589  1.0519  1.1440  0.7108
 6614SOL    HW231476   1.644   2.920   6.492 -1.3304  1.3081  0.4984
 6615SOL     OW31477   1.475   0.275   7.973 -0.8310  0.2613  0.5396
 6615SOL    HW131478   1.436   0.209   7.916  0.3962  1.9623 -2.2782
 6615SOL    HW231479   1.449   0.247   8.061 -0.7295  1.9986  1.1090
 6616SOL     OW31480   1.267   2.961   1.943  0.3163  0.6054 -0.5050
 6616SOL    HW131481   1.190   3.005   1.906  0.7952 -0.7685 -3.1260
 6616SOL    HW231482   1.248   2.982   2.034  0.3172  0.1693 -0.4039
 6617SOL     OW31483   3.908   4.396   5.883  0.0993  0.5074 -0.0283
 6617SOL    HW131484   3.963   4.338   5.830 -1.1233  0.2167 -1.0076
 6617SOL    HW231485   3.822   4.405   5.841  0.4580 -1.0075 -1.0874
 6618SOL     OW31486   3.947   1.950   2.112  0.6453  0.5631 -0.6745
 6618SOL    HW131487   3.877   1.886   2.097 -0.6967  1.9426 -0.2797
 6618SOL    HW231488   3.976   1.927   2.200 -1.6606 -2.4977 -0.7099
 6619SOL     OW31489   3.453   2.816   2.894  0.1242  0.3801  0.0379
 6619SOL    HW131490   3.380   2.821   2.956  1.5705 -0.9668  1.8486
 6619SOL    HW231491   3.506   2.757   2.948  1.2454  1.4596  0.1074
 6620SOL     OW31492   0.041   4.086   5.470 -0.3282  0.7137  0.7421
 6620SOL    HW131493   0.029   4.109   5.562 -0.8438  0.6163  0.6977
 6620SOL    HW231494   0.098   4.012   5.492  0.2192  1.0564  0.4814
 6621SOL     OW31495   1.791   4.282   3.308  0.4515 -0.0727  0.1436
 6621SOL    HW131496   1.697   4.277   3.291  0.5569 -0.5737 -0.2967
 6621SOL    HW231497   1.818   4.194   3.284  0.5057  0.0309 -0.1789
 6622SOL     OW31498   2.222   3.263   5.035  0.1692 -0.8113  0.2695
 6622SOL    HW131499   2.173   3.310   5.102 -1.4176 -0.3711 -1.2075
 6622SOL    HW231500   2.159   3.198   5.005  0.1881 -1.2858  1.2485
 6623SOL     OW31501   3.505   1.068   3.360  0.2539 -1.3481 -0.0605
 6623SOL    HW131502   3.535   0.981   3.386 -0.1037 -0.9361  1.7023
 6623SOL    HW231503   3.586   1.090   3.314 -0.7929 -0.3253 -1.4177
 6624SOL     OW31504   2.944   0.392  11.279  0.3553  0.5847  0.2501
 6624SOL    HW131505   2.941   0.355  11.191 -0.5994  1.1308  0.0582
 6624SOL    HW231506   2.942   0.311  11.331  0.4007  2.2516  2.8292
 6625SOL     OW31507   3.079   0.225   8.249  0.1655 -0.4600  0.1014
 6625SOL    HW131508   3.094   0.280   8.326 -0.5433 -0.0245 -0.0631
 6625SOL    HW231509   3.127   0.145   8.271  2.9170  1.6992  1.9716
 6626SOL     OW31510   2.125   0.319   0.367  0.2360  0.3346 -0.0321
 6626SOL    HW131511   2.196   0.280   0.418 -0.3284 -1.5537 -0.6977
 6626SOL    HW231512   2.103   0.393   0.424  2.6339  1.7397 -0.9221
 6627SOL     OW31513   2.627   2.718   1.835  0.3311 -0.2932 -0.1689
 6627SOL    HW131514   2.673   2.801   1.826  0.9645 -0.6637 -0.3548
 6627SOL    HW231515   2.550   2.738   1.888 -0.8720 -0.3705 -1.8643
 6628SOL     OW31516   3.324   2.931   5.178  0.5632  0.5195  0.6257
 6628SOL    HW131517   3.344   2.971   5.094  0.9683  0.6510  0.7872
 6628SOL    HW231518   3.338   3.003   5.239 -1.9954 -0.4921  2.4735
 6629SOL     OW31519   3.358   1.248   2.771 -0.0081  0.0038  0.2143
 6629SOL    HW131520   3.378   1.251   2.678  0.2076  1.8961  0.3262
 6629SOL    HW231521   3.394   1.159   2.782  0.2759 -0.2186 -2.6580
 6630SOL     OW31522   2.350   2.962   0.947 -0.1484  0.0808 -0.4333
 6630SOL    HW131523   2.302   3.045   0.950 -1.6404 -0.8911  2.4608
 6630SOL    HW231524   2.375   2.953   1.039 -1.4398 -1.3142 -0.2312
 6631SOL     OW31525   1.730   0.431   4.891 -0.0822  0.2092  0.0063
 6631SOL    HW131526   1.682   0.351   4.871  0.7708 -0.2484 -0.2259
 6631SOL    HW231527   1.664   0.474   4.944  0.7623  1.3895  0.1110
 6632SOL     OW31528   1.448   3.690   3.198 -0.1261  0.5934 -0.0527
 6632SOL    HW131529   1.365   3.673   3.154 -0.3086 -0.2622  0.6224
 6632SOL    HW231530   1.513   3.690   3.128 -0.7647  0.6597 -0.6396
 6633SOL     OW31531   0.689   1.113   7.086 -0.3959  0.0925 -0.9017
 6633SOL    HW131532   0.637   1.137   7.162 -1.7775  0.1140 -1.8688
 6633SOL    HW231533   0.645   1.169   7.023 -0.2703  0.7626 -0.3872
 6634SOL     OW31534   2.991   4.544  13.797  0.1275 -0.2320  0.3493
 6634SOL    HW131535   2.934   4.585  13.862 -1.8197 -2.1359 -0.1752
 6634SOL    HW231536   2.925   4.492  13.752 -0.0719 -0.1602  0.5601
 6635SOL     OW31537   4.401   1.659   4.049  0.0957  0.4268  0.0679
 6635SOL    HW131538   4.466   1.693   4.110 -1.2571  2.3195  0.4661
 6635SOL    HW231539   4.419   1.565   4.045 -2.0542 -0.2065  5.1169
 6636SOL     OW31540   2.940   0.120   4.329 -0.0713 -0.1856 -0.0744
 6636SOL    HW131541   2.876   0.191   4.322  0.2858  0.1434 -0.0509
 6636SOL    HW231542   2.998   0.138   4.255  0.6382 -1.9266  0.0799
 6637SOL     OW31543   1.540   1.395  11.934  0.1463 -0.3837  0.6483
 6637SOL    HW131544   1.571   1.336  12.002  1.2264 -0.1337  0.3709
 6637SOL    HW231545   1.621   1.444  11.919 -0.8435  1.0435 -0.1475
 6638SOL     OW31546   3.680   3.145   6.808 -0.1492  0.3191  0.0000
 6638SOL    HW131547   3.608   3.083   6.816  0.0080  0.2536  0.9244
 6638SOL    HW231548   3.637   3.231   6.808  1.0256  0.9197 -2.6128
 6639SOL     OW31549   0.987   1.892   9.301 -0.2332 -0.7203  0.0023
 6639SOL    HW131550   0.892   1.902   9.309 -0.2402 -0.5474 -0.2808
 6639SOL    HW231551   0.998   1.896   9.206  0.1699 -1.6840  0.0144
 6640SOL     OW31552   3.240   4.677  15.080 -0.1721  0.0902 -0.0194
 6640SOL    HW131553   3.259   4.663  15.172  1.1280 -0.7796 -0.4146
 6640SOL    HW231554   3.185   4.600  15.068  0.3349 -0.3430  0.4905
 6641SOL     OW31555   3.212   3.453   4.678  0.0506  0.1763 -0.2877
 6641SOL    HW131556   3.170   3.369   4.658  0.5755  0.0490 -0.8617
 6641SOL    HW231557   3.187   3.467   4.770  3.4343 -2.3009  1.0204
 6642SOL     OW31558   3.475   3.004   1.422 -0.4488  0.3275  0.3794
 6642SOL    HW131559   3.510   3.092   1.437 -1.5097  1.1890 -2.3237
 6642SOL    HW231560   3.498   2.995   1.330  0.5493  0.1303  0.6368
 6643SOL     OW31561   2.129   4.563   2.070 -0.7103  0.3735  0.2168
 6643SOL    HW131562   2.183   4.640   2.088  1.3034 -0.6580 -1.4872
 6643SOL    HW231563   2.142   4.546   1.977  0.5265  1.1822  0.2471
 6644SOL     OW31564   0.090   0.654   5.927 -0.2588 -0.3855  0.6766
 6644SOL    HW131565   0.042   0.571   5.930 -2.4118  0.7453 -1.8570
 6644SOL    HW231566   0.171   0.610   5.902  0.6547  0.9889  1.2284
 6645SOL     OW31567   4.367   4.510  13.305 -0.0462  0.3298 -0.3204
 6645SOL    HW131568   4.383   4.572  13.234 -0.1581  1.3443  0.5349
 6645SOL    HW231569   4.444   4.518  13.361 -1.0362 -1.9461  1.3534
 6646SOL     OW31570   3.773   3.715  14.791  0.2002 -0.2201 -0.3380
 6646SOL    HW131571   3.832   3.667  14.848  2.1401  1.1383 -1.2117
 6646SOL    HW231572   3.752   3.639  14.737  0.1308 -1.1646  1.0192
 6647SOL     OW31573   4.482   3.901  17.088 -0.0114  0.2161  0.3460
 6647SOL    HW131574   4.523   3.896  17.001  1.8423 -0.8144  1.2861
 6647SOL    HW231575   4.466   3.806  17.087  1.5283 -0.0447  0.4315
 6648SOL     OW31576   2.692   0.925   1.884 -0.1581  0.5322  0.3566
 6648SOL    HW131577   2.650   1.010   1.889 -0.5379  0.3463  0.3468
 6648SOL    HW231578   2.708   0.911   1.790 -2.8186  1.2628 -0.2018
 6649SOL     OW31579   0.046   3.821  16.717 -0.2622  0.3669  0.3801
 6649SOL    HW131580   0.116   3.863  16.767  1.1760  0.2416 -1.5296
 6649SOL    HW231581   4.706   3.813  16.771  0.2181  1.2059  1.1931
 6650SOL     OW31582   0.741   1.934   9.181 -0.3408  0.5689 -0.1599
 6650SOL    HW131583   0.721   2.019   9.220 -0.0712  0.1530  0.8913
 6650SOL    HW231584   0.650   1.904   9.169  0.0568 -0.3429 -0.8944
 6651SOL     OW31585   4.151   3.589   0.091  0.2028  0.5745  0.2464
 6651SOL    HW131586   4.095   3.529   0.141 -2.0217  1.7967 -0.7785
 6651SOL    HW231587   4.223   3.617   0.148  0.7607 -0.5189  0.0719
 6652SOL     OW31588   4.603   3.073  13.435  0.3863 -0.2128  0.3215
 6652SOL    HW131589   4.648   3.102  13.356 -4.0615 -0.2415 -2.2089
 6652SOL    HW231590   4.517   3.112  13.420  1.8048  2.2425 -1.4203
 6653SOL     OW31591   0.542   3.350   3.587 -0.2827  0.8266 -0.3863
 6653SOL    HW131592   0.563   3.293   3.513  0.5823  0.2595  0.2947
 6653SOL    HW231593   0.526   3.433   3.541 -3.4483  0.1074 -0.6018
 6654SOL     OW31594   3.216   3.209  14.448  0.2359  0.2719  0.1455
 6654SOL    HW131595   3.129   3.238  14.476 -0.9378 -3.5416  0.4807
 6654SOL    HW231596   3.225   3.134  14.507 -1.2445 -0.4727 -0.5735
 6655SOL     OW31597   1.350   0.602   5.863 -0.4431  0.0864 -0.5376
 6655SOL    HW131598   1.442   0.584   5.842 -0.2472 -0.1034  0.5169
 6655SOL    HW231599   1.359   0.661   5.938  0.2273 -0.4948 -0.1639
 6656SOL     OW31600   0.570   2.800   2.264  0.3485 -0.1279  0.2718
 6656SOL    HW131601   0.609   2.834   2.183  0.8501 -0.4049  0.3989
 6656SOL    HW231602   0.643   2.797   2.326  1.0680  1.0071 -0.5214
 6657SOL     OW31603   0.258   0.291   4.442 -0.0469  0.3813  0.1196
 6657SOL    HW131604   0.256   0.197   4.459  0.1564  0.5811  1.2257
 6657SOL    HW231605   0.349   0.311   4.419 -0.5943  1.5351 -1.0357
 6658SOL     OW31606   3.235   3.460   1.073 -0.3603  0.0539  0.0838
 6658SOL    HW131607   3.314   3.475   1.022 -0.0616 -0.9121  0.2622
 6658SOL    HW231608   3.238   3.544   1.120  0.1945  1.0446 -1.7476
 6659SOL     OW31609   4.251   2.232   4.906  0.0933  0.1342 -0.6282
 6659SOL    HW131610   4.185   2.175   4.947  2.6483 -0.6183  2.4297
 6659SOL    HW231611   4.291   2.170   4.845 -0.0350 -0.0299 -0.5473
 6660SOL     OW31612   0.236   1.833   7.981 -0.3528  0.1515 -0.1607
 6660SOL    HW131613   0.311   1.877   8.020 -0.1889 -1.5070  1.4023
 6660SOL    HW231614   0.169   1.837   8.050  0.7748 -1.2419  1.0344
 6661SOL     OW31615   1.101   3.066   8.247 -0.5923  0.4710  0.1921
 6661SOL    HW131616   1.157   3.119   8.303  0.3015 -0.5760  0.2911
 6661SOL    HW231617   1.017   3.109   8.264 -0.6229  0.5964 -0.2814
 6662SOL     OW31618   3.898   1.058   3.087  0.1530  0.6910  0.7324
 6662SOL    HW131619   3.820   1.087   3.135 -0.1368  1.5000 -0.2278
 6662SOL    HW231620   3.964   1.127   3.097 -1.1764  2.4398 -2.4517
 6663SOL     OW31621   2.643   4.576   2.624  0.4336  0.0620  0.2355
 6663SOL    HW131622   2.648   4.635   2.699 -0.0782 -1.6097  1.5855
 6663SOL    HW231623   2.732   4.541   2.634  1.0789  1.2293 -1.4725
 6664SOL     OW31624   1.303   0.592   7.522 -0.2737  0.0453 -0.3064
 6664SOL    HW131625   1.315   0.498   7.536 -0.9943  0.0752  0.5259
 6664SOL    HW231626   1.394   0.621   7.513  0.3119 -1.5664  0.4109
 6665SOL     OW31627   4.624   1.782   5.586  0.2619 -0.2651 -0.3806
 6665SOL    HW131628   4.619   1.855   5.524  3.5022 -0.6524 -1.1210
 6665SOL    HW231629   4.539   1.747   5.560  0.1027  0.3085 -0.6156
 6666SOL     OW31630   1.425   0.602  17.505  0.2420  0.0040  0.3925
 6666SOL    HW131631   1.339   0.628  17.471  0.2206 -1.8095 -0.9173
 6666SOL    HW231632   1.441   0.510  17.482  1.3390  0.4242 -0.5060
 6667SOL     OW31633   1.693   1.720   0.812  0.0326 -0.1339  0.6926
 6667SOL    HW131634   1.636   1.643   0.801 -0.0944 -0.2390  2.0895
 6667SOL    HW231635   1.668   1.781   0.743  1.2139  1.2674  1.4942
 6668SOL     OW31636   1.277   0.578   1.909  0.3272  0.0072  0.9930
 6668SOL    HW131637   1.275   0.673   1.903  0.5157 -0.0605 -0.1504
 6668SOL    HW231638   1.184   0.554   1.909  0.9141 -2.2838  0.0363
 6669SOL     OW31639   0.194   2.235   3.244  0.6741 -0.0212  0.3068
 6669SOL    HW131640   0.142   2.247   3.323 -0.1721  0.5968 -0.3314
 6669SOL    HW231641   0.166   2.149   3.214  1.2686  0.4459 -1.6088
 6670SOL     OW31642   4.018   1.096   2.574 -0.3283 -0.0379  0.1823
 6670SOL    HW131643   3.935   1.091   2.527 -0.3894 -0.0125  0.2878
 6670SOL    HW231644   4.046   1.005   2.584  0.3203 -0.0197 -1.4052
 6671SOL     OW31645   0.388   3.389  17.703 -0.3005  0.3820 -0.6324
 6671SOL    HW131646   0.469   3.383  17.653 -0.1758  3.0521 -0.7167
 6671SOL    HW231647   0.397   3.467   0.006 -0.5594  0.1332 -0.2237
 6672SOL     OW31648   2.267   0.058   4.940  0.0822  0.2218  0.5923
 6672SOL    HW131649   2.281   0.148   4.970  0.1670 -0.0294  1.3237
 6672SOL    HW231650   2.326   0.056   4.865  0.3521 -3.6863  0.9180
 6673SOL     OW31651   4.629   1.138   4.287 -0.4246 -0.0288  0.2043
 6673SOL    HW131652   4.647   1.086   4.365 -1.2324 -3.1409 -1.7004
 6673SOL    HW231653   4.595   1.065   4.236  1.5634  0.6681 -2.0994
 6674SOL     OW31654   2.037   2.555   3.267 -0.1538  0.1153  0.1772
 6674SOL    HW131655   2.011   2.583   3.355  2.1923 -1.3360  1.3361
 6674SOL    HW231656   1.954   2.539   3.223 -0.6773  3.2160  0.0316
 6675SOL     OW31657   2.686   3.018  13.318 -0.8704 -0.4068 -0.0663
 6675SOL    HW131658   2.715   3.074  13.390  0.9720 -1.1544 -0.2206
 6675SOL    HW231659   2.643   3.073  13.252  1.5565  1.0457 -0.4664
 6676SOL     OW31660   2.463   2.383  12.591  0.5841 -0.5853  0.1044
 6676SOL    HW131661   2.485   2.441  12.664 -0.6305 -0.4516  0.3625
 6676SOL    HW231662   2.419   2.443  12.532 -0.8536 -0.8701  0.8867
 6677SOL     OW31663   1.122   1.583   7.205 -0.5855  0.1622 -0.1799
 6677SOL    HW131664   1.141   1.526   7.280 -0.9245  1.4545  0.8713
 6677SOL    HW231665   1.169   1.537   7.135 -1.8048 -2.0840  0.4732
 6678SOL     OW31666   2.271   4.284   2.385  0.2746 -0.3209  0.2256
 6678SOL    HW131667   2.238   4.222   2.450 -2.5671 -0.4934 -1.3639
 6678SOL    HW231668   2.341   4.329   2.431 -0.8339  1.1724  0.4301
 6679SOL     OW31669   0.305   2.867   7.794 -0.1765  0.1115 -0.0231
 6679SOL    HW131670   0.255   2.938   7.753  0.1076  0.0655 -0.4469
 6679SOL    HW231671   0.279   2.797   7.734  1.4980 -0.0832 -0.5331
 6680SOL     OW31672   0.563   3.529  11.649 -0.0305  0.1967 -0.1149
 6680SOL    HW131673   0.620   3.492  11.716  0.7146 -1.7817 -1.8306
 6680SOL    HW231674   0.607   3.611  11.626 -0.2167  0.7263  1.4087
 6681SOL     OW31675   1.103   1.604   9.197  0.2532 -0.4733  0.1511
 6681SOL    HW131676   1.158   1.602   9.275 -1.1715  0.0152  1.1572
 6681SOL    HW231677   1.018   1.611   9.241  0.5405  1.1149  0.4522
 6682SOL     OW31678   1.059   3.684   9.554  0.0505  0.5196 -0.1636
 6682SOL    HW131679   1.002   3.747   9.599 -0.3065 -1.2041  1.7853
 6682SOL    HW231680   1.143   3.695   9.598  0.2581  0.7544 -0.6133
 6683SOL     OW31681   4.018   1.730   6.116  0.0841 -0.7579 -0.0698
 6683SOL    HW131682   4.044   1.805   6.169 -1.6091 -1.3306  1.6025
 6683SOL    HW231683   3.939   1.766   6.076  1.0821  0.5714 -0.8465
 6684SOL     OW31684   3.906   2.396   6.710 -0.0020 -0.2439 -0.0047
 6684SOL    HW131685   3.903   2.492   6.705 -1.2910 -0.2840  0.0319
 6684SOL    HW231686   3.824   2.366   6.671 -0.1480 -0.3389  0.3823
 6685SOL     OW31687   0.625   3.325   4.718  0.0858  0.1364  0.0135
 6685SOL    HW131688   0.648   3.242   4.676  0.5666 -1.0566  2.6429
 6685SOL    HW231689   0.583   3.292   4.798  0.5854  0.2515  0.3193
 6686SOL     OW31690   4.298   0.765   8.479  0.0132 -0.1272  0.3282
 6686SOL    HW131691   4.368   0.808   8.431  0.2342  0.9225  1.5847
 6686SOL    HW231692   4.254   0.835   8.527  3.0297  1.3474  0.9230
 6687SOL     OW31693   2.193   0.158   5.512  0.1431 -0.3296 -0.1264
 6687SOL    HW131694   2.132   0.148   5.586  1.0674  2.8744  1.0632
 6687SOL    HW231695   2.272   0.159   5.566  1.5942  0.4626 -2.2579
 6688SOL     OW31696   1.341   4.609   2.079  0.1710 -0.0718  0.1826
 6688SOL    HW131697   1.395   4.677   2.118  0.3515  0.9069 -1.7816
 6688SOL    HW231698   1.376   4.582   1.994  0.5208 -0.3190  0.4039
 6689SOL     OW31699   1.951   3.810   6.824  0.1173 -0.2344  0.2254
 6689SOL    HW131700   1.890   3.798   6.896 -3.5740  0.3506 -2.8195
 6689SOL    HW231701   1.911   3.880   6.773 -0.6922  0.0616  1.2583
 6690SOL     OW31702   1.680   0.106   5.502  1.0069  0.1856  0.3700
 6690SOL    HW131703   1.620   0.056   5.447  2.4452 -1.1565  0.0174
 6690SOL    HW231704   1.761   0.088   5.454 -0.0949  0.2959 -1.5282
 6691SOL     OW31705   3.243   4.212  17.616 -0.1271  0.1346 -0.5732
 6691SOL    HW131706   3.177   4.276  17.589 -0.9970 -1.7804 -2.9572
 6691SOL    HW231707   3.308   4.240  17.551 -0.0915 -1.2041 -1.1067
 6692SOL     OW31708   0.242   2.256  12.728 -0.4730 -0.0817  0.0964
 6692SOL    HW131709   0.230   2.294  12.814 -0.4296 -0.2067  0.1581
 6692SOL    HW231710   0.152   2.233  12.704 -1.5418 -0.0316  4.0928
 6693SOL     OW31711   2.505   3.597  14.678  0.4108  0.2098  0.2097
 6693SOL    HW131712   2.459   3.578  14.597 -0.5863  1.2476  0.5334
 6693SOL    HW231713   2.564   3.670  14.659 -0.3983  0.6455 -0.5937
 6694SOL     OW31714   2.334   2.049  14.624 -0.4042  0.4879 -0.6112
 6694SOL    HW131715   2.265   2.113  14.644  0.1022  0.2938  1.8221
 6694SOL    HW231716   2.345   2.063  14.530 -0.8773  2.5462 -0.3574
 6695SOL     OW31717   4.388   1.315   7.257 -0.5970  0.2002  0.0003
 6695SOL    HW131718   4.409   1.236   7.307  0.0584 -0.4813 -1.3426
 6695SOL    HW231719   4.412   1.373   7.329 -0.2534  3.7606 -3.0141
 6696SOL     OW31720   0.549   1.179   4.445  0.5019  0.0385  0.4157
 6696SOL    HW131721   0.541   1.273   4.430  0.7313  0.3969  2.6008
 6696SOL    HW231722   0.581   1.157   4.357 -1.8042 -1.7381  0.0215
 6697SOL     OW31723   2.115   2.095   8.186  0.3866  0.2868 -0.1891
 6697SOL    HW131724   2.123   2.167   8.248  0.0177  0.3103 -0.1717
 6697SOL    HW231725   2.041   2.052   8.228  0.2114  1.1410  0.3751
 6698SOL     OW31726   4.096   1.400   5.741  0.3118 -0.6328 -0.0411
 6698SOL    HW131727   4.127   1.321   5.786 -1.1804 -1.2060 -0.0387
 6698SOL    HW231728   4.082   1.360   5.655 -1.8048  0.4830 -0.1939
 6699SOL     OW31729   2.557   1.682   9.403 -0.4918  0.5154  0.5331
 6699SOL    HW131730   2.514   1.615   9.456  1.5264 -0.9358  0.3850
 6699SOL    HW231731   2.502   1.757   9.423 -1.5717  0.2447 -1.3825
 6700SOL     OW31732   2.329   3.214  10.807 -0.3386  0.4232 -0.1786
 6700SOL    HW131733   2.241   3.176  10.814  0.8113 -1.9566  1.7792
 6700SOL    HW231734   2.388   3.139  10.814  0.8814  1.3507 -0.6856
 6701SOL     OW31735   4.126   2.262  11.422  0.0714 -0.0410  0.2738
 6701SOL    HW131736   4.127   2.259  11.326 -1.7915  1.0367  0.2238
 6701SOL    HW231737   4.147   2.355  11.425  2.7948 -0.6597  0.3300
 6702SOL     OW31738   2.325   2.788   9.245  0.2446 -0.1527 -0.1964
 6702SOL    HW131739   2.392   2.801   9.312  0.0165 -0.7806  0.1592
 6702SOL    HW231740   2.319   2.693   9.231 -1.3091 -0.2567  1.1088
 6703SOL     OW31741   3.614   4.425   0.207  0.3880 -0.2007 -0.4756
 6703SOL    HW131742   3.534   4.380   0.180  1.1384 -2.8041  1.6981
 6703SOL    HW231743   3.584   4.495   0.264  2.0838 -0.3316  0.5757
 6704SOL     OW31744   3.484   0.780  12.140  0.4763 -0.8457 -1.1443
 6704SOL    HW131745   3.527   0.714  12.193  2.0274  1.2490  0.2127
 6704SOL    HW231746   3.408   0.731  12.108 -0.3659  0.2454 -0.8275
 6705SOL     OW31747   3.723   4.544   8.409 -0.8772 -0.6695  0.4248
 6705SOL    HW131748   3.801   4.507   8.450 -0.5300  2.1580  2.2849
 6705SOL    HW231749   3.656   4.539   8.477 -0.8411  2.0520  0.6456
 6706SOL     OW31750   1.060   1.976   2.626 -0.8691  0.2354  0.2649
 6706SOL    HW131751   1.150   1.981   2.593  0.0609  1.4980  2.9084
 6706SOL    HW231752   1.023   2.044   2.570  0.9199  0.2537 -0.8989
 6707SOL     OW31753   2.596   3.066   3.700 -0.1587 -0.4862  0.2787
 6707SOL    HW131754   2.545   3.038   3.624  0.6774 -0.3270 -0.3406
 6707SOL    HW231755   2.558   3.012   3.769 -0.5336  0.1645  0.5848
 6708SOL     OW31756   1.076   2.256   7.675 -0.4064 -0.1154 -0.0498
 6708SOL    HW131757   1.027   2.333   7.704  1.9998  0.3796  2.7248
 6708SOL    HW231758   0.999   2.199   7.680 -1.9274  1.6825 -2.5621
 6709SOL     OW31759   3.398   3.902   8.497  0.9050 -0.1158 -0.1172
 6709SOL    HW131760   3.419   3.992   8.521  1.8947 -0.4270  0.1688
 6709SOL    HW231761   3.332   3.912   8.429 -0.9991  1.0319  1.9061
 6710SOL     OW31762   0.883   0.323   8.626 -0.5934  0.4294  0.2676
 6710SOL    HW131763   0.839   0.267   8.562  0.3372  0.0007 -0.0007
 6710SOL    HW231764   0.836   0.304   8.707 -2.0279  0.3266 -0.5953
 6711SOL     OW31765   1.268   4.351   6.238 -0.6284  0.2909  0.3614
 6711SOL    HW131766   1.319   4.413   6.290 -0.4991  1.6652 -1.4389
 6711SOL    HW231767   1.284   4.274   6.292  0.4077  0.1425 -0.1547
 6712SOL     OW31768   2.296   1.739   4.601 -0.0829  0.3763  0.1957
 6712SOL    HW131769   2.272   1.809   4.661  0.3462  0.5480  0.1665
 6712SOL    HW231770   2.392   1.734   4.609 -0.1460  2.1609  2.1040
 6713SOL     OW31771   3.507   2.443  10.093 -0.7324  0.4810  0.3402
 6713SOL    HW131772   3.442   2.484  10.151 -1.4886 -0.8651  0.4386
 6713SOL    HW231773   3.523   2.515  10.031  1.2885 -0.7761 -0.5787
 6714SOL     OW31774   0.913   3.449   1.183 -0.9134 -0.2626  0.3246
 6714SOL    HW131775   0.880   3.538   1.173 -1.6034 -0.5246  0.2209
 6714SOL    HW231776   0.922   3.440   1.278 -1.1023  2.7427  0.6155
 6715SOL     OW31777   1.892   1.164   9.635 -0.2531 -0.1540  0.2468
 6715SOL    HW131778   1.885   1.068   9.628 -0.7288  0.0011 -1.4972
 6715SOL    HW231779   1.920   1.175   9.726  1.1277 -3.0922  0.2093
 6716SOL     OW31780   2.232   0.726   4.767  0.2273  0.1236  0.1646
 6716SOL    HW131781   2.147   0.717   4.724  0.4744  2.4917 -0.8504
 6716SOL    HW231782   2.298   0.717   4.698 -0.8051 -0.6591 -0.7139
 6717SOL     OW31783   0.850   1.161   4.223 -0.0422 -0.2939 -0.2652
 6717SOL    HW131784   0.855   1.218   4.299  0.8686 -0.7087 -0.0158
 6717SOL    HW231785   0.761   1.171   4.188 -1.0541 -0.1375  2.3435
 6718SOL     OW31786   3.307   4.370  16.713 -0.0972  0.0164  0.4377
 6718SOL    HW131787   3.348   4.446  16.672 -0.1183  0.2628  0.8776
 6718SOL    HW231788   3.219   4.406  16.721  0.4095  1.2220  0.5453
 6719SOL     OW31789   4.222   1.724   4.944  0.3800 -0.6338  0.2741
 6719SOL    HW131790   4.235   1.736   4.850 -0.5190 -0.0368  0.2252
 6719SOL    HW231791   4.146   1.780   4.954  1.1490  0.3376  0.6014
 6720SOL     OW31792   4.145   2.043  10.459 -0.3010 -0.3061 -0.0978
 6720SOL    HW131793   4.200   2.000  10.395  1.3649  0.1927  1.0029
 6720SOL    HW231794   4.203   2.037  10.535 -0.8663 -0.0354  0.3582
 6721SOL     OW31795   3.767   0.708   6.044 -0.5833 -0.0277  0.0202
 6721SOL    HW131796   3.692   0.698   6.102 -0.6803  0.1769 -0.0687
 6721SOL    HW231797   3.812   0.628   6.072  0.5192 -0.1211 -2.0077
 6722SOL     OW31798   4.271   4.436   8.887  0.4949  0.1765 -0.3384
 6722SOL    HW131799   4.184   4.457   8.920  0.2185 -1.8440  0.2099
 6722SOL    HW231800   4.297   4.372   8.953 -3.6189  0.7468  1.8285
 6723SOL     OW31801   3.742   2.818   1.938  0.5530  0.1326  0.1739
 6723SOL    HW131802   3.779   2.753   1.879  2.0419  0.6379  0.5557
 6723SOL    HW231803   3.726   2.766   2.017  1.1005 -1.2022 -0.5946
 6724SOL     OW31804   3.471   1.788   4.957  0.2764 -0.0473  0.1955
 6724SOL    HW131805   3.378   1.801   4.942  0.3493  0.4288  0.1548
 6724SOL    HW231806   3.490   1.731   4.882 -0.2851 -0.3446  0.2784
 6725SOL     OW31807   2.352   2.036   8.098  0.0923 -0.4066  0.1826
 6725SOL    HW131808   2.262   2.060   8.120  0.1103 -0.6362  0.5025
 6725SOL    HW231809   2.394   2.061   8.180 -0.8101  1.1558  0.1707
 6726SOL     OW31810   3.721   0.356   6.866 -0.1928 -0.1581  0.5328
 6726SOL    HW131811   3.785   0.316   6.807  2.3982  0.9349  2.6315
 6726SOL    HW231812   3.652   0.290   6.863 -0.5969  0.3975 -2.6887
 6727SOL     OW31813   1.831   4.377   6.680  0.2635  0.2851  0.1745
 6727SOL    HW131814   1.907   4.364   6.737 -1.5592 -1.0320  2.3315
 6727SOL    HW231815   1.804   4.469   6.681 -2.0284 -0.3940  1.1531
 6728SOL     OW31816   2.885   3.499   1.909 -0.2066  0.6824  0.5445
 6728SOL    HW131817   2.867   3.445   1.986 -1.0982  1.5090  0.9270
 6728SOL    HW231818   2.800   3.486   1.866  0.5855  2.5773 -1.5680
 6729SOL     OW31819   1.086   0.542   7.978 -0.4698 -0.0132  0.3266
 6729SOL    HW131820   1.020   0.558   7.911 -2.0265  0.2076  1.9281
 6729SOL    HW231821   1.130   0.462   7.949 -1.6797 -1.2061  1.7612
 6730SOL     OW31822   2.191   3.877  13.954 -0.3944  0.3505  0.0493
 6730SOL    HW131823   2.144   3.844  14.030  1.2114  0.8578  1.2405
 6730SOL    HW231824   2.223   3.959  13.990  0.3765  1.1571 -2.4803
 6731SOL     OW31825   2.719   4.075   5.313  0.1674 -0.1888 -0.0760
 6731SOL    HW131826   2.654   4.087   5.243  0.2266 -0.3172 -0.1517
 6731SOL    HW231827   2.673   4.022   5.378 -0.3490  0.0206 -0.2704
 6732SOL     OW31828   2.311   3.584  12.661 -0.2439  0.4400  0.0067
 6732SOL    HW131829   2.299   3.679  12.660  0.8698  0.6090  2.4118
 6732SOL    HW231830   2.341   3.562  12.749  0.9407 -1.4719 -0.8834
 6733SOL     OW31831   2.453   1.336   4.689 -0.1731 -0.1240  0.8947
 6733SOL    HW131832   2.439   1.362   4.598  0.4365  0.3186  0.9256
 6733SOL    HW231833   2.428   1.417   4.734 -0.5134 -0.0789  0.6259
 6734SOL     OW31834   4.549   2.046   8.429 -0.0633 -0.0189  0.4813
 6734SOL    HW131835   4.478   2.092   8.473 -0.7950 -0.8841  0.1947
 6734SOL    HW231836   4.563   1.970   8.485 -0.9589 -1.6703 -1.5373
 6735SOL     OW31837   2.571   3.238   5.268  0.3235  0.0835  0.2588
 6735SOL    HW131838   2.574   3.155   5.314  1.4394 -0.2980 -0.5003
 6735SOL    HW231839   2.484   3.268   5.293  0.3311 -0.9463  1.4963
 6736SOL     OW31840   4.498   2.334   3.177 -0.2764  0.1104 -0.2826
 6736SOL    HW131841   4.416   2.357   3.132 -0.4449  1.4672  0.7002
 6736SOL    HW231842   4.546   2.417   3.178  0.5245 -0.3597 -0.6583
 6737SOL     OW31843   3.914   1.218   8.019 -0.4111 -0.5439 -0.4353
 6737SOL    HW131844   3.933   1.206   7.927  2.1808 -1.2633  0.1980
 6737SOL    HW231845   3.829   1.259   8.004 -0.6994 -1.0634 -0.2372
 6738SOL     OW31846   4.720   2.546   9.292  0.3217 -0.2326 -0.3676
 6738SOL    HW131847   0.052   2.606   9.268 -0.0090  0.6075  0.7983
 6738SOL    HW231848   4.655   2.575   9.228  1.2857 -0.4875 -1.4551
 6739SOL     OW31849   1.721   0.809  13.579 -0.3954  0.5527 -0.2260
 6739SOL    HW131850   1.775   0.854  13.644 -0.7916  0.7054 -0.0023
 6739SOL    HW231851   1.697   0.881  13.520  0.3336  0.1555 -1.0045
 6740SOL     OW31852   4.305   3.364   6.675 -1.2735  0.1800 -0.5908
 6740SOL    HW131853   4.292   3.447   6.629 -1.0874  0.5614  0.0555
 6740SOL    HW231854   4.357   3.310   6.615 -3.0742 -0.6912 -1.3871
 6741SOL     OW31855   3.012   4.573  16.508  0.4597 -0.4063  0.4890
 6741SOL    HW131856   2.949   4.617  16.451  0.0968 -0.6665  0.6887
 6741SOL    HW231857   3.088   4.569  16.451  1.3679  1.5349  1.5719
 6742SOL     OW31858   1.355   4.416   4.301 -0.3374  0.1338 -0.8531
 6742SOL    HW131859   1.341   4.507   4.325  2.1119  0.1881  0.2681
 6742SOL    HW231860   1.313   4.421   4.215  0.0384  0.3631 -1.0203
 6743SOL     OW31861   0.860   2.980   6.589  0.1241 -0.2216 -0.7910
 6743SOL    HW131862   0.879   2.954   6.500 -2.5429 -0.3022 -1.3427
 6743SOL    HW231863   0.852   3.074   6.575  2.7321  0.5206  2.7924
 6744SOL     OW31864   4.412   0.053   8.148  0.6057  0.3772 -0.1820
 6744SOL    HW131865   4.345   0.122   8.146  0.0528 -0.1887 -1.2376
 6744SOL    HW231866   4.358   4.712   8.142 -3.5859  3.1314  1.1222
 6745SOL     OW31867   4.558   2.029  17.422 -0.2544  0.1688 -0.4630
 6745SOL    HW131868   4.620   1.956  17.425 -0.5591 -0.0985 -0.6678
 6745SOL    HW231869   4.475   1.983  17.419  0.1321 -0.5785  0.3222
 6746SOL     OW31870   2.861   3.296  16.540 -0.1310 -0.5369  0.6793
 6746SOL    HW131871   2.862   3.235  16.465  1.6981 -1.1358  1.2067
 6746SOL    HW231872   2.956   3.305  16.540 -0.1528 -0.3195  0.7192
 6747SOL     OW31873   0.353   2.503   4.076  0.3291 -0.1126 -0.4085
 6747SOL    HW131874   0.317   2.590   4.061 -1.8651 -0.7979  0.8794
 6747SOL    HW231875   0.405   2.503   3.995  0.6195 -2.9786 -0.2149
 6748SOL     OW31876   1.869   1.754   3.983  0.1647 -0.7728 -0.0873
 6748SOL    HW131877   1.781   1.768   4.018 -0.1022 -1.4601 -0.5072
 6748SOL    HW231878   1.929   1.792   4.048  0.4142 -1.2913 -0.0186
 6749SOL     OW31879   2.798   4.334  17.215  0.3001  0.4822  0.2909
 6749SOL    HW131880   2.764   4.396  17.279  2.5077  1.2815  0.7003
 6749SOL    HW231881   2.719   4.323  17.163 -0.8128 -0.6943  2.2457
 6750SOL     OW31882   1.412   4.356   7.831 -0.1169 -0.0554 -0.1164
 6750SOL    HW131883   1.429   4.370   7.737 -1.3876  0.9871 -0.1956
 6750SOL    HW231884   1.317   4.353   7.819 -0.0763 -0.6277 -0.3062
 6751SOL     OW31885   3.344   3.919   1.976  0.3918 -0.1540 -0.6430
 6751SOL    HW131886   3.393   3.998   1.952  1.6196 -0.9280 -0.7271
 6751SOL    HW231887   3.418   3.862   1.999 -0.5973 -0.9516  0.5650
 6752SOL     OW31888   1.043   3.820   4.608 -0.2193  0.0535  0.1635
 6752SOL    HW131889   1.071   3.756   4.544 -1.6307  0.9044 -1.3167
 6752SOL    HW231890   1.096   3.898   4.597  1.5614 -1.2071 -0.0841
 6753SOL     OW31891   1.568   0.137   6.628 -0.0486 -0.1917 -0.1440
 6753SOL    HW131892   1.618   0.218   6.640 -0.4848 -0.0314  0.5704
 6753SOL    HW231893   1.546   0.117   6.719  0.1455  1.4802  0.2658
 6754SOL     OW31894   3.137   3.010   9.368 -0.2854  0.2619  0.3716
 6754SOL    HW131895   3.090   3.093   9.380 -1.1373 -0.0164 -1.0700
 6754SOL    HW231896   3.194   3.021   9.445 -0.4378 -1.9221  0.7813
 6755SOL     OW31897   1.193   3.087   5.489  0.1975 -0.2259 -0.1493
 6755SOL    HW131898   1.169   3.117   5.577  1.7345  0.4757  0.0348
 6755SOL    HW231899   1.207   3.166   5.436 -2.0297 -1.7890 -3.0542
 6756SOL     OW31900   1.584   3.891   6.593  0.1713 -0.2522  0.0884
 6756SOL    HW131901   1.548   3.973   6.625  0.4816  0.2048 -0.7221
 6756SOL    HW231902   1.675   3.919   6.586  0.1455  0.1963  1.5143
 6757SOL     OW31903   3.270   3.770   7.301 -0.2205  0.3398 -0.0275
 6757SOL    HW131904   3.353   3.768   7.350 -0.8087 -1.9903  0.8777
 6757SOL    HW231905   3.312   3.753   7.216  1.2590  0.5429  0.6567
 6758SOL     OW31906   0.885   1.646   0.872  0.3920  0.0853  0.7792
 6758SOL    HW131907   0.947   1.674   0.939 -0.7008  4.3493  0.0118
 6758SOL    HW231908   0.813   1.706   0.889 -0.1399 -0.7174  1.3588
 6759SOL     OW31909   0.721   4.317  13.276 -0.2219 -0.4106 -0.7925
 6759SOL    HW131910   0.660   4.391  13.278 -0.5893 -0.7660  1.0125
 6759SOL    HW231911   0.722   4.292  13.368  0.1971  1.5742 -0.2410
 6760SOL     OW31912   2.498   4.447   7.778  0.4696 -0.3580  0.0293
 6760SOL    HW131913   2.496   4.495   7.861 -0.5115  0.5610 -0.5169
 6760SOL    HW231914   2.587   4.413   7.779 -0.2144 -2.0695  2.6956
 6761SOL     OW31915   0.960   1.949  11.428  0.1626  0.0858  0.3768
 6761SOL    HW131916   0.970   1.896  11.348  0.4288  0.2001  0.3356
 6761SOL    HW231917   0.893   1.893  11.467 -0.8713 -0.7021 -2.4882
 6762SOL     OW31918   1.671   3.348  16.047  0.5490  0.0098  0.2488
 6762SOL    HW131919   1.658   3.420  15.985  0.0478 -0.0562  0.2728
 6762SOL    HW231920   1.641   3.387  16.129  1.7304  0.4651  0.4521
 6763SOL     OW31921   2.313   0.240   0.187 -0.0315 -0.1057 -0.0297
 6763SOL    HW131922   2.373   0.270   0.255 -0.5666  1.8960 -0.4465
 6763SOL    HW231923   2.233   0.281   0.220 -0.4031  0.1194 -1.1930
 6764SOL     OW31924   0.549   3.121  15.044 -0.0074 -0.5600 -0.1701
 6764SOL    HW131925   0.516   3.041  15.085 -1.8596  0.6323  0.6530
 6764SOL    HW231926   0.471   3.175  15.035  1.0604  1.0505  0.2008
 6765SOL     OW31927   2.403   2.271  10.452  0.2727 -0.5638 -0.6873
 6765SOL    HW131928   2.453   2.296  10.529 -1.0185 -1.2649  0.3619
 6765SOL    HW231929   2.403   2.176  10.463 -1.1568 -0.6392 -1.3836
 6766SOL     OW31930   3.637   4.083   2.486  0.6924  0.2142  0.2143
 6766SOL    HW131931   3.705   4.017   2.472  1.2234  1.0321 -1.1045
 6766SOL    HW231932   3.670   4.130   2.562  0.3832  0.3273  0.2756
 6767SOL     OW31933   4.032   4.189   5.395 -0.0619  0.5835  0.4013
 6767SOL    HW131934   4.040   4.222   5.485 -0.4582 -0.9423  0.9990
 6767SOL    HW231935   4.047   4.268   5.343 -0.4121 -0.2906 -1.0137
 6768SOL     OW31936   1.453   1.218   5.652 -0.1177  0.1972  0.6134
 6768SOL    HW131937   1.433   1.244   5.742 -0.2862 -2.7964  1.4731
 6768SOL    HW231938   1.372   1.251   5.613  0.9105  0.4082 -1.3314
 6769SOL     OW31939   3.618   4.507   9.144  0.0794 -0.4061 -0.3345
 6769SOL    HW131940   3.646   4.429   9.190 -2.2323 -1.5377 -0.8321
 6769SOL    HW231941   3.532   4.518   9.185 -0.8685  0.2065 -2.4409
 6770SOL     OW31942   2.637   2.779  13.220 -0.3600  0.7927 -0.2187
 6770SOL    HW131943   2.543   2.768  13.234  0.0552 -3.6658 -0.7799
 6770SOL    HW231944   2.653   2.861  13.266  3.3104 -0.6275  1.0753
 6771SOL     OW31945   4.672   1.105   6.078 -0.5629 -0.1077  0.1598
 6771SOL    HW131946   4.730   1.036   6.044  1.5192  2.6790 -1.9786
 6771SOL    HW231947   4.715   1.120   6.162 -2.4331  0.5137  1.0018
 6772SOL     OW31948   2.406   0.208   5.651 -0.0450  0.2256 -0.5002
 6772SOL    HW131949   2.494   0.234   5.624  0.0564  0.4663  0.0600
 6772SOL    HW231950   2.362   0.289   5.676  1.1352  0.0232  2.3018
 6773SOL     OW31951   3.907   2.915   4.022 -0.7515 -0.3995  0.3951
 6773SOL    HW131952   3.978   2.968   4.058  0.2979 -2.6060  1.6156
 6773SOL    HW231953   3.891   2.956   3.938  3.6542 -0.8586 -0.6979
 6774SOL     OW31954   1.037   3.352   0.413 -0.5666 -0.3119 -0.1191
 6774SOL    HW131955   1.005   3.437   0.444 -1.1415 -0.9861  1.1440
 6774SOL    HW231956   1.088   3.314   0.484  0.4288 -1.5086 -1.4694
 6775SOL     OW31957   1.224   0.209  14.198  0.4349 -0.0718 -0.2254
 6775SOL    HW131958   1.159   0.252  14.255  0.3629 -2.2043  1.2842
 6775SOL    HW231959   1.301   0.234  14.249 -0.8562  2.2431  0.6442
 6776SOL     OW31960   3.422   1.499   1.452  0.3630  1.0908 -0.2388
 6776SOL    HW131961   3.502   1.468   1.409 -0.8474 -0.3008 -1.4641
 6776SOL    HW231962   3.456   1.559   1.519  0.6497  1.1387 -0.4266
 6777SOL     OW31963   4.633   3.195   2.765  0.0039  0.3050  1.0440
 6777SOL    HW131964   4.617   3.252   2.689 -0.8949 -2.6729 -1.0123
 6777SOL    HW231965   4.552   3.144   2.767 -0.9853  1.8276  0.2390
 6778SOL     OW31966   3.328   4.278  11.488 -0.2429 -0.1148  0.0422
 6778SOL    HW131967   3.257   4.308  11.545 -0.2894 -1.5573  0.7554
 6778SOL    HW231968   3.306   4.325  11.408  3.0693  2.1266  0.4579
 6779SOL     OW31969   3.831   1.724  11.165 -0.2635 -0.4631 -0.6368
 6779SOL    HW131970   3.873   1.769  11.238 -0.9558  1.1427 -1.2412
 6779SOL    HW231971   3.827   1.781  11.088 -0.9049  0.6515  0.2192
 6780SOL     OW31972   0.814   3.167   9.124 -0.2021  0.0247 -0.1144
 6780SOL    HW131973   0.902   3.204   9.130 -0.9234  1.7704 -0.1820
 6780SOL    HW231974   0.817   3.135   9.034  0.1806 -0.2296 -0.0124
 6781SOL     OW31975   1.398   4.324   2.005 -0.3477  0.0470 -0.3713
 6781SOL    HW131976   1.363   4.254   2.061 -0.1668  1.6175  1.7103
 6781SOL    HW231977   1.312   4.365   1.995 -1.8010 -2.4460  1.8512
 6782SOL     OW31978   0.509   3.982  13.651  0.4426 -0.4981 -0.3852
 6782SOL    HW131979   0.422   3.956  13.681 -0.2913  1.0592 -1.1504
 6782SOL    HW231980   0.566   3.920  13.696  1.1557  0.1779 -0.3571
 6783SOL     OW31981   2.737   4.202   2.370 -0.1412  0.5163  0.1852
 6783SOL    HW131982   2.750   4.144   2.294  0.7519  1.3518 -0.3032
 6783SOL    HW231983   2.642   4.193   2.376 -0.0471 -0.3491  0.3365
 6784SOL     OW31984   3.495   4.310  13.774 -0.6659  0.2830  0.0530
 6784SOL    HW131985   3.417   4.364  13.764  0.0004  1.1487 -0.4923
 6784SOL    HW231986   3.548   4.339  13.700  0.0600  0.4383  0.6286
 6785SOL     OW31987   3.941   0.823  11.298  0.3731  0.3258  0.3689
 6785SOL    HW131988   3.964   0.852  11.210  0.6674 -1.9736 -0.3105
 6785SOL    HW231989   3.976   0.737  11.321 -0.7561 -0.2314  0.0170
 6786SOL     OW31990   3.044   0.705   4.399 -0.0365  0.5009  0.6351
 6786SOL    HW131991   2.963   0.696   4.450  0.1886  1.1556  1.1037
 6786SOL    HW231992   3.022   0.776   4.339  2.1933 -1.4041 -2.4791
 6787SOL     OW31993   2.899   3.637   3.455  0.3643  0.2085 -0.3365
 6787SOL    HW131994   2.815   3.616   3.496  0.5822  0.1371  0.0723
 6787SOL    HW231995   2.935   3.549   3.445  1.1955  0.3971  0.9744
 6788SOL     OW31996   1.914   1.836   4.437 -0.2256  0.1925  0.7508
 6788SOL    HW131997   1.839   1.840   4.495 -0.4319  3.4249  0.2747
 6788SOL    HW231998   1.950   1.925   4.434 -1.9279  0.8331 -0.3766
 6789SOL     OW31999   2.704   3.405   3.569 -0.0582 -0.4988  0.3186
 6789SOL    HW132000   2.666   3.412   3.482 -1.2863  0.0449  0.8930
 6789SOL    HW232001   2.630   3.425   3.626 -1.1826  0.3732 -1.4837
 6790SOL     OW32002   1.808   2.668   1.957 -0.1486  0.0073  0.3825
 6790SOL    HW132003   1.871   2.661   2.029 -1.3702 -3.4527  1.1180
 6790SOL    HW232004   1.851   2.604   1.902 -2.0177  0.2550 -1.3365
 6791SOL     OW32005   2.667   0.148   1.668  0.3019 -0.1452  0.1402
 6791SOL    HW132006   2.589   0.154   1.722 -0.0687 -0.2427 -0.3830
 6791SOL    HW232007   2.659   0.229   1.619  0.2083 -0.8112 -0.9530
 6792SOL     OW32008   0.930   0.843  10.516 -0.0607 -0.0143 -0.1999
 6792SOL    HW132009   0.839   0.871  10.524 -0.4436 -1.3608  0.0949
 6792SOL    HW232010   0.952   0.826  10.608 -0.6161  1.1266  0.1450
 6793SOL     OW32011   0.375   2.327   8.658 -0.4776  0.2791 -0.1820
 6793SOL    HW132012   0.301   2.277   8.625  0.1692 -0.0775 -1.1145
 6793SOL    HW232013   0.422   2.258   8.705  1.0806  2.3221  1.2497
 6794SOL     OW32014   0.288   1.566   5.829  0.2517 -0.0014 -0.2126
 6794SOL    HW132015   0.338   1.494   5.790 -2.8587 -1.2108 -1.9303
 6794SOL    HW232016   0.245   1.511   5.894 -3.0335  2.4762 -0.2969
 6795SOL     OW32017   3.966   2.098  11.860  0.2036 -0.1123 -0.0465
 6795SOL    HW132018   4.004   2.186  11.862 -1.9055  0.7834  0.6530
 6795SOL    HW232019   3.991   2.067  11.948  0.7399  0.4899  0.0211
 6796SOL     OW32020   4.669   2.209   8.761  0.3845 -0.4696 -0.2937
 6796SOL    HW132021   4.590   2.201   8.814  0.5101  2.2257  0.3374
 6796SOL    HW232022   4.722   2.253   8.828  1.4238 -1.7851 -0.2480
 6797SOL     OW32023   4.130   3.864  11.416 -0.2963 -0.6743  0.3366
 6797SOL    HW132024   4.100   3.881  11.326  0.8583  0.4291  0.1589
 6797SOL    HW232025   4.046   3.838  11.453 -2.0620  3.2917 -0.8790
 6798SOL     OW32026   1.027   3.639   6.273 -0.3175 -0.4927  0.4295
 6798SOL    HW132027   1.112   3.654   6.233  0.0561 -1.0262  1.0200
 6798SOL    HW232028   1.033   3.553   6.314  0.9918 -0.9767 -0.7838
 6799SOL     OW32029   3.737   2.864   7.623 -0.3471  0.7444 -0.1845
 6799SOL    HW132030   3.803   2.918   7.668  0.0391 -0.1934  0.4060
 6799SOL    HW232031   3.747   2.776   7.660  0.1254  1.9222  2.4883
 6800SOL     OW32032   0.439   4.188   7.368  0.6965 -0.0532  0.3112
 6800SOL    HW132033   0.431   4.092   7.365  0.7050 -0.0946  1.7033
 6800SOL    HW232034   0.390   4.221   7.443 -1.0794 -0.2078 -0.7790
 6801SOL     OW32035   0.892   1.761   5.503  0.1192  0.3567  0.2133
 6801SOL    HW132036   0.948   1.698   5.458  0.5359  0.8523  0.0314
 6801SOL    HW232037   0.933   1.846   5.490  0.3612  0.1515 -0.3718
 6802SOL     OW32038   2.981   2.151   8.988 -0.2145  0.0956 -0.2994
 6802SOL    HW132039   2.980   2.107   9.073 -2.5251 -1.4325 -1.0982
 6802SOL    HW232040   3.072   2.137   8.962  1.4636  2.7262  4.2546
 6803SOL     OW32041   1.399   0.120   5.898 -0.3111 -0.0008 -0.3720
 6803SOL    HW132042   1.320   0.173   5.882  0.1224  0.9718  0.7118
 6803SOL    HW232043   1.455   0.185   5.940  0.1332  0.5341 -1.8008
 6804SOL     OW32044   4.461   4.723   4.889  0.9480  0.3270  0.0154
 6804SOL    HW132045   4.554   4.712   4.870  0.9746  2.0833 -0.8810
 6804SOL    HW232046   4.470   4.724   4.985  0.7500  0.3222  0.0358
 6805SOL     OW32047   1.304   0.235  12.461  0.0722 -0.6945 -0.4146
 6805SOL    HW132048   1.280   0.144  12.476  0.5797 -0.9469 -1.1401
 6805SOL    HW232049   1.337   0.224  12.372  1.0635 -0.7347 -0.0525
 6806SOL     OW32050   3.268   1.394   3.111 -0.4766  0.6703 -0.0636
 6806SOL    HW132051   3.196   1.431   3.162  0.2407  3.6604 -1.2493
 6806SOL    HW232052   3.288   1.322   3.171 -1.4512 -0.8284 -1.5214
 6807SOL     OW32053   1.210   1.262   5.322 -0.1641 -0.0177 -0.2832
 6807SOL    HW132054   1.162   1.278   5.241 -0.0370  1.9558  0.0446
 6807SOL    HW232055   1.300   1.281   5.294 -0.0784 -3.7673 -2.6342
 6808SOL     OW32056   1.912   3.753   4.127  0.2033 -0.0085  0.0841
 6808SOL    HW132057   1.984   3.760   4.190 -0.7152  2.6859  0.8436
 6808SOL    HW232058   1.846   3.818   4.153  1.3733  0.5275  1.7274
 6809SOL     OW32059   0.281   2.910   6.434 -0.6575  0.3466  0.4064
 6809SOL    HW132060   0.306   2.963   6.359  1.0540  0.3870  1.0042
 6809SOL    HW232061   0.290   2.823   6.394  0.8944  1.3283 -1.3330
 6810SOL     OW32062   0.378   3.865   8.126 -0.5763  0.1684  0.3691
 6810SOL    HW132063   0.394   3.959   8.118  0.5386  0.0134  0.7730
 6810SOL    HW232064   0.384   3.846   8.032  0.7700 -4.0307  1.3137
 6811SOL     OW32065   4.331   4.405  17.094 -0.5738 -0.3370 -0.3594
 6811SOL    HW132066   4.378   4.324  17.116 -0.8533 -0.5948 -0.7137
 6811SOL    HW232067   4.328   4.456  17.175 -1.5023  0.1995 -0.7336
 6812SOL     OW32068   3.561   3.881   6.994  0.3344 -0.4896  0.2917
 6812SOL    HW132069   3.613   3.890   6.914  0.9584 -1.7473  0.5461
 6812SOL    HW232070   3.589   3.791   7.013  0.2371 -0.8061 -1.0352
 6813SOL     OW32071   3.612   1.248  15.076 -0.5181  0.0309 -1.0912
 6813SOL    HW132072   3.612   1.208  14.989  0.9325 -1.7622 -0.2676
 6813SOL    HW232073   3.517   1.249  15.088 -0.3381  1.2519  0.2319
 6814SOL     OW32074   3.996   2.543  14.786 -0.1870 -0.5997 -0.4919
 6814SOL    HW132075   4.054   2.467  14.791  0.7253  0.0490 -1.1765
 6814SOL    HW232076   4.053   2.598  14.732 -0.8573  0.9504  0.3622
 6815SOL     OW32077   3.217   1.605   5.651  0.1553  0.7019 -0.0385
 6815SOL    HW132078   3.297   1.617   5.701  1.2801  1.0903 -1.9198
 6815SOL    HW232079   3.257   1.570   5.571 -1.8480  0.9044 -1.1413
 6816SOL     OW32080   0.559   3.348  13.235  0.2450  0.5898 -0.1724
 6816SOL    HW132081   0.506   3.426  13.254 -0.6547  0.2085 -1.1142
 6816SOL    HW232082   0.623   3.388  13.177  0.6392 -0.1593 -0.2479
 6817SOL     OW32083   1.412   2.705   5.197  0.2958 -0.3545 -0.6638
 6817SOL    HW132084   1.453   2.739   5.117  0.8779  0.5637  0.0412
 6817SOL    HW232085   1.347   2.773   5.216  0.8114 -0.1647  0.4163
 6818SOL     OW32086   1.679   3.701   0.788  0.0684  0.8374 -0.1353
 6818SOL    HW132087   1.766   3.697   0.828 -0.0391  0.3417  0.0509
 6818SOL    HW232088   1.686   3.785   0.742 -1.3330 -0.1241 -2.1083
 6819SOL     OW32089   0.380   1.624   8.646 -0.0653  0.0991  0.2699
 6819SOL    HW132090   0.451   1.574   8.686  0.9843 -0.9975 -2.9457
 6819SOL    HW232091   0.427   1.699   8.609 -0.8318 -0.2558 -1.4524
 6820SOL     OW32092   1.615   0.544   0.981 -0.2385 -0.0458 -0.3764
 6820SOL    HW132093   1.670   0.466   0.985 -0.9700 -0.5233  0.5510
 6820SOL    HW232094   1.672   0.611   1.017 -0.2868  0.7066 -1.7088
 6821SOL     OW32095   2.119   1.119   4.437 -0.1734  0.2959 -0.8746
 6821SOL    HW132096   2.061   1.045   4.454  0.3468  0.2868  0.7827
 6821SOL    HW232097   2.134   1.145   4.527 -1.3159  0.2072 -0.6680
 6822SOL     OW32098   0.170   3.056   1.576 -0.1653  0.6579 -0.5091
 6822SOL    HW132099   0.158   3.001   1.654 -0.0167 -1.7423 -2.2075
 6822SOL    HW232100   0.151   3.145   1.607  0.4084  0.3034  0.8989
 6823SOL     OW32101   2.292   1.034  14.138  0.2225  0.4371 -0.1054
 6823SOL    HW132102   2.241   1.063  14.215  0.8850 -1.8184  1.1698
 6823SOL    HW232103   2.253   0.948  14.125 -1.2025  0.9185  0.8730
 6824SOL     OW32104   2.053   0.149  11.209  0.7701  0.0238 -0.1138
 6824SOL    HW132105   2.120   0.081  11.200  3.3055  2.8097 -2.4576
 6824SOL    HW232106   1.985   0.096  11.250 -2.6145  1.7195 -3.5328
 6825SOL     OW32107   4.567   3.047  15.698  0.5798  0.5060 -0.8731
 6825SOL    HW132108   4.559   3.017  15.789 -0.0253 -1.8879 -1.7316
 6825SOL    HW232109   4.645   2.998  15.670  1.1709  0.2805  1.1462
 6826SOL     OW32110   2.633   3.694   4.261 -0.1311  0.4217  0.1359
 6826SOL    HW132111   2.560   3.748   4.292 -0.4706 -0.9528  1.7515
 6826SOL    HW232112   2.635   3.622   4.324  1.7177  0.4104  0.0453
 6827SOL     OW32113   2.342   0.816   2.194 -0.2369 -0.2826  0.0881
 6827SOL    HW132114   2.361   0.800   2.102  1.5988 -1.3348  0.6475
 6827SOL    HW232115   2.266   0.760   2.209 -0.0987 -0.7858 -1.0824
 6828SOL     OW32116   1.977   0.797  15.968  0.2325  1.0346  0.4793
 6828SOL    HW132117   1.997   0.809  15.876  2.0213 -1.1200  0.5742
 6828SOL    HW232118   1.886   0.767  15.965  0.4824  0.1607  1.3089
 6829SOL     OW32119   1.994   2.646  11.484 -0.3925 -0.1339 -0.3858
 6829SOL    HW132120   1.968   2.644  11.392  1.2880 -0.8352 -0.8452
 6829SOL    HW232121   2.038   2.730  11.493  0.5347 -0.6725  0.0824
 6830SOL     OW32122   0.884   3.955   1.872 -0.6530  0.2867 -0.6421
 6830SOL    HW132123   0.959   3.984   1.924 -1.9266  4.4651 -1.1872
 6830SOL    HW232124   0.816   3.950   1.939  1.0066 -1.2677  0.9675
 6831SOL     OW32125   0.793   0.559   5.125 -0.3331  0.0659 -0.4627
 6831SOL    HW132126   0.739   0.631   5.092  0.2491  0.7996  0.1789
 6831SOL    HW232127   0.756   0.490   5.070 -1.2413 -2.8726  3.8436
 6832SOL     OW32128   1.156   1.924   3.140 -0.0401 -0.1633  0.3704
 6832SOL    HW132129   1.122   1.969   3.063  2.0128 -0.7103 -0.8515
 6832SOL    HW232130   1.086   1.860   3.155 -2.1949  1.3592 -2.9524
 6833SOL     OW32131   0.310   2.238   4.217 -0.2830  0.4846  0.1767
 6833SOL    HW132132   0.375   2.185   4.262 -1.2154 -1.2576 -0.5372
 6833SOL    HW232133   0.363   2.310   4.182 -1.1227  0.7183 -0.6000
 6834SOL     OW32134   1.990   4.654   2.305 -0.0836  0.1036 -0.3299
 6834SOL    HW132135   1.907   4.609   2.295  0.3824 -0.6164 -0.9289
 6834SOL    HW232136   2.036   4.613   2.232 -2.9022 -2.1618 -0.8213
 6835SOL     OW32137   4.706   0.691   3.098  0.1559  0.1013  0.4459
 6835SOL    HW132138   4.656   0.614   3.126  0.9483  0.1519  2.0063
 6835SOL    HW232139   0.006   0.708   3.184  2.2478 -1.2818 -0.2151
 6836SOL     OW32140   2.399   4.127   8.141 -0.2377 -0.8144  0.3524
 6836SOL    HW132141   2.462   4.189   8.177  0.2718 -1.1160 -0.0047
 6836SOL    HW232142   2.401   4.062   8.211 -0.6633 -0.0329  1.0824
 6837SOL     OW32143   1.825   1.752   3.378 -0.1817 -0.0350 -0.3049
 6837SOL    HW132144   1.796   1.838   3.348  2.9471  0.3535 -2.2586
 6837SOL    HW232145   1.810   1.758   3.472 -2.0046 -2.3476 -0.4378
 6838SOL     OW32146   3.176   1.593  17.403 -0.0898  0.2811  0.2199
 6838SOL    HW132147   3.222   1.628  17.327  1.3569 -1.8766  0.1119
 6838SOL    HW232148   3.090   1.622  17.374  0.5316  1.7516 -0.1455
 6839SOL     OW32149   3.313   3.347  16.245  0.0323  0.1129 -0.1512
 6839SOL    HW132150   3.360   3.293  16.183  0.3171  0.4258 -0.2056
 6839SOL    HW232151   3.377   3.417  16.238 -0.1977  0.5577  2.1555
 6840SOL     OW32152   0.833   1.603   8.095  0.2993  0.2710  0.6007
 6840SOL    HW132153   0.912   1.589   8.042  0.6144 -0.0729  1.1568
 6840SOL    HW232154   0.770   1.607   8.023  0.1776  0.9269  0.7464
 6841SOL     OW32155   3.502   3.804   1.072  0.5650 -0.1351  0.1074
 6841SOL    HW132156   3.425   3.853   1.098  0.5876 -0.5630  0.9668
 6841SOL    HW232157   3.552   3.869   1.022  2.6188 -2.0114 -0.3012
 6842SOL     OW32158   1.903   2.167   6.248  0.1499  0.2200  0.3682
 6842SOL    HW132159   1.860   2.104   6.191  1.0005 -0.3893  0.3917
 6842SOL    HW232160   1.840   2.239   6.253  1.5455  1.4155  0.8659
 6843SOL     OW32161   0.654   0.037   1.651  0.1882 -0.4760  0.4109
 6843SOL    HW132162   0.724   4.710   1.647  0.7850  0.2952 -2.4105
 6843SOL    HW232163   0.706   0.116   1.633  0.8874 -1.4783 -1.9281
 6844SOL     OW32164   1.256   1.816   7.236 -0.4610  0.1565  0.3627
 6844SOL    HW132165   1.185   1.752   7.248 -0.8421  0.3675 -0.7264
 6844SOL    HW232166   1.258   1.818   7.140 -2.1444  0.5538  0.3405
 6845SOL     OW32167   2.987   4.391   9.544  0.2136  0.4333 -0.1032
 6845SOL    HW132168   3.049   4.463   9.550 -0.0763  0.4800  2.4273
 6845SOL    HW232169   2.994   4.377   9.449  1.1683 -0.5956  0.1184
 6846SOL     OW32170   0.833   2.321  16.594  0.4508  0.3017  0.1773
 6846SOL    HW132171   0.827   2.269  16.674 -0.0530  1.1017  0.6555
 6846SOL    HW232172   0.802   2.263  16.525 -1.6485  0.8980  0.6054
 6847SOL     OW32173   3.014   2.087   9.545 -0.3284 -0.3190 -0.2625
 6847SOL    HW132174   2.923   2.057   9.541 -0.6793  0.4063  2.9604
 6847SOL    HW232175   3.042   2.088   9.636 -0.6349 -0.5638 -0.1652
 6848SOL     OW32176   2.559   4.185  10.487  0.5731  0.1606 -0.1436
 6848SOL    HW132177   2.609   4.161  10.565  0.8040  0.6267 -0.1486
 6848SOL    HW232178   2.596   4.267  10.454  0.0814  0.3924 -0.1276
 6849SOL     OW32179   4.094   1.923   3.265  0.2915 -0.0254  0.3407
 6849SOL    HW132180   4.157   1.875   3.211  0.7511  1.7986 -0.7814
 6849SOL    HW232181   4.102   1.879   3.349 -1.9520 -0.5551  0.2584
 6850SOL     OW32182   4.048   0.738   3.546  0.5452  0.0785 -0.1113
 6850SOL    HW132183   4.091   0.670   3.598 -1.5260 -0.6996  0.6064
 6850SOL    HW232184   4.075   0.821   3.585 -4.1108  2.0593 -1.0691
 6851SOL     OW32185   0.555   2.884  17.369 -0.3191 -0.2906  0.6404
 6851SOL    HW132186   0.603   2.871  17.287 -0.4893  2.1458  0.1494
 6851SOL    HW232187   0.466   2.891  17.334 -0.2727  1.4920  0.8719
 6852SOL     OW32188   2.566   1.209   1.818  0.6978 -0.3189 -0.1948
 6852SOL    HW132189   2.606   1.296   1.811  2.6542 -1.3427 -1.6336
 6852SOL    HW232190   2.545   1.178   1.730 -1.1558 -0.7686  0.4008
 6853SOL     OW32191   0.462   0.338   2.920 -0.0158 -0.7084  0.1954
 6853SOL    HW132192   0.386   0.382   2.882 -0.0651  0.7915  2.0485
 6853SOL    HW232193   0.446   0.356   3.013 -0.5021 -1.1049  0.1883
 6854SOL     OW32194   0.164   3.480   5.940 -0.6481  0.0154 -0.1943
 6854SOL    HW132195   0.112   3.401   5.958  1.6594 -1.5597 -0.5000
 6854SOL    HW232196   0.100   3.545   5.911 -1.5658 -2.7249 -4.2421
 6855SOL     OW32197   2.322   1.931   8.502 -0.3963 -0.1884  0.4447
 6855SOL    HW132198   2.260   1.956   8.570 -1.1139 -2.0712  0.4991
 6855SOL    HW232199   2.272   1.853   8.477 -0.2502  0.4737 -1.9360
 6856SOL     OW32200   4.628   3.835   3.918  0.3186 -0.0123  0.1578
 6856SOL    HW132201   4.659   3.859   3.830 -1.2934  3.1914  0.4730
 6856SOL    HW232202   4.577   3.755   3.904  0.2732  0.1406 -0.5622
 6857SOL     OW32203   1.140   2.560   8.862 -0.4080  0.3545  0.3753
 6857SOL    HW132204   1.077   2.623   8.827  1.8770  2.0558 -0.6565
 6857SOL    HW232205   1.164   2.604   8.944 -3.5449 -1.2390  2.1404
 6858SOL     OW32206   0.751   3.476   8.302  0.2467  0.5006  0.1965
 6858SOL    HW132207   0.743   3.535   8.377 -0.8062  2.6395 -1.6032
 6858SOL    HW232208   0.834   3.507   8.266  1.9530 -4.9478 -0.5853
 6859SOL     OW32209   0.405   2.299   4.780 -0.3689  0.2344  0.2124
 6859SOL    HW132210   0.315   2.330   4.789 -1.1114 -1.6528 -0.6629
 6859SOL    HW232211   0.436   2.298   4.870 -1.3296  2.2945  0.5510
 6860SOL     OW32212   0.670   2.471  17.494  0.2775  0.0958  0.1586
 6860SOL    HW132213   0.670   2.552  17.544 -1.7327  1.2538 -1.7122
 6860SOL    HW232214   0.591   2.490  17.443  1.5981 -0.2942 -2.0193
 6861SOL     OW32215   3.877   1.678  16.131  0.1590  0.1306 -0.5202
 6861SOL    HW132216   3.958   1.638  16.162  0.5551  0.0048 -1.7470
 6861SOL    HW232217   3.880   1.675  16.036  0.5079 -0.1995 -0.4969
 6862SOL     OW32218   3.637   1.181   8.641  0.1577 -0.1197 -0.2811
 6862SOL    HW132219   3.671   1.173   8.730 -0.2142 -0.4238 -0.1652
 6862SOL    HW232220   3.574   1.253   8.648  1.2809  0.6470  1.8323
 6863SOL     OW32221   4.254   3.062   0.840  0.3020 -0.0395 -0.2808
 6863SOL    HW132222   4.322   3.125   0.862 -0.0438  0.5068 -0.7617
 6863SOL    HW232223   4.312   2.989   0.821  0.8431  0.2408  0.3104
 6864SOL     OW32224   4.216   1.023   7.513  0.4218 -0.4382  0.1170
 6864SOL    HW132225   4.177   1.017   7.426  0.7614 -0.4687 -0.0338
 6864SOL    HW232226   4.188   0.945   7.561  0.2881 -0.6073 -0.2374
 6865SOL     OW32227   1.041   1.136   7.773 -0.0476 -0.0677 -0.8524
 6865SOL    HW132228   1.024   1.073   7.703  3.5005 -0.5366 -1.3053
 6865SOL    HW232229   0.963   1.191   7.768 -0.7796 -0.9677  0.6300
 6866SOL     OW32230   3.198   4.255  13.642  0.1056  0.0470  0.0265
 6866SOL    HW132231   3.206   4.298  13.727 -1.4769  0.6599 -0.1400
 6866SOL    HW232232   3.185   4.165  13.672  0.3307 -1.2610 -3.7696
 6867SOL     OW32233   0.173   4.609   1.303 -0.7130  0.2972 -0.0510
 6867SOL    HW132234   0.158   4.671   1.231  1.3506  0.8870  0.0127
 6867SOL    HW232235   0.123   4.536   1.267  1.2637 -1.4896  0.7863
 6868SOL     OW32236   3.667   3.088   5.575 -0.1159  0.0375 -0.6722
 6868SOL    HW132237   3.727   3.156   5.543 -1.9719  0.8253 -2.4889
 6868SOL    HW232238   3.675   3.098   5.669 -0.4584  0.4044 -0.6847
 6869SOL     OW32239   0.607   3.448   9.999 -0.3138 -0.5700 -0.0217
 6869SOL    HW132240   0.569   3.494  10.074  2.0532  0.8863  0.2675
 6869SOL    HW232241   0.536   3.405   9.951 -0.0942  0.9300 -1.6410
 6870SOL     OW32242   0.590   1.354   8.915  0.1052 -0.1998  0.3277
 6870SOL    HW132243   0.518   1.417   8.920 -0.4153 -0.7873  0.1862
 6870SOL    HW232244   0.545   1.273   8.940  0.0543 -0.6897 -1.3749
 6871SOL     OW32245   3.057   3.475   2.520  0.0288 -0.5657  0.1431
 6871SOL    HW132246   3.110   3.513   2.590  2.7221 -1.7152 -1.2971
 6871SOL    HW232247   2.972   3.514   2.543  0.2368  0.8138 -1.3780
 6872SOL     OW32248   3.739   0.244   6.304 -0.2666 -0.5710 -0.5628
 6872SOL    HW132249   3.664   0.190   6.280 -0.2977 -1.4166  1.4352
 6872SOL    HW232250   3.794   0.188   6.359  0.6513  0.1231 -0.7684
 6873SOL     OW32251   1.138   4.371   1.189 -0.5177 -0.1399  0.2637
 6873SOL    HW132252   1.136   4.326   1.273 -0.1587  0.0418  0.3681
 6873SOL    HW232253   1.124   4.291   1.138 -1.2276  0.8068 -1.0296
 6874SOL     OW32254   4.663   3.741   4.726 -0.4544  0.5635 -0.5206
 6874SOL    HW132255   4.723   3.808   4.759 -1.3161  0.0116  2.2118
 6874SOL    HW232256   4.639   3.757   4.635 -3.2477 -0.5358  0.0311
 6875SOL     OW32257   3.154   3.914  14.768 -0.4283 -0.0945 -0.4647
 6875SOL    HW132258   3.073   3.892  14.722 -0.1343 -3.7720  0.7530
 6875SOL    HW232259   3.200   3.830  14.761  0.2155  0.2652 -0.5483
 6876SOL     OW32260   3.484   4.536   5.997  0.4454  0.4195  0.2765
 6876SOL    HW132261   3.439   4.604   6.048  1.9936  1.6917 -0.0718
 6876SOL    HW232262   3.525   4.585   5.926 -1.9034  1.3913 -0.4184
 6877SOL     OW32263   1.584   2.710   6.277  0.6159 -0.6293  0.2959
 6877SOL    HW132264   1.576   2.750   6.364  1.0218  0.8534 -0.3375
 6877SOL    HW232265   1.677   2.731   6.266  0.0736  0.8813 -1.3800
 6878SOL     OW32266   0.284   2.688   2.780 -0.4741 -0.0863 -0.7960
 6878SOL    HW132267   0.338   2.740   2.720  1.0885 -2.1779 -1.2105
 6878SOL    HW232268   0.270   2.608   2.730  4.7701 -0.5543 -1.5302
 6879SOL     OW32269   2.362   0.749   6.326  0.1279  0.2517 -0.2108
 6879SOL    HW132270   2.333   0.835   6.355  1.3971  0.3118  0.8633
 6879SOL    HW232271   2.420   0.717   6.395 -0.2728 -0.7685 -0.3443
 6880SOL     OW32272   1.863   0.408   4.640  0.0462  0.5426 -0.3520
 6880SOL    HW132273   1.824   0.437   4.722  0.1793  0.1736 -0.1571
 6880SOL    HW232274   1.790   0.427   4.581 -0.4012  0.1587  0.0848
 6881SOL     OW32275   4.337   0.513   4.756 -0.4871 -0.1406 -0.1173
 6881SOL    HW132276   4.333   0.432   4.808  1.2886 -0.5639 -0.6280
 6881SOL    HW232277   4.353   0.470   4.672  0.5045  0.2435 -0.1217
 6882SOL     OW32278   1.454   4.486   5.560 -0.1150 -0.5229  0.1499
 6882SOL    HW132279   1.415   4.399   5.561  0.2370 -0.6762  0.8094
 6882SOL    HW232280   1.545   4.458   5.571  0.0982 -0.9080 -2.4826
 6883SOL     OW32281   4.504   3.328   3.966  0.1755 -0.1205  0.0809
 6883SOL    HW132282   4.514   3.420   3.992 -1.4669  0.6088 -1.8217
 6883SOL    HW232283   4.595   3.301   3.964  0.0342 -0.4276 -2.7746
 6884SOL     OW32284   0.691   0.522   2.802  0.5337  0.2547 -0.2349
 6884SOL    HW132285   0.622   0.554   2.744  0.5214 -0.6008 -0.6897
 6884SOL    HW232286   0.638   0.493   2.876  0.3104  1.8892  0.2480
 6885SOL     OW32287   4.032   0.024   5.436 -0.4917 -0.0403 -0.4660
 6885SOL    HW132288   4.000   0.114   5.440  0.9692  0.4592  0.0799
 6885SOL    HW232289   4.123   0.049   5.419  0.3418 -0.6805  3.0736
 6886SOL     OW32290   3.413   1.000   8.699  0.1200 -0.0724 -0.2186
 6886SOL    HW132291   3.486   1.040   8.651  0.4803 -1.2218 -0.6223
 6886SOL    HW232292   3.446   1.021   8.787  0.8382 -3.0199  0.2104
 6887SOL     OW32293   0.088   4.095   0.262 -0.0790  0.1559 -0.4272
 6887SOL    HW132294   0.013   4.107   0.321  1.0619  0.3176  0.9805
 6887SOL    HW232295   0.078   4.003   0.236  1.6110  0.4831 -2.2437
 6888SOL     OW32296   1.432   0.402   2.987 -0.2993 -0.6072  0.4506
 6888SOL    HW132297   1.489   0.436   3.055 -0.0458 -0.6234  0.2488
 6888SOL    HW232298   1.431   0.483   2.936 -1.9891  1.3033  3.5464
 6889SOL     OW32299   1.358   3.867  16.223  0.9939  0.4861  0.3176
 6889SOL    HW132300   1.361   3.959  16.249 -0.8818  0.5885  0.2190
 6889SOL    HW232301   1.312   3.831  16.299  1.3534  1.5444  1.0517
 6890SOL     OW32302   1.120   0.498   3.108  0.2993  0.0119  0.1540
 6890SOL    HW132303   1.143   0.447   3.030 -2.8988  0.8814 -1.3327
 6890SOL    HW232304   1.186   0.464   3.169 -0.1113 -0.1476  0.5106
 6891SOL     OW32305   1.128   1.622   8.706 -0.2327 -0.1214 -0.4183
 6891SOL    HW132306   1.088   1.633   8.792  0.1468  1.2395 -0.4277
 6891SOL    HW232307   1.217   1.655   8.712 -0.0648 -0.7711  0.7073
 6892SOL     OW32308   0.450   3.309   2.637 -0.4338  0.4741 -0.1775
 6892SOL    HW132309   0.489   3.280   2.554  2.1056  0.9800  0.8379
 6892SOL    HW232310   0.383   3.368   2.602  0.2654  1.7560  0.6576
 6893SOL     OW32311   3.782   2.984   1.563 -0.7851  0.0315  0.5135
 6893SOL    HW132312   3.852   3.047   1.578 -1.0323 -0.0869  2.2608
 6893SOL    HW232313   3.703   3.035   1.585 -0.5476  0.7392 -0.2951
 6894SOL     OW32314   1.865   3.644  13.844  0.2563  0.2487  0.1707
 6894SOL    HW132315   1.833   3.601  13.764 -0.9543  0.2892  0.6296
 6894SOL    HW232316   1.932   3.580  13.868  0.2612 -0.4267 -1.6882
 6895SOL     OW32317   3.161   3.468   8.214 -0.0618  0.0257  0.1744
 6895SOL    HW132318   3.085   3.411   8.197 -0.4689  0.1439  1.6378
 6895SOL    HW232319   3.134   3.528   8.144 -0.6641  0.8096  1.0713
 6896SOL     OW32320   2.459   4.140   7.131 -0.0629 -0.2497  0.0445
 6896SOL    HW132321   2.398   4.070   7.106 -0.1234 -0.8289  1.8257
 6896SOL    HW232322   2.539   4.088   7.134 -0.5520 -1.0134 -0.2003
 6897SOL     OW32323   1.546   4.007   8.544  0.4765 -0.4414 -0.0387
 6897SOL    HW132324   1.501   4.014   8.628  1.5666 -2.2411  0.7004
 6897SOL    HW232325   1.495   4.066   8.489 -0.9226 -1.6686 -0.0647
 6898SOL     OW32326   3.180   2.670  14.588 -0.5102 -0.6667  0.0699
 6898SOL    HW132327   3.096   2.688  14.630 -0.5557 -1.1465  0.1818
 6898SOL    HW232328   3.215   2.638  14.671 -0.3452 -0.8909 -0.0868
 6899SOL     OW32329   3.209   3.689   1.209 -0.1480 -0.1409 -0.4030
 6899SOL    HW132330   3.214   3.731   1.295  2.2146  0.5989 -0.9123
 6899SOL    HW232331   3.140   3.741   1.168 -0.5428 -1.3387 -1.2468
 6900SOL     OW32332   1.957   0.575   8.964 -0.1712  0.4071 -0.6683
 6900SOL    HW132333   1.934   0.659   9.004 -0.7015 -0.6193  1.2049
 6900SOL    HW232334   1.890   0.520   9.005  0.1495  0.4349 -0.1095
 6901SOL     OW32335   4.187   3.699  10.293  0.1343  0.8078  0.4755
 6901SOL    HW132336   4.118   3.663  10.348 -0.1808  0.4251 -0.1749
 6901SOL    HW232337   4.138   3.765  10.244  1.6896  2.3873  1.0548
 6902SOL     OW32338   3.051   3.127   5.387  0.7117  0.0318 -0.4671
 6902SOL    HW132339   3.066   3.188   5.459  1.3968 -1.0784  0.3304
 6902SOL    HW232340   3.111   3.160   5.321  0.7287  1.5075  0.2733
 6903SOL     OW32341   3.827   3.570   1.120 -0.9803  0.2688  0.3133
 6903SOL    HW132342   3.751   3.573   1.063  0.9272  2.0062 -2.1096
 6903SOL    HW232343   3.830   3.659   1.157  2.2254  0.3866 -0.2238
 6904SOL     OW32344   0.967   3.779  16.290 -0.2970 -0.2956 -0.7621
 6904SOL    HW132345   0.982   3.689  16.263  0.3301 -0.0186 -1.3452
 6904SOL    HW232346   1.006   3.791  16.377  0.1586 -0.0121 -1.0049
 6905SOL     OW32347   0.699   1.913   2.822  0.2406 -0.1447  0.6047
 6905SOL    HW132348   0.654   1.829   2.827  1.0199 -0.5282  1.1680
 6905SOL    HW232349   0.723   1.904   2.730 -1.0143  0.7588  0.1826
 6906SOL     OW32350   0.926   1.252   7.197  0.4191  0.2478 -0.1739
 6906SOL    HW132351   0.857   1.191   7.173 -0.4099  0.9991  0.3226
 6906SOL    HW232352   0.894   1.335   7.162 -1.4851  0.0884  1.2254
 6907SOL     OW32353   3.919   0.923   2.311 -0.0623  0.5804 -0.3494
 6907SOL    HW132354   3.882   0.996   2.362  1.8567 -0.3333  2.3257
 6907SOL    HW232355   3.848   0.871   2.274  0.6850 -2.0133  1.9360
 6908SOL     OW32356   4.726   4.282  17.177  0.5207 -0.2255 -0.0940
 6908SOL    HW132357   4.645   4.300  17.224  1.0248  0.7194  0.4186
 6908SOL    HW232358   4.715   4.333  17.097 -1.0411 -0.0777  0.2235
 6909SOL     OW32359   1.585   4.145   6.368  0.0810 -0.0659 -0.0892
 6909SOL    HW132360   1.531   4.127   6.446  0.9621 -2.0109  0.0812
 6909SOL    HW232361   1.611   4.233   6.394 -0.5155  0.6018 -1.7893
 6910SOL     OW32362   3.774   4.449   2.501 -0.0245  0.3034 -0.2949
 6910SOL    HW132363   3.770   4.366   2.548  2.5101 -1.1348 -2.6580
 6910SOL    HW232364   3.806   4.427   2.414  0.8981 -2.6981  0.8109
 6911SOL     OW32365   0.607   3.848   3.042  0.1990  0.1920 -0.8301
 6911SOL    HW132366   0.593   3.909   2.970 -0.9704 -0.2153 -0.9437
 6911SOL    HW232367   0.638   3.770   2.995  3.0463  0.1914  1.0321
 6912SOL     OW32368   1.610   1.518  14.760  0.4347  0.0045 -0.5019
 6912SOL    HW132369   1.650   1.603  14.739 -0.7353  0.6903  0.0723
 6912SOL    HW232370   1.649   1.500  14.845 -3.0679 -0.9254  0.8921
 6913SOL     OW32371   2.072   4.302   2.169  0.3205 -0.0700  0.0092
 6913SOL    HW132372   2.075   4.394   2.144 -0.7165 -0.6679 -2.3269
 6913SOL    HW232373   2.152   4.304   2.221  0.2023  2.3020  0.1054
 6914SOL     OW32374   0.816   2.848   9.353  0.1785  0.4054  0.8978
 6914SOL    HW132375   0.776   2.853   9.439  0.6433  3.2849  0.9629
 6914SOL    HW232376   0.901   2.807   9.371  0.1301  1.5038  3.5350
 6915SOL     OW32377   2.214   0.279   2.819  0.0747  0.3831 -0.5708
 6915SOL    HW132378   2.146   0.227   2.860  0.4636  1.8327  1.9221
 6915SOL    HW232379   2.206   0.228   2.738 -0.5109 -0.9861  0.3697
 6916SOL     OW32380   1.015   1.765  11.235 -0.3323 -0.5796  0.4952
 6916SOL    HW132381   1.012   1.687  11.180  1.1724 -0.4508  0.2544
 6916SOL    HW232382   0.955   1.824  11.190 -0.7315 -1.6032 -0.3018
 6917SOL     OW32383   0.138   3.738   7.106 -0.0503  0.1930  0.0452
 6917SOL    HW132384   0.121   3.703   7.018  0.3797  1.4214 -0.5214
 6917SOL    HW232385   0.049   3.743   7.142 -0.3577  0.5179 -0.7551
 6918SOL     OW32386   0.939   2.042   6.639  0.2499 -0.0926  0.3067
 6918SOL    HW132387   0.911   2.084   6.557 -0.1285 -0.0451  0.4610
 6918SOL    HW232388   0.857   1.996   6.654 -0.1538  0.4951 -0.0655
 6919SOL     OW32389   2.335   0.395   3.227  0.4646 -0.1435 -0.1874
 6919SOL    HW132390   2.267   0.463   3.233 -0.4817 -0.9971 -1.5781
 6919SOL    HW232391   2.303   0.319   3.275 -1.1220  1.6888  1.6448
 6920SOL     OW32392   0.643   1.916  10.087 -0.0514  0.0817  0.1411
 6920SOL    HW132393   0.609   1.840  10.040 -3.0778 -0.0579  2.6298
 6920SOL    HW232394   0.736   1.900  10.103 -0.0177  0.0102 -0.1189
 6921SOL     OW32395   4.446   1.954   1.901  0.1784  0.0173  0.5409
 6921SOL    HW132396   4.459   1.877   1.957 -1.8672 -1.1666 -0.5962
 6921SOL    HW232397   4.478   2.028   1.953 -1.5132 -0.4817  2.3288
 6922SOL     OW32398   1.252   2.367   4.573  0.0241 -0.2325  0.2082
 6922SOL    HW132399   1.236   2.419   4.495  0.1298 -0.9785 -0.3030
 6922SOL    HW232400   1.234   2.280   4.538 -1.5804  0.1917 -0.0377
 6923SOL     OW32401   2.943   3.311  14.480  0.2894 -0.3952 -0.5257
 6923SOL    HW132402   2.979   3.368  14.412 -0.8108  0.6262 -0.2445
 6923SOL    HW232403   2.882   3.249  14.441  0.7590 -2.3388  1.8150
 6924SOL     OW32404   1.669   2.529  12.203  0.2492  0.6746  0.3307
 6924SOL    HW132405   1.678   2.435  12.215 -3.7829  0.3507  0.9180
 6924SOL    HW232406   1.762   2.550  12.200  0.9176 -2.2710  0.8747
 6925SOL     OW32407   1.579   0.352   8.596 -0.1530  0.2134  0.4774
 6925SOL    HW132408   1.664   0.324   8.631 -0.5385 -1.7736 -0.1387
 6925SOL    HW232409   1.543   0.390   8.676  0.7739  1.2290  0.4059
 6926SOL     OW32410   3.948   0.436  12.103  0.1243  0.1097 -0.7103
 6926SOL    HW132411   3.878   0.455  12.166 -0.0464 -2.5555 -0.1070
 6926SOL    HW232412   4.021   0.416  12.161 -0.4327 -3.8437 -1.3658
 6927SOL     OW32413   0.872   3.211   8.259 -0.8312  0.1985  0.6170
 6927SOL    HW132414   0.846   3.286   8.312 -1.2425 -0.1858  0.9613
 6927SOL    HW232415   0.794   3.155   8.263 -0.1135 -0.8159  0.5234
 6928SOL     OW32416   0.383   3.007   7.066 -0.2065 -0.4866 -0.4713
 6928SOL    HW132417   0.348   2.919   7.081  0.4204 -0.4596  1.0899
 6928SOL    HW232418   0.432   3.028   7.145 -1.2929 -1.3737  0.4293
 6929SOL     OW32419   4.041   3.459   2.806 -0.1980 -0.1674 -0.1098
 6929SOL    HW132420   4.105   3.467   2.736  1.8356  0.9043  1.8370
 6929SOL    HW232421   3.963   3.496   2.763 -0.2054 -1.0330 -0.8331
 6930SOL     OW32422   2.373   1.752  16.952 -0.2297 -0.5802  0.1516
 6930SOL    HW132423   2.395   1.699  17.028 -0.1897 -2.9124 -1.4902
 6930SOL    HW232424   2.280   1.768  16.969 -0.3948  1.6654 -2.7986
 6931SOL     OW32425   1.570   4.310   3.893  0.4591 -0.0171  0.6822
 6931SOL    HW132426   1.478   4.302   3.868  0.5544  0.0380  0.3068
 6931SOL    HW232427   1.564   4.332   3.986 -0.6047  0.1733  0.5678
 6932SOL     OW32428   0.950   2.584   2.458  0.6031  0.2831  0.5085
 6932SOL    HW132429   0.933   2.674   2.431 -1.0451  0.5374  2.3661
 6932SOL    HW232430   0.945   2.533   2.378  0.0147 -0.2190  0.8652
 6933SOL     OW32431   0.742   0.546   8.951 -0.4682  0.0465  0.2358
 6933SOL    HW132432   0.708   0.482   8.889  1.9338  0.7648 -1.7857
 6933SOL    HW232433   0.805   0.492   8.999  1.3791  1.2853 -0.7881
 6934SOL     OW32434   3.911   2.329  16.982  0.5419  0.4052  0.4074
 6934SOL    HW132435   3.922   2.360  16.892 -0.1430  1.4298  0.6728
 6934SOL    HW232436   4.001   2.317  17.011 -0.1607  0.5613  2.6264
 6935SOL     OW32437   4.068   4.618   2.476  0.2356  0.1876  0.0779
 6935SOL    HW132438   4.137   4.669   2.518  0.7323 -0.9606  0.6749
 6935SOL    HW232439   4.038   4.687   2.417  2.8805  0.3557 -1.0933
 6936SOL     OW32440   2.416   0.950   1.694 -0.6416  0.1634 -0.3701
 6936SOL    HW132441   2.378   1.029   1.657 -2.3224 -0.2393  0.4570
 6936SOL    HW232442   2.509   0.958   1.672 -0.6001  1.4560  0.2688
 6937SOL     OW32443   2.805   3.972   7.382 -0.9066  0.0424  0.0634
 6937SOL    HW132444   2.812   4.068   7.386 -0.9681 -0.0550  2.6168
 6937SOL    HW232445   2.758   3.966   7.299 -2.4517 -1.4526  1.0555
 6938SOL     OW32446   3.528   2.876   3.541 -0.0493 -0.1007  0.6278
 6938SOL    HW132447   3.620   2.895   3.560 -0.2787  1.5033  0.1128
 6938SOL    HW232448   3.481   2.873   3.624 -0.2909  1.4646  0.5355
 6939SOL     OW32449   1.080   1.886   7.807  0.0043  0.1505  0.0066
 6939SOL    HW132450   1.121   1.912   7.725 -0.5333  1.3725  0.1281
 6939SOL    HW232451   1.154   1.842   7.850 -1.6663 -2.0499  0.6546
 6940SOL     OW32452   1.054   4.334   6.531  0.2620  0.9861  0.0372
 6940SOL    HW132453   1.062   4.248   6.571  0.1130  0.8973 -0.1246
 6940SOL    HW232454   1.123   4.389   6.570 -1.2180  2.2989  0.7917
 6941SOL     OW32455   0.987   4.291   6.272 -0.7401  0.5242  0.1500
 6941SOL    HW132456   1.080   4.286   6.247 -0.2167  1.4164  1.9231
 6941SOL    HW232457   0.994   4.320   6.363 -1.7094  2.4685 -0.3990
 6942SOL     OW32458   1.606   1.535   3.568 -0.2145  0.0085  0.3671
 6942SOL    HW132459   1.590   1.602   3.502  1.1951 -0.1356 -0.1206
 6942SOL    HW232460   1.573   1.583   3.644 -0.3495  0.3903  0.0616
 6943SOL     OW32461   0.045   0.827   2.390 -0.1762  0.2407 -0.4767
 6943SOL    HW132462   4.700   0.779   2.394 -0.2864  0.3172 -1.8039
 6943SOL    HW232463   0.051   0.861   2.301  2.5074 -0.5503 -0.5802
 6944SOL     OW32464   1.098   1.615   6.290  0.3715  0.6449 -0.0049
 6944SOL    HW132465   1.130   1.699   6.322 -1.1920  0.2193  2.6773
 6944SOL    HW232466   1.082   1.577   6.376  1.6140  0.3121  0.0704
 6945SOL     OW32467   4.457   3.503  17.709  0.3305  0.3415 -0.1208
 6945SOL    HW132468   4.446   3.488  17.615  1.4208  2.2121 -0.5519
 6945SOL    HW232469   4.419   3.422  17.742  0.6367 -0.3721 -1.5207
 6946SOL     OW32470   2.149   4.040   7.699 -1.1013  0.3686  0.2732
 6946SOL    HW132471   2.123   4.125   7.735  0.0839  1.3149 -1.1507
 6946SOL    HW232472   2.215   4.013   7.763 -0.4508  0.7675 -0.2370
 6947SOL     OW32473   0.466   0.285   8.119 -0.1336  0.6270 -0.3528
 6947SOL    HW132474   0.407   0.274   8.044  1.0451 -2.0172 -0.8712
 6947SOL    HW232475   0.552   0.296   8.080  1.3338  1.9068  3.2749
 6948SOL     OW32476   1.067   4.723  10.268 -0.1444  0.1830  0.0658
 6948SOL    HW132477   1.057   4.657  10.337  0.0344  0.1191  0.0310
 6948SOL    HW232478   1.049   0.067  10.313 -2.0974  0.0526 -0.4777
 6949SOL     OW32479   4.453   2.669   3.409 -0.4319 -0.2738 -0.0190
 6949SOL    HW132480   4.364   2.682   3.441 -0.3478 -1.6166  0.7556
 6949SOL    HW232481   4.453   2.685   3.315 -3.1074 -1.2126 -0.1723
 6950SOL     OW32482   0.112   3.930   4.767 -0.6876  0.5533 -0.2541
 6950SOL    HW132483   0.157   3.904   4.847 -1.7551  0.2218  0.2391
 6950SOL    HW232484   0.183   3.936   4.704  0.1256  2.0156  0.7998
 6951SOL     OW32485   3.551   2.261   3.875  0.2089  0.0962  0.6294
 6951SOL    HW132486   3.516   2.346   3.848 -0.8158 -0.4080  0.3525
 6951SOL    HW232487   3.645   2.278   3.879 -0.3011  3.5708 -2.3006
 6952SOL     OW32488   3.326   4.547   0.847 -0.3999 -0.2106  0.3924
 6952SOL    HW132489   3.292   4.625   0.803 -0.7406 -0.2048  0.6634
 6952SOL    HW232490   3.314   4.582   0.935  0.5440  0.7499  0.1345
 6953SOL     OW32491   4.425   4.630  15.115  0.6498  0.6101 -0.1649
 6953SOL    HW132492   4.399   4.547  15.074  2.2754 -0.0507  0.1262
 6953SOL    HW232493   4.391   4.694  15.053 -0.9586  0.3430  0.4471
 6954SOL     OW32494   3.308   4.659   1.089  0.0858 -0.0297 -0.1890
 6954SOL    HW132495   3.216   4.665   1.114 -0.0312 -0.3887 -0.5376
 6954SOL    HW232496   3.328   0.013   1.071 -0.5545 -0.0428 -0.9659
 6955SOL     OW32497   0.268   4.071   7.109 -1.2423 -0.2486  0.1352
 6955SOL    HW132498   0.305   3.997   7.060 -0.4283  1.5474 -1.9548
 6955SOL    HW232499   0.174   4.067   7.094 -1.2674  0.7050  0.0771
 6956SOL     OW32500   4.233   3.462   8.771 -0.7145 -0.0393 -0.1584
 6956SOL    HW132501   4.203   3.380   8.730 -0.4364  0.7208 -1.8802
 6956SOL    HW232502   4.221   3.445   8.864 -3.6010  1.0059 -0.3218
 6957SOL     OW32503   4.682   2.986   6.405  0.3694  0.7423  0.4433
 6957SOL    HW132504   4.662   3.018   6.493  0.2440  1.5290  0.1309
 6957SOL    HW232505   0.012   3.048   6.381  0.9819  0.8025  2.3592
 6958SOL     OW32506   4.090   3.249   1.353  0.5540 -0.0629 -0.3376
 6958SOL    HW132507   4.175   3.294   1.351 -0.0083  1.0531  0.9417
 6958SOL    HW232508   4.065   3.267   1.262 -0.9785 -0.2745  0.0525
 6959SOL     OW32509   1.560   0.615   8.474  0.3545 -0.0476 -0.2174
 6959SOL    HW132510   1.556   0.526   8.509  1.0111 -0.6903 -1.7421
 6959SOL    HW232511   1.516   0.667   8.541 -0.2533 -0.6744 -0.1327
 6960SOL     OW32512   2.594   0.826   7.156 -0.2191  0.4804  0.3790
 6960SOL    HW132513   2.521   0.770   7.131  0.7155  0.3484 -2.0044
 6960SOL    HW232514   2.556   0.914   7.155  1.6851  1.3080  0.6076
 6961SOL     OW32515   1.855   3.989   6.574 -0.2407  0.2137  0.2850
 6961SOL    HW132516   1.920   4.042   6.621  0.1990  0.3495 -0.4780
 6961SOL    HW232517   1.871   3.999   6.480  0.7967 -0.2404  0.4177
 6962SOL     OW32518   0.673   3.531   9.587 -0.3981  0.1526  0.0573
 6962SOL    HW132519   0.583   3.499   9.596  0.3743 -2.0155  0.0133
 6962SOL    HW232520   0.682   3.585   9.665 -1.0788  0.6097 -0.1785
 6963SOL     OW32521   2.028   0.001   7.791  0.1798 -0.6951  0.3801
 6963SOL    HW132522   2.032   4.655   7.836 -0.2193  0.1834  2.0837
 6963SOL    HW232523   1.983   0.050   7.861  2.3974 -0.4806  1.6729
 6964SOL     OW32524   4.517   1.719   5.923  0.0023 -0.1214 -0.2220
 6964SOL    HW132525   4.503   1.657   5.852 -2.2448 -0.8717  0.8663
 6964SOL    HW232526   4.612   1.725   5.933  0.3003 -3.1312 -1.2912
 6965SOL     OW32527   2.710   0.329   4.505 -0.2366  0.3641 -0.1021
 6965SOL    HW132528   2.629   0.372   4.530 -1.1259 -1.1568 -0.3826
 6965SOL    HW232529   2.730   0.373   4.423 -1.0789 -2.0465 -1.5760
 6966SOL     OW32530   2.828   2.401   3.547  0.0331  0.2014  0.0744
 6966SOL    HW132531   2.748   2.420   3.498  1.3344 -0.0593 -2.1296
 6966SOL    HW232532   2.888   2.397   3.472 -0.7909  3.3077 -0.7301
 6967SOL     OW32533   0.699   0.145   6.712 -0.1196 -0.1926  0.8548
 6967SOL    HW132534   0.734   0.060   6.739 -2.4016 -0.4872  2.8031
 6967SOL    HW232535   0.774   0.189   6.672 -0.8180 -0.8949 -1.2364
 6968SOL     OW32536   4.429   4.486  11.496  0.3026  0.4837  0.3751
 6968SOL    HW132537   4.467   4.437  11.568  0.6343  0.6522  0.3128
 6968SOL    HW232538   4.342   4.445  11.493  0.2363  0.7412 -1.1958
 6969SOL     OW32539   1.698   2.147   8.040 -0.3368 -0.5245  0.0781
 6969SOL    HW132540   1.713   2.201   7.962 -2.0199  2.8472  2.0926
 6969SOL    HW232541   1.785   2.111   8.056 -1.2075 -1.0146  3.5517
 6970SOL     OW32542   3.115   0.321   7.921  0.5402 -0.2017  0.0585
 6970SOL    HW132543   3.172   0.348   7.992 -1.0349  0.1028  1.2069
 6970SOL    HW232544   3.030   0.309   7.963  1.7200 -2.3301  1.7595
 6971SOL     OW32545   4.006   1.720  16.485  0.8234 -0.4756  0.0543
 6971SOL    HW132546   4.073   1.688  16.425 -0.7026 -2.4264 -0.6145
 6971SOL    HW232547   3.965   1.795  16.441 -1.2913 -0.0689  2.7663
 6972SOL     OW32548   3.495   3.730   4.834  0.1661 -0.2441  0.9190
 6972SOL    HW132549   3.532   3.723   4.922 -1.2157 -2.8209  1.3016
 6972SOL    HW232550   3.404   3.736   4.862 -0.7782 -0.6710 -2.0992
 6973SOL     OW32551   1.487   2.207  17.030  0.1670 -0.1683 -0.2313
 6973SOL    HW132552   1.580   2.221  17.049  0.5446 -0.3591 -1.9277
 6973SOL    HW232553   1.489   2.240  16.940  0.5369  0.4923  0.0109
 6974SOL     OW32554   3.420   0.407   7.578  0.2843 -0.4408  0.1606
 6974SOL    HW132555   3.459   0.476   7.524  1.4018  0.2885  1.9192
 6974SOL    HW232556   3.374   0.360   7.508  1.7113 -1.2301 -0.2474
 6975SOL     OW32557   2.278   0.941   4.926 -0.1632  0.6016  0.3598
 6975SOL    HW132558   2.350   0.990   4.887 -0.4981 -0.3825 -1.5111
 6975SOL    HW232559   2.256   0.882   4.854  1.3793 -0.0925  0.4626
 6976SOL     OW32560   0.144   1.969   3.190  0.4118 -0.3938 -0.1631
 6976SOL    HW132561   0.096   1.931   3.264  0.5483  1.3397  0.8233
 6976SOL    HW232562   0.084   1.959   3.116 -0.8719  1.1501  0.6439
 6977SOL     OW32563   0.618   4.545   8.490 -0.0288 -0.4385 -0.9488
 6977SOL    HW132564   0.642   4.452   8.497  2.0056  0.2703  1.6005
 6977SOL    HW232565   0.564   4.559   8.567  0.4164 -2.3487 -0.2749
 6978SOL     OW32566   0.160   0.830   9.765  0.3844  0.0245  0.3593
 6978SOL    HW132567   0.227   0.887   9.728 -0.7412  1.2284  0.1882
 6978SOL    HW232568   0.094   0.831   9.695  1.5050  0.5826 -0.6775
 6979SOL     OW32569   0.950   3.006   6.318 -0.9763 -0.8779  0.4354
 6979SOL    HW132570   0.929   3.099   6.312  0.8281 -0.4511  0.8519
 6979SOL    HW232571   0.998   2.987   6.238 -2.3205 -3.0980  0.1513
 6980SOL     OW32572   3.326   1.847   2.212 -0.6991 -0.0221  0.7171
 6980SOL    HW132573   3.311   1.811   2.299  0.6953  0.8684  1.3228
 6980SOL    HW232574   3.420   1.833   2.198 -0.7353  0.1870  0.2565
 6981SOL     OW32575   3.091   2.465   9.341 -0.0992 -0.0638 -0.0081
 6981SOL    HW132576   3.099   2.478   9.436  0.9118  0.8230 -0.2165
 6981SOL    HW232577   3.075   2.553   9.307  1.9366  1.2766  2.5246
 6982SOL     OW32578   0.453   1.856   8.193  0.2478 -0.4028 -0.3609
 6982SOL    HW132579   0.530   1.907   8.168  1.1300 -2.5971 -2.0692
 6982SOL    HW232580   0.418   1.904   8.269  0.5227  0.2916 -0.6782
 6983SOL     OW32581   3.898   3.853  13.617  0.3888 -0.3342  0.3965
 6983SOL    HW132582   3.947   3.884  13.541  1.2083 -0.7558  0.7506
 6983SOL    HW232583   3.816   3.892  13.590  1.1812 -0.2635 -1.8537
 6984SOL     OW32584   2.233   4.196  11.987  0.0057  0.0033  0.8208
 6984SOL    HW132585   2.297   4.258  11.952 -1.8877  0.5686 -1.6703
 6984SOL    HW232586   2.161   4.252  12.015 -0.0419  0.0734  0.5574
 6985SOL     OW32587   1.655   2.328   2.588 -0.0599 -0.5822 -0.1240
 6985SOL    HW132588   1.737   2.332   2.636 -0.5054  0.1665  0.5791
 6985SOL    HW232589   1.648   2.232   2.586 -2.0835 -0.5040  3.6204
 6986SOL     OW32590   2.428   0.970   2.533 -0.3946 -0.0560 -0.2157
 6986SOL    HW132591   2.420   0.943   2.624 -0.5449 -1.4342 -0.6393
 6986SOL    HW232592   2.337   0.959   2.503 -1.2153  2.4354  1.4038
 6987SOL     OW32593   3.972   2.059  13.047 -0.2712 -0.3681 -0.2275
 6987SOL    HW132594   4.067   2.072  13.041 -0.1954 -0.5296  0.6340
 6987SOL    HW232595   3.956   2.151  13.026  0.4317 -0.2045 -0.0427
 6988SOL     OW32596   3.576   2.445   5.783 -0.0023  0.0644  0.4412
 6988SOL    HW132597   3.516   2.376   5.814 -1.8950  2.5543  2.4030
 6988SOL    HW232598   3.655   2.398   5.808 -0.2580 -1.2008 -1.1633
 6989SOL     OW32599   0.811   4.194  17.263 -0.3819 -0.0373 -0.1198
 6989SOL    HW132600   0.756   4.266  17.231 -0.7727 -0.7277 -1.0107
 6989SOL    HW232601   0.891   4.243  17.243  0.8661 -1.0916  2.3069
 6990SOL     OW32602   1.963   0.670   4.709 -0.4221 -0.2806  0.0546
 6990SOL    HW132603   1.873   0.693   4.687 -0.8918  0.8303  3.1288
 6990SOL    HW232604   1.971   0.575   4.694 -2.3926 -0.3654 -0.4245
 6991SOL     OW32605   0.129   3.096   6.946 -0.3148  0.5572  0.4536
 6991SOL    HW132606   0.142   3.054   6.861  1.5079  1.3385  0.3368
 6991SOL    HW232607   0.205   3.061   6.993 -0.5991 -1.6853 -0.7362
 6992SOL     OW32608   0.769   0.209   8.396 -0.3494  0.1140  0.0765
 6992SOL    HW132609   0.795   0.117   8.401 -2.5941 -0.5947 -1.1396
 6992SOL    HW232610   0.810   0.248   8.319 -0.0799 -1.5060 -0.5866
 6993SOL     OW32611   4.123   2.961   5.388  0.1429 -0.0110 -0.2620
 6993SOL    HW132612   4.125   2.873   5.352 -1.2079  0.4406 -1.4262
 6993SOL    HW232613   4.215   2.980   5.370  0.2887 -0.3562  0.1368
 6994SOL     OW32614   1.986   2.075   5.391  0.1994 -0.2589 -0.3864
 6994SOL    HW132615   1.900   2.116   5.396  0.0744 -0.4894 -0.6611
 6994SOL    HW232616   2.025   2.093   5.477  1.3031  0.8545 -1.1225
 6995SOL     OW32617   3.234   0.094   5.532  0.1019  0.5672 -0.5555
 6995SOL    HW132618   3.291   0.171   5.526  1.7677 -0.6618 -0.6011
 6995SOL    HW232619   3.154   0.130   5.495 -0.8425 -0.4124  0.5585
 6996SOL     OW32620   3.432   0.195   9.110 -0.3828  0.2344  0.7222
 6996SOL    HW132621   3.375   0.135   9.158  0.9299 -0.9708  0.7877
 6996SOL    HW232622   3.371   0.264   9.085  0.8154  1.3292  0.8200
 6997SOL     OW32623   4.127   2.819   1.946 -0.6308 -0.2690 -0.0971
 6997SOL    HW132624   4.150   2.738   1.992  0.9559 -1.2807 -2.6807
 6997SOL    HW232625   4.199   2.876   1.973 -1.3780 -0.8503  3.1504
 6998SOL     OW32626   0.946   0.245   6.212  0.1687 -0.0185 -0.7083
 6998SOL    HW132627   0.873   0.212   6.160 -0.3418  0.4348 -0.2828
 6998SOL    HW232628   0.990   0.295   6.144 -1.0668  0.9709 -0.7928
 6999SOL     OW32629   1.850   0.865   8.116  0.1440  0.4535  0.1762
 6999SOL    HW132630   1.784   0.868   8.185  2.9313  0.8815  2.8239
 6999SOL    HW232631   1.871   0.772   8.121  1.3709  0.6568 -1.1973
 7000SOL     OW32632   2.356   4.123   5.328  0.2253  0.4534  0.4336
 7000SOL    HW132633   2.263   4.107   5.343 -0.1807  1.3927 -1.0531
 7000SOL    HW232634   2.379   4.163   5.412  0.7688  1.7556 -0.3355
 7001SOL     OW32635   0.817   3.411  14.984 -0.1662  0.4046  0.2829
 7001SOL    HW132636   0.723   3.428  14.981 -0.6647 -2.5289 -0.7279
 7001SOL    HW232637   0.827   3.365  14.901 -2.3054 -2.3768  1.5865
 7002SOL     OW32638   3.814   1.651   5.580  0.1510  0.1997 -0.0345
 7002SOL    HW132639   3.820   1.737   5.621  0.7266  0.1419  0.0039
 7002SOL    HW232640   3.812   1.598   5.661  0.1961  1.1279  0.5692
 7003SOL     OW32641   2.634   2.953   2.131 -0.2860 -0.2131 -0.5564
 7003SOL    HW132642   2.606   2.984   2.045  0.9563  4.0065  0.5607
 7003SOL    HW232643   2.585   3.020   2.181 -1.0848 -2.5348  1.7786
 7004SOL     OW32644   0.904   3.890   3.089  0.5709 -0.4918 -0.0047
 7004SOL    HW132645   0.862   3.814   3.131 -1.3441  0.8094  0.4642
 7004SOL    HW232646   0.932   3.937   3.167 -2.1609  0.3427  0.4891
 7005SOL     OW32647   0.923   0.939   7.635 -0.3092 -0.5038  0.1820
 7005SOL    HW132648   0.836   0.900   7.642  0.3465 -1.9211  0.5307
 7005SOL    HW232649   0.967   0.881   7.572 -0.0138 -1.4167  1.2338
 7006SOL     OW32650   3.607   1.369   5.729  0.0533  0.1440 -0.1133
 7006SOL    HW132651   3.669   1.375   5.657  0.6436  0.5681  0.4239
 7006SOL    HW232652   3.659   1.324   5.797  1.1538  1.8753  0.1903
 7007SOL     OW32653   4.236   2.380   9.424 -0.2855 -0.5345  0.1922
 7007SOL    HW132654   4.251   2.442   9.495 -1.5536 -1.0023  0.8674
 7007SOL    HW232655   4.140   2.385   9.428  0.0600  3.5003  3.2639
 7008SOL     OW32656   2.679   4.249  11.727 -0.1756  0.8945  0.0883
 7008SOL    HW132657   2.774   4.248  11.721 -0.2544  0.0734 -0.9701
 7008SOL    HW232658   2.673   4.332  11.775 -0.6793  0.8419  0.1198
 7009SOL     OW32659   0.259   2.033   4.918 -0.3312  0.0193  0.2812
 7009SOL    HW132660   0.179   2.015   4.869  0.4674  0.9165 -1.3693
 7009SOL    HW232661   0.222   2.091   4.984 -2.0025 -1.2499  0.4357
 7010SOL     OW32662   3.900   2.638   3.967  0.4209  0.3459  0.9830
 7010SOL    HW132663   3.905   2.734   3.972  1.3010  0.4113 -1.3715
 7010SOL    HW232664   3.991   2.623   3.992 -0.0063 -1.0518  1.6461
 7011SOL     OW32665   1.483   3.988   1.772  0.6495 -0.1388  0.1979
 7011SOL    HW132666   1.452   3.984   1.682  0.8422  0.5148  0.1074
 7011SOL    HW232667   1.428   3.918   1.808  1.1181 -0.6099 -0.0080
 7012SOL     OW32668   0.293   1.154   7.146 -0.4350  0.0316  0.2801
 7012SOL    HW132669   0.269   1.062   7.137 -2.6056  0.6231 -0.0797
 7012SOL    HW232670   0.219   1.201   7.107 -0.5160  0.4349  0.9259
 7013SOL     OW32671   2.372   4.503   4.666  0.2164 -0.1947  0.1037
 7013SOL    HW132672   2.297   4.551   4.631  2.4191  0.7746 -3.3328
 7013SOL    HW232673   2.426   4.489   4.588 -0.8059 -0.3196 -0.5846
 7014SOL     OW32674   2.414   1.669   4.289  0.1193 -0.0014 -0.1714
 7014SOL    HW132675   2.363   1.750   4.301 -0.9021 -0.7560  0.5746
 7014SOL    HW232676   2.377   1.629   4.210  1.8160  0.0906 -1.0155
 7015SOL     OW32677   0.719   3.075   4.597 -0.0774  0.5391 -0.1699
 7015SOL    HW132678   0.629   3.047   4.577  0.1445 -1.2980  1.3910
 7015SOL    HW232679   0.767   2.993   4.601  3.4503  2.7273  2.1893
 7016SOL     OW32680   0.021   3.146   4.752  0.2154  0.0262 -0.2112
 7016SOL    HW132681   4.681   3.153   4.697  0.5066  2.3913 -0.3320
 7016SOL    HW232682   0.067   3.227   4.730 -1.4732  1.2293  0.7314
 7017SOL     OW32683   1.053   3.173  14.027  0.5036 -0.4782 -0.1198
 7017SOL    HW132684   1.020   3.199  14.113  0.8184 -1.4234  0.2849
 7017SOL    HW232685   1.050   3.257  13.979 -0.2392  0.9596  2.4310
 7018SOL     OW32686   0.577   0.280   1.348  0.2888  0.9714  0.1990
 7018SOL    HW132687   0.665   0.317   1.357  0.4530  1.3838 -3.2973
 7018SOL    HW232688   0.594   0.191   1.317  0.0529  1.2624 -0.7590
 7019SOL     OW32689   4.198   2.765   3.969  0.1468  0.2889 -0.6679
 7019SOL    HW132690   4.183   2.703   4.041 -1.6175  1.3833 -0.0831
 7019SOL    HW232691   4.263   2.718   3.917 -2.2199 -2.3680 -1.2395
 7020SOL     OW32692   0.275   3.989   5.827  0.4873 -0.8872 -0.0682
 7020SOL    HW132693   0.244   4.078   5.842  2.1375  0.0124 -1.8743
 7020SOL    HW232694   0.237   3.971   5.741  0.1816 -1.0548  0.1004
 7021SOL     OW32695   2.877   1.123   0.527 -0.0488 -0.3331  0.2568
 7021SOL    HW132696   2.906   1.065   0.457  0.2323  0.4902 -0.3093
 7021SOL    HW232697   2.792   1.151   0.493 -0.6334 -1.0798  1.1242
 7022SOL     OW32698   1.942   0.032   5.406  0.2286  0.8321  0.7922
 7022SOL    HW132699   1.966   4.706   5.473  2.1441 -0.1552 -0.8566
 7022SOL    HW232700   2.014   0.021   5.344  0.1158  0.9084  0.6487
 7023SOL     OW32701   0.427   3.361  16.694  0.3910 -0.2353  0.2253
 7023SOL    HW132702   0.424   3.288  16.633 -2.2922  0.2715 -0.2448
 7023SOL    HW232703   0.414   3.434  16.633 -1.1139  0.7468  1.7232
 7024SOL     OW32704   2.025   1.058   3.480  0.2359  0.4256  0.5114
 7024SOL    HW132705   1.969   0.993   3.522 -0.1932 -1.3418 -2.8751
 7024SOL    HW232706   2.038   1.114   3.558  1.7236 -0.3496  0.8252
 7025SOL     OW32707   1.732   0.391   6.657 -0.2883  0.3178 -0.4734
 7025SOL    HW132708   1.819   0.351   6.656  0.2099  1.4433 -2.2687
 7025SOL    HW232709   1.729   0.425   6.747 -0.2186  2.2134 -1.1905
 7026SOL     OW32710   4.561   2.021   5.130 -0.2074  0.4414  0.3090
 7026SOL    HW132711   4.492   2.060   5.183 -1.3668 -0.2108 -0.7436
 7026SOL    HW232712   4.516   2.013   5.047  1.0198 -0.4937 -0.2711
 7027SOL     OW32713   2.144   3.217   3.920  0.0296 -0.0777 -0.4282
 7027SOL    HW132714   2.147   3.259   4.007  0.2574 -2.5995  0.7615
 7027SOL    HW232715   2.164   3.294   3.866  1.5395 -0.2894 -0.1783
 7028SOL     OW32716   3.277   0.030   8.292 -0.6305 -0.3643 -0.0061
 7028SOL    HW132717   3.356   0.069   8.254 -0.8765  0.6491  0.5253
 7028SOL    HW232718   3.285   0.072   8.378  0.0254 -1.1471  0.3205
 7029SOL     OW32719   0.833   3.394  15.262 -0.1945 -0.0774 -0.1474
 7029SOL    HW132720   0.740   3.408  15.280 -0.1358  0.4256 -0.2237
 7029SOL    HW232721   0.832   3.399  15.166  1.4550  1.9329 -0.0657
 7030SOL     OW32722   0.633   4.034   2.531 -0.2439  0.2104  0.4032
 7030SOL    HW132723   0.557   4.090   2.514 -0.7175  0.4218  3.1492
 7030SOL    HW232724   0.685   4.048   2.452  0.8168 -1.6214  0.7568
 7031SOL     OW32725   4.717   4.016   7.794  0.0391  0.6349 -0.0132
 7031SOL    HW132726   4.647   3.951   7.798  1.3035 -0.5041  3.0553
 7031SOL    HW232727   4.719   4.057   7.880 -1.3936  0.0687  0.2961
 7032SOL     OW32728   0.886   1.636   1.476 -0.4514  0.2021  0.3840
 7032SOL    HW132729   0.903   1.597   1.390  1.6531 -1.1120  1.4231
 7032SOL    HW232730   0.881   1.726   1.443  0.1967  0.1208  0.0550
 7033SOL     OW32731   2.739   3.808   7.598  0.4065  0.0528  0.2625
 7033SOL    HW132732   2.756   3.855   7.516  1.1070  2.9385  2.0288
 7033SOL    HW232733   2.645   3.822   7.605  0.3967  0.7933 -1.3776
 7034SOL     OW32734   3.664   0.781   0.549 -0.4074 -0.4715 -0.5357
 7034SOL    HW132735   3.633   0.785   0.639 -0.4715  0.3979 -0.5981
 7034SOL    HW232736   3.759   0.779   0.558 -0.5738  0.5277  1.3469
 7035SOL     OW32737   4.413   3.010  14.213 -0.5477  0.3154 -0.5291
 7035SOL    HW132738   4.438   3.098  14.241  0.5337  0.0065 -0.5087
 7035SOL    HW232739   4.349   3.034  14.146 -1.4994 -3.2077 -0.9105
 7036SOL     OW32740   4.670   4.605   5.569  0.4464 -0.6797  0.2184
 7036SOL    HW132741   4.689   4.610   5.663 -0.7911  2.4079  0.3215
 7036SOL    HW232742   4.645   4.513   5.561  0.4777 -0.6940  0.2876
 7037SOL     OW32743   0.065   3.971  10.271  0.4764 -0.2264 -0.6277
 7037SOL    HW132744   4.718   3.991  10.310  0.4055 -1.8955  0.0472
 7037SOL    HW232745   0.055   4.038  10.202 -0.5218 -1.1985 -1.4177
 7038SOL     OW32746   2.367   3.793   4.317  0.0088  0.3134 -0.0849
 7038SOL    HW132747   2.282   3.807   4.358 -0.8444 -2.2063 -1.0013
 7038SOL    HW232748   2.367   3.846   4.237 -3.9271  0.4621  0.0096
 7039SOL     OW32749   2.761   0.981   6.002  0.0263 -0.3012  0.4838
 7039SOL    HW132750   2.724   0.954   6.085  1.6760  0.7252  1.5657
 7039SOL    HW232751   2.724   1.068   5.987  1.0796  0.3213  1.5262
 7040SOL     OW32752   4.551   2.512  16.430  0.1596 -0.3164 -0.5574
 7040SOL    HW132753   4.631   2.543  16.388 -1.0200  1.7327 -1.2852
 7040SOL    HW232754   4.531   2.597  16.468  0.1491  0.1399 -1.5772
 7041SOL     OW32755   3.952   4.625   6.437 -0.1434 -0.2119 -0.6301
 7041SOL    HW132756   3.870   4.609   6.391 -0.7402 -2.4830  1.2226
 7041SOL    HW232757   3.977   4.541   6.474  1.6154  0.5750 -0.0271
 7042SOL     OW32758   3.525   4.187  11.203  0.4882 -0.1797  0.1720
 7042SOL    HW132759   3.431   4.167  11.207 -0.1488  2.4857 -0.7856
 7042SOL    HW232760   3.532   4.256  11.269  0.4437  1.0439 -1.0978
 7043SOL     OW32761   2.952   2.970   7.648  0.4254 -0.5098  0.1755
 7043SOL    HW132762   3.010   2.923   7.708  0.1385  1.4231  1.9373
 7043SOL    HW232763   2.877   2.989   7.704  0.0832 -1.3642  0.0206
 7044SOL     OW32764   3.099   1.951  15.728 -0.6472  0.1746  1.1274
 7044SOL    HW132765   3.047   1.933  15.806 -3.6230 -0.1076 -0.9132
 7044SOL    HW232766   3.189   1.931  15.754 -0.3561 -2.8008 -2.2182
 7045SOL     OW32767   0.666   4.462   2.633 -0.3781 -0.5052 -0.3312
 7045SOL    HW132768   0.647   4.437   2.543 -0.2915  1.7966 -1.0037
 7045SOL    HW232769   0.737   4.525   2.620 -0.4654 -0.4259 -0.4281
 7046SOL     OW32770   0.268   0.621   4.724  0.5130 -0.2229 -0.2063
 7046SOL    HW132771   0.336   0.639   4.659  0.2940 -0.4131 -0.4881
 7046SOL    HW232772   0.294   0.679   4.795  2.5149 -0.7908 -0.4815
 7047SOL     OW32773   3.589   4.168  17.019 -0.2303  0.1579  0.0282
 7047SOL    HW132774   3.603   4.175  17.113  2.0479 -1.9186 -0.1626
 7047SOL    HW232775   3.668   4.199  16.974 -0.0157 -0.6369 -0.1393
 7048SOL     OW32776   1.928   0.752  11.143 -0.5614  0.4080  0.2949
 7048SOL    HW132777   1.987   0.815  11.103 -0.8313  0.7471  0.4270
 7048SOL    HW232778   1.852   0.799  11.108 -0.7937 -0.6680 -0.6572
 7049SOL     OW32779   0.994   0.099   0.648 -0.0646  0.0244 -0.1032
 7049SOL    HW132780   0.904   0.085   0.619 -0.0289 -0.4483  0.0075
 7049SOL    HW232781   1.035   0.079   0.564 -1.1602 -0.2145 -0.5873
 7050SOL     OW32782   2.692   3.834   7.909 -0.4145  0.5324  0.0184
 7050SOL    HW132783   2.700   3.850   7.815  0.5337 -1.5150 -0.2543
 7050SOL    HW232784   2.728   3.746   7.905  1.1326  1.1417  0.4462
 7051SOL     OW32785   4.054   0.711  16.359  0.2095 -0.2906 -0.1584
 7051SOL    HW132786   4.028   0.788  16.308 -0.2020 -0.0273  0.4455
 7051SOL    HW232787   4.108   0.675  16.289  1.3974  1.8625 -0.3579
 7052SOL     OW32788   3.918   2.611   5.821 -0.0423 -0.9693  0.1670
 7052SOL    HW132789   3.969   2.607   5.740  0.8052 -0.1702  0.6624
 7052SOL    HW232790   3.852   2.676   5.795  1.3686  0.6223  0.5493
 7053SOL     OW32791   3.197   4.399   7.684 -0.1267 -0.3845  0.5347
 7053SOL    HW132792   3.279   4.412   7.636 -0.2195  1.2319  0.8152
 7053SOL    HW232793   3.179   4.486   7.718  1.8499  1.7670 -3.9453
 7054SOL     OW32794   1.189   0.647  17.315  0.1092 -0.0992 -0.5025
 7054SOL    HW132795   1.249   0.684  17.249  1.0028 -1.8479 -0.6788
 7054SOL    HW232796   1.109   0.652  17.263  0.5405  0.7782 -1.0922
 7055SOL     OW32797   0.342   1.735   4.740 -0.4033 -1.2605 -0.3326
 7055SOL    HW132798   0.252   1.732   4.772 -0.3131 -2.3440 -0.1652
 7055SOL    HW232799   0.391   1.725   4.821  0.0014 -0.7871 -0.5159
 7056SOL     OW32800   4.519   3.038  17.166  0.3599 -0.5374 -0.2369
 7056SOL    HW132801   4.468   2.966  17.131 -0.8438  0.8560 -1.3414
 7056SOL    HW232802   4.447   3.079  17.214 -0.2658 -0.4663 -1.2418
 7057SOL     OW32803   4.469   3.830   3.028 -0.4187  0.3012  0.3361
 7057SOL    HW132804   4.416   3.910   3.027 -0.7568  0.0789  0.4819
 7057SOL    HW232805   4.405   3.783   3.082  0.9648 -0.4463  1.2903
 7058SOL     OW32806   4.418   3.771   1.253 -0.9411 -0.1649  0.1742
 7058SOL    HW132807   4.448   3.754   1.343  1.8483  0.6311 -0.6154
 7058SOL    HW232808   4.399   3.682   1.224  0.0134 -0.7809  1.4450
 7059SOL     OW32809   4.603   3.167   5.526  0.8351  0.8907  0.3722
 7059SOL    HW132810   4.518   3.127   5.546  1.5365 -2.2608 -2.9198
 7059SOL    HW232811   4.580   3.238   5.466  1.2559 -0.8698 -1.8634
 7060SOL     OW32812   2.898   2.636   8.401  0.5260 -0.5312 -0.0638
 7060SOL    HW132813   2.818   2.639   8.349 -0.7504  0.1490  1.9231
 7060SOL    HW232814   2.911   2.541   8.408 -0.5358 -0.8398 -2.5109
 7061SOL     OW32815   4.507   3.534   5.818 -0.1978 -0.5010  0.0615
 7061SOL    HW132816   4.585   3.588   5.803 -0.3972  0.5642  2.8741
 7061SOL    HW232817   4.494   3.544   5.913 -0.3070  2.3387 -0.2615
 7062SOL     OW32818   1.718   3.780   3.385 -0.2465 -0.3171 -0.3479
 7062SOL    HW132819   1.794   3.731   3.417  0.5527 -0.1861 -1.9924
 7062SOL    HW232820   1.662   3.704   3.369  0.2325 -1.0738  1.6515
 7063SOL     OW32821   2.955   4.375   3.740 -0.0142  0.8588  0.0953
 7063SOL    HW132822   2.943   4.315   3.666 -0.6344  2.1035 -0.8124
 7063SOL    HW232823   3.041   4.348   3.771 -0.2553 -0.6852 -0.6023
 7064SOL     OW32824   2.752   1.479   4.752 -0.7757  0.2203  0.0808
 7064SOL    HW132825   2.785   1.569   4.761  0.9650 -0.7301  3.1787
 7064SOL    HW232826   2.689   1.468   4.824 -2.1439  0.2426 -1.1128
 7065SOL     OW32827   2.672   3.872   0.174 -0.2089 -0.4826  0.0243
 7065SOL    HW132828   2.637   3.787   0.148 -2.5053  0.6012 -0.3693
 7065SOL    HW232829   2.762   3.852   0.148  0.9613  0.9445  2.9650
 7066SOL     OW32830   2.712   4.496   3.492  0.4555  0.0311 -0.1195
 7066SOL    HW132831   2.712   4.511   3.398 -1.3025 -0.7221 -0.2418
 7066SOL    HW232832   2.757   4.411   3.496 -2.4572 -1.5394 -0.2760
 7067SOL     OW32833   0.129   3.540  16.747 -0.4863  0.0695  0.4064
 7067SOL    HW132834   0.105   3.616  16.799  0.0400  1.6454 -1.6729
 7067SOL    HW232835   0.188   3.488  16.801  1.3889  0.5458 -1.1961
 7068SOL     OW32836   4.614   0.010   7.983  0.3221  0.1267  0.0606
 7068SOL    HW132837   4.546   0.039   8.043  1.1884  1.2389  0.4972
 7068SOL    HW232838   4.597   0.069   7.910 -0.0335  2.0088  1.6698
 7069SOL     OW32839   2.909   1.868   8.011  0.3893 -0.0455 -0.5896
 7069SOL    HW132840   2.998   1.842   8.036  1.0279  1.0100 -1.7976
 7069SOL    HW232841   2.890   1.782   7.973 -0.7452 -0.9095  1.9715
 7070SOL     OW32842   4.315   3.011   1.242 -0.0860  0.5041 -0.1151
 7070SOL    HW132843   4.267   2.975   1.168 -1.4256 -0.9007  1.4399
 7070SOL    HW232844   4.365   2.932   1.263 -1.9171 -0.4379  0.6871
 7071SOL     OW32845   3.634   3.444   6.184  0.9051 -0.0641 -0.0995
 7071SOL    HW132846   3.550   3.399   6.192 -0.1652  1.7141 -1.2880
 7071SOL    HW232847   3.688   3.385   6.237  2.8942  1.0518 -0.8727
 7072SOL     OW32848   2.580   4.532  11.128  0.3599 -0.2581  0.2625
 7072SOL    HW132849   2.514   4.490  11.181 -1.8602  0.3005 -2.0532
 7072SOL    HW232850   2.592   4.617  11.171 -0.1388  0.3701 -0.8186
 7073SOL     OW32851   1.905   2.447   6.544 -0.0102  0.0341  0.8755
 7073SOL    HW132852   1.834   2.471   6.484 -0.4089  0.3624  1.4794
 7073SOL    HW232853   1.980   2.498   6.513  2.4221 -2.7278  2.2361
 7074SOL     OW32854   0.289   2.531   7.941  0.3431 -0.3570  0.6896
 7074SOL    HW132855   0.283   2.625   7.922 -0.6560 -0.6980 -0.6504
 7074SOL    HW232856   0.209   2.521   7.992  2.0901 -4.0940  2.6694
 7075SOL     OW32857   0.123   3.224   2.570 -0.1670  0.7582 -0.3039
 7075SOL    HW132858   0.204   3.222   2.620  0.5344 -1.0145 -1.5272
 7075SOL    HW232859   0.069   3.163   2.620 -1.2503  0.9672 -1.2070
 7076SOL     OW32860   4.531   4.706   3.169 -0.7250 -1.2632 -0.3630
 7076SOL    HW132861   4.470   4.678   3.238 -1.2269  0.7714 -0.0018
 7076SOL    HW232862   4.548   0.060   3.184 -0.9059 -1.5188  1.4427
 7077SOL     OW32863   3.225   0.978   5.175  0.2246  0.4218  0.1200
 7077SOL    HW132864   3.169   0.999   5.249  1.5478 -2.4441  1.9217
 7077SOL    HW232865   3.310   0.964   5.216 -0.0668 -0.2136  0.4999
 7078SOL     OW32866   2.663   0.636   5.859 -0.1465 -0.2628  0.0031
 7078SOL    HW132867   2.713   0.651   5.938  1.1076 -2.4684 -0.3858
 7078SOL    HW232868   2.586   0.694   5.862  0.5778  0.7496 -0.7556
 7079SOL     OW32869   4.100   1.476   3.275  0.0715  0.6578  0.6698
 7079SOL    HW132870   4.138   1.563   3.260 -0.6090  0.6736 -0.9867
 7079SOL    HW232871   4.103   1.423   3.195  1.4838  0.2538  0.9805
 7080SOL     OW32872   1.387   1.198   7.178  0.3652 -0.2911 -0.3046
 7080SOL    HW132873   1.318   1.175   7.115 -0.3129  1.1698 -0.0901
 7080SOL    HW232874   1.390   1.293   7.172  1.8802 -0.3160  0.2235
 7081SOL     OW32875   0.769   4.643   5.682 -0.2040  0.2079 -0.5490
 7081SOL    HW132876   0.797   4.656   5.592  0.5298 -1.3903 -0.5593
 7081SOL    HW232877   0.850   4.623   5.728 -0.2478  1.6587  0.1774
 7082SOL     OW32878   3.868   0.045   0.637  0.0942 -0.4662 -0.4554
 7082SOL    HW132879   3.872   0.082   0.548 -2.2055  0.2410 -0.2699
 7082SOL    HW232880   3.948   0.084   0.672  1.3429 -2.3057 -1.2737
 7083SOL     OW32881   4.216   0.059  15.215 -0.1730  0.5901 -0.7022
 7083SOL    HW132882   4.224   0.153  15.234  1.6042  0.3442 -0.3118
 7083SOL    HW232883   4.304   0.027  15.234 -0.5543 -0.0189  0.0373
 7084SOL     OW32884   0.983   2.066  16.955 -0.3781  0.2106 -0.1143
 7084SOL    HW132885   1.066   2.106  16.981  0.7548 -0.9051 -1.9076
 7084SOL    HW232886   1.010   1.974  16.944  1.4678  0.6337  0.7890
 7085SOL     OW32887   2.247   1.330  10.183 -0.4546  0.5154 -0.3508
 7085SOL    HW132888   2.215   1.368  10.101 -2.5777 -0.8911 -0.1678
 7085SOL    HW232889   2.169   1.318  10.237 -0.2096 -0.8061 -0.2934
 7086SOL     OW32890   0.512   4.186   7.081 -0.2398  0.3672 -0.0622
 7086SOL    HW132891   0.421   4.158   7.074  0.0095 -0.9335  1.7475
 7086SOL    HW232892   0.516   4.194   7.176 -2.6914 -1.4530  0.1722
 7087SOL     OW32893   4.533   3.485   8.911  0.1814  0.1338  0.6497
 7087SOL    HW132894   4.523   3.501   8.817 -0.1938 -0.8391  0.5189
 7087SOL    HW232895   4.621   3.520   8.920  0.0379 -0.3623  3.9226
 7088SOL     OW32896   3.347   3.937   5.477 -0.0493  0.1667 -0.2783
 7088SOL    HW132897   3.426   3.900   5.516  0.5988 -0.2148 -1.9233
 7088SOL    HW232898   3.303   3.955   5.560 -0.0675 -0.1293 -0.2264
 7089SOL     OW32899   3.156   2.635   9.890 -0.5683 -0.1787 -0.1917
 7089SOL    HW132900   3.078   2.688   9.870 -0.4332  0.7410  1.7400
 7089SOL    HW232901   3.126   2.602   9.974  0.1118  1.5174  0.7242
 7090SOL     OW32902   3.351   1.295  10.292  0.2749 -0.0873  0.9245
 7090SOL    HW132903   3.265   1.324  10.264 -0.1529 -3.1164 -0.8717
 7090SOL    HW232904   3.376   1.252  10.211 -1.7725  1.4106 -0.4951
 7091SOL     OW32905   1.186   3.709   3.583 -0.0837 -0.0548 -0.1290
 7091SOL    HW132906   1.201   3.676   3.671 -0.0508 -1.5270 -0.6922
 7091SOL    HW232907   1.270   3.745   3.556  0.1437 -0.7126 -0.2981
 7092SOL     OW32908   1.261   4.436  17.021  0.5504  0.0724 -0.2781
 7092SOL    HW132909   1.264   4.508  16.958  1.9014  0.9594  0.7949
 7092SOL    HW232910   1.287   4.359  16.970  1.6772  0.0374  0.3426
 7093SOL     OW32911   2.850   2.325   6.189  0.6342  0.0448  0.2363
 7093SOL    HW132912   2.901   2.250   6.160 -2.0675 -1.1787 -1.3397
 7093SOL    HW232913   2.763   2.309   6.152 -0.0403 -0.5123  2.0424
 7094SOL     OW32914   0.078   3.122   8.506 -0.0977 -0.5371 -0.4605
 7094SOL    HW132915   0.111   3.211   8.519 -2.3121  0.4412 -1.5345
 7094SOL    HW232916   0.054   3.104   8.596 -0.0300  0.5013 -0.2367
 7095SOL     OW32917   3.692   3.951   9.302 -0.8987  0.0123 -0.2064
 7095SOL    HW132918   3.638   3.881   9.267 -0.0598 -1.6924  1.9533
 7095SOL    HW232919   3.760   3.903   9.350 -1.6057 -1.5838 -0.8008
 7096SOL     OW32920   3.319   0.298   4.442  0.1927  1.0959  0.2605
 7096SOL    HW132921   3.226   0.317   4.434  0.0624  0.5168  0.3514
 7096SOL    HW232922   3.326   0.294   4.537  2.0234 -2.4702 -0.0166
 7097SOL     OW32923   4.357   2.071  12.471  0.4901  0.2208  0.0409
 7097SOL    HW132924   4.387   2.091  12.382 -3.1453  2.3225 -0.7365
 7097SOL    HW232925   4.442   2.071  12.514 -0.3152 -0.3085  1.6270
 7098SOL     OW32926   4.603   1.283   4.910 -0.1241  0.1761  0.4859
 7098SOL    HW132927   4.602   1.277   5.005  1.8814 -1.8949  0.3884
 7098SOL    HW232928   4.517   1.310   4.877  0.5389 -0.7517 -2.0281
 7099SOL     OW32929   0.529   0.955   2.011  0.1187  0.4296  0.2804
 7099SOL    HW132930   0.518   0.985   1.920 -1.0212  0.1337  0.3252
 7099SOL    HW232931   0.485   0.870   2.019  1.8048 -0.4551  0.1665
 7100SOL     OW32932   2.503   0.812   5.044 -0.1612 -0.6532  0.2239
 7100SOL    HW132933   2.408   0.818   5.055 -0.1330  0.3117 -0.0633
 7100SOL    HW232934   2.538   0.881   5.101 -2.3125  0.9221 -0.3771
 7101SOL     OW32935   0.564   1.657   2.774  0.0768  0.2712  0.0824
 7101SOL    HW132936   0.515   1.606   2.710 -2.2257 -1.0934  2.9651
 7101SOL    HW232937   0.592   1.588   2.833 -0.3095  0.6770  0.7325
 7102SOL     OW32938   0.697   2.385   8.874 -0.2497  0.1220  0.0257
 7102SOL    HW132939   0.755   2.320   8.913 -0.0230  2.1122  2.9795
 7102SOL    HW232940   0.710   2.460   8.932  1.1213 -0.2906  0.2330
 7103SOL     OW32941   3.780   4.065   0.369  0.3052 -0.3144 -0.7421
 7103SOL    HW132942   3.810   4.147   0.331 -1.0703 -0.0587 -1.2618
 7103SOL    HW232943   3.846   4.050   0.436 -0.6578 -1.5532 -0.0714
 7104SOL     OW32944   3.917   0.765  13.076 -0.3282  0.2369 -0.2274
 7104SOL    HW132945   3.955   0.721  13.000  0.3971 -0.2389  0.4109
 7104SOL    HW232946   3.994   0.812  13.109 -0.1746 -0.5386  0.5081
 7105SOL     OW32947   0.499   1.846   8.515 -0.4822 -0.0966 -0.5159
 7105SOL    HW132948   0.483   1.932   8.477  0.0259  0.2674  0.0962
 7105SOL    HW232949   0.591   1.830   8.497 -0.2882 -0.1735  0.4949
 7106SOL     OW32950   3.554   4.516   1.889 -0.2648 -0.2590  0.2204
 7106SOL    HW132951   3.508   4.498   1.807  1.0593  0.5541 -0.7034
 7106SOL    HW232952   3.534   4.437   1.940 -0.2666  0.4270  1.2943
 7107SOL     OW32953   1.477   4.527   0.414 -0.1272 -0.2656  0.7259
 7107SOL    HW132954   1.382   4.535   0.423 -0.2080 -1.5570  0.9562
 7107SOL    HW232955   1.516   4.614   0.402  1.1434 -0.4912  3.4016
 7108SOL     OW32956   0.680   2.195   9.278 -0.3792  0.2450 -0.4144
 7108SOL    HW132957   0.687   2.217   9.371 -2.2760 -0.6680 -0.0435
 7108SOL    HW232958   0.679   2.282   9.237 -0.1529  1.5649  2.3483
 7109SOL     OW32959   3.697   2.316   9.883 -0.0499  0.3153  0.0878
 7109SOL    HW132960   3.638   2.336   9.956  2.8633  0.2479  2.4403
 7109SOL    HW232961   3.769   2.271   9.926  0.0059 -0.1132 -0.4549
 7110SOL     OW32962   4.118   3.989  17.019  0.9820 -0.3417 -0.0219
 7110SOL    HW132963   4.168   4.031  17.089 -2.0794  2.2265  0.6156
 7110SOL    HW232964   4.050   3.957  17.078  0.5740 -0.9004 -0.7999
 7111SOL     OW32965   1.547   2.101  10.071  0.5386  0.5367 -0.7153
 7111SOL    HW132966   1.511   2.036  10.012  0.9871 -1.6643  1.4513
 7111SOL    HW232967   1.594   2.047  10.135  0.8080  1.6859  0.0761
 7112SOL     OW32968   4.635   1.690   7.486  0.0775 -0.3130  0.4803
 7112SOL    HW132969   4.595   1.771   7.517  1.8695  0.4047  0.9129
 7112SOL    HW232970   4.727   1.705   7.506  0.2725  0.1288 -0.7398
 7113SOL     OW32971   1.423   1.298   4.932 -0.0850  0.1152  0.5350
 7113SOL    HW132972   1.363   1.371   4.943  0.3687  0.4890  0.5149
 7113SOL    HW232973   1.371   1.230   4.977  0.5828  0.7760  2.3082
 7114SOL     OW32974   1.476   3.787  13.063 -0.4290 -0.2557 -0.5438
 7114SOL    HW132975   1.478   3.803  12.968 -2.2952 -1.4822 -0.8048
 7114SOL    HW232976   1.496   3.693  13.063  0.5814 -0.0438 -2.3380
 7115SOL     OW32977   2.102   0.667  12.448 -0.1175 -0.1868 -0.7344
 7115SOL    HW132978   2.095   0.746  12.502 -0.3586 -0.8701  0.2489
 7115SOL    HW232979   2.014   0.639  12.424  0.5200 -3.3729  0.6229
 7116SOL     OW32980   4.249   4.014  10.894  0.2243 -0.0382  0.1996
 7116SOL    HW132981   4.311   4.010  10.967 -0.5543  0.4598  0.8955
 7116SOL    HW232982   4.260   3.923  10.866 -1.8956  0.5778 -2.6254
 7117SOL     OW32983   2.782   2.764   1.117 -0.0995 -0.3658 -0.2476
 7117SOL    HW132984   2.872   2.734   1.108  0.2820  0.4999  0.6878
 7117SOL    HW232985   2.800   2.857   1.101 -0.1765 -0.4272 -0.6946
 7118SOL     OW32986   2.803   1.913   3.182  0.3722  0.4518  0.3308
 7118SOL    HW132987   2.755   1.991   3.208 -1.1478 -0.0711 -0.8193
 7118SOL    HW232988   2.842   1.940   3.099  0.2925  2.1221  0.8441
 7119SOL     OW32989   2.556   0.912   4.329 -0.2353 -0.3332 -0.2678
 7119SOL    HW132990   2.562   0.846   4.260 -1.6275 -1.9186  1.1285
 7119SOL    HW232991   2.483   0.971   4.309  1.5167  1.9142  0.0798
 7120SOL     OW32992   0.017   3.202   5.890 -0.2323  0.2256 -0.1904
 7120SOL    HW132993   4.688   3.238   5.947  1.3422  0.3484  1.6047
 7120SOL    HW232994   0.018   3.109   5.913 -2.1650  0.6852  1.7524
 7121SOL     OW32995   3.971   3.348   4.711  0.1713 -0.8574 -0.7502
 7121SOL    HW132996   3.928   3.264   4.696 -1.5418 -0.2921  0.9996
 7121SOL    HW232997   3.919   3.389   4.641  2.3806  1.5533 -0.9801
 7122SOL     OW32998   0.581   3.907  17.697 -0.3204 -0.2257  0.3881
 7122SOL    HW132999   0.617   3.872   0.027  1.6143  1.3201  0.1921
 7122SOL    HW233000   0.488   3.906  17.723 -0.6484  0.0272 -0.7957
 7123SOL     OW33001   2.167   0.075   3.877  0.3322 -0.7060 -0.3110
 7123SOL    HW133002   2.165   4.719   3.888 -1.6590 -0.8675 -2.0193
 7123SOL    HW233003   2.165   0.081   3.781  1.2973  0.6531 -0.2492
 7124SOL     OW33004   0.360   1.002   4.396  0.5290  0.4051  0.0858
 7124SOL    HW133005   0.342   1.011   4.302 -0.2819  1.6177  0.3595
 7124SOL    HW233006   0.418   1.077   4.409 -0.9782  1.4116  0.9609
 7125SOL     OW33007   3.709   4.521   6.331  0.6447  0.4839 -0.3585
 7125SOL    HW133008   3.649   4.495   6.401  0.5578  2.1465  0.1810
 7125SOL    HW233009   3.741   4.436   6.301  2.0258  1.2730 -1.1175
 7126SOL     OW33010   2.984   4.346  14.192  0.3339 -0.0820 -0.1435
 7126SOL    HW133011   2.984   4.425  14.138  2.1040 -1.0236 -1.5415
 7126SOL    HW233012   3.017   4.287  14.124  0.6560  0.4802 -0.4740
 7127SOL     OW33013   3.144   4.612   4.951  0.2083 -0.6972 -0.0322
 7127SOL    HW133014   3.116   4.619   5.042 -0.7348  1.4264 -0.4828
 7127SOL    HW233015   3.064   4.641   4.908  1.0850  1.6256 -0.0871
 7128SOL     OW33016   0.269   3.442   0.552  0.0531  0.9507  0.5189
 7128SOL    HW133017   0.194   3.387   0.529  1.9351 -1.3211 -0.1376
 7128SOL    HW233018   0.219   3.519   0.580 -0.5965  0.6547  0.1714
 7129SOL     OW33019   0.640   2.138   8.553  0.7606  0.0914  0.2629
 7129SOL    HW133020   0.582   2.142   8.477 -1.1255  1.7101  1.8079
 7129SOL    HW233021   0.720   2.097   8.519  0.3590 -1.1820  0.8426
 7130SOL     OW33022   3.455   1.500   1.815  0.1059 -0.0020  0.6719
 7130SOL    HW133023   3.510   1.527   1.742 -0.1692  1.3457  0.9600
 7130SOL    HW233024   3.493   1.416   1.840  1.1112  0.5710  1.0566
 7131SOL     OW33025   0.654   4.111  15.071  0.2210 -0.0631 -0.2613
 7131SOL    HW133026   0.579   4.156  15.110 -0.0348  1.0172 -1.9999
 7131SOL    HW233027   0.709   4.183  15.041 -1.4214  0.0117 -3.1197
 7132SOL     OW33028   4.120   0.809   5.169 -0.2667  0.2335 -0.2526
 7132SOL    HW133029   4.159   0.765   5.094  3.1809 -0.8127  2.1131
 7132SOL    HW233030   4.073   0.883   5.130 -1.7389 -0.2288  0.6282
 7133SOL     OW33031   1.164   4.554   0.362  0.2250 -0.0076 -0.3059
 7133SOL    HW133032   1.190   4.510   0.281  0.1510  2.4918 -1.6899
 7133SOL    HW233033   1.077   4.522   0.386  0.0784  0.6552  0.0424
 7134SOL     OW33034   1.375   3.822   8.091  0.1065  0.0890 -0.1187
 7134SOL    HW133035   1.311   3.785   8.029  1.0727 -1.0092 -0.4657
 7134SOL    HW233036   1.320   3.865   8.157 -0.8949 -0.6371 -0.4655
 7135SOL     OW33037   3.829   0.529   7.676 -0.4756 -0.1797 -0.1125
 7135SOL    HW133038   3.765   0.563   7.613 -2.4794  0.1023  2.0826
 7135SOL    HW233039   3.904   0.533   7.616  0.9072 -4.6853  1.3113
 7136SOL     OW33040   0.902   3.661  15.182 -0.3753 -0.7882 -0.2451
 7136SOL    HW133041   0.877   3.569  15.196 -1.6245 -0.4233 -0.1293
 7136SOL    HW233042   0.997   3.650  15.169 -0.4012 -0.6396 -0.5638
 7137SOL     OW33043   4.593   2.997   2.498 -0.1211 -0.3170 -0.6404
 7137SOL    HW133044   4.587   2.969   2.407 -1.3708 -0.0460 -0.6384
 7137SOL    HW233045   4.510   3.041   2.515  0.2047  0.5720 -1.3944
 7138SOL     OW33046   2.272   2.689   8.017  0.1947  0.0826 -0.0958
 7138SOL    HW133047   2.268   2.735   8.101  0.3776 -0.3981  0.1763
 7138SOL    HW233048   2.335   2.620   8.037  2.7251  2.2088 -0.7706
 7139SOL     OW33049   1.250   3.558  16.699  0.4039 -0.2250  0.0288
 7139SOL    HW133050   1.198   3.549  16.619 -0.9240 -4.3523  1.3260
 7139SOL    HW233051   1.330   3.515  16.668  0.3812 -0.8741  0.8613
 7140SOL     OW33052   0.346   1.810   6.610 -0.2857 -0.9206 -0.2836
 7140SOL    HW133053   0.262   1.833   6.648 -0.2514  0.2374 -0.9022
 7140SOL    HW233054   0.337   1.836   6.519 -2.9234  0.2345  0.3243
 7141SOL     OW33055   2.712   2.175   3.263  0.2016 -0.7350 -0.3954
 7141SOL    HW133056   2.673   2.176   3.176  1.4928 -2.3746 -0.9863
 7141SOL    HW233057   2.691   2.267   3.279 -0.2078 -1.0691  1.0846
 7142SOL     OW33058   0.466   4.679   7.934  0.2887 -0.0539 -0.2305
 7142SOL    HW133059   0.450   4.599   7.884 -0.4974  0.2683 -0.4830
 7142SOL    HW233060   0.399   4.672   8.001 -0.6721 -0.9224 -1.2931
 7143SOL     OW33061   4.686   4.258  17.641  0.1758 -0.2901  0.2926
 7143SOL    HW133062   4.657   4.282  17.729  0.6695  0.2185  0.3110
 7143SOL    HW233063   4.671   4.342  17.597  0.0607 -0.1461  0.6136
 7144SOL     OW33064   3.352   3.054  10.054  0.3362  0.4092 -0.0198
 7144SOL    HW133065   3.265   3.030  10.024  0.3789 -0.6087  0.6830
 7144SOL    HW233066   3.340   3.047  10.149 -0.4637 -1.2510 -0.2446
 7145SOL     OW33067   4.286   4.034   5.361 -0.4384  0.7196 -0.1742
 7145SOL    HW133068   4.192   4.048   5.369 -0.3571  2.6996 -2.5023
 7145SOL    HW233069   4.284   3.953   5.311  1.1167  0.2615  0.5015
 7146SOL     OW33070   2.884   2.110   1.821 -0.2175  0.2150  0.4407
 7146SOL    HW133071   2.977   2.129   1.807 -0.3577 -0.1247 -0.9196
 7146SOL    HW233072   2.844   2.189   1.784  0.5674 -0.1954 -1.2821
 7147SOL     OW33073   2.760   2.524  14.789  0.1266  0.4230  0.3646
 7147SOL    HW133074   2.730   2.526  14.698 -2.1826  0.6140  1.1250
 7147SOL    HW233075   2.840   2.576  14.782  0.7203 -0.3007  1.8156
 7148SOL     OW33076   4.293   1.928  15.668  0.4620  0.0154  0.5654
 7148SOL    HW133077   4.200   1.934  15.649  0.8055 -1.8915 -1.7419
 7148SOL    HW233078   4.317   2.020  15.671 -0.3099  0.1433  2.8311
 7149SOL     OW33079   3.725   0.763   8.864 -0.4924 -0.2220 -0.8837
 7149SOL    HW133080   3.702   0.715   8.784 -1.0236  0.3446 -1.0690
 7149SOL    HW233081   3.657   0.743   8.929 -1.3770  1.3804 -1.3294
 7150SOL     OW33082   1.910   4.092  16.012 -0.3529  0.2444  0.4798
 7150SOL    HW133083   1.909   4.004  16.048  1.2316  0.8255  1.9048
 7150SOL    HW233084   1.827   4.130  16.042  0.0645  0.8905  0.8273
 7151SOL     OW33085   0.049   1.881  15.330 -0.0094 -0.0287  0.7212
 7151SOL    HW133086   0.109   1.821  15.286  0.5857  1.1781 -0.1042
 7151SOL    HW233087   0.013   1.936  15.261  2.3457 -0.3278 -0.7209
 7152SOL     OW33088   0.887   3.462   7.355 -0.2208  0.2885 -0.2385
 7152SOL    HW133089   0.948   3.536   7.353  0.3016 -0.1219  0.7556
 7152SOL    HW233090   0.818   3.507   7.305  1.1554  0.1279 -2.2965
 7153SOL     OW33091   3.193   1.313   6.243 -0.1664 -0.1735  0.1860
 7153SOL    HW133092   3.268   1.272   6.285 -0.3759 -2.2418 -1.4704
 7153SOL    HW233093   3.164   1.249   6.178  1.3107 -1.1287  0.4694
 7154SOL     OW33094   4.571   3.424   5.429 -0.1497 -0.1810  0.1959
 7154SOL    HW133095   4.551   3.503   5.379 -0.5088 -0.5817 -0.3074
 7154SOL    HW233096   4.658   3.410   5.392 -0.8247  0.0915 -1.5074
 7155SOL     OW33097   3.589   1.566   8.088 -0.4202 -0.0733  0.2440
 7155SOL    HW133098   3.542   1.516   8.021 -0.6391 -1.6555  1.5664
 7155SOL    HW233099   3.514   1.569   8.147 -0.7589  1.2646 -0.2685
 7156SOL     OW33100   1.915   0.601  17.676 -0.1160 -0.4338  0.2473
 7156SOL    HW133101   1.943   0.517  17.712  0.4147  0.5258  2.0949
 7156SOL    HW233102   1.821   0.596  17.696 -0.4836  1.8082 -0.9629
 7157SOL     OW33103   1.472   2.312   4.406 -0.5065 -0.2709  0.0792
 7157SOL    HW133104   1.442   2.383   4.463  2.2257  1.3885 -0.5461
 7157SOL    HW233105   1.395   2.256   4.416 -1.3166  1.0177  1.0523
 7158SOL     OW33106   0.300   3.636  15.146 -0.8179  0.6081  0.7325
 7158SOL    HW133107   0.384   3.665  15.182 -0.2717 -1.1278  0.8574
 7158SOL    HW233108   0.269   3.581  15.218  3.1732  0.3588  2.2674
 7159SOL     OW33109   1.641   1.925   5.456 -0.2073 -1.0551  0.0138
 7159SOL    HW133110   1.570   1.924   5.520  0.0308  1.2053  0.3214
 7159SOL    HW233111   1.612   1.874   5.381 -2.1147  3.1367 -2.0492
 7160SOL     OW33112   4.373   3.150   6.209  0.2107  0.1733 -0.0305
 7160SOL    HW133113   4.291   3.183   6.247  0.0980 -0.2743  0.1117
 7160SOL    HW233114   4.349   3.070   6.163 -0.7417  0.6216 -0.3173
 7161SOL     OW33115   2.008   3.960   9.115 -0.0395 -0.5758 -0.3559
 7161SOL    HW133116   2.025   4.046   9.153 -1.3906  0.5478 -2.3063
 7161SOL    HW233117   1.943   3.921   9.174  1.4409 -2.1207  0.2735
 7162SOL     OW33118   0.311   3.118   5.334 -0.2210 -0.3050 -0.2057
 7162SOL    HW133119   0.368   3.043   5.349 -0.2961 -0.4148 -0.4764
 7162SOL    HW233120   0.287   3.136   5.425 -0.1869 -0.6654 -0.1246
 7163SOL     OW33121   4.732   3.576   9.300 -0.1727  0.3444 -0.2466
 7163SOL    HW133122   4.640   3.596   9.321  0.0398  3.8539 -2.7454
 7163SOL    HW233123   4.738   3.605   9.209  0.9287 -0.6099 -0.4774
 7164SOL     OW33124   3.518   4.529   3.635  0.2600  0.1609  0.3899
 7164SOL    HW133125   3.443   4.492   3.681  1.3466 -3.8929 -1.1418
 7164SOL    HW233126   3.588   4.519   3.700  0.8477  0.2785 -0.2246
 7165SOL     OW33127   4.479   0.528   7.451 -0.4661 -0.3253 -0.4966
 7165SOL    HW133128   4.432   0.445   7.464 -1.2563  0.0744 -0.8102
 7165SOL    HW233129   4.451   0.577   7.528 -0.3753  0.4108 -0.9375
 7166SOL     OW33130   1.503   2.282   8.166 -0.3971 -0.0895 -0.3317
 7166SOL    HW133131   1.448   2.206   8.188 -0.0957  0.0388  0.8648
 7166SOL    HW233132   1.574   2.247   8.112  1.2399 -1.2388  2.5672
 7167SOL     OW33133   1.686   3.667   8.427  0.3728  0.0009 -0.1724
 7167SOL    HW133134   1.734   3.591   8.460 -1.9324 -0.4407  2.1475
 7167SOL    HW233135   1.733   3.735   8.477  0.9830 -0.2891 -0.3438
 7168SOL     OW33136   1.680   1.032   7.967 -0.2452  0.1032 -0.1291
 7168SOL    HW133137   1.716   1.096   7.906  0.2693  0.0123  0.0859
 7168SOL    HW233138   1.755   0.983   7.999 -1.3880 -0.2716  2.0027
 7169SOL     OW33139   1.922   1.459   8.542  0.3568  0.2772  0.1623
 7169SOL    HW133140   1.999   1.403   8.551 -1.8114 -2.2263  3.2082
 7169SOL    HW233141   1.911   1.480   8.635 -0.9564  0.6810 -0.0886
 7170SOL     OW33142   0.108   4.426   6.898 -0.1751 -0.1633  0.1095
 7170SOL    HW133143   0.113   4.397   6.989  4.3305  0.7430  0.1348
 7170SOL    HW233144   0.136   4.517   6.904 -0.3131 -0.2016  1.2622
 7171SOL     OW33145   2.122   3.005   9.324 -0.5320 -0.3079  0.3360
 7171SOL    HW133146   2.043   2.965   9.360 -0.9428  1.0860  0.9681
 7171SOL    HW233147   2.183   2.931   9.327 -0.9732 -0.6796  0.1673
 7172SOL     OW33148   1.869   1.415  14.271 -0.2477  0.3115  0.1043
 7172SOL    HW133149   1.957   1.402  14.237 -2.4106 -0.2089 -5.4048
 7172SOL    HW233150   1.884   1.487  14.331 -0.3602  0.3166  0.1277
 7173SOL     OW33151   1.259   0.459   5.476  0.3521  0.1771  0.3260
 7173SOL    HW133152   1.319   0.453   5.402 -0.6465  1.6484 -0.6068
 7173SOL    HW233153   1.251   0.554   5.483 -0.0412  0.2113 -0.5173
 7174SOL     OW33154   1.123   2.157  17.239 -0.0389 -0.3566  0.3322
 7174SOL    HW133155   1.156   2.234  17.286  1.6338 -1.4733  0.9898
 7174SOL    HW233156   1.124   2.195  17.151  3.6266 -1.3014 -0.0083
 7175SOL     OW33157   0.303   4.413   4.467  0.2446  0.1211  0.1924
 7175SOL    HW133158   0.333   4.339   4.415  0.6567  1.2083 -1.0886
 7175SOL    HW233159   0.296   4.478   4.398 -3.9452 -1.4371 -0.8614
 7176SOL     OW33160   1.846   2.916   3.205  0.3679 -0.0171 -0.4747
 7176SOL    HW133161   1.817   3.003   3.233 -3.0506 -0.6996 -1.8335
 7176SOL    HW233162   1.764   2.865   3.202  0.5879 -0.3966 -0.0460
 7177SOL     OW33163   3.014   0.425   4.452  0.2695 -0.1722  0.0433
 7177SOL    HW133164   2.954   0.390   4.386 -0.4285 -1.0240  1.1410
 7177SOL    HW233165   3.028   0.515   4.420 -1.1339  0.7818  2.0948
 7178SOL     OW33166   3.307   2.973  11.907  0.1811  0.1323 -0.3361
 7178SOL    HW133167   3.292   3.067  11.896  0.8997  0.2608 -0.2058
 7178SOL    HW233168   3.271   2.970  11.996 -1.3460 -1.5644 -1.0170
 7179SOL     OW33169   4.227   2.101   7.007 -0.4412  0.2136  0.5276
 7179SOL    HW133170   4.216   2.061   6.921  1.2209  0.6990  0.0841
 7179SOL    HW233171   4.304   2.058   7.044  0.6525  0.2877 -1.6544
 7180SOL     OW33172   3.075   1.137   2.435  0.5123  0.6667 -0.3655
 7180SOL    HW133173   3.002   1.198   2.443 -0.5492 -0.4076 -1.8095
 7180SOL    HW233174   3.083   1.109   2.527  2.6010 -1.0175 -1.0423
 7181SOL     OW33175   0.464   0.603   5.167  0.2866 -0.4896 -0.3144
 7181SOL    HW133176   0.393   0.657   5.132  2.0860  2.2979  0.3526
 7181SOL    HW233177   0.489   0.544   5.096  0.1585 -0.7832 -0.1120
 7182SOL     OW33178   4.276   4.722   7.678  0.5932  0.1054 -0.3044
 7182SOL    HW133179   4.194   0.018   7.642  0.2455 -0.8587 -0.4449
 7182SOL    HW233180   4.285   4.634   7.640 -0.7206  0.1114 -0.6552
 7183SOL     OW33181   0.039   4.665  16.815  0.5241 -0.4666  0.3901
 7183SOL    HW133182   0.090   4.727  16.762  1.4111 -0.6228  1.0567
 7183SOL    HW233183   0.014   4.588  16.763  1.2803  0.8771 -1.9448
 7184SOL     OW33184   0.075   3.664  10.763 -0.3454 -0.1562  0.0678
 7184SOL    HW133185   0.019   3.742  10.759  0.3584  0.3928  0.8548
 7184SOL    HW233186   0.060   3.629  10.675  2.0590 -1.6100  0.2599
 7185SOL     OW33187   2.976   4.657   9.276 -0.0887 -0.2583 -0.0842
 7185SOL    HW133188   2.908   4.631   9.339  0.9717 -1.9227  0.3849
 7185SOL    HW233189   3.002   4.738   9.320 -0.6157 -0.5326  0.7272
 7186SOL     OW33190   0.107   4.719   5.370  0.6212 -0.1155  0.4145
 7186SOL    HW133191   0.189   4.700   5.415  0.9386 -1.0705 -0.5772
 7186SOL    HW233192   0.046   4.684   5.435 -1.1103  1.8514 -0.1524
 7187SOL     OW33193   2.459   1.190   9.708  0.2816  0.1945 -0.1825
 7187SOL    HW133194   2.398   1.123   9.739  2.2868 -2.2628 -1.4546
 7187SOL    HW233195   2.409   1.225   9.634  0.1421 -0.1299 -0.2436
 7188SOL     OW33196   0.366   1.338  14.923  0.3839  0.6647 -0.7615
 7188SOL    HW133197   0.342   1.402  14.990 -1.7559 -0.4388 -0.4784
 7188SOL    HW233198   0.459   1.352  14.905  0.0756  2.5541 -0.8840
 7189SOL     OW33199   4.219   2.972   0.092  0.3912 -0.9078  0.4189
 7189SOL    HW133200   4.141   2.924   0.065 -0.6133 -0.4399  2.5362
 7189SOL    HW233201   4.279   2.907   0.129  2.1856  1.0168  0.8475
 7190SOL     OW33202   3.086   4.068   8.817  0.4534 -0.5602  0.2368
 7190SOL    HW133203   3.065   3.975   8.824 -0.9018 -0.5011 -2.8044
 7190SOL    HW233204   3.181   4.070   8.831  0.7830  2.9397 -2.3900
 7191SOL     OW33205   1.198   3.556   5.590 -0.3266 -0.0316  0.6242
 7191SOL    HW133206   1.277   3.559   5.644  0.8419 -0.1450 -1.0769
 7191SOL    HW233207   1.212   3.634   5.537 -0.4300  0.2662  1.0369
 7192SOL     OW33208   4.589   1.946   7.545  0.2230  0.0381  0.1944
 7192SOL    HW133209   4.526   1.976   7.479 -0.4089  0.7106  1.1022
 7192SOL    HW233210   4.604   2.031   7.586  2.4357  0.1845 -0.9422
 7193SOL     OW33211   1.460   2.230   9.099 -0.3765  0.9655  0.8835
 7193SOL    HW133212   1.420   2.317   9.102  1.0916  1.6744  0.3444
 7193SOL    HW233213   1.524   2.242   9.169  1.2229  2.4412 -0.8178
 7194SOL     OW33214   2.761   1.119   7.023  0.1465 -0.4880 -0.3810
 7194SOL    HW133215   2.816   1.111   6.945 -0.6244 -1.8242 -0.7675
 7194SOL    HW233216   2.807   1.063   7.085 -0.3648  0.0359  0.4700
 7195SOL     OW33217   1.612   0.572  17.702  0.0144 -0.2476  0.3983
 7195SOL    HW133218   1.583   0.483  17.720 -0.6025  0.4439  2.8408
 7195SOL    HW233219   1.546   0.603  17.641  2.0196  0.7525 -1.2587
 7196SOL     OW33220   2.767   4.241   5.914  0.6555 -0.6058  0.2447
 7196SOL    HW133221   2.799   4.178   5.850 -0.6367 -1.5554  0.5405
 7196SOL    HW233222   2.689   4.202   5.953  0.3692 -0.8879 -0.6199
 7197SOL     OW33223   2.219   2.979   8.082  0.0462 -0.3395  0.7238
 7197SOL    HW133224   2.190   2.992   7.992 -0.0361  0.0544  0.8087
 7197SOL    HW233225   2.148   3.009   8.139 -1.6157  1.4921 -2.2552
 7198SOL     OW33226   1.430   1.246   7.853  0.0897  0.3088 -0.6698
 7198SOL    HW133227   1.374   1.169   7.856 -1.1325  1.2820  1.7181
 7198SOL    HW233228   1.477   1.230   7.771 -1.6187 -3.2345 -0.9454
 7199SOL     OW33229   4.230   2.337   5.345  0.2588 -0.3648 -0.0497
 7199SOL    HW133230   4.211   2.373   5.431  2.1986  0.7433 -0.0936
 7199SOL    HW233231   4.143   2.303   5.323  0.6391 -1.2303 -0.2256
 7200SOL     OW33232   1.942   2.031   6.545 -0.4280 -0.7781  0.5709
 7200SOL    HW133233   1.934   2.054   6.452 -0.3462  0.4331  0.8647
 7200SOL    HW233234   1.903   2.106   6.590 -0.0816 -0.4654  0.3563
 7201SOL     OW33235   2.195   4.666   9.644  0.0310  0.1638 -0.5237
 7201SOL    HW133236   2.238   4.586   9.614 -2.8923 -2.1609  1.4262
 7201SOL    HW233237   2.108   4.631   9.664  0.3333 -0.3430 -0.1114
 7202SOL     OW33238   2.746   3.007   7.845 -0.3577  0.2837 -0.3739
 7202SOL    HW133239   2.706   2.960   7.918 -0.1872 -1.0444 -1.1491
 7202SOL    HW233240   2.767   3.091   7.886 -2.9471  1.1438 -0.8174
 7203SOL     OW33241   1.670   0.829   8.320 -0.2942  0.4156  0.0001
 7203SOL    HW133242   1.581   0.860   8.338 -0.7443 -0.0263 -1.5113
 7203SOL    HW233243   1.659   0.737   8.345 -1.0182 -0.1342 -2.3465
 7204SOL     OW33244   1.288   0.249  15.527  0.3642 -0.0206 -0.4963
 7204SOL    HW133245   1.252   0.296  15.603  0.8373  1.0918 -0.9588
 7204SOL    HW233246   1.372   0.223  15.566  1.0301  2.0094 -0.6017
 7205SOL     OW33247   0.707   2.670   6.487  0.4415  0.4411  0.5961
 7205SOL    HW133248   0.708   2.743   6.548  0.5916  0.0017  1.1172
 7205SOL    HW233249   0.778   2.620   6.527 -0.8374 -1.8235  0.0346
 7206SOL     OW33250   0.419   0.816   7.765  0.3773  0.8167  0.4555
 7206SOL    HW133251   0.393   0.820   7.857 -0.0212 -0.3686  0.3954
 7206SOL    HW233252   0.343   0.777   7.723  2.3764 -4.5819  1.7843
 7207SOL     OW33253   1.725   3.800   6.960 -0.5974  0.1572  0.1593
 7207SOL    HW133254   1.657   3.754   6.912 -2.3335  1.3805  1.4675
 7207SOL    HW233255   1.705   3.784   7.053  1.6921 -2.0111  0.2865
 7208SOL     OW33256   1.854   0.782   0.508  0.1272 -0.0200 -0.2192
 7208SOL    HW133257   1.794   0.736   0.567  1.0179 -0.8857  0.0181
 7208SOL    HW233258   1.816   0.785   0.420 -0.9449 -1.2797  0.2003
 7209SOL     OW33259   3.640   0.619   0.174 -0.4304 -0.8124  0.2171
 7209SOL    HW133260   3.720   0.643   0.221 -0.7378  0.7214 -0.0665
 7209SOL    HW233261   3.681   0.567   0.104  0.0887  1.0828 -0.8848
 7210SOL     OW33262   3.660   3.687   5.836 -0.1975  0.5524  0.0708
 7210SOL    HW133263   3.721   3.745   5.791  0.7957 -0.7004 -0.2073
 7210SOL    HW233264   3.708   3.672   5.918  0.4923 -1.2655 -0.6744
 7211SOL     OW33265   1.577   0.028  13.707  0.1360 -0.7840 -0.4255
 7211SOL    HW133266   1.639   4.714  13.656 -0.6475  1.1897 -3.3544
 7211SOL    HW233267   1.627   0.072  13.776 -2.7781  1.3707  0.2891
 7212SOL     OW33268   2.995   3.908   1.461  0.4112  0.0530  0.2563
 7212SOL    HW133269   2.924   3.928   1.522  0.4703 -0.6945  0.5726
 7212SOL    HW233270   3.068   3.912   1.524  0.5224 -0.0990  0.1378
 7213SOL     OW33271   0.005   0.932   1.899 -0.1397 -0.6679 -0.4393
 7213SOL    HW133272   4.654   0.921   1.866 -0.3269 -0.8280  0.1092
 7213SOL    HW233273   0.035   1.007   1.849 -2.2941  0.6600  0.2507
 7214SOL     OW33274   1.296   4.126   6.404  0.0763  0.8817 -0.3146
 7214SOL    HW133275   1.315   4.032   6.405  1.2057  1.1176  0.4917
 7214SOL    HW233276   1.221   4.127   6.463  0.2797 -0.8019 -0.0187
 7215SOL     OW33277   2.561   0.713   9.178  0.2265 -0.8806  0.3538
 7215SOL    HW133278   2.632   0.665   9.136 -0.2522 -2.6363  1.5690
 7215SOL    HW233279   2.603   0.734   9.261 -1.7193 -0.8032  1.2991
 7216SOL     OW33280   4.440   2.031   9.694 -0.2473 -0.4085 -0.3720
 7216SOL    HW133281   4.355   2.057   9.727  0.4293  1.0108  0.2421
 7216SOL    HW233282   4.470   2.100   9.635  2.2184 -0.0258  1.3053
 7217SOL     OW33283   3.214   3.233  11.919 -0.4702  0.0936 -0.1341
 7217SOL    HW133284   3.125   3.261  11.898 -0.4228  0.9235  0.7465
 7217SOL    HW233285   3.272   3.309  11.912 -0.8416  0.3984  0.1004
 7218SOL     OW33286   2.602   0.468  10.674  0.1647 -0.1086  0.5916
 7218SOL    HW133287   2.644   0.491  10.591  1.5849 -3.0304  0.5146
 7218SOL    HW233288   2.529   0.413  10.646 -0.9877  0.9509  1.4640
 7219SOL     OW33289   3.750   3.269  13.794 -0.0442 -0.1300  0.0430
 7219SOL    HW133290   3.783   3.196  13.741  0.5973  1.1597 -1.2974
 7219SOL    HW233291   3.807   3.338  13.763 -0.7250  0.4063 -0.0154
 7220SOL     OW33292   0.308   4.121   9.674  0.3864  0.6167 -0.0747
 7220SOL    HW133293   0.245   4.169   9.727 -0.7765  1.7467 -2.4575
 7220SOL    HW233294   0.385   4.174   9.693  1.3313 -0.1750 -1.7102
 7221SOL     OW33295   3.611   3.865   2.741 -0.2543 -0.4621  0.4269
 7221SOL    HW133296   3.701   3.889   2.765 -0.2054 -0.2289  0.0109
 7221SOL    HW233297   3.608   3.901   2.652 -0.5373 -0.0746  0.5907
 7222SOL     OW33298   3.766   2.999   3.159 -0.2268 -0.0874 -0.1347
 7222SOL    HW133299   3.729   3.036   3.239 -0.1639  0.1853 -0.2324
 7222SOL    HW233300   3.694   2.943   3.130 -1.1600  1.6479 -1.1048
 7223SOL     OW33301   4.381   4.457  16.724 -0.4879  0.3730  0.3784
 7223SOL    HW133302   4.385   4.517  16.649 -0.3385 -0.4997 -0.3127
 7223SOL    HW233303   4.467   4.416  16.713  0.3335  1.8287  1.3667
 7224SOL     OW33304   1.100   4.489  11.338  0.6661  0.2660 -0.4178
 7224SOL    HW133305   1.145   4.473  11.255  1.8023 -0.1754  0.2834
 7224SOL    HW233306   1.114   4.584  11.330  0.8881  0.1123 -2.0026
 7225SOL     OW33307   3.023   4.417  16.734  0.0464 -0.1476 -0.1738
 7225SOL    HW133308   2.933   4.435  16.761 -0.3781 -3.7537  0.8331
 7225SOL    HW233309   3.024   4.472  16.656  0.7028  2.1099  1.4593
 7226SOL     OW33310   4.639   1.260   6.817 -0.8160 -0.7490  0.1043
 7226SOL    HW133311   4.573   1.278   6.884 -0.4288 -1.2488  0.6202
 7226SOL    HW233312   4.574   1.264   6.747  1.9592 -0.7169 -2.4367
 7227SOL     OW33313   3.058   4.576  15.838 -0.2217  0.1329 -0.2408
 7227SOL    HW133314   3.102   4.652  15.878 -1.3704 -0.4909  2.2295
 7227SOL    HW233315   3.129   4.550  15.780 -0.6740 -0.3500 -0.5747
 7228SOL     OW33316   3.033   3.891   9.182  0.0845 -0.2302 -0.0472
 7228SOL    HW133317   2.964   3.824   9.179 -1.6141  1.4893  0.6119
 7228SOL    HW233318   3.023   3.945   9.104 -1.3628  0.5279  0.6568
 7229SOL     OW33319   1.784   1.591   0.441 -0.1606 -0.5005 -0.1797
 7229SOL    HW133320   1.823   1.524   0.497 -1.0295 -0.6461  0.2485
 7229SOL    HW233321   1.726   1.640   0.500 -0.5810 -0.8467 -0.3053
 7230SOL     OW33322   0.815   0.661  16.657  0.2946  0.5619  0.3495
 7230SOL    HW133323   0.761   0.606  16.713 -1.2225 -0.8511 -2.4624
 7230SOL    HW233324   0.879   0.595  16.628 -1.7127 -1.6324  0.9964
 7231SOL     OW33325   2.390   2.032   1.147 -0.2083 -0.0488 -0.4553
 7231SOL    HW133326   2.434   1.956   1.184 -0.9276 -0.0651  0.3798
 7231SOL    HW233327   2.401   2.099   1.214 -2.7025  3.0288 -3.1247
 7232SOL     OW33328   0.999   0.286   7.592 -0.0225  0.2631 -0.2139
 7232SOL    HW133329   1.047   0.369   7.595 -0.3934  0.4854 -0.4671
 7232SOL    HW233330   1.036   0.257   7.508  0.0013  1.6663 -0.6847
 7233SOL     OW33331   2.269   0.953  16.833 -0.1438  0.1917 -0.1828
 7233SOL    HW133332   2.237   0.863  16.819  1.2296 -0.2172 -0.6631
 7233SOL    HW233333   2.281   0.932  16.925  1.6191  0.7670 -0.2955
 7234SOL     OW33334   3.980   1.761   4.464 -0.6098  0.0306 -0.8579
 7234SOL    HW133335   4.020   1.674   4.468 -0.4266 -0.0159 -3.7327
 7234SOL    HW233336   3.903   1.742   4.518 -1.0406  0.4603 -1.3156
 7235SOL     OW33337   4.262   2.595   2.050 -0.3035  0.0127 -0.3297
 7235SOL    HW133338   4.236   2.549   1.970 -2.0509  0.6387 -0.1248
 7235SOL    HW233339   4.223   2.540   2.118 -0.6668  0.6650 -0.0045
 7236SOL     OW33340   3.765   4.498   3.362  0.4024  0.1216 -0.5032
 7236SOL    HW133341   3.678   4.468   3.336 -0.0090 -0.5735  1.6574
 7236SOL    HW233342   3.745   4.568   3.424  3.0751 -0.4433  0.9760
 7237SOL     OW33343   0.396   3.272  12.456  0.3155  0.0797 -0.5579
 7237SOL    HW133344   0.475   3.226  12.486  1.4769  1.8442 -0.9236
 7237SOL    HW233345   0.344   3.281  12.535 -0.4087 -3.6208 -0.6069
 7238SOL     OW33346   3.124   3.622   2.275  0.3182 -0.2676  0.0215
 7238SOL    HW133347   3.173   3.591   2.199 -0.5776 -0.6375 -0.4066
 7238SOL    HW233348   3.130   3.551   2.339 -1.4905 -1.7774 -1.4920
 7239SOL     OW33349   0.324   1.967   2.755 -0.0621  0.1388  0.2356
 7239SOL    HW133350   0.315   1.928   2.842  1.3031  1.6156  1.0517
 7239SOL    HW233351   0.359   1.890   2.710 -1.4051 -1.0734  1.2768
 7240SOL     OW33352   2.682   1.118  13.944 -0.3044  0.0614 -0.2551
 7240SOL    HW133353   2.657   1.040  13.994 -0.8505  1.8875  2.3109
 7240SOL    HW233354   2.639   1.104  13.860  1.7678 -1.5084 -1.0786
 7241SOL     OW33355   4.302   1.025   8.254 -0.9248  0.4438  0.2085
 7241SOL    HW133356   4.327   0.939   8.222 -0.0021  0.4065  1.0258
 7241SOL    HW233357   4.212   1.012   8.226 -0.0747 -1.3162 -1.6929
 7242SOL     OW33358   0.517   4.102   6.385  0.1282  0.0797  0.0084
 7242SOL    HW133359   0.580   4.062   6.445 -2.0979 -1.2760  1.4364
 7242SOL    HW233360   0.567   4.101   6.303  0.2231  2.5264  0.0131
 7243SOL     OW33361   2.825   3.733   2.976 -0.2931  0.4863 -0.0717
 7243SOL    HW133362   2.749   3.749   3.031 -1.0127  1.7980 -1.4395
 7243SOL    HW233363   2.796   3.654   2.930  1.7880  0.5719 -1.5367
 7244SOL     OW33364   1.796   4.306  12.176  0.1823 -0.1528  0.2210
 7244SOL    HW133365   1.783   4.312  12.081 -0.5568 -0.6542  0.2876
 7244SOL    HW233366   1.726   4.243  12.189 -0.7078  0.7040 -0.4188
 7245SOL     OW33367   1.544   1.966  14.051 -0.0523 -0.3884 -0.1593
 7245SOL    HW133368   1.557   1.961  14.145  1.3936  0.9971 -0.2897
 7245SOL    HW233369   1.489   2.042  14.031  3.2951  1.3666 -2.6897
 7246SOL     OW33370   3.416   0.772   0.114  0.3800 -0.3367  0.1884
 7246SOL    HW133371   3.388   0.819   0.192 -1.4228 -2.5915  0.8960
 7246SOL    HW233372   3.480   0.711   0.150  1.6387 -0.0745 -1.6117
 7247SOL     OW33373   0.984   4.693  12.939 -0.5365  0.4128 -0.0952
 7247SOL    HW133374   0.940   4.721  13.020 -0.2583 -0.1183  0.2425
 7247SOL    HW233375   1.065   0.005  12.942 -2.1573  3.0147 -0.0519
 7248SOL     OW33376   1.768   1.116   8.739 -0.7828 -0.0303 -0.3174
 7248SOL    HW133377   1.704   1.082   8.677 -1.1329  0.1925 -0.0771
 7248SOL    HW233378   1.729   1.202   8.754 -0.7146 -0.0660  0.0593
 7249SOL     OW33379   3.982   1.847  11.363 -0.3723  0.2024 -0.1658
 7249SOL    HW133380   4.046   1.888  11.421 -1.0788 -1.0691  1.5163
 7249SOL    HW233381   3.982   1.916  11.297  0.2750 -0.7266 -1.1500
 7250SOL     OW33382   0.235   0.431   2.802 -0.6665  0.0899 -0.3743
 7250SOL    HW133383   0.236   0.352   2.747  0.1150 -0.4001  0.3460
 7250SOL    HW233384   0.146   0.457   2.777 -1.1130 -2.3518 -1.3703
 7251SOL     OW33385   1.002   1.661   2.630  0.6253  0.4166  0.2021
 7251SOL    HW133386   1.043   1.743   2.603  2.8524 -1.3079 -1.6973
 7251SOL    HW233387   0.928   1.656   2.571  1.1196  2.9878 -0.6349
 7252SOL     OW33388   1.734   0.943   9.553  0.2109 -0.1120 -0.5315
 7252SOL    HW133389   1.697   0.949   9.641  1.8456 -1.4663  0.2476
 7252SOL    HW233390   1.654   0.933   9.502 -0.1003 -0.3175 -0.0095
 7253SOL     OW33391   0.521   3.163   9.541  0.4391  0.1473 -0.1076
 7253SOL    HW133392   0.604   3.172   9.587  0.9257 -2.9232 -0.3433
 7253SOL    HW233393   0.556   3.130   9.458  0.6727  0.0027  0.0484
 7254SOL     OW33394   3.349   1.880  15.826 -0.5607 -0.6306 -0.6680
 7254SOL    HW133395   3.340   1.868  15.921 -0.7016 -1.6647 -0.8181
 7254SOL    HW233396   3.405   1.958  15.827 -1.0017 -0.3245  0.3021
 7255SOL     OW33397   1.237   0.920  13.401  0.0230 -0.2195  0.6046
 7255SOL    HW133398   1.270   0.988  13.458 -1.7678  0.8438  0.3903
 7255SOL    HW233399   1.300   0.851  13.422 -0.1102 -0.7910 -0.8292
 7256SOL     OW33400   2.293   1.852  12.446  0.0538  0.3540  0.4895
 7256SOL    HW133401   2.345   1.837  12.525 -1.1135  1.2657  1.4275
 7256SOL    HW233402   2.250   1.934  12.469  1.8752  1.4041  0.0548
 7257SOL     OW33403   1.131   3.624   7.431  0.8023 -0.5477 -0.1518
 7257SOL    HW133404   1.180   3.679   7.371  1.4576 -0.9024  0.0563
 7257SOL    HW233405   1.177   3.543   7.410  1.8626 -0.3270  1.3278
 7258SOL     OW33406   2.784   3.489   2.596  0.1767  0.4713 -0.2636
 7258SOL    HW133407   2.761   3.431   2.523 -2.7428  2.2045 -0.7624
 7258SOL    HW233408   2.807   3.423   2.660 -2.7636 -0.0278  0.3102
 7259SOL     OW33409   0.901   4.732   2.025  0.2647 -0.0683  0.7521
 7259SOL    HW133410   0.896   4.670   1.953 -1.5282 -0.3370  1.0972
 7259SOL    HW233411   0.864   0.077   1.995 -0.5142  0.1425  2.2603
 7260SOL     OW33412   3.575   3.076  17.607  0.2320  0.0401  0.4680
 7260SOL    HW133413   3.485   3.074  17.575  0.4560 -0.7195 -0.1344
 7260SOL    HW233414   3.627   3.040  17.535  1.0600 -0.7644  1.4658
 7261SOL     OW33415   2.544   4.610   0.058 -0.3127  0.1223  0.0163
 7261SOL    HW133416   2.608   4.677   0.085  0.9854  0.0642 -2.8752
 7261SOL    HW233417   2.610   4.556   0.015  1.1603  0.8327  1.3646
 7262SOL     OW33418   2.630   0.525   2.820 -0.0619  0.0305 -0.5742
 7262SOL    HW133419   2.561   0.505   2.883 -1.1306 -2.0254 -2.3900
 7262SOL    HW233420   2.637   0.452   2.759 -0.8582 -0.1484 -0.4456
 7263SOL     OW33421   2.564   2.946   0.425  0.3563  0.6010  0.0216
 7263SOL    HW133422   2.660   2.943   0.424  0.3973  1.8307 -0.5014
 7263SOL    HW233423   2.544   2.853   0.421  3.7076 -0.1108 -0.7030
 7264SOL     OW33424   2.949   2.388   9.830  0.1948 -0.3125  0.7025
 7264SOL    HW133425   2.954   2.293   9.838 -1.5186 -0.3815  0.9347
 7264SOL    HW233426   2.931   2.388   9.736 -0.5942 -0.1884  0.8493
 7265SOL     OW33427   0.765   3.655   0.822  0.6216 -0.4680  0.0816
 7265SOL    HW133428   0.796   3.714   0.892  1.1593  1.3316 -1.6807
 7265SOL    HW233429   0.748   3.572   0.866  3.4917 -0.7361  0.7160
 7266SOL     OW33430   1.230   0.500   3.966  0.3672 -0.1355 -0.2240
 7266SOL    HW133431   1.176   0.461   3.897  0.4739 -2.0208  0.7687
 7266SOL    HW233432   1.267   0.574   3.918 -2.4197 -0.8205 -3.4013
 7267SOL     OW33433   2.969   4.407   7.939  0.3912 -0.2334  0.3817
 7267SOL    HW133434   2.974   4.330   7.882 -2.2886 -0.0358 -0.1041
 7267SOL    HW233435   2.913   4.468   7.892  0.5364  0.5165  1.1834
 7268SOL     OW33436   1.258   2.932   0.862  0.6868  0.2987 -0.0272
 7268SOL    HW133437   1.296   2.976   0.786 -1.5185 -0.6111 -1.6630
 7268SOL    HW233438   1.275   3.002   0.926  2.2500  0.2238 -0.3676
 7269SOL     OW33439   4.034   3.815   2.028 -0.1710  0.0377 -0.0181
 7269SOL    HW133440   4.056   3.773   1.944  1.0661  3.6278 -1.4911
 7269SOL    HW233441   4.079   3.762   2.093  0.8152  2.3762  1.2026
 7270SOL     OW33442   2.928   1.061   4.611  0.4250 -0.0676 -0.9118
 7270SOL    HW133443   2.941   1.146   4.653 -0.0513 -0.0089 -0.8855
 7270SOL    HW233444   2.909   1.090   4.521 -1.3055  2.2208  0.2018
 7271SOL     OW33445   2.089   4.389   1.790 -0.1981  0.1776 -0.0793
 7271SOL    HW133446   2.173   4.342   1.793  0.2661  0.9307 -1.2068
 7271SOL    HW233447   2.019   4.326   1.807 -0.8193  0.9357  0.1622
 7272SOL     OW33448   2.445   0.856   8.160  0.6416  0.2697 -0.1659
 7272SOL    HW133449   2.446   0.948   8.184 -2.7056  0.4572 -0.8268
 7272SOL    HW233450   2.516   0.826   8.218 -0.5989  0.2184  1.3216
 7273SOL     OW33451   4.730   2.916   1.112 -0.2103 -0.2156 -0.3754
 7273SOL    HW133452   0.056   2.854   1.078  0.6219 -0.0556  0.9346
 7273SOL    HW233453   0.018   2.906   1.204 -2.6051 -0.0177  0.3361
 7274SOL     OW33454   3.168   2.742  15.046 -0.1080 -0.2652 -0.1247
 7274SOL    HW133455   3.116   2.665  15.067 -2.3785  1.5346  0.7739
 7274SOL    HW233456   3.136   2.805  15.110  0.3015  3.5805 -3.6817
 7275SOL     OW33457   2.019   3.824  14.817  0.0619 -0.7348 -0.1236
 7275SOL    HW133458   2.070   3.885  14.764 -0.5504  1.2213  1.5340
 7275SOL    HW233459   2.088   3.759  14.831  2.7281  1.7982 -1.3688
 7276SOL     OW33460   4.703   1.146   3.257 -0.0367  0.0126 -0.2765
 7276SOL    HW133461   4.652   1.088   3.201  1.7907 -0.4511 -1.4516
 7276SOL    HW233462   0.015   1.193   3.191  0.4538  0.4890  0.4401
 7277SOL     OW33463   0.509   0.349  11.579  0.0277  0.6287  0.2594
 7277SOL    HW133464   0.583   0.352  11.639  0.0331 -1.4664  0.3761
 7277SOL    HW233465   0.551   0.361  11.493 -0.6320  1.4689  0.0531
 7278SOL     OW33466   0.054   2.367   5.147 -0.5138  0.0707 -0.7306
 7278SOL    HW133467   0.023   2.422   5.075 -1.1953  1.0115  0.2781
 7278SOL    HW233468   0.132   2.415   5.176 -1.0013 -0.0293  0.7409
 7279SOL     OW33469   4.195   4.639   4.920 -0.4397  0.3299 -0.5326
 7279SOL    HW133470   4.269   4.685   4.881  0.5608 -1.2001 -0.4514
 7279SOL    HW233471   4.236   4.558   4.953  1.2608  1.1404 -0.6535
 7280SOL     OW33472   4.027   3.536   8.551 -0.4899  0.1049 -0.4456
 7280SOL    HW133473   3.942   3.510   8.585 -0.8325  1.6912 -0.1156
 7280SOL    HW233474   4.080   3.514   8.628  0.0128  0.4569 -0.6885
 7281SOL     OW33475   3.223   2.812   4.272 -0.1069 -0.1808 -0.3758
 7281SOL    HW133476   3.166   2.883   4.302  0.6755 -0.1288  0.9885
 7281SOL    HW233477   3.309   2.854   4.268  0.6385 -1.5681  1.4740
 7282SOL     OW33478   1.989   2.540  15.697 -0.6264 -0.0318 -0.0667
 7282SOL    HW133479   1.929   2.477  15.738 -0.1510 -0.9970 -0.8505
 7282SOL    HW233480   1.970   2.524  15.605 -0.7872  1.3307 -0.2663
 7283SOL     OW33481   3.979   4.336   3.432  0.3366 -0.3410  0.2240
 7283SOL    HW133482   3.905   4.390   3.404  1.6385  1.4223  0.2157
 7283SOL    HW233483   3.925   4.259   3.451  0.8284 -1.0700 -1.3168
 7284SOL     OW33484   2.317   3.851  12.636  0.0383 -0.2516  0.1176
 7284SOL    HW133485   2.282   3.849  12.546 -1.4277 -0.6483  0.6915
 7284SOL    HW233486   2.388   3.914  12.623 -0.3687  0.2121  0.1227
 7285SOL     OW33487   0.910   1.753   7.278 -0.2561  0.1405  0.3642
 7285SOL    HW133488   0.832   1.709   7.245 -0.6000  1.0501 -0.0294
 7285SOL    HW233489   0.979   1.689   7.263  1.0845  2.1575 -2.2868
 7286SOL     OW33490   3.792   4.569   7.820  0.0066 -0.4892  0.0926
 7286SOL    HW133491   3.712   4.567   7.873 -2.5387 -0.5194 -3.7697
 7286SOL    HW233492   3.838   4.509   7.878  0.3315 -0.3259  0.0010
 7287SOL     OW33493   0.525   0.453   1.074 -0.3708  0.4023 -0.4225
 7287SOL    HW133494   0.524   0.548   1.062  2.3092  0.5555  0.6597
 7287SOL    HW233495   0.576   0.445   1.154  0.2132  0.1803 -0.8234
 7288SOL     OW33496   1.911   3.113   2.076 -0.0923  0.2969 -0.1760
 7288SOL    HW133497   1.841   3.049   2.061 -0.2137  0.5986 -0.8886
 7288SOL    HW233498   1.936   3.086   2.164  0.8641 -0.3809 -0.6543
 7289SOL     OW33499   3.129   0.411   8.501 -0.4942 -0.3121  0.0973
 7289SOL    HW133500   3.207   0.446   8.543  2.0252 -1.7681 -3.3572
 7289SOL    HW233501   3.072   0.487   8.512  0.4658 -0.0969  3.4256
 7290SOL     OW33502   2.545   3.354  10.837 -0.1418 -0.7848 -0.5329
 7290SOL    HW133503   2.574   3.337  10.747  0.4691  0.8257 -0.6432
 7290SOL    HW233504   2.450   3.346  10.833 -0.0192 -0.9714 -3.0696
 7291SOL     OW33505   0.214   3.696   3.234  0.0912  0.6484 -0.3078
 7291SOL    HW133506   0.164   3.692   3.152 -0.3466  0.8370 -0.0527
 7291SOL    HW233507   0.299   3.668   3.200  0.1915  2.4287 -1.5450
 7292SOL     OW33508   4.674   3.529   2.694  0.6015  0.1910  0.7906
 7292SOL    HW133509   0.016   3.527   2.746  0.4183  0.1045  1.0671
 7292SOL    HW233510   4.615   3.539   2.769  0.6584 -1.5954  1.0676
 7293SOL     OW33511   0.623   2.743   2.968  0.5077 -0.1637  0.0258
 7293SOL    HW133512   0.530   2.719   2.974 -0.0291  1.7932 -0.7239
 7293SOL    HW233513   0.666   2.657   2.973  0.9629 -0.0255 -1.4076
 7294SOL     OW33514   1.557   2.203   5.680  0.1339  0.3157  0.6516
 7294SOL    HW133515   1.604   2.230   5.760  0.7172  1.8048 -0.1942
 7294SOL    HW233516   1.534   2.111   5.688 -0.0858  0.3110 -0.0385
 7295SOL     OW33517   2.062   2.719  11.853 -0.9359  0.1155 -0.0822
 7295SOL    HW133518   1.969   2.736  11.863 -0.9847 -0.8744  1.1081
 7295SOL    HW233519   2.094   2.809  11.844  2.2154 -1.0799 -0.7409
 7296SOL     OW33520   4.192   3.204   4.517  0.4399  0.3625 -0.3599
 7296SOL    HW133521   4.132   3.278   4.506 -0.0753 -0.0452 -0.3166
 7296SOL    HW233522   4.276   3.236   4.486  0.1565  0.6000 -0.8738
 7297SOL     OW33523   3.530   2.297   3.098  0.6424  0.4473  0.3272
 7297SOL    HW133524   3.434   2.301   3.095  0.7767  1.6545 -3.0702
 7297SOL    HW233525   3.553   2.262   3.012  1.3492  2.6953 -0.4173
 7298SOL     OW33526   3.917   4.293   1.500  0.3846 -0.2398 -0.1594
 7298SOL    HW133527   3.927   4.326   1.411  0.2507  1.7943  0.5859
 7298SOL    HW233528   3.903   4.374   1.548  0.4239  0.1854 -0.8792
 7299SOL     OW33529   4.228   1.582   2.493  0.0324 -0.2730 -0.5079
 7299SOL    HW133530   4.179   1.611   2.570  1.8127  1.3406  0.0146
 7299SOL    HW233531   4.194   1.492   2.487 -0.5354  0.0893 -2.6599
 7300SOL     OW33532   2.731   0.411   2.401 -0.2436 -0.0393 -0.1924
 7300SOL    HW133533   2.731   0.507   2.402 -2.0922 -0.0743  1.8754
 7300SOL    HW233534   2.818   0.384   2.372 -1.0704 -2.1837 -0.6257
 7301SOL     OW33535   1.610   1.769   1.855  0.2214 -0.0939  0.1213
 7301SOL    HW133536   1.702   1.771   1.829  0.1163  0.2210 -0.2419
 7301SOL    HW233537   1.614   1.731   1.942 -0.7196 -2.1664 -0.7334
 7302SOL     OW33538   0.812   1.304   7.741 -0.1412  0.1710 -0.1126
 7302SOL    HW133539   0.751   1.295   7.814  0.9240 -1.4220  0.5888
 7302SOL    HW233540   0.771   1.359   7.674  1.5752  3.1818  1.3314
 7303SOL     OW33541   2.269   1.044   6.889 -0.2115 -0.4616 -0.1375
 7303SOL    HW133542   2.220   0.972   6.850  0.0614 -0.3355 -0.7178
 7303SOL    HW233543   2.218   1.060   6.969  0.4653  1.5376 -0.0959
 7304SOL     OW33544   1.456   3.087  12.809  0.5594 -0.2821 -0.1707
 7304SOL    HW133545   1.455   3.005  12.759  1.0242  0.5473 -1.5680
 7304SOL    HW233546   1.368   3.088  12.846  0.3118 -0.2021 -0.7563
 7305SOL     OW33547   4.539   3.736   4.482  0.1413 -0.2317 -0.3549
 7305SOL    HW133548   4.493   3.812   4.516 -0.5041 -0.6452 -0.3068
 7305SOL    HW233549   4.516   3.753   4.391 -0.9244 -0.8527 -0.1975
 7306SOL     OW33550   1.343   0.997   9.709 -0.4156  0.2901 -0.3505
 7306SOL    HW133551   1.402   1.029   9.777  0.6385 -0.9626 -0.6540
 7306SOL    HW233552   1.274   0.960   9.764  0.3747 -1.3698 -0.4542
 7307SOL     OW33553   4.283   4.317  15.273  0.3013 -0.0390 -0.5900
 7307SOL    HW133554   4.237   4.233  15.280 -1.2755  0.8431 -0.3425
 7307SOL    HW233555   4.276   4.347  15.364  1.7919 -3.1144  0.5616
 7308SOL     OW33556   3.763   2.656   0.817 -0.6104 -0.3962  0.0029
 7308SOL    HW133557   3.745   2.704   0.737 -0.9411 -0.9109 -0.2341
 7308SOL    HW233558   3.781   2.729   0.877 -0.1096 -0.5907  0.0877
 7309SOL     OW33559   0.746   1.036   7.994 -0.4494  0.3846 -0.6145
 7309SOL    HW133560   0.699   1.095   7.935 -1.4792  1.4620  1.2966
 7309SOL    HW233561   0.837   1.043   7.964 -0.5278  0.1915 -0.9036
 7310SOL     OW33562   0.077   3.417   9.510  0.0006 -0.3108 -0.0190
 7310SOL    HW133563   4.735   3.373   9.539  0.3281 -0.6531  0.3701
 7310SOL    HW233564   0.033   3.480   9.452  0.9296 -0.3453 -0.7591
 7311SOL     OW33565   2.658   1.091   2.958  0.3532 -0.0982  0.2001
 7311SOL    HW133566   2.715   1.168   2.951  0.3887 -0.1061  0.4044
 7311SOL    HW233567   2.672   1.070   3.050 -1.9954 -1.9312  0.1557
 7312SOL     OW33568   4.686   2.689   8.523  0.0709  0.7942  0.0571
 7312SOL    HW133569   4.708   2.597   8.539  0.6095  1.2496  1.9575
 7312SOL    HW233570   0.024   2.725   8.478  1.4131 -1.4067  0.5613
 7313SOL     OW33571   4.508   1.250  10.019 -0.2683 -0.2965 -0.2311
 7313SOL    HW133572   4.420   1.274  10.050  0.5443 -1.8173  3.3466
 7313SOL    HW233573   4.534   1.201  10.097 -2.0820  0.0312  0.5776
 7314SOL     OW33574   2.468   1.867   9.155  0.2976  0.1168 -0.0638
 7314SOL    HW133575   2.541   1.904   9.204 -0.1551  2.2120 -0.9682
 7314SOL    HW233576   2.409   1.844   9.227  0.6093 -1.3025 -0.2613
 7315SOL     OW33577   2.120   4.084   7.158  0.0487  0.1562 -0.2970
 7315SOL    HW133578   2.050   4.138   7.123 -0.4301  0.0056  0.4285
 7315SOL    HW233579   2.154   4.143   7.225 -1.0035 -0.0772  0.4391
 7316SOL     OW33580   2.980   2.621  13.324 -0.1335  0.4066  0.4614
 7316SOL    HW133581   2.911   2.580  13.273  0.9725 -3.5668  2.0973
 7316SOL    HW233582   2.927   2.683  13.373  0.0837  1.1006 -0.1847
 7317SOL     OW33583   0.329   0.545   5.962  0.4719 -0.0154  0.1944
 7317SOL    HW133584   0.375   0.616   5.919  0.3409  1.2693  2.1530
 7317SOL    HW233585   0.359   0.562   6.052  0.4215  0.6475  0.0825
 7318SOL     OW33586   4.150   3.798   7.011  0.3198 -0.0616  0.0407
 7318SOL    HW133587   4.125   3.706   7.009  1.7049 -0.4221 -0.3264
 7318SOL    HW233588   4.081   3.831   7.068  0.3814  1.3586 -0.7056
 7319SOL     OW33589   0.943   4.202   2.107  0.2719  0.4657 -0.4538
 7319SOL    HW133590   0.986   4.271   2.157 -0.0741  0.0256  0.4545
 7319SOL    HW233591   1.018   4.146   2.084 -1.4687 -1.9600 -0.1762
 7320SOL     OW33592   0.720   3.574   3.191  0.1488  0.2014 -0.4219
 7320SOL    HW133593   0.699   3.489   3.153  0.3041  0.4125 -0.9869
 7320SOL    HW233594   0.782   3.536   3.254  0.2307  1.7558  0.4466
 7321SOL     OW33595   3.522   2.700   6.778 -0.6258 -0.1226 -0.5889
 7321SOL    HW133596   3.606   2.674   6.740 -1.0696 -0.7297 -1.1786
 7321SOL    HW233597   3.520   2.789   6.743 -0.2596  0.0276 -0.2245
 7322SOL     OW33598   3.292   1.019   2.166 -0.1374 -0.1143 -0.4448
 7322SOL    HW133599   3.257   0.998   2.079  1.3014  3.1463 -1.8281
 7322SOL    HW233600   3.263   1.109   2.180  1.3997  0.6267 -1.9792
 7323SOL     OW33601   3.766   4.248   2.680 -0.1735 -0.2339 -0.2206
 7323SOL    HW133602   3.840   4.221   2.735 -0.6973 -2.1708 -0.4733
 7323SOL    HW233603   3.746   4.329   2.727  1.6363  1.3730 -2.1816
 7324SOL     OW33604   0.325   2.315  12.449  0.5345  0.2795 -0.0058
 7324SOL    HW133605   0.376   2.396  12.454  1.9720 -0.7733  2.0709
 7324SOL    HW233606   0.312   2.298  12.542  1.1774 -0.0862  0.0206
 7325SOL     OW33607   3.850   3.148   0.910  0.0040  0.3777  0.1899
 7325SOL    HW133608   3.781   3.159   0.976  1.0318 -1.5232  1.5987
 7325SOL    HW233609   3.818   3.204   0.839  1.2750  1.2185  0.2876
 7326SOL     OW33610   3.260   3.542   3.845  0.2289 -0.7617 -0.7343
 7326SOL    HW133611   3.270   3.517   3.937  1.8492 -1.1824 -1.0323
 7326SOL    HW233612   3.354   3.554   3.829  0.2475 -0.4455 -0.4043
 7327SOL     OW33613   0.054   2.700   4.426  0.3504 -0.1615 -0.5784
 7327SOL    HW133614   0.076   2.690   4.519  0.1128  0.0510 -0.4999
 7327SOL    HW233615   0.104   2.624   4.396  1.5457 -0.1285  1.3160
 7328SOL     OW33616   3.214   3.599  15.393 -1.0045 -0.0384 -0.0755
 7328SOL    HW133617   3.302   3.588  15.429 -0.4027 -0.6692 -1.7172
 7328SOL    HW233618   3.214   3.683  15.348  1.2790 -0.0175 -0.0633
 7329SOL     OW33619   0.485   3.511  13.735  0.0617 -0.2363 -0.0755
 7329SOL    HW133620   0.558   3.455  13.762  0.7010 -0.3496 -2.0312
 7329SOL    HW233621   0.498   3.517  13.640  1.5422 -1.2315  0.0721
 7330SOL     OW33622   4.291   4.211  11.904 -0.1641  0.1926 -0.1575
 7330SOL    HW133623   4.353   4.248  11.842  2.1186 -2.5151  0.5337
 7330SOL    HW233624   4.271   4.127  11.862  1.0197 -0.2856  0.2400
 7331SOL     OW33625   0.468   1.839   3.385 -0.2407  0.0258  0.2965
 7331SOL    HW133626   0.381   1.876   3.371 -0.1847  0.4050  0.9484
 7331SOL    HW233627   0.461   1.798   3.471  1.0034 -1.3722 -0.2599
 7332SOL     OW33628   1.945   3.278   7.437  0.0789  0.0298 -0.0402
 7332SOL    HW133629   1.893   3.349   7.399 -0.0142  0.4090  0.8142
 7332SOL    HW233630   1.877   3.210   7.427 -0.3942  0.6174 -0.8729
 7333SOL     OW33631   0.669   3.204  12.487 -0.4732  0.1943  0.0744
 7333SOL    HW133632   0.728   3.144  12.533  0.8620  0.8083 -0.8394
 7333SOL    HW233633   0.720   3.227  12.409  0.4187 -0.5871  0.4181
 7334SOL     OW33634   1.583   2.533   6.904  0.0359 -0.2339 -0.3766
 7334SOL    HW133635   1.589   2.470   6.833 -1.8535  3.1691 -3.5498
 7334SOL    HW233636   1.548   2.612   6.863  0.7656 -0.7605 -2.0112
 7335SOL     OW33637   1.107   4.403   3.227  0.0410  0.0208  0.0363
 7335SOL    HW133638   1.146   4.340   3.167  1.6109  0.6245  0.4131
 7335SOL    HW233639   1.026   4.354   3.240  1.3217 -2.3877 -1.1578
 7336SOL     OW33640   2.551   0.317   8.483  0.2455  0.0982 -0.1893
 7336SOL    HW133641   2.623   0.281   8.432 -0.1279  0.4518 -0.9763
 7336SOL    HW233642   2.495   0.239   8.489  0.5046 -0.2228 -2.0361
 7337SOL     OW33643   1.059   1.585   7.530 -0.1675 -0.4976  0.6668
 7337SOL    HW133644   1.067   1.532   7.609 -2.3658 -0.2154  1.0916
 7337SOL    HW233645   0.968   1.566   7.506  0.4096 -0.5677 -1.5149
 7338SOL     OW33646   2.074   2.227  11.787 -0.1116  0.1218  0.5068
 7338SOL    HW133647   2.043   2.262  11.871 -1.7366  0.9807 -0.4246
 7338SOL    HW233648   2.026   2.280  11.723 -0.0059 -1.4696 -0.8783
 7339SOL     OW33649   2.676   2.946  12.197  0.0441  0.5500  0.6241
 7339SOL    HW133650   2.727   3.023  12.223  0.6743 -0.7224  3.1733
 7339SOL    HW233651   2.723   2.919  12.119 -2.1889 -1.1415 -0.1282
 7340SOL     OW33652   1.683   2.189   3.577 -0.2669  0.5769 -0.8101
 7340SOL    HW133653   1.618   2.245   3.618  0.5025  1.8974 -1.3908
 7340SOL    HW233654   1.702   2.136   3.655 -1.5706  3.5612  1.5194
 7341SOL     OW33655   1.813   1.864   5.678  0.5161 -0.5282 -0.2631
 7341SOL    HW133656   1.856   1.949   5.662  0.7662 -0.6387 -0.1820
 7341SOL    HW233657   1.727   1.878   5.639  0.8373  0.1825 -0.7180
 7342SOL     OW33658   1.951   1.087  14.512 -0.2940 -0.2471 -0.2764
 7342SOL    HW133659   2.006   1.095  14.589  0.1078 -0.7446 -0.5101
 7342SOL    HW233660   1.888   1.159  14.516 -1.6961 -1.2430 -4.0203
 7343SOL     OW33661   0.503   2.241  12.715  0.2761 -0.1405  0.2797
 7343SOL    HW133662   0.495   2.285  12.800  2.5622 -0.9492  0.9143
 7343SOL    HW233663   0.409   2.227  12.703  0.2830 -0.4500  0.5768
 7344SOL     OW33664   0.198   1.271   8.772 -0.2505  0.4367  0.2624
 7344SOL    HW133665   0.192   1.299   8.681  0.6051 -2.5342 -0.7083
 7344SOL    HW233666   0.249   1.335   8.822  0.1389  2.4776 -2.7371
 7345SOL     OW33667   2.906   0.659  10.143 -0.0288 -0.8393  0.2694
 7345SOL    HW133668   2.971   0.728  10.141  0.2105 -1.1061 -1.2285
 7345SOL    HW233669   2.828   0.714  10.135 -0.1736 -0.9947  0.5715
 7346SOL     OW33670   2.847   3.841   8.796  0.2012 -0.1264  0.1743
 7346SOL    HW133671   2.824   3.749   8.786  0.1156 -0.3076  2.0430
 7346SOL    HW233672   2.925   3.827   8.849  0.2713 -1.6001 -0.3343
 7347SOL     OW33673   2.292   1.812   2.761 -0.4654 -0.2907 -0.2094
 7347SOL    HW133674   2.290   1.808   2.857  0.4274 -1.3437 -0.2361
 7347SOL    HW233675   2.225   1.747   2.739 -0.4009 -0.4287  0.0046
 7348SOL     OW33676   1.537   0.060   0.347 -0.2219  0.0230 -0.0458
 7348SOL    HW133677   1.522   0.060   0.252  4.2087 -0.4513 -0.7481
 7348SOL    HW233678   1.491   0.136   0.380  1.3721  0.9502  0.0483
 7349SOL     OW33679   4.444   0.784   4.764 -0.4182  0.4710 -0.2548
 7349SOL    HW133680   4.370   0.726   4.781 -2.2598  2.4017 -1.7111
 7349SOL    HW233681   4.520   0.730   4.784 -0.5043  0.0983 -0.9365
 7350SOL     OW33682   1.462   0.565  11.777 -0.0966 -0.2642  0.0932
 7350SOL    HW133683   1.493   0.475  11.765 -0.6678 -0.6065  1.1338
 7350SOL    HW233684   1.545   0.612  11.767 -0.9532  1.3537  0.6590
 7351SOL     OW33685   4.182   0.961   8.611  0.6400 -0.2053 -0.4291
 7351SOL    HW133686   4.102   0.971   8.662  1.6847 -2.6006  1.7228
 7351SOL    HW233687   4.180   1.041   8.560 -2.9411  1.4261  2.3201
 7352SOL     OW33688   0.972   2.367   6.343  0.9425 -0.4378 -0.0366
 7352SOL    HW133689   0.996   2.398   6.431 -0.6133 -2.8946  1.2278
 7352SOL    HW233690   0.989   2.439   6.282 -0.1677 -1.2503 -1.2929
 7353SOL     OW33691   4.612   2.913   9.469 -0.3362  0.2022  0.2398
 7353SOL    HW133692   4.640   2.983   9.411 -1.2843  0.0575 -0.3965
 7353SOL    HW233693   4.689   2.856   9.465  0.5086  1.3680 -0.0627
 7354SOL     OW33694   1.350   3.209  17.218 -0.5030  0.9494 -0.0489
 7354SOL    HW133695   1.418   3.216  17.285 -0.2818  1.8546 -0.3678
 7354SOL    HW233696   1.280   3.255  17.263 -1.0856  0.1140 -0.0978
 7355SOL     OW33697   3.669   0.137   0.257  0.1564 -0.5916 -0.6078
 7355SOL    HW133698   3.597   0.150   0.318  0.1030  2.4749 -1.3603
 7355SOL    HW233699   3.638   0.164   0.171 -0.6596 -0.7926 -0.3816
 7356SOL     OW33700   3.310   0.845   1.942 -0.1141 -0.0748  0.0469
 7356SOL    HW133701   3.340   0.915   1.884  0.1124  0.9716  1.4522
 7356SOL    HW233702   3.272   0.782   1.880  2.4203  0.3648 -1.9665
 7357SOL     OW33703   4.199   3.219  12.082 -0.0054  0.4762 -0.0975
 7357SOL    HW133704   4.266   3.167  12.125 -0.3149 -0.0920 -0.3062
 7357SOL    HW233705   4.161   3.151  12.026 -0.0473 -0.8176  1.4824
 7358SOL     OW33706   0.779   2.198  14.336  0.2002 -0.0667  0.0466
 7358SOL    HW133707   0.727   2.120  14.354  1.2489 -0.3586  1.7558
 7358SOL    HW233708   0.790   2.232  14.424 -0.6879 -0.6023  0.3619
 7359SOL     OW33709   3.718   4.042   7.596  0.1849  0.3702 -0.3003
 7359SOL    HW133710   3.628   4.049   7.629  1.2705  0.0663  2.7044
 7359SOL    HW233711   3.713   4.118   7.537 -0.2488  0.0811 -0.6315
 7360SOL     OW33712   3.377   3.753   6.309 -0.2965 -0.4283 -0.1873
 7360SOL    HW133713   3.372   3.761   6.213  0.1189  0.1905 -0.1503
 7360SOL    HW233714   3.287   3.739   6.337 -1.1002  2.4373 -1.3751
 7361SOL     OW33715   4.163   0.944   3.692 -0.1847  0.2255 -0.5945
 7361SOL    HW133716   4.250   0.906   3.677 -0.4945 -0.8641  0.3930
 7361SOL    HW233717   4.145   0.925   3.784  0.3440  1.2634 -0.2842
 7362SOL     OW33718   1.000   0.305   5.403  0.6510  0.6397  0.0852
 7362SOL    HW133719   0.958   0.389   5.387 -0.6583  0.1702  1.0125
 7362SOL    HW233720   1.088   0.342   5.407  1.3216 -0.9654  0.3472
 7363SOL     OW33721   1.278   4.486   7.099 -0.0658  0.2767 -0.0282
 7363SOL    HW133722   1.202   4.482   7.157 -0.6205 -1.4520 -0.8731
 7363SOL    HW233723   1.345   4.534   7.146 -1.4870 -0.5818  2.8804
 7364SOL     OW33724   1.429   0.686   0.836 -0.2300  0.6313 -0.3956
 7364SOL    HW133725   1.480   0.628   0.893  0.5838  2.1908  0.4701
 7364SOL    HW233726   1.344   0.645   0.855  0.4698 -1.6261 -2.1520
 7365SOL     OW33727   2.036   4.606   1.612 -0.0005 -0.0086  0.3792
 7365SOL    HW133728   2.059   4.522   1.651 -0.5408 -0.2970  0.0810
 7365SOL    HW233729   2.125   4.636   1.596  0.1172 -0.1189  0.8430
 7366SOL     OW33730   3.802   3.784  10.565 -0.6595  0.0103 -0.3479
 7366SOL    HW133731   3.799   3.877  10.543 -2.1175 -0.3484 -1.6598
 7366SOL    HW233732   3.779   3.781  10.658  1.6659  0.2559  0.2350
 7367SOL     OW33733   0.721   0.096   8.944  0.0202 -0.1646  1.0592
 7367SOL    HW133734   0.635   0.113   8.983 -1.1491  0.3047 -1.7487
 7367SOL    HW233735   0.774   0.137   9.013  0.2086 -1.5595  1.7389
 7368SOL     OW33736   1.845   3.286   4.086 -0.0206  0.0883  0.5534
 7368SOL    HW133737   1.903   3.212   4.067 -0.0030 -0.4558  2.6510
 7368SOL    HW233738   1.900   3.364   4.089 -0.1471  0.1148  2.3444
 7369SOL     OW33739   3.510   0.246  17.726  1.0838  0.8924 -0.0435
 7369SOL    HW133740   3.499   0.322  17.670  0.6512  0.5748 -0.3943
 7369SOL    HW233741   3.593   0.211  17.694  0.7583  3.2118 -3.3781
 7370SOL     OW33742   0.764   4.319   3.928  0.3443 -0.2037 -0.2280
 7370SOL    HW133743   0.802   4.311   3.841 -2.7107 -1.6030 -1.4205
 7370SOL    HW233744   0.824   4.259   3.973  1.9855  0.8743 -1.0201
 7371SOL     OW33745   3.323   1.562   2.033  0.0885  0.5605  0.4348
 7371SOL    HW133746   3.326   1.657   2.023  0.8589  0.6140  1.2074
 7371SOL    HW233747   3.373   1.535   1.956  1.2248  0.5310  1.1923
 7372SOL     OW33748   1.329   0.325   3.529  0.1681  0.1235 -0.2063
 7372SOL    HW133749   1.254   0.319   3.589  0.9771  0.9153  0.8717
 7372SOL    HW233750   1.287   0.334   3.443  0.0232  2.9283  0.1534
 7373SOL     OW33751   1.724   0.423   4.416 -0.3625 -0.3547  0.0766
 7373SOL    HW133752   1.739   0.348   4.359  1.3086  0.6789 -0.8475
 7373SOL    HW233753   1.794   0.481   4.386 -1.3250  0.4719 -0.5951
 7374SOL     OW33754   4.719   3.740  13.394 -0.3628  0.0772 -0.1535
 7374SOL    HW133755   0.069   3.716  13.424 -0.5075  0.4144  0.5504
 7374SOL    HW233756   4.695   3.673  13.330 -2.0364 -0.4737  1.0489
 7375SOL     OW33757   4.640   2.915   5.447 -0.6591  0.0960  0.4379
 7375SOL    HW133758   4.644   3.010   5.454  2.5357  0.1066 -1.3346
 7375SOL    HW233759   4.622   2.899   5.354  0.4218  0.9684  0.0830
 7376SOL     OW33760   2.452   2.395  16.463  0.0923  0.4541  0.2874
 7376SOL    HW133761   2.490   2.478  16.437 -0.4868  1.4085  2.5105
 7376SOL    HW233762   2.385   2.421  16.526  2.4345  2.7697  1.8021
 7377SOL     OW33763   3.593   2.641   3.053 -0.2964 -0.6468 -0.0400
 7377SOL    HW133764   3.602   2.546   3.062  1.5265 -0.4418  0.4216
 7377SOL    HW233765   3.604   2.673   3.142 -1.8292  1.9162 -0.8035
 7378SOL     OW33766   2.082   3.189   1.868  0.0408  0.1789  0.0162
 7378SOL    HW133767   2.095   3.120   1.804  0.5171  0.4984 -0.2312
 7378SOL    HW233768   2.026   3.148   1.934  0.7086  0.5111  0.7957
 7379SOL     OW33769   1.779   1.932   8.907  0.7029 -0.0409  0.6680
 7379SOL    HW133770   1.825   1.944   8.990  3.7718 -1.3921 -0.8449
 7379SOL    HW233771   1.744   1.843   8.917  0.3290 -0.0768 -0.9884
 7380SOL     OW33772   4.358   0.953  13.706 -0.7828 -0.0554  0.0345
 7380SOL    HW133773   4.269   0.983  13.725 -0.1171 -0.0301  3.0676
 7380SOL    HW233774   4.371   0.909  13.790  0.8400  0.5217  0.0732
 7381SOL     OW33775   1.699   1.743  15.605  0.0154 -0.2467  0.3655
 7381SOL    HW133776   1.739   1.656  15.593  1.3682  0.4723 -0.3802
 7381SOL    HW233777   1.625   1.732  15.546  0.4223  1.9714 -0.5411
 7382SOL     OW33778   1.220   1.175  13.560  0.7452  0.1838  0.2772
 7382SOL    HW133779   1.208   1.231  13.637 -1.1866  0.6434 -0.3540
 7382SOL    HW233780   1.269   1.222  13.492  1.7329  2.6172  2.6574
 7383SOL     OW33781   1.611   1.423   7.557  0.5988  0.8842 -0.2101
 7383SOL    HW133782   1.599   1.332   7.530 -2.9516  1.1950  0.4005
 7383SOL    HW233783   1.522   1.437   7.589 -0.3198  3.2910 -3.8188
 7384SOL     OW33784   2.258   2.033   7.247  0.1919 -0.0658  0.2842
 7384SOL    HW133785   2.298   1.951   7.275  1.8551  1.1533  1.4247
 7384SOL    HW233786   2.195   1.995   7.185  1.2331  1.4173 -1.6991
 7385SOL     OW33787   4.323   0.946  17.106 -0.2320  0.8742  0.3222
 7385SOL    HW133788   4.405   0.981  17.072 -0.5681 -0.3874 -1.7616
 7385SOL    HW233789   4.287   0.906  17.027  0.0924  0.0434  0.5890
 7386SOL     OW33790   4.561   2.259  11.949  0.1666  0.6184  0.3513
 7386SOL    HW133791   4.484   2.314  11.961  0.0868  0.5617  0.0971
 7386SOL    HW233792   4.562   2.243  11.855  0.7416 -1.5770  0.7183
 7387SOL     OW33793   1.157   4.630   4.829 -0.1991  0.2503 -0.2767
 7387SOL    HW133794   1.165   4.627   4.924 -0.2933 -0.9482 -0.3095
 7387SOL    HW233795   1.215   4.557   4.808 -0.9655 -0.2483 -0.6482
 7388SOL     OW33796   2.576   1.375  13.019 -0.1413  0.6361  0.0458
 7388SOL    HW133797   2.581   1.384  12.924 -1.8188  0.6953 -0.0341
 7388SOL    HW233798   2.484   1.350  13.020 -0.1304  0.6186  0.6065
 7389SOL     OW33799   0.828   2.036   5.690 -0.3842  0.0709 -0.4690
 7389SOL    HW133800   0.865   1.974   5.627  2.6874 -0.6683  2.0281
 7389SOL    HW233801   0.898   2.036   5.756 -0.2464  0.7315 -0.6181
 7390SOL     OW33802   3.924   0.106  14.691 -0.0790  0.6647 -0.1515
 7390SOL    HW133803   3.837   0.069  14.676 -0.3750  1.7379 -1.1178
 7390SOL    HW233804   3.943   0.066  14.776  1.0005  0.0229 -0.6808
 7391SOL     OW33805   4.180   1.329   2.605  0.1488 -1.0676  0.1848
 7391SOL    HW133806   4.254   1.298   2.657  1.0256 -0.8267 -0.9198
 7391SOL    HW233807   4.138   1.250   2.572 -0.4568 -1.0341  0.8912
 7392SOL     OW33808   3.732   2.994   2.319  0.1365  0.2034  0.0454
 7392SOL    HW133809   3.797   2.976   2.251  1.4499 -1.9358  1.8753
 7392SOL    HW233810   3.758   2.934   2.389 -2.5026  1.9571  2.4972
 7393SOL     OW33811   3.830   0.017  17.143 -0.5549  0.0136 -0.0335
 7393SOL    HW133812   3.813   0.057  17.058 -1.0601  0.8430  0.4492
 7393SOL    HW233813   3.925   0.017  17.145 -0.5547  2.7154 -0.7699
 7394SOL     OW33814   2.037   0.617  10.175 -0.0219  0.2955 -0.3675
 7394SOL    HW133815   2.128   0.609  10.146 -0.0463 -2.0281  0.2118
 7394SOL    HW233816   2.049   0.626  10.269 -0.2547  2.0507 -0.5089
 7395SOL     OW33817   1.319   0.194   0.501 -0.3160  0.4166  0.3750
 7395SOL    HW133818   1.319   0.288   0.521 -1.2136  0.3609  0.6398
 7395SOL    HW233819   1.385   0.155   0.558 -0.5035 -1.2706 -0.5524
 7396SOL     OW33820   0.139   0.878   8.153  0.6448  0.3774  0.1033
 7396SOL    HW133821   0.184   0.853   8.234 -2.1864  1.5566  2.0231
 7396SOL    HW233822   0.202   0.941   8.118  2.2789 -1.6881 -0.6892
 7397SOL     OW33823   3.800   2.260   5.772  0.3794 -0.2206  0.1937
 7397SOL    HW133824   3.835   2.187   5.822 -1.2569 -1.3907 -0.3536
 7397SOL    HW233825   3.856   2.336   5.788  0.0090 -0.4298  2.4349
 7398SOL     OW33826   3.314   3.095   8.970  0.2655  0.0781 -0.0394
 7398SOL    HW133827   3.305   3.023   9.033  1.3171 -0.7001 -0.7911
 7398SOL    HW233828   3.393   3.059   8.930  0.8078  0.5055  0.6514
 7399SOL     OW33829   3.798   0.775   3.104  0.0492  0.2425 -0.1847
 7399SOL    HW133830   3.825   0.867   3.111  2.6633 -0.4700 -0.6751
 7399SOL    HW233831   3.811   0.734   3.189  0.1035 -1.0920 -0.8295
 7400SOL     OW33832   3.814   1.384  10.350 -0.1016  0.1960  0.2223
 7400SOL    HW133833   3.758   1.375  10.427 -0.3591  1.7537  0.2325
 7400SOL    HW233834   3.764   1.454  10.307 -0.0723 -0.3528 -0.6981
 7401SOL     OW33835   0.205   3.032   4.914 -0.0069 -0.1998  0.3852
 7401SOL    HW133836   0.177   3.054   5.003 -0.7032  0.4835 -0.0078
 7401SOL    HW233837   0.130   3.070   4.869 -0.1194 -0.4443  0.3704
 7402SOL     OW33838   0.842   3.592   5.771  0.7024 -0.2226  0.8921
 7402SOL    HW133839   0.883   3.515   5.731 -0.1407 -0.4221  0.4189
 7402SOL    HW233840   0.876   3.566   5.857  0.0467 -1.1568  0.8692
 7403SOL     OW33841   1.614   1.129  13.155  0.6948 -0.1212 -0.2485
 7403SOL    HW133842   1.535   1.179  13.136 -0.1453 -1.1275  0.6108
 7403SOL    HW233843   1.617   1.085  13.070  1.0608 -0.2783 -0.1541
 7404SOL     OW33844   2.868   1.401   8.425  0.0523 -0.9477 -0.0188
 7404SOL    HW133845   2.844   1.494   8.430 -1.3617 -1.3720  0.9437
 7404SOL    HW233846   2.793   1.384   8.368 -1.3075  3.0599  0.5240
 7405SOL     OW33847   1.525   3.113   9.308  0.6852 -0.0524  0.9386
 7405SOL    HW133848   1.436   3.130   9.338  0.3390 -0.4774  0.1458
 7405SOL    HW233849   1.566   3.197   9.329 -0.5657  1.4754 -2.8440
 7406SOL     OW33850   1.900   2.480   1.466  0.1038  0.0433 -0.2462
 7406SOL    HW133851   1.889   2.411   1.400  0.9254  0.9544 -1.3526
 7406SOL    HW233852   1.988   2.465   1.500  0.6531  0.7758 -1.3395
 7407SOL     OW33853   0.011   3.762   3.044 -0.4696  0.1777 -0.1409
 7407SOL    HW133854   4.683   3.820   3.081 -0.2583 -1.1501  2.3278
 7407SOL    HW233855   4.692   3.710   2.987 -1.4811 -0.7882  1.7363
 7408SOL     OW33856   0.961   0.096   7.857 -0.3613 -0.1304 -0.0356
 7408SOL    HW133857   0.967   0.061   7.769  1.3209  1.1759 -0.4361
 7408SOL    HW233858   0.902   0.037   7.905 -0.7054  1.2483  1.2692
 7409SOL     OW33859   3.445   2.827   4.715  0.0169  0.1743 -0.4508
 7409SOL    HW133860   3.517   2.798   4.660  0.7412  0.9651  0.0869
 7409SOL    HW233861   3.474   2.795   4.800 -0.1630  0.3812 -0.3113
 7410SOL     OW33862   4.502   4.255   2.846 -0.0632 -0.4452  0.7247
 7410SOL    HW133863   4.532   4.302   2.924  0.0376 -0.4795  0.7061
 7410SOL    HW233864   4.410   4.249   2.871 -0.4882  1.2986 -0.4061
 7411SOL     OW33865   4.364   1.678   7.141  0.2823  0.6555 -0.1765
 7411SOL    HW133866   4.363   1.681   7.237  1.1708 -0.9474 -0.1264
 7411SOL    HW233867   4.271   1.701   7.131  0.4254  0.7448 -1.3027
 7412SOL     OW33868   4.613   0.121   9.179 -0.4272  0.3215  0.7977
 7412SOL    HW133869   4.633   0.028   9.176 -0.8830  0.2439  0.2816
 7412SOL    HW233870   4.577   0.134   9.091  2.0547  1.0881 -0.1160
 7413SOL     OW33871   2.198   1.498   1.971 -1.0176 -0.3810 -0.7209
 7413SOL    HW133872   2.256   1.574   1.973 -1.1378 -0.3298  0.5684
 7413SOL    HW233873   2.160   1.507   2.058  0.2883 -0.4579 -0.1507
 7414SOL     OW33874   1.707   4.724   8.084 -0.0972  0.2243 -0.3865
 7414SOL    HW133875   1.754   0.059   8.125  1.0559  1.3966 -3.7917
 7414SOL    HW233876   1.753   4.701   8.004  0.6094 -2.9291  0.9171
 7415SOL     OW33877   0.536   0.550  12.802  0.1563  0.3568  0.2499
 7415SOL    HW133878   0.542   0.460  12.832 -0.9130  0.6691  1.4317
 7415SOL    HW233879   0.474   0.580  12.868 -0.0729  0.6209 -0.0804
 7416SOL     OW33880   3.280   0.296   7.351 -0.0231 -0.1061  0.4060
 7416SOL    HW133881   3.195   0.252   7.351 -0.0841  0.0120  0.2600
 7416SOL    HW233882   3.275   0.352   7.273  1.4821 -0.0946  0.3096
 7417SOL     OW33883   0.080   2.395  16.406 -0.0185  0.1098  0.1995
 7417SOL    HW133884   0.036   2.310  16.399 -2.6769  1.6459 -1.3886
 7417SOL    HW233885   0.058   2.394  16.499  0.2431 -0.9652  0.2508
 7418SOL     OW33886   2.357   1.796   3.032  0.2025 -0.0480  0.2843
 7418SOL    HW133887   2.440   1.788   2.986  1.3963 -1.4812  2.6417
 7418SOL    HW233888   2.354   1.717   3.087 -3.0679  0.9731  1.5622
 7419SOL     OW33889   1.460   3.408   3.018 -0.6485  0.2390 -0.0283
 7419SOL    HW133890   1.498   3.387   2.933  0.4579 -1.3095  0.8625
 7419SOL    HW233891   1.392   3.473   2.997 -0.2785  1.0587  1.3032
 7420SOL     OW33892   0.867   0.531   3.217  0.3965  0.0789 -0.8480
 7420SOL    HW133893   0.939   0.549   3.278 -2.4262  2.7079  1.6885
 7420SOL    HW233894   0.915   0.498   3.142  0.0276 -0.3914 -0.8795
 7421SOL     OW33895   3.828   3.492   3.016 -0.1818  0.0046  0.5291
 7421SOL    HW133896   3.907   3.547   3.018 -0.2724  0.2041 -0.9486
 7421SOL    HW233897   3.771   3.535   3.079  0.2719 -0.6204  1.3672
 7422SOL     OW33898   0.660   0.855   4.380 -0.0510 -0.0575 -0.1751
 7422SOL    HW133899   0.619   0.878   4.296 -0.5753 -0.5059 -0.0432
 7422SOL    HW233900   0.584   0.847   4.438  0.2173  1.1490  0.3481
 7423SOL     OW33901   1.591   0.744   1.682 -0.1477  0.1188 -0.5278
 7423SOL    HW133902   1.538   0.677   1.638  0.4103 -0.7078  0.0582
 7423SOL    HW233903   1.527   0.792   1.734 -0.8905 -1.2122 -0.2049
 7424SOL     OW33904   3.796   2.621  16.682 -0.1609  0.0687  0.1053
 7424SOL    HW133905   3.719   2.568  16.702 -0.4363  0.1766 -0.6831
 7424SOL    HW233906   3.869   2.570  16.716 -1.3390 -1.0524  0.9382
 7425SOL     OW33907   2.159   1.580  14.529  0.0091 -0.1285 -0.0508
 7425SOL    HW133908   2.200   1.666  14.527  1.4050 -0.8478 -3.7112
 7425SOL    HW233909   2.194   1.520  14.595 -1.2237 -1.1369 -0.3189
 7426SOL     OW33910   0.512   2.006   4.530 -0.3352  0.4254  0.3921
 7426SOL    HW133911   0.599   1.994   4.492  0.0901  0.0261  1.5086
 7426SOL    HW233912   0.512   2.102   4.530  3.1336  0.4164  1.4343
 7427SOL     OW33913   1.659   4.370   2.058 -0.7288  0.0738 -0.0778
 7427SOL    HW133914   1.565   4.362   2.070 -0.7619  0.8309  0.1556
 7427SOL    HW233915   1.669   4.392   1.965 -1.7733 -2.2871 -0.7581
 7428SOL     OW33916   2.474   3.755   4.832  0.1056 -0.4559  0.0600
 7428SOL    HW133917   2.514   3.777   4.747 -1.4344 -0.1392 -0.5752
 7428SOL    HW233918   2.478   3.660   4.835  0.6561 -0.4335  0.0710
 7429SOL     OW33919   0.616   3.125   8.436  0.4170 -0.4366 -0.3310
 7429SOL    HW133920   0.631   3.034   8.459 -3.0654 -0.7113  0.6850
 7429SOL    HW233921   0.694   3.170   8.471 -0.1851  0.5988 -0.3102
 7430SOL     OW33922   3.530   0.787   7.751  0.0313  0.5369 -0.2373
 7430SOL    HW133923   3.608   0.811   7.800  0.2357  0.7835 -0.6843
 7430SOL    HW233924   3.467   0.752   7.814  0.2891  0.4267 -0.0398
 7431SOL     OW33925   2.994   3.841   5.833 -0.1065 -0.3617 -0.0157
 7431SOL    HW133926   2.948   3.786   5.770 -1.5050 -0.1454  0.8122
 7431SOL    HW233927   2.930   3.853   5.903  0.4141  3.4255 -0.2146
 7432SOL     OW33928   2.086   4.545   8.280 -0.1746 -0.1275 -0.4279
 7432SOL    HW133929   2.042   4.542   8.195  0.7527  2.5068 -1.0109
 7432SOL    HW233930   2.130   4.459   8.280  0.7426  0.3363 -0.1112
 7433SOL     OW33931   2.781   4.378   5.677 -0.7110  0.1297  0.2108
 7433SOL    HW133932   2.712   4.348   5.617  0.4272  1.0718 -1.5655
 7433SOL    HW233933   2.752   4.335   5.758  3.2502 -1.1549  0.9602
 7434SOL     OW33934   0.346   4.300  11.517  0.0355 -0.0145  0.4254
 7434SOL    HW133935   0.323   4.333  11.604  2.2268  1.0461  0.5996
 7434SOL    HW233936   0.318   4.209  11.526  1.9763 -0.6443  0.0425
 7435SOL     OW33937   3.146   2.448   7.578  0.1880 -0.2166 -0.5317
 7435SOL    HW133938   3.082   2.519   7.586  1.4983  0.9650 -0.5846
 7435SOL    HW233939   3.224   2.480   7.623 -0.5739 -3.6558  3.2307
 7436SOL     OW33940   3.319   4.154   8.940  0.0569 -0.3769  0.6434
 7436SOL    HW133941   3.264   4.222   8.980  0.2402  0.6102 -0.7776
 7436SOL    HW233942   3.356   4.129   9.025  1.7373  2.0203  0.6094
 7437SOL     OW33943   1.397   0.774   8.677  0.0776  0.2582 -0.2089
 7437SOL    HW133944   1.308   0.809   8.679 -0.1928 -0.3988 -0.6151
 7437SOL    HW233945   1.445   0.856   8.671 -1.1993  1.0200 -0.0223
 7438SOL     OW33946   3.581   4.263   6.053  0.5983  0.2501 -0.4653
 7438SOL    HW133947   3.544   4.350   6.040 -1.6091 -0.4107  1.3770
 7438SOL    HW233948   3.508   4.204   6.032 -2.1688  3.4365  0.2641
 7439SOL     OW33949   1.541   4.552   8.647  0.0589  0.3048  0.4095
 7439SOL    HW133950   1.553   4.481   8.584  2.4552 -0.2022  1.4482
 7439SOL    HW233951   1.454   4.577   8.616 -0.0976 -2.6462 -1.5580
 7440SOL     OW33952   4.638   0.736   2.830 -0.0379  0.3468 -0.9927
 7440SOL    HW133953   4.670   0.714   2.917  2.6198  0.4191 -1.9592
 7440SOL    HW233954   4.636   0.652   2.784  0.6459 -0.4817  0.4864
 7441SOL     OW33955   0.004   2.420   7.373 -0.0534  0.0812 -1.0440
 7441SOL    HW133956   4.653   2.428   7.406 -0.1785 -0.9462 -1.1438
 7441SOL    HW233957   0.003   2.480   7.298 -1.1964 -0.1455 -1.2158
 7442SOL     OW33958   1.243   3.188  10.110  0.1992  0.1581  0.0358
 7442SOL    HW133959   1.307   3.178  10.039  0.4693  2.9543 -0.1189
 7442SOL    HW233960   1.202   3.272  10.089  0.0625  0.0852  0.0034
 7443SOL     OW33961   3.202   2.306   7.333 -0.5266 -0.3900 -0.1309
 7443SOL    HW133962   3.183   2.367   7.405 -4.1318  0.2088 -1.5850
 7443SOL    HW233963   3.239   2.368   7.270 -0.9619 -0.5684 -0.5628
 7444SOL     OW33964   1.365   0.749  17.149 -0.3338 -0.2605  1.1656
 7444SOL    HW133965   1.431   0.819  17.148  0.9374 -1.4550  2.5621
 7444SOL    HW233966   1.329   0.752  17.060  0.3540 -1.3139  0.8496
 7445SOL     OW33967   3.187   4.228   1.018  0.0585  0.3514  0.4407
 7445SOL    HW133968   3.104   4.215   1.065 -0.5937  0.7864 -0.5715
 7445SOL    HW233969   3.233   4.297   1.065  0.4624  3.0234 -3.8324
 7446SOL     OW33970   3.060   3.386  12.910 -0.6602  0.5264  0.1639
 7446SOL    HW133971   3.085   3.385  13.002 -1.4135 -2.2046  0.3444
 7446SOL    HW233972   3.133   3.437  12.875 -0.5795  0.8311  0.7918
 7447SOL     OW33973   4.642   2.017   5.423 -0.9107  0.5322  0.6334
 7447SOL    HW133974   4.621   1.971   5.341 -0.7465  1.7559 -0.0932
 7447SOL    HW233975   4.650   2.110   5.402 -1.8090  0.7822  1.3834
 7448SOL     OW33976   1.086   0.490   3.505 -0.1932  0.2049  0.0290
 7448SOL    HW133977   1.019   0.519   3.567 -0.5113 -1.9835  0.7158
 7448SOL    HW233978   1.049   0.413   3.462  0.7135  0.9965 -2.1510
 7449SOL     OW33979   1.310   3.399   6.390 -0.7162 -0.4289  0.4069
 7449SOL    HW133980   1.215   3.413   6.394 -0.3836  1.7314  0.5034
 7449SOL    HW233981   1.322   3.422   6.482  1.0466 -0.5248  0.1951
 7450SOL     OW33982   0.844   0.473   6.974  0.0400 -0.6775 -0.1103
 7450SOL    HW133983   0.939   0.477   6.961 -0.1818 -0.7183 -1.7968
 7450SOL    HW233984   0.829   0.433   7.060  0.9574 -1.2508 -0.2146
 7451SOL     OW33985   0.801   3.931  12.749 -0.3365  0.3737  0.1644
 7451SOL    HW133986   0.750   3.992  12.696  0.6051  1.3146  0.3390
 7451SOL    HW233987   0.872   3.901  12.693 -1.4162 -1.7958 -0.0650
 7452SOL     OW33988   1.159   0.269   8.201 -0.0295  0.6218 -0.3257
 7452SOL    HW133989   1.067   0.291   8.218  0.0554  0.7584 -0.0404
 7452SOL    HW233990   1.163   0.246   8.108  0.4385  4.1433 -1.1604
 7453SOL     OW33991   2.966   2.944   8.211  0.0058 -0.2858  0.0247
 7453SOL    HW133992   3.041   2.901   8.253 -0.5930 -1.2792  0.0828
 7453SOL    HW233993   2.992   2.939   8.119 -0.7454  0.3807 -0.2274
 7454SOL     OW33994   3.973   4.287  15.896  0.1981  0.3109 -0.7619
 7454SOL    HW133995   3.989   4.355  15.961 -3.4805 -0.2095  0.7079
 7454SOL    HW233996   4.032   4.221  15.932 -1.7126 -0.2511  1.3422
 7455SOL     OW33997   3.150   2.206   9.325 -0.3948  0.4001  0.4841
 7455SOL    HW133998   3.112   2.293   9.331 -1.0538  0.2799 -1.7171
 7455SOL    HW233999   3.099   2.156   9.388 -0.6700  1.0718  0.7948
 7456SOL     OW34000   2.460   1.628   9.877 -0.1205 -0.8402  0.3613
 7456SOL    HW134001   2.452   1.620   9.972  3.8908 -1.3263  0.6302
 7456SOL    HW234002   2.517   1.553   9.861  1.0137  0.2870 -0.8380
 7457SOL     OW34003   3.616   2.506   4.505 -0.4505 -0.0625 -0.7356
 7457SOL    HW134004   3.667   2.575   4.462 -0.3524  0.6555  0.5480
 7457SOL    HW234005   3.531   2.550   4.511  0.0995  0.9885 -0.7504
 7458SOL     OW34006   1.838   0.762   4.375  0.3260 -0.4977 -0.2078
 7458SOL    HW134007   1.813   0.739   4.464 -0.6949  2.9609  0.3997
 7458SOL    HW234008   1.753   0.751   4.331 -0.0680 -2.4086  1.0472
 7459SOL     OW34009   3.826   0.470   9.280 -0.3065 -0.0319  0.2298
 7459SOL    HW134010   3.771   0.424   9.342 -1.6452  1.0577 -0.1605
 7459SOL    HW234011   3.774   0.453   9.201  0.4478  0.3225 -0.3466
 7460SOL     OW34012   0.287   0.730   3.038 -0.2907  0.3808 -0.9636
 7460SOL    HW134013   0.193   0.736   3.025 -0.6440 -0.5437  1.2676
 7460SOL    HW234014   0.287   0.643   3.078 -2.1875  0.9354  0.2181
 7461SOL     OW34015   2.367   2.574   3.034  0.1018  0.4608  0.3076
 7461SOL    HW134016   2.383   2.488   2.995  1.0364  0.6734  0.2026
 7461SOL    HW234017   2.283   2.599   2.997 -0.8155 -4.5534 -1.0463
 7462SOL     OW34018   4.413   1.924   4.920 -0.3350  0.0191 -0.6415
 7462SOL    HW134019   4.343   1.892   4.976  0.1009  0.2855  0.0510
 7462SOL    HW234020   4.364   1.928   4.837 -1.8685  0.2198  0.2710
 7463SOL     OW34021   0.677   0.260  13.327  0.0548  0.5637  0.5334
 7463SOL    HW134022   0.745   0.210  13.372  0.6364  0.3973 -0.5264
 7463SOL    HW234023   0.719   0.284  13.244  0.8063  1.4873  1.1810
 7464SOL     OW34024   0.437   0.118   8.784 -0.1053  0.2938 -0.3828
 7464SOL    HW134025   0.464   0.117   8.692  2.6437  0.5137  0.4345
 7464SOL    HW234026   0.384   0.038   8.786 -2.1950  1.6623 -2.2903
 7465SOL     OW34027   1.759   2.279   4.652  0.1398 -0.2709 -0.2071
 7465SOL    HW134028   1.769   2.373   4.663  0.4073 -0.5260  1.7157
 7465SOL    HW234029   1.667   2.268   4.678  0.4669  1.5921  1.6578
 7466SOL     OW34030   3.836   1.602   4.047  0.4257  0.0648 -0.3870
 7466SOL    HW134031   3.929   1.589   4.063  0.6684  0.7266 -1.2653
 7466SOL    HW234032   3.798   1.556   4.122 -0.0080 -0.3668 -0.8757
 7467SOL     OW34033   0.616   4.195   1.709  0.9119 -0.0421 -0.3375
 7467SOL    HW134034   0.651   4.267   1.762 -0.4373 -0.2039  0.7722
 7467SOL    HW234035   0.553   4.244   1.656  1.6560  1.8879  0.5272
 7468SOL     OW34036   0.356   1.249   5.747 -0.6747 -0.0747  0.4171
 7468SOL    HW134037   0.272   1.225   5.708 -0.6101  0.6319 -0.1377
 7468SOL    HW234038   0.381   1.161   5.778  0.0231  0.3245  0.9793
 7469SOL     OW34039   1.682   0.507   6.188 -0.8694 -0.5817  0.2060
 7469SOL    HW134040   1.673   0.562   6.266 -1.0026  1.5068 -1.2751
 7469SOL    HW234041   1.633   0.555   6.121 -0.6272  0.9571  1.1342
 7470SOL     OW34042   3.906   2.729   8.012  0.5657 -0.0570 -0.1201
 7470SOL    HW134043   3.951   2.812   7.999 -1.7228  1.3423  0.8065
 7470SOL    HW234044   3.944   2.674   7.944 -0.0969 -2.2602  1.2998
 7471SOL     OW34045   1.453   3.803  12.786 -0.1094  0.5605 -0.4262
 7471SOL    HW134046   1.472   3.769  12.699  2.0703  1.8263 -0.4290
 7471SOL    HW234047   1.393   3.874  12.763 -1.3543 -0.2809  0.2033
 7472SOL     OW34048   0.808   3.689  13.682 -0.2487  0.0906 -0.0381
 7472SOL    HW134049   0.758   3.700  13.762  1.1550 -0.1012  0.8663
 7472SOL    HW234050   0.898   3.707  13.709 -0.1142  1.3522 -1.2700
 7473SOL     OW34051   1.367   1.060  16.180  0.2694 -0.4461 -0.1082
 7473SOL    HW134052   1.344   1.116  16.105 -1.4705  0.9843  1.5114
 7473SOL    HW234053   1.332   1.107  16.255  1.1461  1.1839 -0.7110
 7474SOL     OW34054   2.590   4.096   8.548 -0.0866 -0.0772  0.1660
 7474SOL    HW134055   2.579   4.182   8.588  0.7455 -0.5648  1.4500
 7474SOL    HW234056   2.582   4.032   8.619  3.3031 -0.6762  0.0324
 7475SOL     OW34057   2.826   4.281  10.448  0.3157  0.1272 -0.2912
 7475SOL    HW134058   2.865   4.291  10.362  0.7924 -0.9569 -0.1993
 7475SOL    HW234059   2.877   4.339  10.504  2.1279 -2.2028  0.4773
 7476SOL     OW34060   1.809   3.107  10.218  0.3521 -0.0699 -0.3065
 7476SOL    HW134061   1.851   3.174  10.272  1.1934  0.9153 -2.1595
 7476SOL    HW234062   1.755   3.071  10.288 -0.7272  1.6159 -0.2765
 7477SOL     OW34063   3.101   0.586   3.979  0.3834  0.1097 -0.0729
 7477SOL    HW134064   3.082   0.500   3.941 -1.1521  1.1703 -1.7189
 7477SOL    HW234065   3.010   0.603   4.005 -0.2668 -1.9991 -1.0383
 7478SOL     OW34066   3.074   1.710  15.584 -0.2731  0.1415 -0.3965
 7478SOL    HW134067   3.039   1.789  15.625 -2.4172 -1.1124  0.2293
 7478SOL    HW234068   3.159   1.746  15.561  0.9097 -2.3885  0.0930
 7479SOL     OW34069   2.152   4.436   3.527  0.2159  0.1138 -0.5591
 7479SOL    HW134070   2.120   4.412   3.439 -1.2456 -0.9122  0.2597
 7479SOL    HW234071   2.217   4.368   3.544 -1.7265 -1.4875  0.5629
 7480SOL     OW34072   1.883   0.274   7.646 -0.1251  0.1976 -0.1858
 7480SOL    HW134073   1.933   0.209   7.696 -0.4200  2.1470  2.6651
 7480SOL    HW234074   1.812   0.306   7.702  0.5577 -0.1074  0.8513
 7481SOL     OW34075   0.158   2.913   1.821 -0.2074  0.1677 -0.3747
 7481SOL    HW134076   0.075   2.911   1.870 -1.2003  1.3821 -1.9921
 7481SOL    HW234077   0.213   2.892   1.896 -1.0584 -3.2315 -0.7316
 7482SOL     OW34078   2.941   0.310   5.830  0.0515 -0.6525 -0.1214
 7482SOL    HW134079   2.895   0.248   5.773  1.0865 -1.5602  0.0187
 7482SOL    HW234080   3.000   0.343   5.762  0.6021 -2.0757 -0.3391
 7483SOL     OW34081   2.765   1.069   3.464  0.2523  0.9972 -0.3637
 7483SOL    HW134082   2.730   1.159   3.464 -0.3309  0.7745  1.6292
 7483SOL    HW234083   2.816   1.068   3.545  2.7188 -3.2168 -2.0054
 7484SOL     OW34084   3.630   3.818   3.998  0.9091 -0.6324  0.3831
 7484SOL    HW134085   3.680   3.778   4.069 -2.3642 -2.0524  1.8351
 7484SOL    HW234086   3.542   3.793   4.023 -0.3407  2.0970 -1.2166
 7485SOL     OW34087   3.900   2.039   5.952  0.1374  0.2756  0.0581
 7485SOL    HW134088   3.840   1.984   6.004 -1.0924  2.3668  0.8534
 7485SOL    HW234089   3.962   2.076   6.015  1.5536 -1.1256 -0.5142
 7486SOL     OW34090   3.679   1.295  12.027 -0.2318  0.2123  0.0637
 7486SOL    HW134091   3.726   1.346  12.093 -0.0832  1.5699 -1.1160
 7486SOL    HW234092   3.676   1.353  11.952 -0.3034 -1.1641 -1.0021
 7487SOL     OW34093   2.042   3.154   8.227 -0.3294  0.0931 -0.7538
 7487SOL    HW134094   2.092   3.194   8.298 -1.3579 -2.6786  1.5353
 7487SOL    HW234095   1.969   3.215   8.219  0.6461  1.5060  1.3067
 7488SOL     OW34096   0.999   2.320   7.102 -0.0137 -0.6641 -0.0080
 7488SOL    HW134097   0.952   2.243   7.135 -0.7088  0.4265  1.4964
 7488SOL    HW234098   1.093   2.300   7.102 -0.2060 -1.5795  1.0208
 7489SOL     OW34099   3.169   2.711   4.630 -0.2007 -0.1733  0.0545
 7489SOL    HW134100   3.255   2.727   4.670  0.5334 -0.6774 -1.3121
 7489SOL    HW234101   3.131   2.798   4.643  1.6239  0.6542 -0.0897
 7490SOL     OW34102   4.557   2.256  16.532 -0.2446 -0.3067 -0.0964
 7490SOL    HW134103   4.544   2.344  16.496 -0.0575 -0.9989 -1.8793
 7490SOL    HW234104   4.621   2.280  16.599 -1.1940  1.8154  0.0439
 7491SOL     OW34105   2.943   1.851  15.940 -0.2035 -0.6549 -0.5518
 7491SOL    HW134106   2.849   1.858  15.956 -0.0685 -1.3669  0.5830
 7491SOL    HW234107   2.978   1.827  16.026 -1.1371 -2.7986 -0.7669
 7492SOL     OW34108   3.673   2.078   8.949 -0.3831 -0.1467  0.4940
 7492SOL    HW134109   3.708   2.045   9.031 -0.5736 -0.6392  0.3744
 7492SOL    HW234110   3.725   2.159   8.949 -1.5226  0.5740  0.6680
 7493SOL     OW34111   0.875   3.475   0.604  0.0088 -0.2072  0.4251
 7493SOL    HW134112   0.958   3.471   0.652  0.7860 -0.0543 -0.9234
 7493SOL    HW234113   0.820   3.527   0.664 -1.7104 -0.5841 -0.8124
 7494SOL     OW34114   0.191   4.507  14.013 -0.4637  0.6338 -0.7193
 7494SOL    HW134115   0.260   4.543  14.068 -0.2168 -1.1047  0.1397
 7494SOL    HW234116   0.137   4.467  14.081  3.5817 -1.2519  1.3955
 7495SOL     OW34117   1.101   3.451   7.843 -0.1456  0.1034  0.4582
 7495SOL    HW134118   1.175   3.442   7.783  0.1169  0.0927  0.7825
 7495SOL    HW234119   1.135   3.418   7.926  1.6870  0.3192 -0.1887
 7496SOL     OW34120   0.914   0.370   2.691  0.1688  0.2800  0.3422
 7496SOL    HW134121   0.915   0.386   2.596  1.7269 -1.5073  0.0531
 7496SOL    HW234122   0.830   0.410   2.712  0.7575  2.5835 -1.7716
 7497SOL     OW34123   3.645   2.267   4.344 -0.0788  0.3815  0.0680
 7497SOL    HW134124   3.649   2.337   4.408  0.3129 -0.5647  1.0858
 7497SOL    HW234125   3.618   2.196   4.403 -0.3506  0.1985 -0.2765
 7498SOL     OW34126   2.576   1.399   9.305  0.3006  0.0797 -0.5039
 7498SOL    HW134127   2.618   1.359   9.381 -1.1908  0.4535  0.5025
 7498SOL    HW234128   2.519   1.459   9.352 -0.3869 -2.5593  2.0378
 7499SOL     OW34129   2.998   4.657   3.161  0.5473 -0.6557  0.1538
 7499SOL    HW134130   2.974   0.011   3.156 -1.2806 -1.1779 -0.6215
 7499SOL    HW234131   3.060   4.662   3.234 -0.1715  1.6345  0.5888
 7500SOL     OW34132   4.177   4.058  15.250  0.3302 -0.0963 -0.0270
 7500SOL    HW134133   4.155   4.011  15.170  1.8919 -1.4011  0.3130
 7500SOL    HW234134   4.110   4.020  15.307  0.8004 -0.8969 -0.0241
 7501SOL     OW34135   3.481   3.092  16.641  0.3497  0.2315  0.3965
 7501SOL    HW134136   3.413   3.156  16.622  0.4526  0.2577  0.1194
 7501SOL    HW234137   3.521   3.147  16.708  1.3306 -0.2232  0.1831
 7502SOL     OW34138   0.830   3.421   1.704  0.0859  0.6345 -0.3666
 7502SOL    HW134139   0.767   3.444   1.772 -0.5106  0.1757 -0.7633
 7502SOL    HW234140   0.782   3.356   1.654  0.4271  0.9048 -1.0478
 7503SOL     OW34141   1.794   3.045  17.331 -0.9357  0.2062  0.2118
 7503SOL    HW134142   1.703   3.055  17.305 -0.8880 -0.7229 -0.3202
 7503SOL    HW234143   1.836   3.100  17.264  1.9029 -1.5727  0.5142
 7504SOL     OW34144   1.721   1.620   5.546  0.3607 -0.2984  0.1045
 7504SOL    HW134145   1.765   1.690   5.595 -1.4915  2.2181 -1.8312
 7504SOL    HW234146   1.743   1.540   5.593  1.4576 -1.1592 -1.8769
 7505SOL     OW34147   4.658   3.035   6.746  0.1442  0.1513  0.1664
 7505SOL    HW134148   0.004   3.007   6.711  0.1581  0.5190 -0.0935
 7505SOL    HW234149   4.686   3.103   6.807  1.2156 -0.1359 -0.0080
 7506SOL     OW34150   1.641   1.787  13.714  0.1609 -0.5345  0.4391
 7506SOL    HW134151   1.696   1.836  13.775 -1.6081 -1.6495  2.9591
 7506SOL    HW234152   1.674   1.805  13.626  1.4809  0.4511  1.1402
 7507SOL     OW34153   3.101   2.324  13.055  0.0201  0.5528  0.0549
 7507SOL    HW134154   3.168   2.284  13.111  1.2810 -0.5752 -2.2217
 7507SOL    HW234155   3.123   2.416  13.045  1.1819  0.3624  0.8375
 7508SOL     OW34156   3.264   2.691  10.646 -0.8384  0.0902  0.2319
 7508SOL    HW134157   3.358   2.690  10.661 -0.8602  0.2303  0.3811
 7508SOL    HW234158   3.258   2.709  10.552  3.3682 -1.0932 -0.2578
 7509SOL     OW34159   2.961   1.336   7.847 -0.3910  0.1846 -0.1905
 7509SOL    HW134160   2.929   1.346   7.937  1.7309 -0.6382  0.6581
 7509SOL    HW234161   3.056   1.330   7.855 -0.5197  0.0041  1.2914
 7510SOL     OW34162   4.377   2.251  11.332  0.3686 -0.1425  0.5105
 7510SOL    HW134163   4.355   2.284  11.245  1.9728 -1.0170 -0.2360
 7510SOL    HW234164   4.297   2.259  11.382 -0.0207  2.4067 -0.5085
 7511SOL     OW34165   0.760   4.244   2.803 -0.1114  0.0263  0.4224
 7511SOL    HW134166   0.726   4.317   2.752 -2.4461 -1.5772 -0.3107
 7511SOL    HW234167   0.849   4.278   2.812  0.7580 -2.2628  0.4039
 7512SOL     OW34168   3.995   0.228   4.678  0.6120  1.1531  0.9822
 7512SOL    HW134169   3.926   0.251   4.739 -1.3711 -0.7783 -0.5220
 7512SOL    HW234170   4.016   0.314   4.642 -1.6050 -0.0169 -3.0507
 7513SOL     OW34171   1.358   2.011   7.832 -0.1422  0.0032  0.7682
 7513SOL    HW134172   1.376   1.941   7.894 -2.1376 -1.2362 -0.0491
 7513SOL    HW234173   1.272   2.042   7.859  0.5239  0.9157  1.8761
 7514SOL     OW34174   4.361   2.188   6.485  0.6032  0.4278 -0.6978
 7514SOL    HW134175   4.389   2.250   6.553 -1.8809 -1.3367  1.8921
 7514SOL    HW234176   4.342   2.244   6.409  2.6703  0.1222 -1.4427
 7515SOL     OW34177   0.405   2.249  14.750  0.2885 -0.5113  0.2209
 7515SOL    HW134178   0.442   2.338  14.745 -0.8951 -0.0165  0.3225
 7515SOL    HW234179   0.479   2.194  14.725  0.1789  1.1189 -3.8394
 7516SOL     OW34180   0.250   3.559   8.265  0.3658 -0.2274  0.4397
 7516SOL    HW134181   0.307   3.636   8.273 -0.3132  0.1872  1.2052
 7516SOL    HW234182   0.309   3.484   8.256  0.4087 -0.1808  0.3203
 7517SOL     OW34183   4.475   3.226   6.523 -0.4382  0.0378 -0.1707
 7517SOL    HW134184   4.500   3.298   6.464 -0.2029  0.9256  1.0080
 7517SOL    HW234185   4.432   3.164   6.464  0.0898 -0.2727 -0.2213
 7518SOL     OW34186   1.578   0.677   5.517  0.4322  0.4418  0.5215
 7518SOL    HW134187   1.485   0.654   5.524  0.3733  0.3731 -0.5541
 7518SOL    HW234188   1.622   0.592   5.516 -1.1103 -0.3869  1.6108
 7519SOL     OW34189   1.277   0.953   3.635 -0.7782  0.4055 -0.3692
 7519SOL    HW134190   1.279   0.858   3.645 -1.5874  0.1902 -2.1036
 7519SOL    HW234191   1.341   0.980   3.700 -2.0658  0.5108  0.8472
 7520SOL     OW34192   0.453   1.920   3.961  0.1431  0.1120  0.5548
 7520SOL    HW134193   0.410   1.915   4.046 -0.4261 -0.1233  0.2546
 7520SOL    HW234194   0.492   1.833   3.953  2.1459  0.9485  1.2804
 7521SOL     OW34195   4.635   0.472   4.395  0.1539  0.1657 -0.0023
 7521SOL    HW134196   4.666   0.486   4.485  0.3999  0.9306 -0.2056
 7521SOL    HW234197   4.720   0.472   4.351 -0.0162 -2.4399 -0.3312
 7522SOL     OW34198   3.006   2.147  11.454  0.1975  0.0397  0.3435
 7522SOL    HW134199   2.954   2.178  11.528 -0.2854 -0.6698  0.2965
 7522SOL    HW234200   2.990   2.219  11.393 -0.7374 -2.6593 -2.5704
 7523SOL     OW34201   2.509   4.039   3.328  0.0198 -0.1644 -0.0822
 7523SOL    HW134202   2.524   4.120   3.279 -1.3697 -0.0548 -0.3326
 7523SOL    HW234203   2.418   4.018   3.309  0.1378 -1.3415  0.6684
 7524SOL     OW34204   4.501   2.882  11.277  0.0231  0.3077 -0.3528
 7524SOL    HW134205   4.455   2.950  11.227 -1.1944 -0.9289 -0.9234
 7524SOL    HW234206   4.432   2.830  11.316 -1.8894  1.4059 -2.2496
 7525SOL     OW34207   2.263   0.136   9.047 -0.0027 -0.3376  0.2356
 7525SOL    HW134208   2.291   0.175   9.130 -1.0568  1.5266 -0.2752
 7525SOL    HW234209   2.201   0.198   9.007  0.6553 -0.9358 -1.7203
 7526SOL     OW34210   1.334   4.138   4.074  0.3027  0.8670 -0.0924
 7526SOL    HW134211   1.282   4.078   4.126  0.0723  0.8051 -0.3907
 7526SOL    HW234212   1.411   4.083   4.070 -0.6650 -0.4983  0.1551
 7527SOL     OW34213   1.694   1.997   0.697  0.2181 -0.7572  0.1525
 7527SOL    HW134214   1.744   2.005   0.779  0.0907 -1.6470  0.3257
 7527SOL    HW234215   1.748   2.056   0.644  1.1448 -1.8448 -0.1229
 7528SOL     OW34216   0.761   3.119   8.001  0.4147  0.2484  0.3375
 7528SOL    HW134217   0.695   3.079   8.057  0.8283 -0.1355  0.5563
 7528SOL    HW234218   0.764   3.214   8.014 -2.6567  0.1969  1.2709
 7529SOL     OW34219   1.624   3.811   1.373  0.4519  0.6719 -0.0858
 7529SOL    HW134220   1.647   3.757   1.298  0.9222 -3.2694  2.8768
 7529SOL    HW234221   1.703   3.864   1.384  2.3570 -1.4613 -3.6585
 7530SOL     OW34222   1.236   3.355  16.354 -0.1518 -0.0043 -0.2385
 7530SOL    HW134223   1.181   3.423  16.316 -2.0517 -1.2879  0.2316
 7530SOL    HW234224   1.285   3.401  16.422 -1.1486  1.6596 -0.6564
 7531SOL     OW34225   4.291   3.177   3.901  0.2676 -0.2557 -0.3576
 7531SOL    HW134226   4.283   3.124   3.980 -1.3341  0.1639 -0.2464
 7531SOL    HW234227   4.357   3.243   3.923  0.8413 -1.6224  2.0293
 7532SOL     OW34228   1.989   1.142   1.798 -0.1345 -0.2309 -0.0640
 7532SOL    HW134229   2.066   1.198   1.795  0.0471 -0.3422  2.8586
 7532SOL    HW234230   2.017   1.061   1.756  1.2455 -0.0236  0.4666
 7533SOL     OW34231   2.683   3.135  13.627 -0.1751 -0.5138 -0.3077
 7533SOL    HW134232   2.613   3.199  13.620  0.6071  0.7267  3.6452
 7533SOL    HW234233   2.637   3.072  13.682  0.1428 -0.4980 -0.0313
 7534SOL     OW34234   1.492   2.663   3.479 -0.8469 -0.2413 -0.4471
 7534SOL    HW134235   1.544   2.611   3.417 -0.0139  1.9623 -1.5659
 7534SOL    HW234236   1.555   2.656   3.551 -0.0270 -2.2875 -1.3526
 7535SOL     OW34237   1.693   4.499   5.914  0.4014 -0.1333  0.2804
 7535SOL    HW134238   1.708   4.580   5.867  1.1026 -1.1330 -1.2269
 7535SOL    HW234239   1.598   4.496   5.906  0.4937  2.5144 -1.6883
 7536SOL     OW34240   0.882   2.786   2.292 -0.1379 -0.3278 -0.0451
 7536SOL    HW134241   0.852   2.866   2.335 -0.5882 -0.0841 -0.8108
 7536SOL    HW234242   0.854   2.795   2.201  0.3047 -1.1957 -0.2708
 7537SOL     OW34243   2.940   3.855  14.586 -0.4658 -0.5847 -0.2250
 7537SOL    HW134244   2.955   3.894  14.500  0.0208  1.3798  0.7489
 7537SOL    HW234245   2.854   3.815  14.584 -0.1923 -1.1501 -0.6219
 7538SOL     OW34246   1.475   3.499  14.454  0.2006 -0.6771  0.6813
 7538SOL    HW134247   1.415   3.573  14.458  1.4063  0.3809 -0.6050
 7538SOL    HW234248   1.410   3.429  14.464  1.1830 -1.9384 -1.7400
 7539SOL     OW34249   4.716   1.860  10.082  0.1224  0.0632  0.2838
 7539SOL    HW134250   4.632   1.851  10.038  0.4001 -1.0612 -0.0341
 7539SOL    HW234251   0.015   1.939  10.042 -0.3403  0.0465 -0.1920
 7540SOL     OW34252   1.328   2.445   3.763 -0.2733  0.0773  0.0632
 7540SOL    HW134253   1.328   2.437   3.667  2.6471 -0.5897  0.1192
 7540SOL    HW234254   1.386   2.369   3.777 -0.6946  0.2410  2.6491
 7541SOL     OW34255   4.270   3.169  17.185  0.3610  0.2315  0.4659
 7541SOL    HW134256   4.183   3.210  17.181 -0.6063 -2.0343 -1.4035
 7541SOL    HW234257   4.330   3.238  17.215  0.3318  0.5619 -0.2411
 7542SOL     OW34258   3.806   3.346   5.889  0.2111 -0.0475 -0.3796
 7542SOL    HW134259   3.770   3.260   5.866 -1.9790  1.5865 -3.0944
 7542SOL    HW234260   3.759   3.371   5.968  0.0635  2.4412 -1.2755
 7543SOL     OW34261   3.981   3.086   7.442  1.3372 -0.2304  0.1629
 7543SOL    HW134262   3.897   3.126   7.467  2.0713  0.3474  1.7162
 7543SOL    HW234263   3.960   3.010   7.387 -1.2537  0.0039  0.7968
 7544SOL     OW34264   3.267   1.923   4.320 -0.2226 -0.1594  0.0692
 7544SOL    HW134265   3.350   1.939   4.365  0.4080  1.3859 -1.6398
 7544SOL    HW234266   3.221   2.005   4.339  0.6577  0.8429 -2.1947
 7545SOL     OW34267   4.270   0.645   6.088 -0.0973  0.7119  0.0742
 7545SOL    HW134268   4.316   0.705   6.029 -2.1091  0.9721 -1.2441
 7545SOL    HW234269   4.330   0.615   6.156 -0.4972  0.7218  0.4345
 7546SOL     OW34270   0.295   0.965   5.477  0.0634  0.3390 -0.0501
 7546SOL    HW134271   0.237   0.933   5.547  1.7036 -0.3707  0.9857
 7546SOL    HW234272   0.370   0.997   5.528  0.6695  0.5633 -1.0915
 7547SOL     OW34273   0.182   0.585   7.138 -0.1095 -0.2114 -0.3514
 7547SOL    HW134274   0.149   0.653   7.198 -0.1253  2.0615 -2.9052
 7547SOL    HW234275   0.179   0.504   7.188  0.4440  1.5588  2.5118
 7548SOL     OW34276   1.533   2.898  16.327 -0.4243 -0.1474 -0.0938
 7548SOL    HW134277   1.461   2.946  16.367  0.1515  2.2534 -1.9272
 7548SOL    HW234278   1.557   2.970  16.268  0.1745  1.9157  2.6323
 7549SOL     OW34279   0.348   0.957   5.783 -0.3918 -0.0623  0.0992
 7549SOL    HW134280   0.390   0.871   5.779 -0.2021  0.0268  0.1601
 7549SOL    HW234281   0.265   0.937   5.740 -0.1406  1.4486 -1.1040
 7550SOL     OW34282   3.774   4.021   5.913 -0.3220 -0.0771  0.4775
 7550SOL    HW134283   3.740   4.038   6.001  0.1295  2.3091  0.1843
 7550SOL    HW234284   3.746   4.094   5.858  2.5198  0.9624  0.4138
 7551SOL     OW34285   0.764   4.044   0.421  0.1895  0.2958 -0.6743
 7551SOL    HW134286   0.813   4.014   0.344 -1.1244 -1.0879 -0.9677
 7551SOL    HW234287   0.769   3.966   0.475 -2.0609  1.4422  1.1681
 7552SOL     OW34288   0.745   0.066   3.911 -0.1561 -0.3313  0.4359
 7552SOL    HW134289   0.791   0.056   3.994  0.9185 -0.5444 -0.1769
 7552SOL    HW234290   0.704   4.718   3.898 -0.6585  0.0205 -0.2994
 7553SOL     OW34291   0.655   4.338  16.236  0.1071  0.3619  0.1066
 7553SOL    HW134292   0.587   4.404  16.224  1.2012  1.6126  0.7349
 7553SOL    HW234293   0.727   4.395  16.209  1.3940 -1.5035 -0.4471
 7554SOL     OW34294   2.689   2.561   5.569  0.7305 -0.5785  0.5741
 7554SOL    HW134295   2.630   2.486   5.560 -0.8727  0.9532 -1.7123
 7554SOL    HW234296   2.639   2.630   5.525  0.7029  0.9535  2.9887
 7555SOL     OW34297   2.010   3.479   4.024 -0.0374  0.1587 -0.5317
 7555SOL    HW134298   2.105   3.490   4.023  0.1607 -1.3546  1.8044
 7555SOL    HW234299   1.985   3.571   4.034 -0.1371 -0.1959  2.4268
 7556SOL     OW34300   1.003   2.007   5.465 -0.5891  0.2291  0.0790
 7556SOL    HW134301   1.061   2.014   5.389 -1.1303 -1.7159 -0.5017
 7556SOL    HW234302   1.043   2.075   5.519  0.4749 -0.5424  0.2666
 7557SOL     OW34303   4.469   0.129   9.743  0.0150  0.1160  0.2117
 7557SOL    HW134304   4.402   0.197   9.740  2.1720  2.3339  2.0851
 7557SOL    HW234305   4.471   0.105   9.650  1.9652 -0.8608  0.5028
 7558SOL     OW34306   2.012   1.527   6.031  0.4639  0.1747 -0.4715
 7558SOL    HW134307   2.017   1.432   6.023  0.7346  0.1182  0.2915
 7558SOL    HW234308   2.103   1.559   6.034  0.1527  0.9766  0.5037
 7559SOL     OW34309   2.886   0.415   4.705  1.1032 -0.5667  0.5116
 7559SOL    HW134310   2.933   0.409   4.622 -1.5410  1.0077 -1.1419
 7559SOL    HW234311   2.946   0.467   4.758 -0.1583  0.2188  1.1850
 7560SOL     OW34312   4.695   2.588  11.254 -0.0614  0.6464  0.6978
 7560SOL    HW134313   4.733   2.500  11.247 -1.1138  0.2181  0.2651
 7560SOL    HW234314   4.700   2.612  11.162 -2.8801  0.0195  0.3702
 7561SOL     OW34315   2.390   0.403   8.055  0.4502 -0.4689  0.4780
 7561SOL    HW134316   2.408   0.440   8.141 -0.0022  1.7237 -0.3850
 7561SOL    HW234317   2.479   0.406   8.019  0.6498  1.0805  1.1086
 7562SOL     OW34318   0.759   0.033   0.488  0.2910 -0.4922 -0.0857
 7562SOL    HW134319   0.676   0.001   0.452 -0.4338 -0.9902  2.0715
 7562SOL    HW234320   0.717   0.097   0.545  1.8195  0.3608  0.0693
 7563SOL     OW34321   3.561   2.506  14.970  0.1552  0.1949  0.0212
 7563SOL    HW134322   3.634   2.476  14.916 -1.0349 -2.5370 -0.1125
 7563SOL    HW234323   3.608   2.577  15.012 -2.3758  1.4256  0.7742
 7564SOL     OW34324   3.432   1.213  12.135  0.2861 -0.1535  0.1377
 7564SOL    HW134325   3.450   1.166  12.216  0.1232  0.6170  0.6178
 7564SOL    HW234326   3.515   1.258  12.121 -0.4843  1.1496 -0.2363
 7565SOL     OW34327   0.686   0.264  15.551 -0.0573  0.0216 -0.2228
 7565SOL    HW134328   0.667   0.357  15.545  0.2965  0.2696  2.4397
 7565SOL    HW234329   0.757   0.257  15.487  0.2099 -0.3464  0.1119
 7566SOL     OW34330   0.431   3.211   4.907  0.5668  0.3548  0.2734
 7566SOL    HW134331   0.368   3.140   4.896 -0.8630  1.2020  2.8058
 7566SOL    HW234332   0.482   3.169   4.976  0.8019  0.6876  0.3042
 7567SOL     OW34333   2.398   3.849   3.966 -0.1202  0.1438  0.2864
 7567SOL    HW134334   2.348   3.824   3.888 -1.4251  0.4451  1.0347
 7567SOL    HW234335   2.459   3.913   3.928  1.4362 -2.4294 -1.6013
 7568SOL     OW34336   1.422   3.283   4.641  0.5114 -0.1234  0.2528
 7568SOL    HW134337   1.435   3.329   4.558  0.8363 -0.2186  0.2493
 7568SOL    HW234338   1.377   3.346   4.698 -1.7719 -2.3348  0.8929
 7569SOL     OW34339   0.727   0.649   1.222  0.0891  0.1245 -0.6160
 7569SOL    HW134340   0.805   0.694   1.192 -0.2680  0.8347 -0.4705
 7569SOL    HW234341   0.668   0.725   1.227 -3.0285 -2.2411 -1.0814
 7570SOL     OW34342   4.100   4.533  13.939  0.0830  0.2752  0.4836
 7570SOL    HW134343   4.145   4.538  14.024  0.0070  0.8200  0.4903
 7570SOL    HW234344   4.077   4.626  13.930  2.2022  0.9135  1.4920
 7571SOL     OW34345   4.548   3.865   2.326 -0.0072 -0.1212  0.3963
 7571SOL    HW134346   4.609   3.875   2.399 -0.7995  0.4574  0.9918
 7571SOL    HW234347   4.466   3.868   2.376  0.0812  1.7592  0.4187
 7572SOL     OW34348   0.356   1.763   7.043  0.0096  0.0977  0.2280
 7572SOL    HW134349   0.319   1.704   6.977  0.0267 -0.8920  1.1043
 7572SOL    HW234350   0.302   1.735   7.117  0.6591 -3.2212 -0.5717
 7573SOL     OW34351   1.508   0.460   2.276 -0.3927 -0.3570 -0.3367
 7573SOL    HW134352   1.534   0.506   2.196 -0.1635  1.5598  0.8578
 7573SOL    HW234353   1.460   0.386   2.239 -2.9163  0.5079  1.1370
 7574SOL     OW34354   2.075   3.176   8.632  0.1877  0.2293 -0.2594
 7574SOL    HW134355   2.160   3.197   8.595 -1.4549  2.8785 -2.5024
 7574SOL    HW234356   2.097   3.174   8.725 -2.2254 -0.9235  0.2920
 7575SOL     OW34357   4.294   4.168   1.330 -0.3263 -0.1421  0.0365
 7575SOL    HW134358   4.253   4.166   1.244 -0.5061  0.7383  0.1085
 7575SOL    HW234359   4.314   4.261   1.331  0.5033 -0.3158 -0.9371
 7576SOL     OW34360   3.985   1.273  10.174  0.0220  0.5424  0.6161
 7576SOL    HW134361   3.951   1.191  10.211  0.5719 -0.4792 -1.1690
 7576SOL    HW234362   3.926   1.333  10.220 -2.1165  0.3593 -1.8648
 7577SOL     OW34363   3.340   2.759   3.384  0.0132  0.3865 -0.3759
 7577SOL    HW134364   3.420   2.793   3.425 -0.5428  1.7062 -0.3728
 7577SOL    HW234365   3.332   2.667   3.409  0.7999  1.4092  3.6229
 7578SOL     OW34366   0.472   2.008  17.249  0.0118  0.7603 -0.3344
 7578SOL    HW134367   0.535   2.033  17.317  0.7477  0.4619 -0.9085
 7578SOL    HW234368   0.389   2.000  17.296 -0.0358  0.2052 -0.5066
 7579SOL     OW34369   2.943   4.010  14.008 -0.3064 -0.0895 -0.1054
 7579SOL    HW134370   3.012   4.047  14.062 -1.2280 -1.6343  2.1324
 7579SOL    HW234371   2.947   4.073  13.936  0.7756  1.5227  1.3735
 7580SOL     OW34372   3.578   4.159   4.821 -0.2640  0.7964 -1.0064
 7580SOL    HW134373   3.652   4.174   4.880 -3.2237  0.2055  2.8905
 7580SOL    HW234374   3.502   4.203   4.859  1.0427  0.4112  2.0581
 7581SOL     OW34375   3.680   3.402  11.578  0.4863 -0.2819 -0.4208
 7581SOL    HW134376   3.756   3.437  11.624  1.0071 -0.1511 -1.3775
 7581SOL    HW234377   3.627   3.481  11.593  1.1830  0.0908  0.0911
 7582SOL     OW34378   0.625   0.255   2.196  0.0033 -0.2303 -0.3333
 7582SOL    HW134379   0.637   0.164   2.223 -2.4626 -0.6239 -0.6219
 7582SOL    HW234380   0.704   0.302   2.221  0.8311 -2.0270  0.4527
 7583SOL     OW34381   4.298   1.849   2.485 -0.1575  0.6069 -0.2407
 7583SOL    HW134382   4.372   1.861   2.425 -0.3281 -0.8510 -0.7261
 7583SOL    HW234383   4.282   1.755   2.491 -1.6834  1.0338  2.2888
 7584SOL     OW34384   1.924   0.724  13.180 -0.5244 -0.0725  0.0652
 7584SOL    HW134385   1.869   0.755  13.108 -1.3762 -0.9894  0.3142
 7584SOL    HW234386   1.984   0.797  13.195  0.7758 -0.9359 -0.9897
 7585SOL     OW34387   3.958   0.497  10.257 -1.0213  0.1823 -0.0668
 7585SOL    HW134388   4.042   0.454  10.247  0.0605  2.4865 -0.9125
 7585SOL    HW234389   3.949   0.487  10.352  2.3466 -0.2062  0.1783
 7586SOL     OW34390   4.044   0.441   2.134  0.3407 -0.2033 -0.1052
 7586SOL    HW134391   4.084   0.372   2.081  0.9261 -0.4836  0.7000
 7586SOL    HW234392   4.092   0.521   2.113 -0.3816 -0.3532 -2.2974
 7587SOL     OW34393   2.300   2.802   8.282 -0.5486  0.1120 -0.3880
 7587SOL    HW134394   2.268   2.870   8.223  0.9697 -0.2957 -1.6792
 7587SOL    HW234395   2.302   2.850   8.365 -0.1963 -0.6926  0.0716
 7588SOL     OW34396   1.852   0.719   4.028 -0.0560  0.4252 -0.4086
 7588SOL    HW134397   1.828   0.795   3.976 -1.0828 -0.4159 -1.1659
 7588SOL    HW234398   1.764   0.699   4.060 -0.2200  0.1276 -1.0459
 7589SOL     OW34399   2.124   2.004  16.731  0.6619 -0.1244  0.0526
 7589SOL    HW134400   2.163   2.053  16.803 -0.5471  0.3043  0.4282
 7589SOL    HW234401   2.159   1.916  16.747  1.1868 -0.4058 -2.6561
 7590SOL     OW34402   2.580   0.223   9.993 -0.0567 -0.5318  0.1276
 7590SOL    HW134403   2.501   0.169  10.001  0.0905 -0.8104 -0.3007
 7590SOL    HW234404   2.649   0.163  10.024 -0.3087 -0.8986 -0.0250
 7591SOL     OW34405   2.048   0.899   9.674  0.2591  0.4385  0.7146
 7591SOL    HW134406   1.979   0.841   9.705 -0.7758 -0.3627 -3.0501
 7591SOL    HW234407   2.044   0.891   9.579 -0.8772 -0.3492  0.8349
 7592SOL     OW34408   0.416   0.630   6.965  0.0345  0.1586  0.0164
 7592SOL    HW134409   0.417   0.725   6.951 -3.5086 -0.0142 -1.3290
 7592SOL    HW234410   0.344   0.611   7.025  0.7121  1.1082  1.1252
 7593SOL     OW34411   4.216   3.661  11.790  0.5752 -0.1264 -0.2641
 7593SOL    HW134412   4.233   3.572  11.820 -1.2652  0.1423  1.5867
 7593SOL    HW234413   4.145   3.647  11.727 -0.5353  0.1786  0.9121
 7594SOL     OW34414   4.017   0.102   7.578  0.2340  0.2732  0.2804
 7594SOL    HW134415   4.079   0.101   7.505 -1.1396 -0.2205 -0.8776
 7594SOL    HW234416   3.958   0.172   7.551  0.5761  0.8026  0.9037
 7595SOL     OW34417   1.597   2.551   5.545 -0.4243 -0.2258  0.7377
 7595SOL    HW134418   1.501   2.547   5.538 -0.6137  1.8028  2.2521
 7595SOL    HW234419   1.627   2.601   5.469 -0.3441 -0.9577  0.2917
 7596SOL     OW34420   4.456   1.623   0.798  0.3602 -0.0539 -0.2917
 7596SOL    HW134421   4.473   1.629   0.892 -1.7157  1.0904  0.0081
 7596SOL    HW234422   4.548   1.635   0.772 -0.1934  1.9597 -1.3010
 7597SOL     OW34423   2.977   2.775   7.962  0.1012  0.0320  0.2017
 7597SOL    HW134424   3.025   2.748   7.884 -1.0567  0.2088 -0.5764
 7597SOL    HW234425   3.010   2.864   7.979  1.0027 -0.5670  1.5783
 7598SOL     OW34426   0.899   2.028   8.462  0.4238 -0.1958  0.3607
 7598SOL    HW134427   0.927   2.073   8.382  1.9566  1.3222  1.7602
 7598SOL    HW234428   0.978   2.026   8.515  0.3830  1.3140  0.4853
 7599SOL     OW34429   2.172   1.625   2.258 -0.0973 -0.1927  0.4792
 7599SOL    HW134430   2.199   1.585   2.340  1.7808 -0.7121 -0.3912
 7599SOL    HW234431   2.216   1.710   2.267  2.0419 -1.2702  0.2231
 7600SOL     OW34432   4.493   4.623   2.213 -0.3859  0.0294  0.3703
 7600SOL    HW134433   4.521   4.663   2.131  0.3017 -1.8493 -0.3199
 7600SOL    HW234434   4.576   4.600   2.255  0.5508  1.5103 -0.6809
 7601SOL     OW34435   4.434   3.177  16.790 -0.1161 -0.1602 -0.3051
 7601SOL    HW134436   4.505   3.241  16.797 -0.1195 -0.2323  0.4650
 7601SOL    HW234437   4.488   3.099  16.799 -0.7918 -0.8123 -1.8881
 7602SOL     OW34438   0.728   3.078  15.264 -0.3539 -0.0944 -0.0454
 7602SOL    HW134439   0.683   3.127  15.195  0.4522  0.3549 -0.2502
 7602SOL    HW234440   0.693   3.108  15.347  1.3308  0.1648  0.5795
 7603SOL     OW34441   3.806   2.874   3.561  0.2416  0.1403 -0.3605
 7603SOL    HW134442   3.869   2.823   3.613 -1.1321 -1.2171 -0.0048
 7603SOL    HW234443   3.838   2.960   3.589 -0.2338 -0.4378  1.9765
 7604SOL     OW34444   1.029   4.130  14.433 -0.0398 -0.1375 -0.0690
 7604SOL    HW134445   1.122   4.123  14.452 -0.1135  2.3801  1.1480
 7604SOL    HW234446   0.995   4.137  14.522  1.7669 -0.6938  0.6429
 7605SOL     OW34447   0.098   4.228   4.962  0.1731  0.2162 -0.5252
 7605SOL    HW134448   0.044   4.161   4.920 -0.7829  0.4732  0.2982
 7605SOL    HW234449   0.060   4.229   5.050 -0.5394  1.1005 -0.8378
 7606SOL     OW34450   2.491   3.862  11.765 -0.7234  0.2252 -0.9740
 7606SOL    HW134451   2.496   3.948  11.724 -0.7717  0.8522  0.3053
 7606SOL    HW234452   2.585   3.854  11.781 -0.9881 -0.8366  0.0989
 7607SOL     OW34453   4.388   4.316   8.679  0.2049  0.1029 -0.1572
 7607SOL    HW134454   4.379   4.379   8.607  3.1813  1.1091  0.3704
 7607SOL    HW234455   4.322   4.355   8.737 -0.4714 -0.4183 -0.5834
 7608SOL     OW34456   2.916   0.164  14.684 -0.0476  0.2191 -0.0640
 7608SOL    HW134457   2.822   0.165  14.704 -0.4948 -1.4511 -2.0797
 7608SOL    HW234458   2.925   0.070  14.670 -3.2202  0.0922 -1.3285
 7609SOL     OW34459   3.020   0.897   7.745 -0.8903  0.0474  0.3931
 7609SOL    HW134460   2.934   0.930   7.772 -0.6288  1.6908 -0.7841
 7609SOL    HW234461   3.042   0.968   7.685  3.6541 -1.1865  0.6256
 7610SOL     OW34462   4.649   3.353  16.755  0.4992 -0.0559 -0.0484
 7610SOL    HW134463   4.576   3.408  16.728 -1.0177 -1.0678  2.0117
 7610SOL    HW234464   4.715   3.422  16.748  1.1274 -0.6774 -0.2159
 7611SOL     OW34465   4.392   3.015  12.017  0.3076 -0.1212  0.2921
 7611SOL    HW134466   4.306   2.978  11.997  0.4962 -1.9797  2.8859
 7611SOL    HW234467   4.423   2.957  12.087  1.2250 -0.1702 -0.1466
 7612SOL     OW34468   1.940   3.918  13.759 -0.4464 -0.1036 -0.2389
 7612SOL    HW134469   1.954   3.954  13.847 -0.6176  0.4315 -0.4315
 7612SOL    HW234470   1.919   3.826  13.775  0.2712 -0.4566 -1.3471
 7613SOL     OW34471   3.905   0.727  16.841  0.1850 -0.2034 -0.0460
 7613SOL    HW134472   3.901   0.661  16.772 -0.8139 -1.7736  1.5238
 7613SOL    HW234473   3.823   0.776  16.845  0.3182  0.1310 -1.4614
 7614SOL     OW34474   4.171   3.333  15.597  0.0556 -0.1082  0.2234
 7614SOL    HW134475   4.214   3.418  15.585 -0.4139 -0.1864 -2.0592
 7614SOL    HW234476   4.248   3.275  15.595 -0.0846 -0.2895  0.1080
 7615SOL     OW34477   4.071   1.980  10.082 -0.4658  0.6051  0.1659
 7615SOL    HW134478   4.164   1.977  10.057 -0.5453  0.4702 -0.1155
 7615SOL    HW234479   4.072   1.924  10.159 -0.7082  1.6006  0.8973
 7616SOL     OW34480   0.349   0.137  13.082  0.3925  0.2125 -0.0418
 7616SOL    HW134481   0.351   0.175  12.994  1.6905  0.0645 -0.0636
 7616SOL    HW234482   0.357   0.223  13.122 -0.0336  1.1388 -1.9201
 7617SOL     OW34483   3.418   2.520  10.890  0.3942  0.2075  0.7633
 7617SOL    HW134484   3.450   2.580  10.823  0.4923  0.2737  0.8706
 7617SOL    HW234485   3.423   2.564  10.975  3.9316 -2.2889  1.8514
 7618SOL     OW34486   1.675   3.742   7.232  0.0951 -0.3101 -0.1557
 7618SOL    HW134487   1.611   3.768   7.298  0.2291  1.6936 -0.8239
 7618SOL    HW234488   1.750   3.773   7.283  0.1584 -1.9151  0.7447
 7619SOL     OW34489   0.861   4.138   9.075  0.7898 -0.4012  0.4170
 7619SOL    HW134490   0.888   4.101   8.991  1.0388  2.2197 -0.6726
 7619SOL    HW234491   0.792   4.074   9.090  0.8013 -0.2917  0.9533
 7620SOL     OW34492   1.527   1.719   3.766  0.0631  0.4175 -0.8707
 7620SOL    HW134493   1.581   1.734   3.843 -0.4782  0.5606 -0.5210
 7620SOL    HW234494   1.444   1.751   3.801  1.0329 -0.9111  2.5822
 7621SOL     OW34495   0.591   1.614  13.783  0.2706 -0.3484  0.0865
 7621SOL    HW134496   0.520   1.553  13.800 -0.0722 -0.7491 -2.6646
 7621SOL    HW234497   0.630   1.616  13.870  0.5104 -1.1457 -0.0014
 7622SOL     OW34498   2.934   2.293   6.500  0.0287 -0.1748 -0.3510
 7622SOL    HW134499   2.861   2.262   6.446 -1.3316  0.4405  1.1485
 7622SOL    HW234500   2.885   2.313   6.580  1.8566  1.7794  0.2963
 7623SOL     OW34501   1.423   2.446   8.806  0.0494  0.0068  0.5895
 7623SOL    HW134502   1.344   2.440   8.860 -1.8209  1.3844 -1.9883
 7623SOL    HW234503   1.464   2.528   8.833 -0.8867  1.0132 -1.0187
 7624SOL     OW34504   3.315   2.782   6.055 -0.5042  0.6407 -0.6030
 7624SOL    HW134505   3.356   2.723   6.118 -1.0829 -1.0993 -1.8437
 7624SOL    HW234506   3.359   2.764   5.972 -1.0050 -0.3841 -0.6450
 7625SOL     OW34507   3.556   3.995   8.102 -0.5742  0.1364 -0.1180
 7625SOL    HW134508   3.605   4.066   8.060  0.9424  0.6622  2.5423
 7625SOL    HW234509   3.514   4.046   8.171  1.0190  1.8355 -0.3959
 7626SOL     OW34510   3.078   2.561   8.110 -0.4797 -0.4267 -0.1287
 7626SOL    HW134511   3.157   2.581   8.160  0.5102  0.3208 -1.9638
 7626SOL    HW234512   3.059   2.648   8.075  1.1971 -0.5735 -1.4186
 7627SOL     OW34513   0.980   2.360  11.979 -0.0816  0.1191  0.0195
 7627SOL    HW134514   0.917   2.300  12.019  0.5735 -1.4456 -1.2727
 7627SOL    HW234515   1.049   2.297  11.962 -0.2647  0.2466 -1.1875
 7628SOL     OW34516   3.799   2.171   3.631 -1.0785 -0.3912  0.0614
 7628SOL    HW134517   3.869   2.152   3.568  0.5539 -0.0678  1.7869
 7628SOL    HW234518   3.843   2.148   3.713  0.6018 -0.6602 -0.8997
 7629SOL     OW34519   0.406   3.619   5.205  0.3089 -0.5956 -0.4554
 7629SOL    HW134520   0.433   3.527   5.205 -1.0704 -0.9984  0.5240
 7629SOL    HW234521   0.374   3.641   5.118 -0.7607 -0.3786 -0.0075
 7630SOL     OW34522   0.488   0.917   8.364 -0.3326 -0.3554  0.0934
 7630SOL    HW134523   0.401   0.950   8.385 -0.4977 -0.3979 -0.5335
 7630SOL    HW234524   0.481   0.827   8.333  1.2659 -0.1654 -0.8355
 7631SOL     OW34525   2.514   4.071  12.608  0.0434  0.0708  0.1285
 7631SOL    HW134526   2.514   4.141  12.673 -0.2635 -0.4717  0.7084
 7631SOL    HW234527   2.519   4.117  12.524  0.0734  0.1698  0.1843
 7632SOL     OW34528   4.325   4.703   6.754 -0.3241  0.1957 -0.1935
 7632SOL    HW134529   4.268   0.014   6.695  4.8403  1.5475 -4.0518
 7632SOL    HW234530   4.407   0.014   6.763  1.0730 -2.2935  0.7280
 7633SOL     OW34531   3.555   2.282   8.019  0.2137  0.1666 -0.2008
 7633SOL    HW134532   3.508   2.205   7.986  1.2444 -0.7120  0.3866
 7633SOL    HW234533   3.509   2.308   8.098 -1.4780 -1.8898 -0.5171
 7634SOL     OW34534   0.761   2.522   2.951 -0.5153  0.2609 -0.4085
 7634SOL    HW134535   0.755   2.440   3.000 -2.1853  1.2005  0.9335
 7634SOL    HW234536   0.785   2.492   2.863 -0.2088 -1.5253  0.2805
 7635SOL     OW34537   3.328   4.286   7.099  0.3489 -0.7946 -0.5595
 7635SOL    HW134538   3.352   4.324   7.014 -3.5349 -0.3979 -1.4708
 7635SOL    HW234539   3.353   4.194   7.092 -2.0443 -1.6356  1.7580
 7636SOL     OW34540   4.548   2.059   3.957 -0.8756  0.0689  0.3101
 7636SOL    HW134541   4.624   2.072   4.014  0.2491  0.0860 -1.1909
 7636SOL    HW234542   4.591   2.078   3.873 -2.1645  0.3060 -0.3002
 7637SOL     OW34543   3.371   0.630   3.313  0.0716 -0.7085 -0.3653
 7637SOL    HW134544   3.374   0.597   3.223 -0.8114 -0.6061 -0.4304
 7637SOL    HW234545   3.279   0.615   3.335  0.3789 -2.8609 -0.5380
 7638SOL     OW34546   4.318   2.226   4.437 -0.3752 -0.2100 -0.0827
 7638SOL    HW134547   4.223   2.231   4.428 -0.3633  1.0216  0.4620
 7638SOL    HW234548   4.352   2.211   4.349  1.1166 -1.3341  0.6790
 7639SOL     OW34549   4.654   4.641   7.143 -0.0607  0.0262  0.3377
 7639SOL    HW134550   4.721   4.709   7.140 -0.5585  0.5795  1.4445
 7639SOL    HW234551   4.575   4.693   7.127 -0.6128 -0.4046  1.6669
 7640SOL     OW34552   1.967   0.121   5.859  0.2764 -0.2410  0.5409
 7640SOL    HW134553   1.919   0.147   5.938 -0.2048  1.1856 -0.2083
 7640SOL    HW234554   1.991   0.199   5.809  1.4548 -0.5652  0.6079
 7641SOL     OW34555   2.478   1.408  14.271  0.0705  0.0353  0.4796
 7641SOL    HW134556   2.466   1.480  14.333 -4.1861  0.1509 -0.4246
 7641SOL    HW234557   2.556   1.366  14.306 -0.8487 -1.6897  0.4651
 7642SOL     OW34558   0.268   3.461   2.538 -0.1206  0.0285 -0.3543
 7642SOL    HW134559   0.197   3.400   2.557 -1.3448  1.1383 -1.3576
 7642SOL    HW234560   0.224   3.535   2.496 -0.9708 -0.4807 -0.3623
 7643SOL     OW34561   2.861   2.416   8.104  0.0723  0.2745  0.0958
 7643SOL    HW134562   2.867   2.378   8.192 -0.1205  1.6894  0.7348
 7643SOL    HW234563   2.939   2.471   8.101 -0.3331  0.7430 -1.7410
 7644SOL     OW34564   0.043   2.934  12.908 -0.2564  0.0015 -0.4873
 7644SOL    HW134565   4.701   2.937  12.857  0.0569 -2.1565 -1.0837
 7644SOL    HW234566   0.014   2.948  12.998 -0.1630  0.5619 -0.5397
 7645SOL     OW34567   1.236   2.287   5.855  0.4984  0.0115  0.1054
 7645SOL    HW134568   1.181   2.273   5.932 -0.4824  0.2228 -0.5575
 7645SOL    HW234569   1.319   2.262   5.894  0.5481  1.6004  0.9975
 7646SOL     OW34570   1.683   0.769  12.385  0.7123 -0.8577  0.5681
 7646SOL    HW134571   1.640   0.817  12.314  1.5915 -0.6986  0.1437
 7646SOL    HW234572   1.617   0.794  12.449  0.5986  0.4485 -0.0574
 7647SOL     OW34573   0.780   4.593   7.940 -0.6027 -0.4592  0.3987
 7647SOL    HW134574   0.771   4.575   7.846  0.6649  0.0855  0.1807
 7647SOL    HW234575   0.691   4.618   7.965 -0.0305  0.4050  1.5557
 7648SOL     OW34576   4.206   3.575  16.774  0.0400 -0.2662 -0.2790
 7648SOL    HW134577   4.203   3.633  16.850  2.4510  2.3203 -2.1853
 7648SOL    HW234578   4.188   3.487  16.807 -0.9388  0.3168  0.7237
 7649SOL     OW34579   2.122   3.597   9.473  0.6077  0.0239  0.3093
 7649SOL    HW134580   2.069   3.609   9.394 -1.7604 -0.4700  1.8401
 7649SOL    HW234581   2.120   3.503   9.494  2.0162 -0.0187  0.2707
 7650SOL     OW34582   4.520   3.598   4.049  0.0209 -0.3360 -0.3864
 7650SOL    HW134583   4.484   3.676   4.091 -1.0831 -2.3473  2.4304
 7650SOL    HW234584   4.598   3.594   4.104  0.9669 -2.6304 -1.9163
 7651SOL     OW34585   4.728   2.675   0.016 -0.1106 -0.1582  0.2014
 7651SOL    HW134586   0.083   2.692   0.005 -0.2381  0.3362 -0.1048
 7651SOL    HW234587   4.720   2.586  17.733  0.9729  0.1369 -0.7896
 7652SOL     OW34588   2.161   0.606   9.873 -0.9009 -0.0593  0.1919
 7652SOL    HW134589   2.209   0.538   9.827  2.1547  2.3661 -0.1864
 7652SOL    HW234590   2.235   0.662   9.897  0.3387 -2.1722  1.2688
 7653SOL     OW34591   2.603   1.414  10.586 -0.0315  0.6713  0.2838
 7653SOL    HW134592   2.530   1.413  10.648  0.5168  0.6540  0.9379
 7653SOL    HW234593   2.657   1.478  10.633  1.1881 -1.2075  1.4235
 7654SOL     OW34594   4.475   4.431  13.784 -0.2162  0.0065 -0.0579
 7654SOL    HW134595   4.471   4.525  13.766 -2.2295  0.1432  1.0682
 7654SOL    HW234596   4.541   4.430  13.853 -1.6624 -0.3354  1.3265
 7655SOL     OW34597   4.503   2.214  15.325  0.9946 -0.3008  0.0224
 7655SOL    HW134598   4.417   2.223  15.365  1.4513  3.2894  0.1803
 7655SOL    HW234599   4.524   2.306  15.307 -0.7363  0.1616  0.4184
 7656SOL     OW34600   4.033   0.062   2.989 -0.2218  0.0744 -0.1132
 7656SOL    HW134601   4.014   0.095   2.901  1.6241 -0.4770 -0.7207
 7656SOL    HW234602   4.007   0.140   3.037 -1.4315 -0.2845 -0.1779
 7657SOL     OW34603   0.980   1.428   5.685  0.1939  0.1939  0.2763
 7657SOL    HW134604   0.964   1.508   5.736 -2.6952  0.4640 -1.0421
 7657SOL    HW234605   0.946   1.369   5.752 -0.5305 -0.6113 -0.8097
 7658SOL     OW34606   4.103   4.609   4.059  0.1775  0.2192 -0.0990
 7658SOL    HW134607   4.007   4.599   4.060  0.0499  1.3290 -0.8755
 7658SOL    HW234608   4.114   4.680   3.996  1.3593  1.5365  1.6028
 7659SOL     OW34609   0.597   1.642   3.725  0.2437  0.5630 -1.0706
 7659SOL    HW134610   0.577   1.640   3.631  0.4629 -0.9555 -1.0915
 7659SOL    HW234611   0.540   1.574   3.760 -1.1072  1.2596 -1.9422
 7660SOL     OW34612   0.503   4.118  13.400 -0.1511  0.4944  0.0421
 7660SOL    HW134613   0.544   4.078  13.477 -0.5948  1.2828  0.6836
 7660SOL    HW234614   0.416   4.133  13.437  0.6708  2.6032  1.1859
 7661SOL     OW34615   0.838   4.714  13.175 -0.3873  0.2827 -0.2406
 7661SOL    HW134616   0.827   0.008  13.264 -1.6190 -2.9679  0.7743
 7661SOL    HW234617   0.860   4.623  13.192  0.6347  0.9037  1.7249
 7662SOL     OW34618   1.482   1.055   3.091  0.1157 -0.6480  0.7278
 7662SOL    HW134619   1.490   1.115   3.165 -0.9096 -2.2465  2.1129
 7662SOL    HW234620   1.388   1.037   3.099  0.4021 -2.7438 -0.7916
 7663SOL     OW34621   1.250   0.981   4.380 -0.1413 -0.2190 -0.3853
 7663SOL    HW134622   1.215   1.064   4.412 -0.9337 -0.4557 -0.6560
 7663SOL    HW234623   1.287   1.012   4.297 -0.3881 -0.1740 -0.4776
 7664SOL     OW34624   3.275   3.687  12.299  0.1999  0.1267 -0.6489
 7664SOL    HW134625   3.302   3.779  12.298  0.3374  0.1103  0.7559
 7664SOL    HW234626   3.337   3.652  12.235  1.1969  0.8604 -0.0859
 7665SOL     OW34627   3.003   4.030  10.748 -0.3583  0.0281  0.4248
 7665SOL    HW134628   3.092   4.027  10.781 -0.5531  0.1638  0.9654
 7665SOL    HW234629   2.978   4.119  10.774  0.2317  0.2120  0.3576
 7666SOL     OW34630   2.393   1.553   4.838 -0.3382 -0.4184 -0.2226
 7666SOL    HW134631   2.334   1.589   4.904  1.1393  1.3240  0.1473
 7666SOL    HW234632   2.447   1.629   4.814 -2.1617  0.2874 -2.0574
 7667SOL     OW34633   4.509   4.556   1.430 -0.7744  0.2616 -0.5092
 7667SOL    HW134634   4.444   4.491   1.403 -1.9900  1.3609 -0.1871
 7667SOL    HW234635   4.520   4.545   1.524  0.7392 -1.9265 -0.9346
 7668SOL     OW34636   3.072   3.192   6.756  0.2387 -0.3626  0.4929
 7668SOL    HW134637   3.018   3.240   6.693 -0.9418 -2.8581 -0.4076
 7668SOL    HW234638   3.129   3.261   6.788 -1.6914  1.0178  0.9806
 7669SOL     OW34639   3.008   2.671   2.755 -0.4536  0.5494 -0.0228
 7669SOL    HW134640   3.048   2.754   2.730 -1.0829 -0.2716 -3.7428
 7669SOL    HW234641   3.057   2.640   2.831 -1.4138  0.5121  0.5815
 7670SOL     OW34642   0.940   0.981   3.878 -0.2621  0.1289 -0.4384
 7670SOL    HW134643   0.890   0.900   3.877 -1.1067  0.6171  1.1740
 7670SOL    HW234644   0.965   0.991   3.786  0.0029 -0.3374 -0.4133
 7671SOL     OW34645   0.735   0.284   7.691  0.6645  0.2744 -0.1923
 7671SOL    HW134646   0.678   0.355   7.662 -0.6018 -0.7068 -0.0980
 7671SOL    HW234647   0.814   0.302   7.640 -0.4094  2.2570 -1.1428
 7672SOL     OW34648   2.736   1.758   7.304  0.0487 -0.2771 -0.1379
 7672SOL    HW134649   2.683   1.836   7.321  0.7107 -0.4232  2.6059
 7672SOL    HW234650   2.770   1.737   7.391 -3.1737  0.8668  1.3985
 7673SOL     OW34651   3.191   4.480   1.481 -0.0776 -0.0841  0.4718
 7673SOL    HW134652   3.184   4.549   1.415 -2.9445 -2.5075 -1.7424
 7673SOL    HW234653   3.126   4.513   1.543  0.1394  1.2545 -0.0016
 7674SOL     OW34654   3.579   0.605   6.455  0.4847 -0.0642  0.1077
 7674SOL    HW134655   3.590   0.510   6.457  1.1820  0.0073 -0.1940
 7674SOL    HW234656   3.529   0.615   6.536  1.0028 -0.5991  0.4931
 7675SOL     OW34657   1.054   3.444   3.046  0.3541 -0.1950 -0.2498
 7675SOL    HW134658   1.049   3.365   3.099  1.0909 -0.1168 -0.0620
 7675SOL    HW234659   0.991   3.435   2.974  2.2440  3.1781 -2.3389
 7676SOL     OW34660   4.569   0.448   9.636 -0.0304  0.1450 -0.0494
 7676SOL    HW134661   4.583   0.396   9.557  0.7657  0.8386 -0.3705
 7676SOL    HW234662   4.572   0.539   9.605 -0.5415  0.9832  2.3121
 7677SOL     OW34663   2.182   0.286   1.923  0.2139 -0.0782  0.2620
 7677SOL    HW134664   2.213   0.361   1.974 -1.7764  0.8842  0.0362
 7677SOL    HW234665   2.110   0.259   1.979  0.4620  0.6103  0.9118
 7678SOL     OW34666   3.043   1.513  11.160 -0.0166  0.7038 -0.0227
 7678SOL    HW134667   2.989   1.463  11.221  0.9556  0.5759  0.7356
 7678SOL    HW234668   3.109   1.450  11.132 -0.1106  0.4046  0.4290
 7679SOL     OW34669   3.803   0.250  10.181 -0.5431  0.3156 -0.6159
 7679SOL    HW134670   3.820   0.159  10.202 -1.9550  0.0273 -0.6963
 7679SOL    HW234671   3.808   0.293  10.266 -0.2443 -0.1907 -0.3819
 7680SOL     OW34672   0.740   0.874   4.680 -0.3571  0.0007 -0.3697
 7680SOL    HW134673   0.798   0.903   4.610 -2.0518  0.0529 -1.7342
 7680SOL    HW234674   0.723   0.954   4.731  1.7349  0.2056  0.0030
 7681SOL     OW34675   0.371   1.185  15.803 -0.1875 -0.0561  0.2630
 7681SOL    HW134676   0.418   1.172  15.720  0.6527 -0.3051  0.7783
 7681SOL    HW234677   0.295   1.133  15.779  0.1030 -0.4366  0.1684
 7682SOL     OW34678   3.634   3.623   7.053  0.1240  0.4662 -0.6310
 7682SOL    HW134679   3.717   3.577   7.069  0.1190  1.0235  1.0980
 7682SOL    HW234680   3.578   3.550   7.028  1.1185 -0.5352  0.0478
 7683SOL     OW34681   3.462   0.769   5.469  0.1293 -0.0665 -0.0191
 7683SOL    HW134682   3.502   0.837   5.524 -3.1144  0.6564  1.4230
 7683SOL    HW234683   3.435   0.828   5.398  0.9818  1.6121  1.0472
 7684SOL     OW34684   4.378   3.988  11.123 -0.0187  0.0013 -0.4370
 7684SOL    HW134685   4.455   3.989  11.180 -0.4315  3.3246  0.0709
 7684SOL    HW234686   4.304   3.997  11.182  2.1989  0.4014  2.2667
 7685SOL     OW34687   2.563   1.948  11.975 -0.6609  0.2979  0.2828
 7685SOL    HW134688   2.539   1.858  11.996 -1.0587 -0.1523 -2.0420
 7685SOL    HW234689   2.527   1.990  12.053 -0.6356  1.0035 -0.0801
 7686SOL     OW34690   1.200   2.674   0.641  0.1578  0.5605 -0.3522
 7686SOL    HW134691   1.256   2.700   0.714 -1.1969  0.0515  0.8699
 7686SOL    HW234692   1.260   2.648   0.570  0.5891  1.3856 -0.2868
 7687SOL     OW34693   2.117   2.465   6.918 -0.1465 -0.7167 -0.8125
 7687SOL    HW134694   2.152   2.522   6.987 -2.8231  0.6414 -0.5701
 7687SOL    HW234695   2.160   2.380   6.924  2.6877  0.9087  2.5400
 7688SOL     OW34696   1.152   1.519  17.033 -0.0461  0.0496  0.0678
 7688SOL    HW134697   1.194   1.591  17.080 -0.2738 -0.2942  0.7944
 7688SOL    HW234698   1.225   1.483  16.982 -2.1236 -0.6419 -2.4437
 7689SOL     OW34699   4.609   1.378   6.368  0.4863 -0.4401 -0.0155
 7689SOL    HW134700   4.603   1.294   6.322 -1.9854 -0.6285  0.6329
 7689SOL    HW234701   4.666   1.434   6.316  1.2471  0.8970  2.2575
 7690SOL     OW34702   0.965   1.320   4.498  0.2635  0.5287  0.0997
 7690SOL    HW134703   0.989   1.246   4.554 -1.0419 -1.2505 -1.6754
 7690SOL    HW234704   1.027   1.296   4.429  0.3160  1.3375 -0.1336
 7691SOL     OW34705   3.403   2.588   9.231  0.0441  0.0253  0.3745
 7691SOL    HW134706   3.338   2.557   9.168  0.2246 -1.2762  0.8166
 7691SOL    HW234707   3.432   2.506   9.272  0.3489  0.1040  0.3179
 7692SOL     OW34708   2.178   1.949   3.182  0.5002  0.3898 -0.5191
 7692SOL    HW134709   2.207   1.910   3.264  1.3513 -2.8929 -2.4135
 7692SOL    HW234710   2.239   1.917   3.116  0.5463 -2.4149  0.9229
 7693SOL     OW34711   4.459   2.368   6.664 -0.1235  0.5385 -0.1824
 7693SOL    HW134712   4.521   2.433   6.696 -0.5000  1.5910 -1.5929
 7693SOL    HW234713   4.387   2.380   6.726 -0.1030 -1.6323  0.2732
 7694SOL     OW34714   2.483   4.621  10.867  0.5392  0.5721 -0.0967
 7694SOL    HW134715   2.532   4.554  10.820 -0.6127  1.2379 -2.2187
 7694SOL    HW234716   2.521   4.598  10.952  1.7177 -1.8208 -1.2819
 7695SOL     OW34717   0.879   4.490   7.712 -0.0904 -0.0101 -0.0733
 7695SOL    HW134718   0.852   4.424   7.648 -3.3265  1.3530 -0.1281
 7695SOL    HW234719   0.845   4.570   7.670 -0.7666 -0.6255 -0.6986
 7696SOL     OW34720   2.312   2.323   7.988  0.0791 -0.4279 -0.6865
 7696SOL    HW134721   2.278   2.330   8.077 -1.8827  0.5137 -1.5067
 7696SOL    HW234722   2.392   2.272   7.997  0.0797 -0.1919  0.7266
 7697SOL     OW34723   3.948   2.167   2.369 -0.0271 -0.2791 -0.2865
 7697SOL    HW134724   3.856   2.151   2.389 -0.3421 -0.9837 -2.3509
 7697SOL    HW234725   3.948   2.120   2.286  1.6132  1.5571 -1.3321
 7698SOL     OW34726   0.848   3.734   6.071 -0.3613 -0.1037 -0.0681
 7698SOL    HW134727   0.893   3.700   6.148 -0.9354  0.2935  0.4504
 7698SOL    HW234728   0.907   3.805   6.045  1.3996 -0.4653  2.9032
 7699SOL     OW34729   2.823   4.243   7.416  0.3759 -0.9161 -0.8096
 7699SOL    HW134730   2.792   4.331   7.439 -1.6341 -1.2325 -2.2318
 7699SOL    HW234731   2.917   4.258   7.406  0.2084 -0.0263 -1.0894
 7700SOL     OW34732   3.839   2.752  13.245  0.3870 -0.3698  0.4059
 7700SOL    HW134733   3.817   2.660  13.258 -2.5011  0.0713 -1.2463
 7700SOL    HW234734   3.855   2.766  13.339  0.1040 -0.4147  0.4635
 7701SOL     OW34735   2.184   3.121   3.207  0.1387  0.1453 -0.2830
 7701SOL    HW134736   2.269   3.083   3.229 -0.7889 -1.8268 -0.1007
 7701SOL    HW234737   2.131   3.042   3.215  0.1415  0.2195  0.4360
 7702SOL     OW34738   1.569   3.711   2.104 -0.4277 -0.0423 -0.0642
 7702SOL    HW134739   1.561   3.802   2.132  1.7917  0.2457 -0.3504
 7702SOL    HW234740   1.631   3.721   2.032  0.0227  0.8567  0.4460
 7703SOL     OW34741   0.156   2.337   4.875 -0.3102  0.4194  0.2309
 7703SOL    HW134742   0.126   2.246   4.880 -2.2396  1.0460  0.1850
 7703SOL    HW234743   0.154   2.353   4.970  1.4905 -0.0538  0.3296
 7704SOL     OW34744   0.592   1.374   9.477  0.1117  0.6287 -0.0745
 7704SOL    HW134745   0.605   1.330   9.393  0.1754 -0.3243  0.4297
 7704SOL    HW234746   0.504   1.349   9.504  0.6330 -1.9062 -0.6933
 7705SOL     OW34747   2.181   1.520  15.231  0.2371  0.3227  0.2428
 7705SOL    HW134748   2.188   1.608  15.195  1.6720  0.0112 -0.2719
 7705SOL    HW234749   2.176   1.543  15.324 -1.3771  3.9988 -0.7482
 7706SOL     OW34750   0.712   0.672  11.654  0.4245  0.4016  0.2371
 7706SOL    HW134751   0.789   0.656  11.599  0.1406  0.1545 -0.0887
 7706SOL    HW234752   0.689   0.579  11.657 -2.4590  1.1000 -0.6462
 7707SOL     OW34753   1.976   1.180   8.269 -0.0471 -0.1986 -0.2812
 7707SOL    HW134754   1.990   1.113   8.336 -3.1568 -0.8145 -0.2663
 7707SOL    HW234755   1.885   1.176   8.240 -0.4151 -3.8339  1.3462
 7708SOL     OW34756   1.407   3.114   1.012 -0.3477  0.6412  0.2741
 7708SOL    HW134757   1.463   3.037   1.000 -2.8707 -1.0324 -0.5878
 7708SOL    HW234758   1.441   3.172   0.944 -2.5643  0.5103 -0.9215
 7709SOL     OW34759   0.604   2.733   4.083  0.7765  0.1622 -0.5283
 7709SOL    HW134760   0.596   2.813   4.136 -1.1805 -1.7469  2.0566
 7709SOL    HW234761   0.541   2.755   4.015  1.1092  2.0757 -0.2036
 7710SOL     OW34762   4.258   0.724   2.952  0.1824 -0.2502  0.0655
 7710SOL    HW134763   4.169   0.707   2.983  0.5353 -1.4709  0.3970
 7710SOL    HW234764   4.293   0.635   2.949 -0.1564 -0.3420 -1.6287
 7711SOL     OW34765   4.345   3.223   7.697  0.2874 -0.2802 -0.2602
 7711SOL    HW134766   4.265   3.193   7.739 -0.4015 -1.1197 -2.1637
 7711SOL    HW234767   4.331   3.181   7.612 -0.8345  1.5279 -0.9758
 7712SOL     OW34768   2.818   4.640   9.946  0.3574 -0.1466 -0.0383
 7712SOL    HW134769   2.790   4.686  10.025  0.8737 -0.7622  0.4953
 7712SOL    HW234770   2.743   4.584   9.925 -0.2985  1.0750 -0.9623
 7713SOL     OW34771   1.227   0.157   1.959 -0.1409  0.3230  0.4927
 7713SOL    HW134772   1.148   0.201   1.925 -0.4372 -2.2147 -2.2095
 7713SOL    HW234773   1.263   0.123   1.877 -1.4227 -0.2325  0.1518
 7714SOL     OW34774   2.624   0.907   2.242 -0.2399  0.6009  0.1310
 7714SOL    HW134775   2.619   0.992   2.200 -1.2709  1.1474  1.3601
 7714SOL    HW234776   2.535   0.873   2.231 -0.5801  1.0214  1.6211
 7715SOL     OW34777   4.404   1.355   5.438  0.0462 -0.5478 -0.3658
 7715SOL    HW134778   4.446   1.431   5.399 -2.9290 -0.4592 -3.4044
 7715SOL    HW234779   4.328   1.329   5.385 -1.4900 -2.7163  2.8759
 7716SOL     OW34780   3.817   3.492  17.705  0.6541 -0.2190  0.6442
 7716SOL    HW134781   3.841   3.545   0.030 -1.0377  1.7385 -0.1639
 7716SOL    HW234782   3.722   3.502  17.709  0.8184  1.8475 -0.8551
 7717SOL     OW34783   4.590   4.469   1.036  0.2312 -0.5024 -0.8263
 7717SOL    HW134784   4.565   4.457   0.944 -1.7223  0.8218 -0.4542
 7717SOL    HW234785   4.510   4.443   1.081  1.5897 -1.5274  0.9995
 7718SOL     OW34786   3.206   1.282   9.998  0.2598  0.4228  0.2840
 7718SOL    HW134787   3.205   1.191   9.968  0.3782  0.6544 -0.4269
 7718SOL    HW234788   3.295   1.304   9.972 -0.2616  1.6210 -0.5021
 7719SOL     OW34789   2.570   0.710   4.030  0.0582  0.5183  0.2690
 7719SOL    HW134790   2.500   0.775   4.036 -0.1070  0.4378 -0.7628
 7719SOL    HW234791   2.570   0.702   3.934 -0.4666  4.2755 -0.0371
 7720SOL     OW34792   2.478   3.268   4.657 -0.7729 -0.3440  0.3571
 7720SOL    HW134793   2.437   3.246   4.741 -1.1379  0.6988  0.4599
 7720SOL    HW234794   2.487   3.361   4.679  0.5500 -0.5987  0.8856
 7721SOL     OW34795   2.521   4.122   4.474  0.5380  0.6365  0.0664
 7721SOL    HW134796   2.567   4.128   4.391  0.3134 -3.2600 -0.3519
 7721SOL    HW234797   2.576   4.161   4.543  0.7872 -1.6188  1.1631
 7722SOL     OW34798   3.945   3.803   4.690  0.0099 -0.4776  0.0851
 7722SOL    HW134799   3.970   3.726   4.740  0.6822 -0.6147 -0.4629
 7722SOL    HW234800   3.868   3.840   4.734  0.6876 -0.3195  1.1264
 7723SOL     OW34801   0.586   1.359   5.876 -0.5356  0.9454 -0.1850
 7723SOL    HW134802   0.528   1.301   5.925 -1.4661  1.8045 -0.2434
 7723SOL    HW234803   0.536   1.378   5.796 -1.5955 -0.5994  0.1116
 7724SOL     OW34804   1.668   4.481   7.430  0.2339  0.6214 -0.4334
 7724SOL    HW134805   1.735   4.525   7.482  0.9796 -2.6915  1.4280
 7724SOL    HW234806   1.680   4.523   7.345 -0.9208  1.6319 -0.0867
 7725SOL     OW34807   2.277   1.024   9.792 -0.2550  0.2058 -0.2233
 7725SOL    HW134808   2.219   1.060   9.859  0.5182  1.9829 -0.5134
 7725SOL    HW234809   2.213   0.981   9.735  1.4478 -1.1365 -1.1099
 7726SOL     OW34810   0.105   3.491   7.768  0.1560 -0.4858 -0.0685
 7726SOL    HW134811   0.127   3.398   7.755  1.0020 -0.4042  0.7517
 7726SOL    HW234812   0.078   3.519   7.680  0.7762 -0.5035 -0.2683
 7727SOL     OW34813   4.234   0.096   1.791 -0.6159  0.1312  0.3149
 7727SOL    HW134814   4.242   0.006   1.823 -1.6705 -0.2928 -0.6108
 7727SOL    HW234815   4.266   0.143   1.869  0.6120 -2.4023  1.3515
 7728SOL     OW34816   4.728   1.554   4.604 -0.3991 -0.1960 -0.7288
 7728SOL    HW134817   0.036   1.587   4.681 -0.5852  0.3474 -0.8501
 7728SOL    HW234818   4.647   1.605   4.615  0.9672  1.7114  0.3562
 7729SOL     OW34819   1.695   0.213   9.904  0.3153  0.0119  0.5411
 7729SOL    HW134820   1.748   0.251   9.834  0.9351  1.0637  1.5739
 7729SOL    HW234821   1.768   0.176   9.954  1.5948 -1.5462 -2.4878
 7730SOL     OW34822   2.701   0.963  11.784  0.0054  0.0129 -0.2682
 7730SOL    HW134823   2.657   0.984  11.866 -1.1736 -1.0088 -0.6365
 7730SOL    HW234824   2.629   0.924  11.735  0.6981  1.5652 -2.5069
 7731SOL     OW34825   4.125   1.654   3.935 -0.3415 -0.1361  0.3510
 7731SOL    HW134826   4.216   1.670   3.959 -0.7050 -1.2475  2.4396
 7731SOL    HW234827   4.096   1.739   3.902 -0.9870  0.3611  2.1940
 7732SOL     OW34828   1.669   0.027   2.440 -0.2544 -0.9574 -0.4532
 7732SOL    HW134829   1.678   4.675   2.470 -0.2084 -0.8886 -0.2583
 7732SOL    HW234830   1.586   0.057   2.478 -0.6499 -0.8271 -1.4150
 7733SOL     OW34831   2.570   4.158   4.154  0.5843 -0.0860 -0.3126
 7733SOL    HW134832   2.610   4.110   4.081 -0.9347 -0.3096 -0.9906
 7733SOL    HW234833   2.626   4.236   4.156 -1.0232  1.0595  0.0349
 7734SOL     OW34834   2.752   0.197   4.061  0.5256 -0.2185  0.3722
 7734SOL    HW134835   2.728   0.107   4.084  1.0372 -0.3780  0.2774
 7734SOL    HW234836   2.678   0.226   4.006 -0.9928 -1.6968  1.6268
 7735SOL     OW34837   1.225   2.646   3.435  0.1372  0.3295  0.3723
 7735SOL    HW134838   1.314   2.672   3.458  0.8102 -0.0908 -1.7139
 7735SOL    HW234839   1.219   2.646   3.339  2.8625  1.7917  0.1865
 7736SOL     OW34840   4.542   3.284   6.803 -0.2749  0.1499  0.1148
 7736SOL    HW134841   4.558   3.376   6.781  1.2662 -0.8860 -3.0692
 7736SOL    HW234842   4.515   3.254   6.716 -1.2687 -1.2608  0.9084
 7737SOL     OW34843   3.027   1.100  16.749 -0.3005  0.1166 -0.3210
 7737SOL    HW134844   3.066   1.077  16.665  0.5393  0.7684 -0.1060
 7737SOL    HW234845   3.012   1.193  16.737  1.8290  0.1789 -2.4767
 7738SOL     OW34846   1.789   0.765   3.334 -0.0739  0.2673  0.1163
 7738SOL    HW134847   1.836   0.848   3.324 -1.2257  0.3807 -4.1158
 7738SOL    HW234848   1.720   0.774   3.269  1.3029 -2.8052 -1.7363
 7739SOL     OW34849   0.558   4.645   0.135 -0.1273 -0.1204  0.0829
 7739SOL    HW134850   0.634   4.701   0.151 -0.5959  0.2030  1.1479
 7739SOL    HW234851   0.595   4.587   0.069 -0.3093 -0.3554  0.1860
 7740SOL     OW34852   2.147   0.749   2.982 -0.5216 -0.2507 -0.1004
 7740SOL    HW134853   2.117   0.819   2.923  0.0417  0.4217  0.4206
 7740SOL    HW234854   2.151   0.671   2.926 -1.1280  0.1356 -0.6831
 7741SOL     OW34855   1.614   1.458   3.988  0.1033 -0.5345  0.1525
 7741SOL    HW134856   1.529   1.457   4.032  1.6894 -0.9940  3.1809
 7741SOL    HW234857   1.663   1.485   4.065 -0.4098  0.7445  0.0187
 7742SOL     OW34858   3.413   2.515  16.666 -0.7382 -0.3232  0.0842
 7742SOL    HW134859   3.340   2.574  16.686  1.0271  1.9363 -0.1716
 7742SOL    HW234860   3.418   2.517  16.570  1.4213 -1.9800  0.1860
 7743SOL     OW34861   3.016   2.979  10.189 -0.4283 -0.2080  0.5887
 7743SOL    HW134862   3.024   2.917  10.261  1.6449 -2.4385 -1.5293
 7743SOL    HW234863   3.088   3.040  10.209  1.9982 -2.0965 -2.4840
 7744SOL     OW34864   1.868   4.198   5.079 -0.4715 -0.2394 -0.2542
 7744SOL    HW134865   1.860   4.225   5.170 -3.5178  1.1951 -0.9491
 7744SOL    HW234866   1.960   4.214   5.061 -0.3757 -1.0557 -0.5061
 7745SOL     OW34867   0.173   3.992   9.927 -0.1642 -0.8961  0.0341
 7745SOL    HW134868   0.267   3.992   9.909  0.0614  0.4013  1.2065
 7745SOL    HW234869   0.141   3.927   9.865  1.3352  0.0273 -1.7237
 7746SOL     OW34870   3.372   2.541   0.923 -0.6034  0.1054  0.7259
 7746SOL    HW134871   3.432   2.547   0.848  0.4235 -0.2592  1.5251
 7746SOL    HW234872   3.312   2.474   0.890  1.5057 -0.3340 -2.2157
 7747SOL     OW34873   4.027   1.415  15.060 -0.5962 -0.1782 -0.0413
 7747SOL    HW134874   4.042   1.485  14.997  2.6377  2.0746  3.1727
 7747SOL    HW234875   4.058   1.335  15.018  0.0398  0.6965 -1.2451
 7748SOL     OW34876   3.953   0.902  12.228 -0.1083  0.4535 -0.3037
 7748SOL    HW134877   3.965   0.944  12.313 -0.9770  2.4181 -1.1531
 7748SOL    HW234878   4.032   0.934  12.184 -1.3844  2.6207 -1.0137
 7749SOL     OW34879   3.834   3.862   5.694  0.0814  0.0811 -0.6494
 7749SOL    HW134880   3.812   3.913   5.772 -1.6554 -1.3378 -0.2325
 7749SOL    HW234881   3.927   3.847   5.713  0.2797  1.2738 -0.6661
 7750SOL     OW34882   3.960   1.384   6.154 -0.0524  0.2572  0.5048
 7750SOL    HW134883   4.008   1.328   6.093 -2.5494  0.9315 -2.0644
 7750SOL    HW234884   4.021   1.457   6.158  0.5656 -0.3297  1.8038
 7751SOL     OW34885   0.725   2.551   8.659 -0.4903  0.2869  0.3127
 7751SOL    HW134886   0.703   2.482   8.721 -1.5211 -1.0546 -1.5673
 7751SOL    HW234887   0.749   2.498   8.582  1.3517 -1.1188  1.8572
 7752SOL     OW34888   3.654   1.370   7.315  0.3576  0.4729 -0.2366
 7752SOL    HW134889   3.632   1.311   7.243  2.7326 -0.3112 -0.3346
 7752SOL    HW234890   3.684   1.453   7.278 -0.5536  0.8158 -0.1867
 7753SOL     OW34891   0.977   4.021   3.321 -0.6087  0.0174 -0.1569
 7753SOL    HW134892   1.035   4.083   3.364  0.4000 -0.1775 -1.2242
 7753SOL    HW234893   0.977   3.951   3.387 -0.2608  0.9916  0.8607
 7754SOL     OW34894   1.209   1.816   6.977 -0.3460  0.4364  0.3216
 7754SOL    HW134895   1.124   1.843   6.941 -0.1407  0.2427 -0.3108
 7754SOL    HW234896   1.254   1.900   6.965  0.6946  0.0072  1.2369
 7755SOL     OW34897   4.094   1.371   4.732  0.3965 -0.8246 -0.3700
 7755SOL    HW134898   4.063   1.331   4.813 -0.6232 -0.1675 -0.4377
 7755SOL    HW234899   4.094   1.296   4.673 -0.8684 -1.8845  0.9916
 7756SOL     OW34900   3.239   2.012  13.965  0.1469 -0.3755 -0.2809
 7756SOL    HW134901   3.228   1.993  13.872 -3.4453  2.0455 -0.3526
 7756SOL    HW234902   3.271   2.103  13.967 -1.3397  0.1264  0.7227
 7757SOL     OW34903   1.686   1.985   5.110  0.9857 -0.1237  0.2686
 7757SOL    HW134904   1.764   1.964   5.162  1.1211  2.1759  1.0328
 7757SOL    HW234905   1.714   2.069   5.073  0.2317  0.7715  1.7415
 7758SOL     OW34906   2.338   2.927   7.469  0.6798 -0.3423  0.3427
 7758SOL    HW134907   2.317   2.857   7.531  0.1847 -0.6492 -0.1832
 7758SOL    HW234908   2.261   2.983   7.475  1.4782  0.6610  1.2629
 7759SOL     OW34909   2.664   4.338   2.898  0.1461  0.5674 -0.1193
 7759SOL    HW134910   2.632   4.428   2.893 -1.7217 -0.0842  0.1917
 7759SOL    HW234911   2.759   4.343   2.890  0.3563 -1.5892  1.0571
 7760SOL     OW34912   4.369   2.194   4.154 -0.1894 -0.0889  0.2026
 7760SOL    HW134913   4.275   2.180   4.138 -0.1921  0.0324  0.1114
 7760SOL    HW234914   4.412   2.152   4.079  0.3210 -0.1979  0.5575
 7761SOL     OW34915   1.562   2.835   4.978 -0.0114 -0.8236 -0.2177
 7761SOL    HW134916   1.658   2.839   4.978 -0.0996  1.4152 -0.0822
 7761SOL    HW234917   1.543   2.910   5.034  0.8703 -0.1593 -0.8051
 7762SOL     OW34918   2.919   0.631   6.340  0.0665  0.0895  0.2849
 7762SOL    HW134919   2.988   0.581   6.296 -1.0296  0.4307 -1.8031
 7762SOL    HW234920   2.858   0.560   6.359  0.7574 -0.1484  1.6244
 7763SOL     OW34921   0.854   3.998   1.369 -0.0664 -0.2008  0.5073
 7763SOL    HW134922   0.776   3.947   1.349 -0.3190 -0.7408  2.8229
 7763SOL    HW234923   0.873   3.979   1.461  0.4474 -1.0712  0.2135
 7764SOL     OW34924   4.639   3.825   8.565 -0.0479  0.4743  0.0546
 7764SOL    HW134925   4.711   3.767   8.542  0.2696  0.6184  0.6902
 7764SOL    HW234926   4.697   3.886   8.612  0.3737  1.5098 -1.8107
 7765SOL     OW34927   2.657   3.607   5.962 -0.1873  0.6520  0.3814
 7765SOL    HW134928   2.643   3.541   6.030 -1.6919  1.3287  0.7250
 7765SOL    HW234929   2.571   3.607   5.921 -0.0301  3.2381  0.0646
 7766SOL     OW34930   4.600   1.063  13.946  0.9820  0.0495  0.4769
 7766SOL    HW134931   4.562   1.136  13.898 -1.4204 -1.2705  0.3908
 7766SOL    HW234932   4.657   1.015  13.885  1.9339  2.7309 -0.7128
 7767SOL     OW34933   3.002   2.523  15.006 -0.0472 -0.0084  0.0009
 7767SOL    HW134934   2.954   2.440  15.002 -0.8805  0.4465  0.6649
 7767SOL    HW234935   2.970   2.566  15.085  0.7417 -1.6540  1.2282
 7768SOL     OW34936   3.694   0.287   2.930 -0.1991 -0.0034  0.2262
 7768SOL    HW134937   3.628   0.344   2.889  0.4316  1.7366  1.6129
 7768SOL    HW234938   3.673   0.289   3.023  0.5396 -1.0744  0.4144
 7769SOL     OW34939   4.584   4.064  10.419  0.3885  0.1572 -0.0920
 7769SOL    HW134940   4.593   4.151  10.458 -0.9056  0.3209 -0.1745
 7769SOL    HW234941   4.526   4.082  10.346  0.1268  0.1105  0.1047
 7770SOL     OW34942   4.239   4.329  13.868  0.1961  0.0838  0.4170
 7770SOL    HW134943   4.305   4.390  13.836 -1.1199  2.4831  2.2154
 7770SOL    HW234944   4.175   4.392  13.902  0.9067 -0.4964  2.7830
 7771SOL     OW34945   4.457   4.368   5.814  0.0032  0.2140 -0.2647
 7771SOL    HW134946   4.528   4.432   5.818  0.2004 -0.0207 -0.0589
 7771SOL    HW234947   4.500   4.297   5.767  2.2898  3.6983 -3.3977
 7772SOL     OW34948   1.703   4.550   2.608  0.2561  0.1984  0.3260
 7772SOL    HW134949   1.758   4.604   2.665  0.4079 -0.2615  0.6188
 7772SOL    HW234950   1.629   4.526   2.665  0.0431  2.6670  1.0703
 7773SOL     OW34951   0.980   3.547   8.169 -0.1640 -0.1265 -0.0500
 7773SOL    HW134952   0.993   3.571   8.077  1.7901  1.7723  0.7568
 7773SOL    HW234953   1.062   3.520   8.209  0.7981  0.7238 -1.4460
 7774SOL     OW34954   1.302   1.194   2.242  0.2691 -0.3156  0.3545
 7774SOL    HW134955   1.294   1.172   2.149  0.8691 -1.5988  0.6151
 7774SOL    HW234956   1.305   1.290   2.242 -0.8615 -0.2494 -3.9277
 7775SOL     OW34957   4.464   1.391  10.829  0.2006 -0.1174  1.0562
 7775SOL    HW134958   4.465   1.351  10.916 -1.2799  0.8214  1.5093
 7775SOL    HW234959   4.530   1.339  10.782  0.0602  1.3422 -0.7668
 7776SOL     OW34960   2.261   0.846  11.782 -0.3500 -0.2226  0.0277
 7776SOL    HW134961   2.279   0.801  11.865  1.1924  2.3203  1.0514
 7776SOL    HW234962   2.167   0.835  11.769 -0.6317  1.3725  0.8216
 7777SOL     OW34963   2.645   1.560   8.924 -0.1896  0.5161 -0.2406
 7777SOL    HW134964   2.688   1.612   8.992  0.1251 -1.0285  0.7360
 7777SOL    HW234965   2.595   1.497   8.976  0.6153 -0.4026 -0.5740
 7778SOL     OW34966   1.917   2.267   3.832  0.1537  0.1689  0.4884
 7778SOL    HW134967   2.005   2.230   3.840  0.2307  0.7052  2.0573
 7778SOL    HW234968   1.919   2.358   3.861 -3.5171  1.2080 -2.5593
 7779SOL     OW34969   3.197   3.625   2.700 -0.1162 -0.0519 -0.0899
 7779SOL    HW134970   3.215   3.594   2.789 -1.7621 -1.0191 -0.1015
 7779SOL    HW234971   3.271   3.686   2.692  0.3048 -0.6739 -0.8768
 7780SOL     OW34972   4.381   4.227   6.081 -0.3662  0.2535 -0.2312
 7780SOL    HW134973   4.404   4.296   6.018 -1.5275  0.1733 -0.7280
 7780SOL    HW234974   4.408   4.149   6.033  0.6562  0.7772 -0.5126
 7781SOL     OW34975   0.885   4.542   1.850  0.8883  1.2655 -0.9049
 7781SOL    HW134976   0.898   4.551   1.755 -0.1990  0.4582 -1.1351
 7781SOL    HW234977   0.837   4.459   1.843 -0.6632  2.0454  0.6085
 7782SOL     OW34978   1.495   4.274   0.491 -0.7227 -0.1283 -0.1145
 7782SOL    HW134979   1.481   4.342   0.425 -3.0340 -2.2352 -1.7764
 7782SOL    HW234980   1.457   4.319   0.566 -0.0551 -1.1594  0.8350
 7783SOL     OW34981   1.814   1.769  13.487 -0.0113 -0.0187 -0.1345
 7783SOL    HW134982   1.839   1.708  13.417 -1.6400 -1.5521  0.6195
 7783SOL    HW234983   1.896   1.800  13.523 -1.1709  1.6012  1.1061
 7784SOL     OW34984   2.219   3.058   6.746 -0.2676  0.3526 -0.2396
 7784SOL    HW134985   2.126   3.038   6.752 -0.0442 -0.8804 -0.7849
 7784SOL    HW234986   2.224   3.136   6.800  0.4957  0.8520 -1.0199
 7785SOL     OW34987   4.638   3.158   0.196 -0.3308  0.3139  0.4619
 7785SOL    HW134988   4.644   3.129   0.105 -0.6761 -2.8121  1.4268
 7785SOL    HW234989   4.703   3.226   0.212  0.9679 -0.8632  0.1477
 7786SOL     OW34990   1.589   3.910  17.433 -0.0726 -0.1547 -0.0646
 7786SOL    HW134991   1.506   3.878  17.398  0.3756 -2.3260  0.8412
 7786SOL    HW234992   1.574   4.002  17.415  2.1093  0.0693 -0.8041
 7787SOL     OW34993   3.252   3.860   5.239  0.0878  0.4218 -0.1694
 7787SOL    HW134994   3.203   3.780   5.257 -3.5739  2.9374  1.1229
 7787SOL    HW234995   3.296   3.878   5.323  1.0994 -0.5871 -0.4831
 7788SOL     OW34996   3.507   2.544  14.598 -0.2772 -0.0865 -0.2430
 7788SOL    HW134997   3.534   2.636  14.600  0.4859 -0.2975 -0.6079
 7788SOL    HW234998   3.592   2.511  14.629  0.6972  0.4068 -2.4000
 7789SOL     OW34999   2.841   2.137   2.695  0.4311  0.5867  0.8058
 7789SOL    HW135000   2.898   2.082   2.641  1.4747  0.8512  1.6686
 7789SOL    HW235001   2.772   2.164   2.634 -0.5758  1.3643  2.2850
 7790SOL     OW35002   3.091   0.443   2.653  0.2870  0.3657  0.0077
 7790SOL    HW135003   3.026   0.513   2.664 -1.2528 -0.8257 -1.5455
 7790SOL    HW235004   3.117   0.444   2.561 -2.2098 -0.1341 -0.6930
 7791SOL     OW35005   1.796   4.624   4.209 -0.3020  0.2736 -0.3079
 7791SOL    HW135006   1.834   4.683   4.274 -1.4913 -1.9061  2.3694
 7791SOL    HW235007   1.708   4.624   4.248  0.6177 -0.6517  1.7717
 7792SOL     OW35008   2.593   4.386   8.647  0.0072 -0.3820 -0.1612
 7792SOL    HW135009   2.620   4.476   8.631  0.0084 -0.3309  0.1349
 7792SOL    HW235010   2.506   4.396   8.610 -0.8534 -0.2203  1.9287
 7793SOL     OW35011   4.552   3.827   2.773 -0.2649 -0.4858  0.8017
 7793SOL    HW135012   4.484   3.760   2.761 -0.4113 -0.7537  3.0787
 7793SOL    HW235013   4.545   3.827   2.868  0.7332 -2.1116  0.8898
 7794SOL     OW35014   3.169   1.443   8.289 -0.1732 -0.2139  0.0921
 7794SOL    HW135015   3.213   1.526   8.274  0.9254 -0.6238  1.0512
 7794SOL    HW235016   3.192   1.432   8.382  1.3332 -0.8844 -0.3607
 7795SOL     OW35017   0.044   4.406   1.212 -0.3686  0.4967  0.7160
 7795SOL    HW135018   0.014   4.335   1.269  1.1722 -1.4076 -0.8283
 7795SOL    HW235019   4.714   4.430   1.149  1.5931  2.2742 -0.7299
 7796SOL     OW35020   1.590   2.178   6.759 -0.1155 -0.5083 -0.6828
 7796SOL    HW135021   1.679   2.207   6.742 -0.2288  0.5393  0.4659
 7796SOL    HW235022   1.597   2.137   6.845 -0.4085 -2.6579 -1.7040
 7797SOL     OW35023   1.130   0.303   3.782 -0.4431  0.1780  0.6361
 7797SOL    HW135024   1.055   0.258   3.743 -2.2100  3.0746  0.6217
 7797SOL    HW235025   1.182   0.225   3.800 -0.3785  1.0991  4.4323
 7798SOL     OW35026   2.466   3.609   1.878  0.0323 -0.2354 -0.1965
 7798SOL    HW135027   2.434   3.698   1.868  0.0667 -0.4167 -1.8145
 7798SOL    HW235028   2.381   3.564   1.880  1.5589 -3.1075  1.2750
 7799SOL     OW35029   4.592   0.417   1.861  0.0251  0.1167  0.0678
 7799SOL    HW135030   4.658   0.357   1.897 -0.4864  1.2274  2.8284
 7799SOL    HW235031   4.588   0.379   1.773 -1.7815  1.9025 -0.6215
 7800SOL     OW35032   0.710   0.025  15.650  0.6067  0.2732  0.5619
 7800SOL    HW135033   0.684   0.113  15.623  0.6098  0.4228  1.0373
 7800SOL    HW235034   0.674   4.713  15.578  2.0373 -0.0202  0.0662
 7801SOL     OW35035   0.854   0.335   0.886  0.3325  0.0270  0.1865
 7801SOL    HW135036   0.893   0.396   0.949  1.0207 -0.6347  0.3970
 7801SOL    HW235037   0.912   0.345   0.811  0.0832 -0.7647 -0.1011
 7802SOL     OW35038   1.739   2.294   7.806 -0.1445  0.2079  0.0568
 7802SOL    HW135039   1.818   2.347   7.799  0.8741 -1.3560 -0.2382
 7802SOL    HW235040   1.664   2.347   7.780 -1.8819 -3.4753 -2.5307
 7803SOL     OW35041   0.047   3.322   0.431  0.0455 -0.6511 -0.8563
 7803SOL    HW135042   0.008   3.265   0.497  0.5225  1.1648  0.9954
 7803SOL    HW235043   4.719   3.391   0.420  0.9277 -0.0777 -2.5195
 7804SOL     OW35044   3.599   0.748   0.814  0.0814  0.3098 -0.4078
 7804SOL    HW135045   3.536   0.677   0.805 -0.3470  0.5788  0.4299
 7804SOL    HW235046   3.605   0.755   0.909 -0.2974 -1.5044 -0.2505
 7805SOL     OW35047   2.151   0.778   6.110 -0.4360 -0.5388  0.2304
 7805SOL    HW135048   2.168   0.822   6.194 -1.3430 -1.0561  0.6825
 7805SOL    HW235049   2.216   0.815   6.049  0.3861  0.6283  1.8003
 7806SOL     OW35050   3.311   1.860  16.102 -0.0345  0.4567  0.3142
 7806SOL    HW135051   3.392   1.831  16.146 -0.6013 -0.6969  0.6029
 7806SOL    HW235052   3.259   1.877  16.181  0.2754 -1.1779  0.8794
 7807SOL     OW35053   0.469   0.634   8.318  0.2871  0.2974  1.0750
 7807SOL    HW135054   0.551   0.611   8.274  0.0092 -0.0789  0.7595
 7807SOL    HW235055   0.487   0.606   8.408 -1.9808 -0.9291  1.1379
 7808SOL     OW35056   2.317   4.702   5.754 -0.1388  0.0624  0.3327
 7808SOL    HW135057   2.349   0.025   5.688 -0.9909  0.3289  0.1604
 7808SOL    HW235058   2.392   4.678   5.808  1.6387  1.5682 -1.4308
 7809SOL     OW35059   3.145   4.595   2.676  0.2509  0.2434  0.4340
 7809SOL    HW135060   3.183   4.588   2.764 -2.8887 -1.2593  1.6524
 7809SOL    HW235061   3.191   4.524   2.631  1.2863  1.0582  0.1913
 7810SOL     OW35062   2.280   3.484   4.153  0.1550  0.2661 -0.1146
 7810SOL    HW135063   2.253   3.409   4.205 -0.1291  0.2220 -0.3257
 7810SOL    HW235064   2.374   3.469   4.139  0.2586  1.3132 -0.6191
 7811SOL     OW35065   1.105   0.034   6.054 -0.2921  0.7770  0.0839
 7811SOL    HW135066   1.076   0.025   6.145  1.5756 -1.6031  0.4268
 7811SOL    HW235067   1.196   0.004   6.050 -0.7555 -0.4253 -1.4760
 7812SOL     OW35068   4.367   4.473   9.790 -0.3028  0.3563  0.5350
 7812SOL    HW135069   4.312   4.486   9.714  0.1536  0.2452  0.1861
 7812SOL    HW235070   4.455   4.498   9.763  0.2136 -0.1206  1.7557
 7813SOL     OW35071   0.936   2.865   5.592  0.1154 -0.5975  0.4653
 7813SOL    HW135072   0.925   2.861   5.497 -2.0298  2.2142  0.5963
 7813SOL    HW235073   0.849   2.836   5.620  0.5568  1.2378  3.6805
 7814SOL     OW35074   1.741   1.229  14.099  0.2517  0.3282  0.1916
 7814SOL    HW135075   1.813   1.221  14.036  1.2505  1.2382  1.2188
 7814SOL    HW235076   1.785   1.285  14.163  0.6654 -0.5291  0.6540
 7815SOL     OW35077   0.800   3.655   2.576 -0.0777  0.0156 -0.0630
 7815SOL    HW135078   0.832   3.576   2.619 -2.0139  1.0252  3.2431
 7815SOL    HW235079   0.888   3.689   2.557 -1.1507  2.2961 -0.9517
 7816SOL     OW35080   0.947   1.107   5.752 -0.1238 -0.3745 -0.3697
 7816SOL    HW135081   1.022   1.092   5.694 -0.5952  0.9772 -1.3259
 7816SOL    HW235082   0.986   1.120   5.838 -1.2104  0.3130  0.0196
 7817SOL     OW35083   1.602   2.051  15.118 -0.1423  0.0127  0.1999
 7817SOL    HW135084   1.692   2.048  15.153  0.1451 -1.0344 -0.6184
 7817SOL    HW235085   1.559   2.124  15.163  0.5896  0.6730 -0.1712
 7818SOL     OW35086   2.424   3.534   2.921 -0.4543 -0.1000  0.2231
 7818SOL    HW135087   2.453   3.443   2.934  4.2774  1.4229  0.4392
 7818SOL    HW235088   2.482   3.588   2.974  2.6484 -0.4051 -2.8323
 7819SOL     OW35089   4.541   0.695   7.227 -0.1756  0.1635  0.0636
 7819SOL    HW135090   4.488   0.657   7.297  1.4269 -1.6978  0.2786
 7819SOL    HW235091   4.544   0.619   7.169 -1.9702  2.7403 -3.3329
 7820SOL     OW35092   2.182   2.916  13.742  0.4139 -0.6331 -0.2351
 7820SOL    HW135093   2.207   2.921  13.834 -2.2226 -0.1654  0.4634
 7820SOL    HW235094   2.231   2.990  13.706  1.4869 -1.7461 -1.0687
 7821SOL     OW35095   1.674   1.047  12.898 -0.1977  0.0614 -0.2054
 7821SOL    HW135096   1.615   1.052  12.823 -2.0831 -2.2869  1.1496
 7821SOL    HW235097   1.743   1.111  12.878  0.5942 -0.6707  0.2004
 7822SOL     OW35098   1.427   3.321   8.601  0.4879 -0.3697 -0.2526
 7822SOL    HW135099   1.501   3.377   8.579 -1.7844  2.9858  0.6918
 7822SOL    HW235100   1.470   3.260   8.660 -0.0007 -0.3411  0.1346
 7823SOL     OW35101   3.140   1.030  10.851 -0.2602 -0.2955  0.5889
 7823SOL    HW135102   3.087   1.066  10.923 -1.3351 -1.4185  0.3651
 7823SOL    HW235103   3.154   0.940  10.879  0.6251 -0.8914 -1.7633
 7824SOL     OW35104   0.648   3.926   7.870  0.0531 -0.0121 -0.3665
 7824SOL    HW135105   0.604   3.966   7.795 -1.7173 -1.4199 -0.0676
 7824SOL    HW235106   0.729   3.899   7.826  0.9731  0.1485  1.2337
 7825SOL     OW35107   1.306   1.043   5.093  0.1386 -0.4771  0.3524
 7825SOL    HW135108   1.375   1.087   5.143  0.9156  0.9362 -1.9728
 7825SOL    HW235109   1.311   0.951   5.120 -1.4445 -0.7494 -0.3040
 7826SOL     OW35110   4.145   1.795   7.994  0.4454  0.1179 -0.4748
 7826SOL    HW135111   4.214   1.850   8.033 -0.0942 -0.3767  1.1553
 7826SOL    HW235112   4.176   1.801   7.904 -0.9413  1.3100 -0.8715
 7827SOL     OW35113   1.441   3.038   2.592  0.1371 -0.3615  0.3938
 7827SOL    HW135114   1.493   2.961   2.569 -1.4865 -1.3717  0.1596
 7827SOL    HW235115   1.356   3.016   2.555 -0.0288 -0.4004  0.8018
 7828SOL     OW35116   4.370   3.174   8.321 -0.0018 -0.0416  0.0169
 7828SOL    HW135117   4.386   3.194   8.413 -1.5485 -0.6339  0.4209
 7828SOL    HW235118   4.457   3.146   8.294  0.4476  1.9490 -0.5777
 7829SOL     OW35119   1.212   2.938   7.748 -0.1771  0.1902  0.0352
 7829SOL    HW135120   1.144   2.951   7.814  2.9089 -0.9656  3.4090
 7829SOL    HW235121   1.275   2.991   7.796 -0.1879  0.3399 -0.1188
 7830SOL     OW35122   0.412   1.401   2.686  0.2479  0.0160  0.0134
 7830SOL    HW135123   0.444   1.312   2.700 -0.4719 -0.3683 -0.7453
 7830SOL    HW235124   0.322   1.392   2.718  0.5067 -0.7741  0.5144
 7831SOL     OW35125   4.028   4.136  16.775  0.2890  0.2526 -0.2588
 7831SOL    HW135126   4.063   4.146  16.687 -0.2852 -1.6536 -0.6978
 7831SOL    HW235127   4.094   4.183  16.826  0.7848 -1.0844  0.3523
 7832SOL     OW35128   2.106   3.055   7.547  0.4494  0.2141  0.2498
 7832SOL    HW135129   2.097   3.135   7.496 -1.9863  1.4645  2.6561
 7832SOL    HW235130   2.015   3.028   7.558 -0.1689  1.6029 -1.5690
 7833SOL     OW35131   1.848   1.512   3.833  0.2674 -0.0025 -0.7050
 7833SOL    HW135132   1.763   1.486   3.870  1.0755 -1.2797  0.2558
 7833SOL    HW235133   1.869   1.589   3.885  0.0902  0.3187 -1.1082
 7834SOL     OW35134   1.542   0.614   9.364  0.5268  0.2214 -0.5854
 7834SOL    HW135135   1.633   0.634   9.342  0.4822  1.7689  0.6326
 7834SOL    HW235136   1.523   0.684   9.427 -0.3934 -0.6164  0.0809
 7835SOL     OW35137   2.957   3.272   4.713  0.5512 -0.8336  0.3479
 7835SOL    HW135138   2.942   3.348   4.657  0.9401  0.2812  1.7945
 7835SOL    HW235139   2.881   3.214   4.698 -0.3054  0.1915  0.7765
 7836SOL     OW35140   3.598   2.880  13.120 -0.4218  0.5336 -0.1142
 7836SOL    HW135141   3.688   2.854  13.139 -0.1927  1.2727 -0.1652
 7836SOL    HW235142   3.554   2.847  13.198 -1.7556 -0.1855 -1.1766
 7837SOL     OW35143   2.616   3.497   8.197  0.3302 -0.2852 -0.1114
 7837SOL    HW135144   2.608   3.443   8.276 -0.8046 -1.1282 -0.8259
 7837SOL    HW235145   2.567   3.574   8.224 -0.8641 -1.5800  1.3740
 7838SOL     OW35146   3.975   1.428  17.694  0.1858  0.0856  0.2976
 7838SOL    HW135147   4.019   1.506  17.729 -1.1147  0.6201  0.7610
 7838SOL    HW235148   4.001   1.359   0.003 -2.3858 -2.0655 -1.0414
 7839SOL     OW35149   3.264   0.103   9.330 -0.6747 -0.4016 -0.2102
 7839SOL    HW135150   3.177   0.131   9.358  0.3965  3.8673 -1.0566
 7839SOL    HW235151   3.295   0.046   9.401 -0.1864  0.1086 -0.0151
 7840SOL     OW35152   0.718   4.067   5.495 -0.0191 -0.3159 -0.1182
 7840SOL    HW135153   0.668   4.052   5.415  1.3428  2.0670 -1.3918
 7840SOL    HW235154   0.704   3.986   5.546  0.9205 -0.1441  0.4017
 7841SOL     OW35155   0.259   3.268   0.260  0.1904  0.4917 -0.5621
 7841SOL    HW135156   0.258   3.333   0.190 -2.6425  4.5358  3.1785
 7841SOL    HW235157   0.187   3.300   0.315  1.4396  0.8401  0.8747
 7842SOL     OW35158   3.342   4.129   6.054  0.2058  0.5547 -0.3203
 7842SOL    HW135159   3.309   4.156   6.140 -0.4991  0.0647 -0.4385
 7842SOL    HW235160   3.260   4.126   6.004 -0.1587  0.4501  0.2879
 7843SOL     OW35161   3.718   3.966  15.602  0.1428  0.0268  1.0434
 7843SOL    HW135162   3.672   3.951  15.520  1.9572 -1.8533  0.3651
 7843SOL    HW235163   3.716   3.875  15.630  1.1048  0.6981  3.2983
 7844SOL     OW35164   4.075   4.221   0.758 -0.0076 -0.5913  0.0713
 7844SOL    HW135165   4.168   4.198   0.755  0.2898  0.4509  1.1558
 7844SOL    HW235166   4.034   4.153   0.706 -0.3479  0.0116 -0.4540
 7845SOL     OW35167   4.646   1.920   0.218 -0.0804 -0.0435 -0.3347
 7845SOL    HW135168   4.689   1.965   0.145  1.1640 -0.7637 -0.0458
 7845SOL    HW235169   4.670   1.830   0.195 -0.2267  0.2725 -1.6953
 7846SOL     OW35170   3.781   3.316   2.811 -0.1989  0.1844 -0.4388
 7846SOL    HW135171   3.864   3.286   2.774 -0.9624 -2.7555  0.2745
 7846SOL    HW235172   3.815   3.351   2.893  0.2077 -0.2110 -0.4416
 7847SOL     OW35173   2.809   3.289   9.090 -0.4696  0.3336 -0.2347
 7847SOL    HW135174   2.813   3.334   9.174 -2.1057 -0.1117  0.0907
 7847SOL    HW235175   2.890   3.237   9.089 -0.9048 -0.4166  3.4711
 7848SOL     OW35176   3.327   0.273   2.389 -0.1785 -0.2537  0.0067
 7848SOL    HW135177   3.298   0.201   2.445 -3.0673  0.6654 -0.3426
 7848SOL    HW235178   3.263   0.269   2.318  0.4577  1.1403 -0.6534
 7849SOL     OW35179   0.085   1.292   7.023 -0.2205 -0.3051  0.3638
 7849SOL    HW135180   0.040   1.296   6.939  0.1629 -0.5523  0.1489
 7849SOL    HW235181   0.015   1.323   7.081 -0.6065  1.0470 -0.8447
 7850SOL     OW35182   0.194   3.012   7.592 -0.1428  0.1821  0.2157
 7850SOL    HW135183   0.138   3.073   7.543 -2.3068 -0.5960  1.7582
 7850SOL    HW235184   0.278   3.057   7.594 -0.6506  1.2528 -1.9459
 7851SOL     OW35185   2.038   1.258   5.917 -0.2610 -0.3030 -0.2881
 7851SOL    HW135186   2.127   1.258   5.882 -0.1116 -0.5663  0.0886
 7851SOL    HW235187   2.016   1.165   5.915 -1.6566 -0.0299  2.1391
 7852SOL     OW35188   3.461   2.500   0.669 -0.6055 -0.0409  0.4158
 7852SOL    HW135189   3.487   2.565   0.603 -2.3080 -0.5615 -0.7491
 7852SOL    HW235190   3.419   2.441   0.607  0.1126 -0.2409  0.1152
 7853SOL     OW35191   3.899   3.053   2.917  0.0078 -0.2131  0.5726
 7853SOL    HW135192   3.823   3.089   2.871 -0.0394 -1.3470 -0.2356
 7853SOL    HW235193   3.854   3.020   2.994 -1.3795 -0.5383 -0.3839
 7854SOL     OW35194   4.065   3.176   2.248  0.5511 -0.1357 -0.2061
 7854SOL    HW135195   4.031   3.237   2.183 -0.2792 -1.0308 -0.6126
 7854SOL    HW235196   4.007   3.100   2.243 -2.9331  2.5236 -0.2472
 7855SOL     OW35197   0.034   2.056   6.799 -0.1361 -0.3641  0.3863
 7855SOL    HW135198   4.692   2.053   6.747  0.1851  1.0597 -0.1909
 7855SOL    HW235199   0.024   2.143   6.836 -0.6278 -0.5610  0.7176
 7856SOL     OW35200   0.150   2.515   3.829  0.4501  0.2370 -0.5114
 7856SOL    HW135201   0.112   2.431   3.806 -1.0256  0.4192  1.2625
 7856SOL    HW235202   0.244   2.498   3.829  0.3004 -0.6011 -0.5679
 7857SOL     OW35203   3.722   4.321   2.052 -0.4968  0.1415 -0.0606
 7857SOL    HW135204   3.744   4.391   2.113  0.1881  2.1646 -2.6387
 7857SOL    HW235205   3.657   4.275   2.104  0.5144 -1.8343 -0.5279
 7858SOL     OW35206   4.525   3.034   7.199 -0.0442  0.0400  0.2704
 7858SOL    HW135207   4.564   2.960   7.152  0.9701  0.2505  0.7882
 7858SOL    HW235208   4.569   3.103   7.149 -0.3452  0.6592  0.8739
 7859SOL     OW35209   4.497   2.345   4.599  0.4079 -0.4965  0.3587
 7859SOL    HW135210   4.437   2.285   4.555  1.5270 -1.1320 -0.3119
 7859SOL    HW235211   4.575   2.336   4.544 -0.3307  0.6362 -0.8710
 7860SOL     OW35212   0.756   3.606   4.465 -0.1127  0.4173 -0.0024
 7860SOL    HW135213   0.731   3.594   4.373  2.1539 -2.1446 -0.2742
 7860SOL    HW235214   0.851   3.601   4.459 -0.0535 -1.6721  2.7707
 7861SOL     OW35215   3.353   0.076  16.442 -0.1144 -0.1553 -0.2043
 7861SOL    HW135216   3.313   0.146  16.390 -1.5866 -0.6170  0.2964
 7861SOL    HW235217   3.443   0.097  16.420  0.0457  0.6574  1.1763
 7862SOL     OW35218   3.710   0.150   5.922  0.0768 -0.2676  0.0907
 7862SOL    HW135219   3.791   0.110   5.953 -0.0354  1.0002  2.0512
 7862SOL    HW235220   3.699   0.090   5.849 -0.4735  1.7496 -1.4642
 7863SOL     OW35221   1.568   1.825   5.960 -0.6224  0.4001  0.1894
 7863SOL    HW135222   1.526   1.773   6.029 -1.9138  0.8063 -0.2860
 7863SOL    HW235223   1.649   1.775   5.958  0.7759  2.7190 -1.2426
 7864SOL     OW35224   2.069   0.837  17.705 -0.5455  0.6314 -0.1675
 7864SOL    HW135225   2.064   0.788   0.036 -0.7863  0.7813 -0.0927
 7864SOL    HW235226   2.031   0.771  17.647  0.2865  0.9246 -1.0425
 7865SOL     OW35227   3.777   2.939   6.650 -0.2155 -0.1218  0.5532
 7865SOL    HW135228   3.703   2.947   6.590  2.2245  3.8632 -1.9865
 7865SOL    HW235229   3.750   3.005   6.714  0.7348  2.0563 -1.2734
 7866SOL     OW35230   4.713   1.734   1.989  0.3843  0.5325 -0.2883
 7866SOL    HW135231   4.627   1.735   2.032  1.7389  0.7217  2.4646
 7866SOL    HW235232   4.698   1.659   1.931 -1.3810  1.7568 -1.4226
 7867SOL     OW35233   4.374   2.586   6.364 -0.0810  0.4955  0.3798
 7867SOL    HW135234   4.384   2.672   6.405  0.4373  0.2646  0.7349
 7867SOL    HW235235   4.463   2.552   6.360 -0.1612  0.2434  0.8425
 7868SOL     OW35236   1.925   3.281  15.955 -0.1846  0.8822  0.1789
 7868SOL    HW135237   1.926   3.236  15.870 -1.0531  0.1925  0.5365
 7868SOL    HW235238   1.833   3.284  15.982  0.2219  0.7873  1.5670
 7869SOL     OW35239   2.590   2.879   0.857  0.2197  0.1974  0.1276
 7869SOL    HW135240   2.508   2.912   0.895  0.1224 -0.2743  0.3231
 7869SOL    HW235241   2.636   2.961   0.839 -1.5618  0.4215 -3.3040
 7870SOL     OW35242   1.157   4.649   5.118  0.0450  0.3413 -0.7027
 7870SOL    HW135243   1.103   4.687   5.187  1.0082 -0.9566  0.7749
 7870SOL    HW235244   1.235   4.704   5.124 -0.0989  0.5096 -0.3884
 7871SOL     OW35245   0.493   0.929   3.074  0.7874 -0.3032 -0.4804
 7871SOL    HW135246   0.410   0.881   3.077  0.6729 -0.0319  0.7162
 7871SOL    HW235247   0.555   0.858   3.062  0.5474 -0.6982  0.6594
 7872SOL     OW35248   4.651   4.548  17.556  0.4466  0.1488 -0.3519
 7872SOL    HW135249   4.671   4.603  17.480 -0.3188 -0.3409 -0.8923
 7872SOL    HW235250   4.736   4.546  17.600  1.1191 -0.3280 -1.6853
 7873SOL     OW35251   2.438   3.678   5.802  0.4136 -0.3859  0.6378
 7873SOL    HW135252   2.477   3.643   5.721 -2.4294  0.4272 -1.1175
 7873SOL    HW235253   2.359   3.625   5.814  0.0721  0.0480  0.3355
 7874SOL     OW35254   2.270   4.677   4.452 -0.6383 -0.2151  0.3216
 7874SOL    HW135255   2.260   4.653   4.360 -0.3953  0.7270  0.0601
 7874SOL    HW235256   2.330   0.013   4.449 -0.1562 -0.6871 -1.8419
 7875SOL     OW35257   4.045   3.841   8.049 -0.2353  0.2441  0.1339
 7875SOL    HW135258   3.983   3.821   8.119  1.3873 -2.4630  0.7678
 7875SOL    HW235259   4.119   3.791   8.083 -0.2709 -1.2020 -1.8940
 7876SOL     OW35260   3.427   4.343  17.430 -0.0505 -0.2723 -0.1931
 7876SOL    HW135261   3.501   4.283  17.439 -0.7266 -0.5791  3.2756
 7876SOL    HW235262   3.423   4.356  17.335 -2.4606 -0.6992 -0.1482
 7877SOL     OW35263   1.928   2.251   3.383 -0.0512 -0.3950 -0.2492
 7877SOL    HW135264   1.967   2.335   3.407 -1.2910  0.0661  0.1525
 7877SOL    HW235265   1.947   2.206   3.465  1.4743  0.6305 -0.0548
 7878SOL     OW35266   2.514   1.168  10.265  0.1390 -0.4831  0.0014
 7878SOL    HW135267   2.578   1.239  10.272 -1.0866  0.3109  3.1324
 7878SOL    HW235268   2.459   1.190  10.340  0.1956 -0.1807 -0.0472
 7879SOL     OW35269   2.958   4.231   9.282 -0.5268 -0.3945  0.1967
 7879SOL    HW135270   2.883   4.173   9.274 -1.4125  0.7145  0.4788
 7879SOL    HW235271   2.997   4.226   9.195 -0.4134 -2.2197  0.3560
 7880SOL     OW35272   2.274   4.281   7.664  0.1226 -0.0930  0.2405
 7880SOL    HW135273   2.318   4.274   7.579 -0.8661  1.3268 -0.3776
 7880SOL    HW235274   2.340   4.339   7.704 -0.3801  0.4885  0.2331
 7881SOL     OW35275   0.634   3.442   6.492  0.2049 -0.1636 -0.0183
 7881SOL    HW135276   0.556   3.431   6.438 -0.1070 -0.2684  0.4612
 7881SOL    HW235277   0.638   3.538   6.492  1.0239 -0.1952 -2.3921
 7882SOL     OW35278   4.154   0.407  12.260 -0.4256 -0.1041  0.1427
 7882SOL    HW135279   4.223   0.370  12.205 -0.1235 -2.7283  2.2858
 7882SOL    HW235280   4.184   0.374  12.344  0.8582 -0.6981 -0.5411
 7883SOL     OW35281   0.845   1.354   9.580  0.4381 -0.1696  0.1001
 7883SOL    HW135282   0.757   1.389   9.567  0.7104  0.8355  0.9407
 7883SOL    HW235283   0.841   1.285   9.514 -1.4392  1.6909 -1.7487
 7884SOL     OW35284   0.393   4.685  11.041  0.0731  0.5973 -0.0848
 7884SOL    HW135285   0.462   4.632  11.002  1.0896  0.7962  1.4437
 7884SOL    HW235286   0.447   4.732  11.105  2.1107 -2.9304  0.7530
 7885SOL     OW35287   2.243   3.531   1.627  0.5198  0.6117 -0.0060
 7885SOL    HW135288   2.157   3.570   1.611  0.1408 -0.0275  0.4457
 7885SOL    HW235289   2.208   3.442   1.627  2.0470  0.0139 -0.2195
 7886SOL     OW35290   1.799   1.112  12.447 -0.0334 -0.3542  0.0663
 7886SOL    HW135291   1.802   1.098  12.352 -1.1420 -0.9307  0.1212
 7886SOL    HW235292   1.730   1.051  12.473 -0.3389 -0.6794 -1.5060
 7887SOL     OW35293   0.753   1.812   6.317 -0.2980 -0.1140 -0.5158
 7887SOL    HW135294   0.707   1.855   6.389  1.8559  0.9338  0.2359
 7887SOL    HW235295   0.727   1.721   6.333  3.0613 -0.5031  2.6948
 7888SOL     OW35296   0.232   1.979   5.340  0.5163 -0.3167  0.1310
 7888SOL    HW135297   0.256   2.059   5.387 -0.0134 -0.9768  1.5454
 7888SOL    HW235298   0.170   2.014   5.276 -0.2117 -0.8622  0.5377
 7889SOL     OW35299   4.612   3.731  11.479 -0.1756  0.0819  0.1835
 7889SOL    HW135300   4.521   3.756  11.495 -0.4671 -2.1912  2.1689
 7889SOL    HW235301   4.613   3.729  11.384 -0.0483 -1.9163  0.2232
 7890SOL     OW35302   3.093   0.623   3.304  0.4018  0.3950  0.7660
 7890SOL    HW135303   3.017   0.649   3.355  0.1760 -0.3757  0.8159
 7890SOL    HW235304   3.057   0.578   3.227  0.2899 -0.1602  1.1475
 7891SOL     OW35305   0.964   4.315   1.575 -0.2297  0.1527 -0.7258
 7891SOL    HW135306   0.892   4.337   1.517  0.2641  0.6422 -1.1538
 7891SOL    HW235307   0.944   4.234   1.623  0.1334  1.3434  1.4361
 7892SOL     OW35308   4.122   2.108   2.958 -0.7643 -0.5191  0.1474
 7892SOL    HW135309   4.157   2.022   2.982 -1.4978 -0.7360  0.4395
 7892SOL    HW235310   4.145   2.119   2.866  0.4750  0.4117  0.5728
 7893SOL     OW35311   2.292   3.989   7.943  0.7973  0.3078 -0.5522
 7893SOL    HW135312   2.325   3.902   7.965  0.1991  0.6624  1.7333
 7893SOL    HW235313   2.320   4.041   8.019 -0.5686  0.5530 -0.2322
 7894SOL     OW35314   0.949   4.154   4.036  0.3341  0.2152 -0.4037
 7894SOL    HW135315   1.012   4.099   3.989 -1.8383 -0.2033 -2.8075
 7894SOL    HW235316   0.906   4.093   4.095  0.2597 -1.3758 -2.1200
 7895SOL     OW35317   3.743   3.167  14.827 -0.4823  0.2112  0.5891
 7895SOL    HW135318   3.666   3.179  14.882 -0.7449  2.8399 -0.3605
 7895SOL    HW235319   3.794   3.114  14.888 -0.5709 -1.3353 -0.6639
 7896SOL     OW35320   4.314   4.401   7.975 -0.0748  0.0692  0.0244
 7896SOL    HW135321   4.267   4.483   7.988  1.0340  0.9552 -1.4426
 7896SOL    HW235322   4.287   4.356   8.055 -0.5445  1.1115  0.4462
 7897SOL     OW35323   2.291   1.595   7.801 -0.2015 -0.1877  0.1714
 7897SOL    HW135324   2.209   1.596   7.753 -0.1979  0.2607  0.1817
 7897SOL    HW235325   2.351   1.648   7.748 -1.9897  1.8141  0.1831
 7898SOL     OW35326   1.140   3.621  10.419 -0.1349 -0.1415 -0.3235
 7898SOL    HW135327   1.170   3.532  10.440  4.2190  0.7912 -2.6535
 7898SOL    HW235328   1.110   3.620  10.328 -0.2047  0.3785 -0.3017
 7899SOL     OW35329   1.434   3.028   5.110 -0.4679  0.5099  0.8279
 7899SOL    HW135330   1.352   3.051   5.066 -1.1971 -0.6063  1.6063
 7899SOL    HW235331   1.417   3.053   5.201 -2.1419 -1.2570  0.9793
 7900SOL     OW35332   0.557   4.627   4.761 -0.1155  0.4941  0.1751
 7900SOL    HW135333   0.483   4.611   4.820 -0.3739 -3.2025 -1.1199
 7900SOL    HW235334   0.551   4.720   4.739 -0.1333  0.2945 -0.6475
 7901SOL     OW35335   1.360   0.099   5.109  0.5656  0.1432 -0.2365
 7901SOL    HW135336   1.441   0.150   5.115  0.5677  0.1510 -0.3221
 7901SOL    HW235337   1.299   0.167   5.135  1.9129  0.3514  2.4022
 7902SOL     OW35338   2.037   3.974   4.556 -0.0053  0.0495 -0.0316
 7902SOL    HW135339   2.113   4.031   4.567  0.9886 -0.8886 -1.9587
 7902SOL    HW235340   2.007   3.992   4.645 -1.8308 -1.4027 -0.3516
 7903SOL     OW35341   0.642   0.587   4.634  0.4424  0.7015 -0.2560
 7903SOL    HW135342   0.717   0.561   4.580  0.9888 -2.1483  1.8525
 7903SOL    HW235343   0.662   0.681   4.637  0.1757  0.7044  1.9263
 7904SOL     OW35344   0.160   2.409   3.038  0.3828 -0.1731  0.0730
 7904SOL    HW135345   0.085   2.359   3.007  1.3332  0.2417 -2.8972
 7904SOL    HW235346   0.182   2.363   3.119  0.5780  0.1088  0.1805
 7905SOL     OW35347   4.659   0.486   6.157 -0.2790  0.5779 -0.2177
 7905SOL    HW135348   4.619   0.572   6.146 -0.7527  0.3688 -0.1370
 7905SOL    HW235349   4.700   0.488   6.244 -0.1251 -0.0097 -0.2696
 7906SOL     OW35350   4.137   3.597  15.358 -0.1699 -0.6483 -0.6033
 7906SOL    HW135351   4.201   3.612  15.288  0.0618 -0.0745 -0.2638
 7906SOL    HW235352   4.187   3.535  15.412  0.0241 -1.8741 -2.1819
 7907SOL     OW35353   4.572   3.064   2.195  0.0484  0.3410 -0.0433
 7907SOL    HW135354   4.639   3.132   2.206  1.3762 -1.2810  2.0792
 7907SOL    HW235355   4.492   3.104   2.229 -1.4797 -1.7495 -1.2225
 7908SOL     OW35356   3.425   1.588   8.894  0.2962 -0.0601 -0.2866
 7908SOL    HW135357   3.485   1.616   8.963 -1.2429  2.0295  0.2072
 7908SOL    HW235358   3.353   1.567   8.954  0.1659 -1.4692 -0.9453
 7909SOL     OW35359   3.465   2.368   9.394  0.6092  0.2936 -0.2013
 7909SOL    HW135360   3.515   2.377   9.476  0.9223 -0.5263 -0.3042
 7909SOL    HW235361   3.378   2.352   9.429  0.4899  0.8183 -0.2599
 7910SOL     OW35362   0.082   1.202   5.655  0.3448  0.5543  0.8513
 7910SOL    HW135363   0.013   1.221   5.718 -0.9655  0.1683 -0.4602
 7910SOL    HW235364   0.094   1.283   5.605  1.4475  0.1632  0.4707
 7911SOL     OW35365   3.254   0.429   4.956 -0.9053  0.3040  0.1373
 7911SOL    HW135366   3.226   0.391   5.039  1.6861 -2.1901 -0.0929
 7911SOL    HW235367   3.275   0.519   4.980  0.1935  0.1085 -0.0598
 7912SOL     OW35368   0.794   4.221   5.731  0.0899  0.0629 -0.1534
 7912SOL    HW135369   0.730   4.276   5.776  1.1126  0.5041  0.7549
 7912SOL    HW235370   0.761   4.189   5.646  1.6490  0.0738 -0.7551
 7913SOL     OW35371   2.003   3.194   7.890  0.0151  0.5067  0.0336
 7913SOL    HW135372   2.030   3.196   7.981 -0.0672  0.5616  0.0565
 7913SOL    HW235373   2.036   3.281   7.865 -1.2247  1.7200  2.6374
 7914SOL     OW35374   3.890   4.665   2.683 -0.0863 -0.1340 -0.0834
 7914SOL    HW135375   3.837   4.589   2.710  1.6846 -1.7436 -1.1657
 7914SOL    HW235376   3.905   4.645   2.591  1.6778  1.2479 -0.0913
 7915SOL     OW35377   3.135   4.464   6.768  0.5226  0.2527  0.2925
 7915SOL    HW135378   3.124   4.533   6.834 -1.5026 -0.8248  1.0816
 7915SOL    HW235379   3.231   4.458   6.773  0.2983 -1.5910  2.1375
 7916SOL     OW35380   1.130   2.964   6.116 -0.0217  0.4216 -0.4227
 7916SOL    HW135381   1.218   2.928   6.116  0.1441  0.8369  1.0455
 7916SOL    HW235382   1.134   3.059   6.102  1.0218  0.4089 -0.1567
 7917SOL     OW35383   1.184   0.770   5.018 -0.5236  0.2979 -0.1356
 7917SOL    HW135384   1.108   0.824   4.995 -1.4703 -1.0996 -0.3184
 7917SOL    HW235385   1.154   0.749   5.107  0.1756  0.6485  0.1829
 7918SOL     OW35386   2.277   4.714  11.228 -0.0829 -0.1713 -0.4014
 7918SOL    HW135387   2.281   4.618  11.235 -1.6584 -0.1281  0.8244
 7918SOL    HW235388   2.321   4.736  11.310 -1.6891  0.9255  0.1521
 7919SOL     OW35389   1.630   0.390   5.520 -0.4051 -0.0387 -0.0636
 7919SOL    HW135390   1.651   0.392   5.427  1.1654 -0.5572  0.2890
 7919SOL    HW235391   1.630   0.295   5.534  0.5921  0.2441  1.8454
 7920SOL     OW35392   2.577   1.951  17.202  0.6475  0.6617 -0.3140
 7920SOL    HW135393   2.636   1.879  17.177 -1.3210 -0.7165 -1.0354
 7920SOL    HW235394   2.602   2.017  17.137  0.8297  0.1196 -0.7980
 7921SOL     OW35395   3.214   1.636   9.896 -0.1713  0.5456  0.1304
 7921SOL    HW135396   3.259   1.644   9.811 -0.5586  2.1938  0.0834
 7921SOL    HW235397   3.293   1.603   9.939 -0.5098  0.8138  0.9407
 7922SOL     OW35398   3.418   2.663   9.928 -0.0636 -0.1890 -0.1579
 7922SOL    HW135399   3.473   2.664   9.849  0.2922 -0.5539  0.0820
 7922SOL    HW235400   3.330   2.670   9.891 -0.5992 -0.5539  1.0643
 7923SOL     OW35401   2.607   0.739   8.396  0.0609  0.2960  0.3408
 7923SOL    HW135402   2.686   0.785   8.423 -1.5920  3.4619 -0.2263
 7923SOL    HW235403   2.575   0.724   8.485  1.3277  0.5893  0.8400
 7924SOL     OW35404   4.541   3.705  11.224 -0.3611 -0.0680 -0.1322
 7924SOL    HW135405   4.616   3.706  11.165  0.6566  1.3969  1.1844
 7924SOL    HW235406   4.470   3.722  11.162  1.3866  1.5446 -1.6512
 7925SOL     OW35407   0.812   4.589   5.121  0.3233 -0.2517 -0.7743
 7925SOL    HW135408   0.783   4.554   5.205  2.8866 -1.3535 -0.3440
 7925SOL    HW235409   0.878   4.656   5.140  0.0858  0.0419 -0.9918
 7926SOL     OW35410   1.617   1.197   5.436 -0.0519  0.4596  0.7746
 7926SOL    HW135411   1.703   1.177   5.475  0.0199 -0.4367  0.1618
 7926SOL    HW235412   1.561   1.199   5.513 -0.2057 -0.8707  0.7042
 7927SOL     OW35413   3.545   3.533  12.126 -0.0335  0.4144 -0.1169
 7927SOL    HW135414   3.573   3.613  12.172  0.0963  0.0783  0.3900
 7927SOL    HW235415   3.533   3.478  12.203 -0.0345  0.1532 -0.3053
 7928SOL     OW35416   1.485   4.210   8.820 -0.1929 -0.0812 -0.0166
 7928SOL    HW135417   1.449   4.121   8.829  1.0679 -0.6117 -0.2261
 7928SOL    HW235418   1.444   4.241   8.740 -0.6543  1.3234  0.7776
 7929SOL     OW35419   1.076   4.083   8.025  0.1305 -0.6418 -0.3703
 7929SOL    HW135420   1.155   4.071   7.971  0.1393 -0.9489 -0.2895
 7929SOL    HW235421   1.044   4.167   7.992  0.3005 -0.9523 -1.3190
 7930SOL     OW35422   2.111   1.207   3.665 -0.3486 -0.1657 -0.4338
 7930SOL    HW135423   2.110   1.254   3.748 -2.7462 -1.4887  0.3048
 7930SOL    HW235424   2.205   1.189   3.668 -0.3041 -0.0298 -0.9848
 7931SOL     OW35425   3.714   2.834   0.635 -0.0215 -0.3208  0.5159
 7931SOL    HW135426   3.645   2.900   0.621 -0.9218 -1.7313 -1.7855
 7931SOL    HW235427   3.694   2.762   0.574 -1.3896 -0.5917  1.2768
 7932SOL     OW35428   2.804   1.719   5.970  0.3351  0.5551  0.0358
 7932SOL    HW135429   2.886   1.690   5.931 -0.2024  0.7908 -1.2850
 7932SOL    HW235430   2.838   1.742   6.056 -1.2172 -0.1347  0.8231
 7933SOL     OW35431   3.086   2.573  16.402  0.5823 -0.3976  0.4366
 7933SOL    HW135432   3.180   2.586  16.415  0.8241 -0.0887 -1.4964
 7933SOL    HW235433   3.065   2.513  16.473  1.5546 -0.5346  0.6134
 7934SOL     OW35434   1.218   3.731   5.859 -0.0081 -0.1625  0.0912
 7934SOL    HW135435   1.167   3.812   5.863 -0.1654 -0.0954 -2.8446
 7934SOL    HW235436   1.284   3.754   5.793  0.1158 -0.9139 -0.0468
 7935SOL     OW35437   1.135   1.007  12.514  0.5175  0.3672  0.1426
 7935SOL    HW135438   1.184   0.925  12.524 -2.1050 -1.1238  0.9691
 7935SOL    HW235439   1.047   0.970  12.520  0.1646  1.1085 -0.4820
 7936SOL     OW35440   3.059   1.105   8.166  0.2844  0.0877 -0.0327
 7936SOL    HW135441   3.126   1.039   8.147  1.3742  1.6197 -1.5678
 7936SOL    HW235442   2.976   1.058   8.165  0.4644 -0.2207 -1.4057
 7937SOL     OW35443   1.242   2.485  12.751  0.6165 -0.1992 -0.3871
 7937SOL    HW135444   1.150   2.503  12.769  0.4358 -0.3776 -1.1003
 7937SOL    HW235445   1.272   2.571  12.779 -0.9770  0.3984 -0.5189
 7938SOL     OW35446   1.392   2.789   1.057  0.3137  0.1209 -0.7517
 7938SOL    HW135447   1.390   2.694   1.064  1.6075  0.0725 -1.0235
 7938SOL    HW235448   1.355   2.797   0.969  0.6676  1.4583 -0.7782
 7939SOL     OW35449   4.714   2.295  13.293 -0.6118  0.6181  0.3958
 7939SOL    HW135450   0.010   2.236  13.360 -1.6018 -0.2624  0.1271
 7939SOL    HW235451   0.017   2.374  13.327 -0.8724  0.9089  0.0383
 7940SOL     OW35452   1.352   4.106   3.550  0.0539 -0.0862  0.6523
 7940SOL    HW135453   1.260   4.135   3.555 -0.3042 -1.5445  2.3589
 7940SOL    HW235454   1.352   4.036   3.485  1.7859  0.4833  0.0455
 7941SOL     OW35455   3.762   1.619  14.021  0.0722 -0.6368 -0.7135
 7941SOL    HW135456   3.735   1.690  14.079 -0.3343 -0.3478 -1.2643
 7941SOL    HW235457   3.720   1.547  14.069 -0.5789  0.6710  0.6755
 7942SOL     OW35458   0.483   3.341   6.787 -0.1976  0.2081 -0.2144
 7942SOL    HW135459   0.537   3.395   6.730  0.7290 -2.4944 -1.9269
 7942SOL    HW235460   0.490   3.255   6.745 -0.5186  0.5365 -0.9356
 7943SOL     OW35461   1.587   2.252   8.704 -0.1535 -0.0865 -1.0332
 7943SOL    HW135462   1.636   2.271   8.784 -1.7496  0.2042 -0.1080
 7943SOL    HW235463   1.516   2.316   8.713 -0.6118 -0.6927 -0.3022
 7944SOL     OW35464   2.656   0.152  14.396 -0.1317  0.3453 -0.5869
 7944SOL    HW135465   2.635   0.138  14.489  0.6068 -0.1387 -0.4889
 7944SOL    HW235466   2.641   0.063  14.363 -1.7478  0.0282  0.9940
 7945SOL     OW35467   1.652   2.330   7.212  0.6379 -0.0815 -0.4555
 7945SOL    HW135468   1.614   2.294   7.292  0.9561  0.0196 -0.2584
 7945SOL    HW235469   1.582   2.385   7.178 -1.2195 -0.0359  3.4108
 7946SOL     OW35470   0.130   2.173   8.576 -0.1230 -0.2083  0.1775
 7946SOL    HW135471   0.094   2.207   8.494  1.1904 -3.2238 -1.6880
 7946SOL    HW235472   0.048   2.151   8.619 -0.7022  2.1726  0.2717
 7947SOL     OW35473   2.688   1.341  14.435 -0.3755  0.4456 -0.9133
 7947SOL    HW135474   2.774   1.351  14.394  0.2511 -1.2138 -0.0270
 7947SOL    HW235475   2.687   1.245  14.431  1.5291  0.4464 -1.6106
 7948SOL     OW35476   0.690   0.746   4.972 -0.3068  0.3477  0.1943
 7948SOL    HW135477   0.734   0.748   4.887  0.5819 -0.0234  0.6454
 7948SOL    HW235478   0.623   0.814   4.961  0.3167  1.1255  1.2535
 7949SOL     OW35479   4.017   3.988   0.568  0.3510  0.3788 -0.0518
 7949SOL    HW135480   4.077   3.922   0.603  2.5573  1.6678 -1.3567
 7949SOL    HW235481   4.070   4.003   0.490  0.5254 -1.1753 -0.2329
 7950SOL     OW35482   2.677   1.817   5.532 -0.0613 -0.0842  0.4853
 7950SOL    HW135483   2.646   1.838   5.444  4.0649 -0.5251 -1.0818
 7950SOL    HW235484   2.671   1.721   5.528 -1.8401  0.0192  0.4102
 7951SOL     OW35485   3.489   4.056   9.150  0.5208 -0.3462 -0.1698
 7951SOL    HW135486   3.444   4.122   9.203  1.1202 -0.2858  0.2709
 7951SOL    HW235487   3.576   4.055   9.190  0.3453  0.0340  0.2156
 7952SOL     OW35488   0.634   4.542   0.635  0.3247 -0.2269 -0.5384
 7952SOL    HW135489   0.716   4.583   0.607  0.2949  0.3725  0.2541
 7952SOL    HW235490   0.654   4.459   0.592 -1.1764 -0.1739 -1.3309
 7953SOL     OW35491   3.367   3.019   4.924  0.3678 -0.0677  0.1789
 7953SOL    HW135492   3.359   2.956   4.853 -0.3521  0.3847 -0.1408
 7953SOL    HW235493   3.430   3.083   4.892  0.0153 -0.1325 -0.6261
 7954SOL     OW35494   1.062   0.751  10.751 -0.4113  0.0875 -0.1862
 7954SOL    HW135495   1.128   0.786  10.811 -2.1800 -1.0605  2.4671
 7954SOL    HW235496   1.116   0.677  10.723 -0.3524 -0.1216  0.4602
 7955SOL     OW35497   0.545   1.112   0.339 -0.2317  0.2536  0.3961
 7955SOL    HW135498   0.461   1.118   0.385  0.0709 -0.3797  1.0372
 7955SOL    HW235499   0.512   1.130   0.251  0.6721 -1.1097 -0.2091
 7956SOL     OW35500   4.483   2.005   3.097 -0.0153 -0.2494  0.0546
 7956SOL    HW135501   4.431   2.077   3.135  1.3945 -0.7392  2.9388
 7956SOL    HW235502   4.441   1.929   3.136 -0.9795 -0.1149 -0.7203
 7957SOL     OW35503   0.663   0.563   6.611  0.0376 -0.3808  0.2832
 7957SOL    HW135504   0.595   0.511   6.654 -0.6513 -0.6389 -1.1403
 7957SOL    HW235505   0.614   0.645   6.615  1.8825  0.7184  0.0161
 7958SOL     OW35506   3.190   1.336   8.031 -0.1380 -0.1925  0.3974
 7958SOL    HW135507   3.166   1.360   8.121 -1.1575  2.4696 -0.6076
 7958SOL    HW235508   3.139   1.255   8.023 -0.4692  0.1347 -0.7571
 7959SOL     OW35509   2.559   0.553   4.938 -0.0437  1.1526  0.1199
 7959SOL    HW135510   2.527   0.640   4.912 -2.1507  0.6172  0.9538
 7959SOL    HW235511   2.653   0.571   4.940  0.1083  0.4982 -1.0053
 7960SOL     OW35512   2.000   4.114   6.740  0.0613  0.6892 -0.0663
 7960SOL    HW135513   1.979   4.096   6.831 -1.2676  1.3048 -0.2467
 7960SOL    HW235514   2.066   4.183   6.751 -1.5817  2.1924  0.3620
 7961SOL     OW35515   4.330   2.435   5.111 -0.1818  0.2213  0.0178
 7961SOL    HW135516   4.300   2.370   5.047 -0.0107 -0.2123  0.3754
 7961SOL    HW235517   4.290   2.415   5.196  1.0924  2.0670  1.0408
 7962SOL     OW35518   2.821   1.814  16.667 -0.1130  0.3433 -0.7107
 7962SOL    HW135519   2.747   1.831  16.726  0.1720  0.9856 -0.5308
 7962SOL    HW235520   2.795   1.871  16.594  0.6158  0.4193 -0.9119
 7963SOL     OW35521   0.200   1.351   2.813 -0.4609 -0.2798  0.5141
 7963SOL    HW135522   0.211   1.347   2.908  0.1173 -0.5197  0.4382
 7963SOL    HW235523   0.130   1.286   2.803 -1.3686  1.0041 -1.6508
 7964SOL     OW35524   4.520   2.754   2.953  0.5558  0.3939  0.0258
 7964SOL    HW135525   4.470   2.700   3.013 -2.8713  0.9042 -2.3590
 7964SOL    HW235526   4.452   2.795   2.898  0.0360  1.6456  1.5996
 7965SOL     OW35527   4.547   2.861   4.036  0.4402 -0.4573  0.0817
 7965SOL    HW135528   4.588   2.864   3.950 -0.5968 -0.8342 -0.4308
 7965SOL    HW235529   4.496   2.779   4.038 -1.9341  1.0915  2.9234
 7966SOL     OW35530   2.833   0.348   6.757  0.3894  0.0485 -0.0726
 7966SOL    HW135531   2.888   0.392   6.692  1.7046  0.2488  1.1731
 7966SOL    HW235532   2.888   0.273   6.776  2.1074  0.8627 -1.8527
 7967SOL     OW35533   3.822   0.679   3.364  0.6126  0.9297 -0.0640
 7967SOL    HW135534   3.777   0.641   3.439  0.8101 -0.0662 -0.4514
 7967SOL    HW235535   3.897   0.714   3.412  0.7241  2.4489 -1.3566
 7968SOL     OW35536   1.040   4.641  17.165 -0.1634  1.0839 -0.5498
 7968SOL    HW135537   1.102   4.627  17.094  0.3270  0.3917  0.0047
 7968SOL    HW235538   1.103   4.675  17.229 -1.6779  0.9222  1.0184
 7969SOL     OW35539   3.419   0.202   4.148 -0.3175 -0.2576 -0.6741
 7969SOL    HW135540   3.412   0.194   4.243 -2.0030  0.9176 -0.7132
 7969SOL    HW235541   3.362   0.276   4.127 -1.8897 -1.2133  0.3048
 7970SOL     OW35542   2.083   2.182   7.930 -0.3534 -0.1003 -0.4218
 7970SOL    HW135543   2.154   2.246   7.925 -0.4390  0.0827  0.6378
 7970SOL    HW235544   2.110   2.134   8.008  0.9565 -1.5729 -1.7910
 7971SOL     OW35545   2.479   3.953   1.915 -0.1161  0.2476 -0.7111
 7971SOL    HW135546   2.427   3.973   1.993  0.9284 -1.1343  0.3551
 7971SOL    HW235547   2.429   3.998   1.848 -2.3239  0.1597  0.8862
 7972SOL     OW35548   3.211   0.428   9.739  0.0421 -0.4126 -0.2018
 7972SOL    HW135549   3.125   0.389   9.721  0.1246 -0.5090 -0.3872
 7972SOL    HW235550   3.245   0.412   9.651 -0.3658  1.8686 -0.7752
 7973SOL     OW35551   2.926   1.548   7.113 -0.2831  0.1860  0.3659
 7973SOL    HW135552   2.883   1.626   7.146 -0.8022 -0.8536  2.1188
 7973SOL    HW235553   2.862   1.481   7.136  1.0011 -1.1435  0.1061
 7974SOL     OW35554   1.542   3.247   4.334  0.1234  0.4824  0.6304
 7974SOL    HW135555   1.637   3.255   4.342  0.3320 -1.2855  0.0130
 7974SOL    HW235556   1.507   3.320   4.385 -1.4590  0.1192  0.0653
 7975SOL     OW35557   4.527   3.299  15.887 -0.2438  0.5337 -0.0910
 7975SOL    HW135558   4.515   3.205  15.889  2.5041  0.2427  2.2196
 7975SOL    HW235559   4.604   3.308  15.944  2.1284 -1.1310 -3.0153
 7976SOL     OW35560   0.214   1.438   2.453 -0.0010  0.0490 -0.1050
 7976SOL    HW135561   0.120   1.456   2.446 -0.8752 -3.8456  1.0930
 7976SOL    HW235562   0.243   1.477   2.536 -0.5969 -0.2611  0.2549
 7977SOL     OW35563   0.550   3.966   4.209  0.5030 -0.0031  0.3270
 7977SOL    HW135564   0.488   4.019   4.160  0.8906 -0.1374 -0.3175
 7977SOL    HW235565   0.620   3.951   4.145 -0.3479 -0.6184 -0.4613
 7978SOL     OW35566   0.704   1.413   4.048  0.4668 -0.5515  0.1297
 7978SOL    HW135567   0.757   1.379   3.976  1.1783  0.7943  0.0346
 7978SOL    HW235568   0.748   1.497   4.060  0.7184 -0.8030  1.0001
 7979SOL     OW35569   2.153   4.538  12.291 -0.0246 -0.2168  0.3170
 7979SOL    HW135570   2.206   4.460  12.274 -0.3802 -0.7572  1.7113
 7979SOL    HW235571   2.074   4.497  12.327 -1.2182  0.6174 -1.3213
 7980SOL     OW35572   4.116   0.352   4.075  0.0308  0.6762  0.3606
 7980SOL    HW135573   4.138   0.418   4.009  1.7378  0.0320  0.2779
 7980SOL    HW235574   4.023   0.371   4.086 -0.9051 -1.8805 -3.0665
 7981SOL     OW35575   2.291   1.866   2.290  0.2503 -0.1809 -0.7510
 7981SOL    HW135576   2.235   1.932   2.249 -1.2804 -0.1442  1.4121
 7981SOL    HW235577   2.302   1.893   2.381 -2.5523 -0.1217 -0.4134
 7982SOL     OW35578   3.904   2.389   8.011 -0.1398 -0.0028 -0.2090
 7982SOL    HW135579   3.897   2.300   8.048  0.9711  0.8945  2.1472
 7982SOL    HW235580   3.979   2.369   7.955  1.3512 -1.4994  2.2957
 7983SOL     OW35581   2.097   1.400   5.392 -0.2321 -0.0537  0.6047
 7983SOL    HW135582   2.077   1.442   5.476 -1.9960 -1.1112  0.7030
 7983SOL    HW235583   2.010   1.374   5.361  2.3065 -2.9351 -4.0214
 7984SOL     OW35584   4.466   2.865   9.722 -0.2733 -0.5368  0.2997
 7984SOL    HW135585   4.517   2.855   9.802  1.6787  0.4088 -0.8328
 7984SOL    HW235586   4.533   2.877   9.655  1.3261  1.9745  2.3841
 7985SOL     OW35587   0.674   3.738  16.879  0.1973 -0.1661 -0.1228
 7985SOL    HW135588   0.600   3.687  16.848 -2.5792  4.9993 -1.9410
 7985SOL    HW235589   0.634   3.784  16.953  1.5786 -2.2626  1.9316
 7986SOL     OW35590   3.574   2.184  10.185 -0.5588  0.1414 -0.1234
 7986SOL    HW135591   3.531   2.260  10.147 -2.2241 -0.7597 -0.0030
 7986SOL    HW235592   3.633   2.223  10.249  0.2279 -2.0366  0.4796
 7987SOL     OW35593   2.290   0.040   2.325 -0.1288  0.4323  0.6609
 7987SOL    HW135594   2.215   0.081   2.369 -0.5448 -0.8544  1.1607
 7987SOL    HW235595   2.345   0.035   2.404 -0.4046  1.4825  0.9183
 7988SOL     OW35596   2.443   1.943   5.927 -0.0741 -0.7654 -0.0356
 7988SOL    HW135597   2.521   1.903   5.888  0.1467 -0.7621  0.4034
 7988SOL    HW235598   2.455   1.939   6.022 -0.5407  2.4050  0.1429
 7989SOL     OW35599   3.178   4.309   2.082 -0.2378 -0.0610  0.4757
 7989SOL    HW135600   3.167   4.336   1.991 -2.0403 -2.4572 -0.0165
 7989SOL    HW235601   3.092   4.334   2.115 -1.2453 -2.3141 -0.4353
 7990SOL     OW35602   1.054   3.719   2.493 -0.0321 -0.3227  0.0282
 7990SOL    HW135603   1.105   3.751   2.567  0.8964  0.4608 -0.9447
 7990SOL    HW235604   1.114   3.730   2.420 -0.4075  1.4092 -0.0369
 7991SOL     OW35605   3.239   1.313  11.150  0.4341  0.4615  0.3796
 7991SOL    HW135606   3.333   1.321  11.164  0.5754  0.0629 -0.3416
 7991SOL    HW235607   3.222   1.219  11.146  1.3589  0.2541  1.5099
 7992SOL     OW35608   0.403   1.398   7.506  0.0004 -0.0636 -0.1702
 7992SOL    HW135609   0.407   1.380   7.412  0.2354  0.0642 -0.1846
 7992SOL    HW235610   0.393   1.493   7.505  0.2136 -0.0631 -1.9514
 7993SOL     OW35611   3.676   3.946   6.709  0.0607 -0.1472 -0.8866
 7993SOL    HW135612   3.752   3.966   6.655  1.8234 -1.3784  1.1307
 7993SOL    HW235613   3.666   3.852   6.692  2.1923 -0.8971  1.8585
 7994SOL     OW35614   2.761   0.969   7.768  0.4103  0.6662  0.4367
 7994SOL    HW135615   2.717   0.972   7.683  0.6073 -0.6389  0.2805
 7994SOL    HW235616   2.723   1.047   7.807  0.5519  1.3199 -0.7290
 7995SOL     OW35617   3.220   1.719   7.485  0.7561  0.4012  1.1054
 7995SOL    HW135618   3.193   1.628   7.501 -1.2903  0.6406 -0.9767
 7995SOL    HW235619   3.141   1.763   7.515 -0.3950 -0.0774 -1.2556
 7996SOL     OW35620   4.639   2.212   7.568  0.5168 -0.1081 -0.4229
 7996SOL    HW135621   4.611   2.266   7.642  1.3904 -1.8642  1.1870
 7996SOL    HW235622   4.723   2.250   7.542  0.4450  0.1547 -0.2713
 7997SOL     OW35623   3.618   2.339   1.625 -0.5068  0.0982 -0.0654
 7997SOL    HW135624   3.701   2.345   1.672  0.6852 -1.4270 -1.9481
 7997SOL    HW235625   3.616   2.418   1.572 -0.4045 -0.0741 -0.3268
 7998SOL     OW35626   3.236   4.031  10.851  0.2517  0.5857  0.1791
 7998SOL    HW135627   3.233   4.123  10.828 -0.8990  0.7300  0.9042
 7998SOL    HW235628   3.319   4.004  10.811  0.1471  1.0978 -0.3887
 7999SOL     OW35629   3.757   0.111  10.940 -0.0303  0.0973 -0.8086
 7999SOL    HW135630   3.851   0.122  10.924 -0.2743  2.8781 -0.3509
 7999SOL    HW235631   3.755   0.127  11.034 -0.0336 -2.5122 -0.3604
 8000SOL     OW35632   3.039   3.495  17.466 -0.5209 -0.1581  0.0022
 8000SOL    HW135633   2.953   3.524  17.437 -1.3898 -3.0637 -0.2582
 8000SOL    HW235634   3.032   3.519  17.559 -3.2245  3.4214 -1.1157
 8001SOL     OW35635   1.890   0.881  10.415 -0.1942 -0.1699  0.2624
 8001SOL    HW135636   1.935   0.797  10.405 -0.2940  0.1310 -2.8080
 8001SOL    HW235637   1.919   0.903  10.504 -1.0133 -2.6245  1.1596
 8002SOL     OW35638   2.144   1.213  12.136  0.0978  0.4229  0.2825
 8002SOL    HW135639   2.234   1.207  12.104 -0.5864 -0.0979 -1.4970
 8002SOL    HW235640   2.147   1.308  12.149  1.8253  0.3045  0.8286
 8003SOL     OW35641   1.545   0.039   2.189  0.0779 -0.2425 -0.9708
 8003SOL    HW135642   1.598   0.020   2.112 -1.6294 -1.8436 -1.7409
 8003SOL    HW235643   1.596   0.029   2.269  0.2911 -0.1423 -1.0962
 8004SOL     OW35644   2.404   1.285  12.128  0.0949  0.0690  0.2443
 8004SOL    HW135645   2.381   1.377  12.144 -0.8636  0.1554 -1.7242
 8004SOL    HW235646   2.499   1.286  12.124  0.0674 -0.8546 -0.4801
 8005SOL     OW35647   3.133   4.317   5.143  0.1769 -0.0504  0.3950
 8005SOL    HW135648   3.151   4.408   5.168  0.6361  0.2097 -0.8943
 8005SOL    HW235649   3.161   4.263   5.216  3.2371 -1.7180 -2.0166
 8006SOL     OW35650   4.005   4.713  14.911  0.3985  0.0389 -0.4260
 8006SOL    HW135651   3.955   4.647  14.958  2.1918 -0.0307  1.3941
 8006SOL    HW235652   4.094   4.682  14.930  0.3798  0.5909  0.5726
 8007SOL     OW35653   4.618   0.970  13.228 -0.1311  0.0695 -0.0860
 8007SOL    HW135654   4.578   0.922  13.155  0.7655  0.9548 -1.1483
 8007SOL    HW235655   4.603   1.060  13.202  2.3218  0.4624 -0.1585
 8008SOL     OW35656   3.262   0.210   7.706 -0.2286  0.2642 -0.6078
 8008SOL    HW135657   3.205   0.248   7.774 -0.2425  0.0468 -0.4949
 8008SOL    HW235658   3.318   0.280   7.674 -1.4385  1.3401 -0.3703
 8009SOL     OW35659   1.214   0.547  10.631  0.0973  0.2027 -0.3224
 8009SOL    HW135660   1.207   0.499  10.548  0.3350 -0.9527  0.3291
 8009SOL    HW235661   1.175   0.483  10.691  0.7754  1.0079  0.9662
 8010SOL     OW35662   2.837   0.013   8.226 -0.1841 -0.0189  0.1857
 8010SOL    HW135663   2.826   4.715   8.138 -2.8318 -0.7145  0.7994
 8010SOL    HW235664   2.906   4.701   8.268  0.7296  1.4878  0.5030
 8011SOL     OW35665   0.814   2.984  16.943 -0.3110 -0.0983 -0.4420
 8011SOL    HW135666   0.838   2.903  16.899  0.4764  0.8908 -1.8246
 8011SOL    HW235667   0.889   3.008  16.998 -1.0042  1.2119 -0.0712
 8012SOL     OW35668   1.909   0.889   3.664  0.0774 -0.0338 -0.0925
 8012SOL    HW135669   1.967   0.826   3.706 -1.3784 -2.2505 -1.3899
 8012SOL    HW235670   1.847   0.922   3.729 -0.7383  0.0854 -0.9174
 8013SOL     OW35671   0.550   3.281   7.040  0.3531 -0.7500  0.7981
 8013SOL    HW135672   0.518   3.323   6.960  2.4423 -0.1074  0.3027
 8013SOL    HW235673   0.512   3.193   7.030 -2.8896  0.7171  0.1139
 8014SOL     OW35674   2.158   0.576   2.766  0.0024 -0.2712 -0.3268
 8014SOL    HW135675   2.193   0.487   2.762  1.4867  0.1481  3.4052
 8014SOL    HW235676   2.182   0.611   2.680  0.7488 -0.2920 -0.1247
 8015SOL     OW35677   3.526   4.057   7.161  0.0032  0.0242  0.4345
 8015SOL    HW135678   3.539   3.995   7.089  0.2542 -0.5665  0.9832
 8015SOL    HW235679   3.603   4.113   7.167  0.2376 -0.3481  0.8971
 8016SOL     OW35680   1.942   0.584   1.836  0.7292 -0.5665 -0.0616
 8016SOL    HW135681   1.916   0.676   1.847 -1.1458 -1.1856  0.5475
 8016SOL    HW235682   2.006   0.588   1.764  0.2853  1.0973 -0.3762
 8017SOL     OW35683   1.753   4.167   4.351 -0.5193  0.1517  0.1747
 8017SOL    HW135684   1.676   4.216   4.379  0.7455  1.7916  0.8293
 8017SOL    HW235685   1.820   4.198   4.413  0.5434  0.9196 -1.3497
 8018SOL     OW35686   1.815   1.334  12.059 -0.3923  0.6456  0.3174
 8018SOL    HW135687   1.762   1.399  12.107 -0.4345  0.2394  0.8279
 8018SOL    HW235688   1.895   1.383  12.040 -0.6360  0.9367  0.0449
 8019SOL     OW35689   2.305   0.599   9.188 -0.3439  0.2385  0.0227
 8019SOL    HW135690   2.291   0.618   9.095 -1.7460 -0.2052  0.1352
 8019SOL    HW235691   2.385   0.651   9.200  0.3876 -1.0605  0.7140
 8020SOL     OW35692   2.403   4.449   5.976 -0.1063  0.3499 -0.3870
 8020SOL    HW135693   2.383   4.374   5.919  1.5380 -1.0008  0.7977
 8020SOL    HW235694   2.487   4.486   5.949 -0.0775 -0.1253 -0.9470
 8021SOL     OW35695   4.115   3.637  14.747 -0.1924  0.3433  0.3140
 8021SOL    HW135696   4.130   3.688  14.826  1.8076  0.0602  0.1186
 8021SOL    HW235697   4.052   3.578  14.788 -0.8698  0.1961 -0.9210
 8022SOL     OW35698   0.242   0.669  13.296  0.2800 -0.3903 -0.0207
 8022SOL    HW135699   0.243   0.764  13.292 -0.3108 -0.3943 -0.3361
 8022SOL    HW235700   0.169   0.667  13.358  0.3583 -1.7540  0.0389
 8023SOL     OW35701   3.788   0.453  12.358  0.0033  0.3189  0.0297
 8023SOL    HW135702   3.868   0.504  12.345  0.0081  0.6845  1.5612
 8023SOL    HW235703   3.787   0.450  12.453 -0.0611  4.9712  0.1880
 8024SOL     OW35704   1.246   4.177   3.166 -0.7418 -0.1692 -0.4984
 8024SOL    HW135705   1.331   4.209   3.198 -0.1433 -1.8818 -0.3565
 8024SOL    HW235706   1.259   4.087   3.196 -1.1287  0.3035  1.0857
 8025SOL     OW35707   2.332   2.460   3.315 -0.5946 -0.5296  0.0918
 8025SOL    HW135708   2.237   2.462   3.302 -0.5973  1.0237  0.3160
 8025SOL    HW235709   2.361   2.499   3.232 -2.6679 -0.8271 -0.7694
 8026SOL     OW35710   2.418   3.813   3.620 -0.4684 -0.4968 -0.0689
 8026SOL    HW135711   2.440   3.757   3.546 -1.3264  1.3308 -1.7282
 8026SOL    HW235712   2.494   3.871   3.618 -0.0186 -1.1136 -0.9654
 8027SOL     OW35713   0.150   1.681   5.099 -0.0058  0.3362  0.1178
 8027SOL    HW135714   0.112   1.599   5.130 -1.2290  2.4190  4.0750
 8027SOL    HW235715   0.179   1.709   5.186  1.0687 -1.9138  0.4918
 8028SOL     OW35716   4.486   4.027  12.788 -0.1489 -0.3481 -0.4371
 8028SOL    HW135717   4.468   4.055  12.878 -2.1139  1.8662 -1.5087
 8028SOL    HW235718   4.402   4.055  12.751 -0.7859  0.5354  1.6494
 8029SOL     OW35719   2.860   1.502   3.526 -0.0218  0.7542 -0.0161
 8029SOL    HW135720   2.813   1.543   3.600  1.8554 -0.6021  1.9267
 8029SOL    HW235721   2.852   1.574   3.463  1.3312 -0.0421 -1.0882
 8030SOL     OW35722   3.437   1.354   8.727  0.1605  0.1061  0.6216
 8030SOL    HW135723   3.408   1.419   8.791  2.7958  0.5547  1.3445
 8030SOL    HW235724   3.367   1.290   8.737 -2.3887  2.9612  1.2020
 8031SOL     OW35725   0.231   4.161   6.293 -0.1569 -0.0129  0.2743
 8031SOL    HW135726   0.231   4.256   6.305  0.4047  0.1674 -1.1384
 8031SOL    HW235727   0.320   4.134   6.316 -0.8009 -1.6940  0.7536
 8032SOL     OW35728   1.206   2.851   5.315  0.1644 -0.0350  0.1480
 8032SOL    HW135729   1.187   2.906   5.391  2.6780  0.6674  0.2681
 8032SOL    HW235730   1.166   2.907   5.249 -0.6341 -0.5517  0.2002
 8033SOL     OW35731   2.029   4.046   2.057 -0.3501 -0.1707 -0.2949
 8033SOL    HW135732   1.953   4.050   1.999  0.7597 -1.4741 -1.8220
 8033SOL    HW235733   2.034   4.137   2.088  0.1234  0.1662 -1.3626
 8034SOL     OW35734   0.651   3.994  12.486 -0.1725  0.5631  0.8470
 8034SOL    HW135735   0.707   3.917  12.491 -1.7982 -0.6491  0.3532
 8034SOL    HW235736   0.635   4.009  12.393  1.4726 -2.4417  0.0618
 8035SOL     OW35737   1.532   2.171   8.460  0.8589 -0.0231 -0.2217
 8035SOL    HW135738   1.605   2.110   8.449 -0.3021 -1.1811 -1.5788
 8035SOL    HW235739   1.552   2.198   8.549  1.6659 -2.7914  0.4521
 8036SOL     OW35740   2.102   1.319   9.649  0.8395  0.3629 -0.1361
 8036SOL    HW135741   2.050   1.261   9.593  1.9348  2.1531 -3.0232
 8036SOL    HW235742   2.176   1.339   9.592  0.6288 -1.1252 -0.9475
 8037SOL     OW35743   1.988   0.388   9.922 -0.1129 -0.0466 -0.0575
 8037SOL    HW135744   2.026   0.470   9.889 -1.4727  0.7201  0.2809
 8037SOL    HW235745   1.987   0.410  10.015 -1.3135 -1.7040  0.3108
 8038SOL     OW35746   0.770   3.596   2.142  0.1540  0.2904 -0.4350
 8038SOL    HW135747   0.740   3.515   2.182  0.1814  2.1253  3.2385
 8038SOL    HW235748   0.720   3.661   2.191 -0.3884 -0.0709 -0.5041
 8039SOL     OW35749   3.360   1.534  13.227  0.0708  0.1767  0.5621
 8039SOL    HW135750   3.427   1.528  13.158 -2.3122  0.3297 -1.7676
 8039SOL    HW235751   3.394   1.477  13.296  1.0431  1.2684  0.9703
 8040SOL     OW35752   0.940   2.568  16.680 -0.2126  0.0706  0.6054
 8040SOL    HW135753   0.912   2.481  16.651 -0.5346 -0.3863  2.2410
 8040SOL    HW235754   0.986   2.608  16.607 -1.1255 -0.3784 -0.2160
 8041SOL     OW35755   2.498   1.667   7.632  0.5390 -0.1442 -0.0531
 8041SOL    HW135756   2.533   1.742   7.584  3.1522  0.0184  2.1131
 8041SOL    HW235757   2.492   1.601   7.563  0.0182 -0.2490  0.0933
 8042SOL     OW35758   1.289   2.760  11.188  0.4340  0.2334  0.3721
 8042SOL    HW135759   1.333   2.788  11.268  1.3177 -0.5944  0.1663
 8042SOL    HW235760   1.346   2.791  11.119  1.2947 -0.4381  0.7875
 8043SOL     OW35761   1.597   4.584   0.150 -0.0090  0.3209 -0.3440
 8043SOL    HW135762   1.582   4.529   0.073 -0.5822 -0.6825  0.4971
 8043SOL    HW235763   1.559   4.543   0.227 -0.1813  2.5125  0.7271
 8044SOL     OW35764   3.709   3.773   3.674  0.2329  0.7974  0.0875
 8044SOL    HW135765   3.790   3.823   3.683  1.9312 -1.3145 -3.6099
 8044SOL    HW235766   3.682   3.765   3.765  0.7060  1.7759  0.3209
 8045SOL     OW35767   4.460   2.588   8.194 -0.6132 -0.0004 -0.0856
 8045SOL    HW135768   4.533   2.647   8.212  1.0147 -1.6919 -1.2360
 8045SOL    HW235769   4.466   2.523   8.264 -2.7145  0.8875  0.9156
 8046SOL     OW35770   0.828   0.571   7.413 -0.1929  0.7309  0.1977
 8046SOL    HW135771   0.766   0.511   7.454  1.2045 -0.9194 -0.0918
 8046SOL    HW235772   0.768   0.642   7.389 -1.2750 -0.0933  0.4615
 8047SOL     OW35773   1.511   2.963   4.395 -1.0071  0.2334 -0.1815
 8047SOL    HW135774   1.508   3.056   4.370 -0.2169  0.3729  0.2725
 8047SOL    HW235775   1.521   2.961   4.490  0.4011 -1.1991 -0.3673
 8048SOL     OW35776   4.660   0.744  13.875 -0.2900  0.2162 -0.3928
 8048SOL    HW135777   4.567   0.744  13.853 -0.6325  2.9286  1.0840
 8048SOL    HW235778   4.693   0.669  13.826 -0.9996 -1.4301  1.6869
 8049SOL     OW35779   0.586   0.394   1.842  0.4150 -0.3747 -0.4096
 8049SOL    HW135780   0.596   0.426   1.752  0.1617  0.4773 -0.1385
 8049SOL    HW235781   0.494   0.368   1.851 -0.1001  1.1664 -1.1593
 8050SOL     OW35782   1.943   3.028   9.038  0.0788  1.0750  0.1126
 8050SOL    HW135783   1.877   2.963   9.016 -0.6226  1.1209  2.1277
 8050SOL    HW235784   2.000   3.048   8.963 -0.9034  4.6131  0.2815
 8051SOL     OW35785   3.279   3.837   3.036  0.0805  0.4138 -0.8204
 8051SOL    HW135786   3.347   3.788   2.988 -0.1148 -1.4614  0.8328
 8051SOL    HW235787   3.211   3.770   3.045 -0.2178  0.8211 -0.1328
 8052SOL     OW35788   2.475   2.017  12.226  0.3785  0.4310 -0.3373
 8052SOL    HW135789   2.403   1.974  12.180 -1.8674  1.6353  2.0713
 8052SOL    HW235790   2.432   2.101  12.240  0.4447  0.0769  1.9750
 8053SOL     OW35791   1.797   4.161   2.193 -0.1706  0.0752 -0.3429
 8053SOL    HW135792   1.869   4.216   2.223  1.5910 -1.2053 -2.2285
 8053SOL    HW235793   1.737   4.223   2.152  0.1802  0.6263 -0.0192
 8054SOL     OW35794   0.576   4.042   4.761 -0.0288 -0.5949  0.5421
 8054SOL    HW135795   0.576   4.040   4.857 -2.7369 -2.2933  0.5317
 8054SOL    HW235796   0.655   3.998   4.730  0.5154  0.7653  0.0348
 8055SOL     OW35797   2.563   2.674   2.558  0.1351  0.4211  0.3592
 8055SOL    HW135798   2.514   2.679   2.476  2.8479  1.5102 -1.2106
 8055SOL    HW235799   2.561   2.581   2.581 -1.1717  0.4679  0.4074
 8056SOL     OW35800   3.189   0.822   6.360  0.3760 -0.0352  0.2351
 8056SOL    HW135801   3.131   0.772   6.418  1.6926 -1.4906  0.2997
 8056SOL    HW235802   3.219   0.889   6.422  0.0248 -0.4903  0.8960
 8057SOL     OW35803   0.630   1.742  14.988  0.0017  0.2556  0.4850
 8057SOL    HW135804   0.640   1.729  14.893 -0.2936 -0.9456  0.6200
 8057SOL    HW235805   0.579   1.823  14.986  1.5157  1.2010  0.6265
 8058SOL     OW35806   3.771   1.069   8.401 -0.0310 -0.4185 -0.0423
 8058SOL    HW135807   3.752   1.150   8.354  1.1439 -0.1391 -0.0318
 8058SOL    HW235808   3.739   1.099   8.486  1.1013  0.1004  0.2070
 8059SOL     OW35809   3.004   3.995   4.938  0.0872 -0.0418  0.2067
 8059SOL    HW135810   2.924   3.947   4.919  0.3180  0.1862 -1.3477
 8059SOL    HW235811   3.024   3.966   5.027 -1.9905  1.5627  1.2129
 8060SOL     OW35812   1.273   2.728  12.965 -0.0116  0.3937 -0.4542
 8060SOL    HW135813   1.347   2.778  12.998  0.2317  0.0400 -0.4532
 8060SOL    HW235814   1.305   2.643  12.996 -2.1401 -0.2024  0.1337
 8061SOL     OW35815   2.786   1.792   9.929 -0.4063  0.4728 -0.4009
 8061SOL    HW135816   2.875   1.821   9.908  1.3743 -3.0553  2.1237
 8061SOL    HW235817   2.792   1.704   9.893 -2.0052  0.3573 -0.3897
 8062SOL     OW35818   1.756   2.826   3.614 -0.5114 -0.0869  0.5444
 8062SOL    HW135819   1.766   2.920   3.599  0.3178  0.1817  2.6978
 8062SOL    HW235820   1.692   2.817   3.685  0.0265  0.8208  1.1479
 8063SOL     OW35821   1.752   3.993   9.425 -0.4929  0.0204  0.0355
 8063SOL    HW135822   1.839   3.953   9.413 -0.1302  0.6299  0.6726
 8063SOL    HW235823   1.708   3.923   9.473 -0.5119 -0.1238 -0.1910
 8064SOL     OW35824   1.983   3.885   3.496 -0.4695 -0.5542  0.2700
 8064SOL    HW135825   2.010   3.793   3.485  1.2867 -0.1387  1.1023
 8064SOL    HW235826   1.960   3.891   3.589  2.3789 -0.6295  0.9867
 8065SOL     OW35827   2.196   1.153   3.204  0.1860  0.6871 -0.6838
 8065SOL    HW135828   2.245   1.072   3.189 -1.1407  0.0232 -1.3481
 8065SOL    HW235829   2.256   1.226   3.189  0.4091  1.4386  3.6416
 8066SOL     OW35830   1.554   3.128  16.147  0.5082 -0.6316 -0.1044
 8066SOL    HW135831   1.579   3.164  16.063 -1.9711 -1.0205 -1.0318
 8066SOL    HW235832   1.577   3.197  16.209 -2.9400  0.7042 -0.2776
 8067SOL     OW35833   0.605   2.448  13.660 -0.3674  0.2280 -0.6883
 8067SOL    HW135834   0.622   2.456  13.754 -1.3594 -0.3484 -0.4538
 8067SOL    HW235835   0.560   2.363  13.656  0.1540 -0.1104  0.4859
 8068SOL     OW35836   3.408   4.490   1.642 -0.0319  0.4523  0.4562
 8068SOL    HW135837   3.322   4.496   1.600 -0.6680  0.2869  1.7140
 8068SOL    HW235838   3.461   4.450   1.573 -0.9525 -3.7227  2.1941
 8069SOL     OW35839   4.472   3.724   1.839  0.3130  0.5518 -0.4205
 8069SOL    HW135840   4.449   3.792   1.903 -0.6661  0.1072 -0.3050
 8069SOL    HW235841   4.545   3.680   1.881 -0.0901  0.2240 -0.0722
 8070SOL     OW35842   2.420   4.426   6.670 -0.1389 -0.0467 -0.1978
 8070SOL    HW135843   2.374   4.498   6.627  0.4216  0.9659  0.8709
 8070SOL    HW235844   2.513   4.440   6.651 -0.7375  1.5697 -1.9715
 8071SOL     OW35845   0.415   4.103   8.961 -0.0159 -0.1626  0.4478
 8071SOL    HW135846   0.348   4.047   8.999  2.1708 -1.0771  2.9514
 8071SOL    HW235847   0.385   4.180   9.009 -0.1119  0.4501 -0.5899
 8072SOL     OW35848   2.921   2.305   5.165 -0.7978  0.4124 -0.1246
 8072SOL    HW135849   2.862   2.318   5.239 -1.2521 -2.6305  0.0260
 8072SOL    HW235850   2.998   2.357   5.189 -0.1476 -0.3897 -0.4883
 8073SOL     OW35851   2.979   0.016   9.708  0.1480  0.2674 -0.0503
 8073SOL    HW135852   2.888   0.021   9.682  0.1818 -1.5780 -0.4912
 8073SOL    HW235853   2.962   4.713   9.792 -3.0513  1.5173 -0.0846
 8074SOL     OW35854   1.487   2.155   1.783 -0.8428  0.4756 -0.1721
 8074SOL    HW135855   1.462   2.088   1.720 -0.1148  0.9257 -0.9464
 8074SOL    HW235856   1.442   2.231   1.745 -2.7462  0.1333  1.4025
 8075SOL     OW35857   2.833   3.749   2.068  0.0636  0.8647  0.8412
 8075SOL    HW135858   2.744   3.723   2.092 -0.6450  2.5153  0.0401
 8075SOL    HW235859   2.869   3.665   2.040 -1.2533  0.9529 -1.0982
 8076SOL     OW35860   3.156   2.607   9.611  0.2130  0.0242  0.4075
 8076SOL    HW135861   3.064   2.628   9.627  0.5477  1.1386  0.8951
 8076SOL    HW235862   3.171   2.579   9.702 -2.5073  0.2565  0.9416
 8077SOL     OW35863   1.303   4.373  10.428  0.5416  0.9504 -0.0979
 8077SOL    HW135864   1.385   4.324  10.424  1.2417  2.1402 -0.1698
 8077SOL    HW235865   1.257   4.295  10.460  2.8105  0.6021  2.2924
 8078SOL     OW35866   0.432   3.605   3.126 -0.5636  0.2946 -0.0693
 8078SOL    HW135867   0.524   3.629   3.122  0.2166 -2.3737  2.1382
 8078SOL    HW235868   0.421   3.556   3.045  0.3266  1.4560 -0.8911
 8079SOL     OW35869   1.004   4.352   4.733  0.3987 -0.3116  0.3083
 8079SOL    HW135870   0.925   4.401   4.754  0.2800 -0.9248  1.3128
 8079SOL    HW235871   0.978   4.263   4.756 -1.9032  0.4953  0.8253
 8080SOL     OW35872   1.542   1.985   1.425 -0.0067  0.1850 -0.0436
 8080SOL    HW135873   1.496   2.059   1.387 -1.0007 -0.7848 -0.7190
 8080SOL    HW235874   1.564   1.944   1.341  0.1525  0.8748 -0.3382
 8081SOL     OW35875   1.687   2.696   2.709  0.0715  0.1418 -0.3368
 8081SOL    HW135876   1.741   2.696   2.629  0.6076  0.5387  0.0285
 8081SOL    HW235877   1.735   2.731   2.784 -1.1590 -0.8997  0.9292
 8082SOL     OW35878   2.336   4.619   1.069 -0.3298 -0.3164  0.2250
 8082SOL    HW135879   2.244   4.619   1.094 -0.5190 -1.1471 -0.4734
 8082SOL    HW235880   2.373   4.540   1.109 -0.5280 -0.2358  0.5708
 8083SOL     OW35881   2.925   4.395   8.770 -0.3226  0.6634 -0.0326
 8083SOL    HW135882   2.977   4.441   8.704  0.0081 -0.3063 -0.4467
 8083SOL    HW235883   2.886   4.325   8.719 -0.7314  0.8488  0.0301
 8084SOL     OW35884   1.465   0.784   5.216 -0.0267 -0.4348 -0.3787
 8084SOL    HW135885   1.518   0.705   5.227 -3.4199 -2.5460  0.8169
 8084SOL    HW235886   1.460   0.798   5.121  0.1614  0.7729 -0.2088
 8085SOL     OW35887   1.116   1.050   9.538  0.1315 -0.3941  0.2373
 8085SOL    HW135888   1.122   0.963   9.498 -3.3587 -0.4706 -0.1289
 8085SOL    HW235889   1.202   1.059   9.578  0.8291 -1.2999 -1.0233
 8086SOL     OW35890   4.720   4.030   7.030  0.3303 -0.6536  0.6509
 8086SOL    HW135891   4.679   4.099   6.977  2.1231  0.8066  1.1745
 8086SOL    HW235892   4.641   3.988   7.063 -0.7641  2.7423  2.4032
 8087SOL     OW35893   4.315   3.665   3.170  0.2209 -0.6658  1.1367
 8087SOL    HW135894   4.230   3.639   3.206  0.5216  0.2479  2.5134
 8087SOL    HW235895   4.384   3.615   3.212  1.1313  0.5482  1.1017
 8088SOL     OW35896   4.214   3.193   7.406 -0.1227 -0.0977  0.4233
 8088SOL    HW135897   4.222   3.102   7.378 -2.3646 -0.2741  0.3841
 8088SOL    HW235898   4.118   3.196   7.409 -0.1129  0.1377  0.5137
 8089SOL     OW35899   4.202   4.340  16.861  0.1580  0.1157 -0.4746
 8089SOL    HW135900   4.275   4.382  16.815 -0.4334  1.0241 -0.5853
 8089SOL    HW235901   4.250   4.337  16.944  2.5734 -2.7360 -1.9887
 8090SOL     OW35902   3.306   2.246   4.566  0.2567 -0.2174  0.2677
 8090SOL    HW135903   3.243   2.267   4.635 -0.0876  1.1999 -0.4826
 8090SOL    HW235904   3.376   2.306   4.592 -1.5059  1.4316  1.1699
 8091SOL     OW35905   1.462   3.773   2.822 -0.3908 -0.4661  0.0889
 8091SOL    HW135906   1.531   3.733   2.875 -0.3369 -1.0593 -0.4245
 8091SOL    HW235907   1.465   3.856   2.869  1.5591 -1.0569  1.0219
 8092SOL     OW35908   1.015   1.527   5.365 -0.0455  0.0794  0.2925
 8092SOL    HW135909   1.027   1.475   5.445 -0.4025  3.1391  2.3551
 8092SOL    HW235910   0.921   1.511   5.354  0.1923 -0.8909 -0.3121
 8093SOL     OW35911   4.286   3.848   2.473 -0.4934  0.1675  0.0838
 8093SOL    HW135912   4.240   3.901   2.408  0.3807 -0.5007 -1.0741
 8093SOL    HW235913   4.246   3.872   2.556 -0.9280  0.3091 -0.1639
 8094SOL     OW35914   2.997   0.101  15.284 -0.1450  0.1242 -1.0065
 8094SOL    HW135915   2.982   0.179  15.336 -0.6184  0.1100 -1.1251
 8094SOL    HW235916   3.075   0.061  15.322 -0.9823 -2.4901 -2.0250
 8095SOL     OW35917   1.308   3.999   5.136  0.2212  0.4584 -0.1933
 8095SOL    HW135918   1.337   3.978   5.047  0.5532  0.2842 -0.0420
 8095SOL    HW235919   1.235   4.055   5.110 -0.1451 -0.4786 -1.1656
 8096SOL     OW35920   1.290   0.942   6.142  0.3722  0.1266  0.6065
 8096SOL    HW135921   1.288   1.011   6.208  0.2051 -0.5608  1.3174
 8096SOL    HW235922   1.203   0.955   6.104  0.3959  0.9060  0.8221
 8097SOL     OW35923   1.793   0.688   5.211  0.5119 -0.3593 -0.4412
 8097SOL    HW135924   1.809   0.768   5.261 -0.1712 -0.5777  0.1253
 8097SOL    HW235925   1.838   0.700   5.127  0.7863 -2.4517 -0.6125
 8098SOL     OW35926   0.842   3.118   5.910  0.0152 -0.2351  0.9729
 8098SOL    HW135927   0.777   3.051   5.890  1.2692 -0.6215 -1.8614
 8098SOL    HW235928   0.872   3.134   5.820  1.0639 -1.0933  1.1794
 8099SOL     OW35929   1.771   0.336  16.685 -0.0150  0.1711  1.2442
 8099SOL    HW135930   1.811   0.415  16.649  0.9970 -0.3239  1.2947
 8099SOL    HW235931   1.825   0.317  16.762 -2.2323 -1.1555  2.4802
 8100SOL     OW35932   1.545   4.292   4.454  0.1687  0.1969  0.2342
 8100SOL    HW135933   1.467   4.309   4.401 -1.1939 -2.8144  1.3049
 8100SOL    HW235934   1.556   4.386   4.468  0.4963  0.4412 -1.6586
 8101SOL     OW35935   0.694   3.573   0.025  0.1265 -0.6004 -0.3023
 8101SOL    HW135936   0.715   3.529  17.694  0.0934 -0.3774 -0.4286
 8101SOL    HW235937   0.601   3.555   0.034  0.1013  0.5308  1.8640
 8102SOL     OW35938   2.946   2.810   2.333 -0.4129  0.5224 -0.1523
 8102SOL    HW135939   2.993   2.743   2.382  0.1113  0.4710 -0.7213
 8102SOL    HW235940   2.926   2.761   2.254  1.1774 -0.3956  0.0138
 8103SOL     OW35941   4.564   4.243   8.903  0.5319 -0.0100  0.3731
 8103SOL    HW135942   4.509   4.274   8.831  1.3711  1.7955  0.5096
 8103SOL    HW235943   4.505   4.253   8.977 -1.4491  0.8253 -1.3213
 8104SOL     OW35944   3.016   1.703  16.821 -0.0957  0.1777 -0.3448
 8104SOL    HW135945   3.007   1.611  16.847 -0.3360 -0.4616 -2.6722
 8104SOL    HW235946   2.952   1.710  16.750 -0.6954 -0.4651  0.1254
 8105SOL     OW35947   4.299   2.997   3.701  0.4437  0.3509 -0.2552
 8105SOL    HW135948   4.295   2.918   3.756  1.3811  0.7421  0.3788
 8105SOL    HW235949   4.277   3.069   3.760  2.4183  1.3669 -0.7398
 8106SOL     OW35950   4.357   4.525   8.515  0.2269  0.3568  0.8024
 8106SOL    HW135951   4.405   4.589   8.463 -2.0368  0.3356 -1.2906
 8106SOL    HW235952   4.279   4.513   8.460 -0.6649 -0.4540  2.2386
 8107SOL     OW35953   1.569   4.431  17.281  0.4371  0.0832 -0.5172
 8107SOL    HW135954   1.652   4.448  17.325  0.6661 -0.0502 -0.8990
 8107SOL    HW235955   1.575   4.474  17.196 -1.7418 -0.9819 -1.2245
 8108SOL     OW35956   1.935   1.082   9.172  0.2611 -0.4321  0.2613
 8108SOL    HW135957   1.848   1.115   9.196 -0.7213 -2.2041 -0.8144
 8108SOL    HW235958   1.969   1.159   9.125  0.4654  0.8874  2.5877
 8109SOL     OW35959   4.686   4.661  15.081 -0.4228 -0.5530  0.0032
 8109SOL    HW135960   4.735   4.579  15.080 -1.9247 -1.4468  0.1139
 8109SOL    HW235961   4.595   4.635  15.096 -0.7963 -0.4087 -2.1137
 8110SOL     OW35962   3.830   3.625   2.726 -0.3194 -0.2261  0.2467
 8110SOL    HW135963   3.754   3.607   2.671 -0.1863  1.5102 -0.4855
 8110SOL    HW235964   3.785   3.645   2.808  0.3263  0.4678  0.4295
 8111SOL     OW35965   2.168   0.785   0.445  0.4801  0.3963 -0.0533
 8111SOL    HW135966   2.089   0.819   0.486  0.6069  0.6893 -0.0578
 8111SOL    HW235967   2.242   0.841   0.467  0.4016  1.0605 -1.4269
 8112SOL     OW35968   4.706   2.159   7.946  0.2162 -0.1450  0.7516
 8112SOL    HW135969   4.681   2.167   8.038 -0.7828  1.4511  0.3230
 8112SOL    HW235970   4.666   2.076   7.917  2.5315 -1.0235  0.0256
 8113SOL     OW35971   0.788   1.547   6.516  0.2254  0.1746  0.4754
 8113SOL    HW135972   0.844   1.580   6.586 -0.1123  2.3538 -0.2800
 8113SOL    HW235973   0.700   1.578   6.535  0.7830  0.8465  1.9892
 8114SOL     OW35974   3.896   0.980   3.461  0.4996 -0.0805 -0.4527
 8114SOL    HW135975   3.925   1.040   3.530  1.5463 -0.2496 -0.7365
 8114SOL    HW235976   3.975   0.955   3.413  0.5773 -1.1104  0.2252
 8115SOL     OW35977   2.806   0.097   6.227  0.4030  0.4451 -1.0661
 8115SOL    HW135978   2.769   0.159   6.164 -0.1017  0.7247 -0.4950
 8115SOL    HW235979   2.874   0.151   6.267  2.0945 -3.4229  1.2647
 8116SOL     OW35980   2.894   3.082   4.203  0.5135  0.0872  0.2472
 8116SOL    HW135981   2.836   3.137   4.256 -1.9873 -1.6514 -0.6701
 8116SOL    HW235982   2.948   3.036   4.267  1.1766 -2.7462 -2.3516
 8117SOL     OW35983   4.468   3.908   8.374  0.4448  0.4598  0.2060
 8117SOL    HW135984   4.403   3.841   8.396 -0.3742  1.5763  1.1749
 8117SOL    HW235985   4.541   3.878   8.428  0.3301 -1.3634 -0.6442
 8118SOL     OW35986   0.307   2.506  15.246  0.4086  0.5152  0.1349
 8118SOL    HW135987   0.305   2.556  15.164  2.6012  0.8347  0.2850
 8118SOL    HW235988   0.395   2.476  15.268  0.6081  0.3775 -0.8641
 8119SOL     OW35989   0.131   0.764   7.375  0.1737 -0.1446  0.3346
 8119SOL    HW135990   0.051   0.816   7.379 -0.1492 -0.6192 -0.0176
 8119SOL    HW235991   0.100   0.674   7.383  1.5690 -0.7694 -1.3132
 8120SOL     OW35992   1.094   2.793   4.845 -0.4380 -0.7232  0.0099
 8120SOL    HW135993   1.063   2.791   4.936 -1.8676 -1.2133 -0.4811
 8120SOL    HW235994   1.063   2.710   4.810  2.3046 -0.6198 -2.6121
 8121SOL     OW35995   0.907   0.615   7.744  0.3836  0.1281  0.2612
 8121SOL    HW135996   0.899   0.711   7.746 -1.1336 -0.0495  2.3109
 8121SOL    HW235997   0.908   0.592   7.651  1.2095  1.2838 -0.0247
 8122SOL     OW35998   2.563   2.362   6.342 -0.2101 -0.2057 -0.0320
 8122SOL    HW135999   2.587   2.292   6.402 -3.0468 -1.8257 -0.7930
 8122SOL    HW236000   2.636   2.359   6.280 -1.2606 -0.3568 -1.2674
 8123SOL     OW36001   1.141   2.709   9.086  0.1584  0.6906  0.6662
 8123SOL    HW136002   1.061   2.758   9.101 -1.1076 -0.5689 -1.9274
 8123SOL    HW236003   1.196   2.786   9.071 -2.5820  2.1894 -1.5582
 8124SOL     OW36004   2.731   0.106   1.164 -0.3349  0.1404 -0.3333
 8124SOL    HW136005   2.697   0.193   1.144 -3.0792 -1.3763 -2.2509
 8124SOL    HW236006   2.727   0.106   1.260 -1.0251 -0.0932 -0.3568
 8125SOL     OW36007   2.397   3.123   4.874  0.2238 -0.4012 -0.3014
 8125SOL    HW136008   2.343   3.187   4.921  0.3117 -1.2479  0.9440
 8125SOL    HW236009   2.398   3.046   4.931 -1.6935 -1.3468 -1.5325
 8126SOL     OW36010   4.183   2.501   4.385  0.6456 -0.3130  0.2307
 8126SOL    HW136011   4.098   2.538   4.412 -0.5608 -1.9292 -1.3729
 8126SOL    HW236012   4.229   2.498   4.469 -0.0450 -2.0248  0.5416
 8127SOL     OW36013   1.497   2.253   9.827  0.3007  0.0450 -0.0257
 8127SOL    HW136014   1.465   2.170   9.792 -3.1805  1.8923 -1.2873
 8127SOL    HW236015   1.459   2.247   9.914  0.3591 -0.8383 -0.0602
 8128SOL     OW36016   2.120   1.807   9.015  0.1780 -0.2692 -0.0550
 8128SOL    HW136017   2.159   1.871   8.955 -2.4682 -1.3020 -2.8880
 8128SOL    HW236018   2.133   1.719   8.981  1.8439  0.7690 -2.1061
 8129SOL     OW36019   4.702   3.922   3.655 -0.5385 -0.1306  0.0099
 8129SOL    HW136020   4.637   3.885   3.595 -2.1121  1.1924  0.8866
 8129SOL    HW236021   4.706   4.009   3.617  0.9572 -1.6556 -3.3384
 8130SOL     OW36022   4.544   3.317   2.497 -0.1766 -0.2259 -0.6558
 8130SOL    HW136023   4.614   3.369   2.537 -0.7201 -0.5875  0.7522
 8130SOL    HW236024   4.553   3.354   2.409 -1.1505  2.8923  0.5573
 8131SOL     OW36025   2.384   2.940   2.516  0.4048  0.7426  0.3109
 8131SOL    HW136026   2.389   2.870   2.451  0.0702  0.7595  0.2685
 8131SOL    HW236027   2.298   2.925   2.554 -0.4640 -1.8689 -2.6367
 8132SOL     OW36028   0.723   2.055  12.928  0.0109  0.1540 -0.1904
 8132SOL    HW136029   0.632   2.084  12.918  1.0012  2.7672 -1.5737
 8132SOL    HW236030   0.769   2.087  12.851  2.4776 -0.9978  0.8064
 8133SOL     OW36031   2.992   0.288   2.383 -0.1590  0.1679  0.0400
 8133SOL    HW136032   3.039   0.369   2.399 -1.0852  0.7314 -0.1101
 8133SOL    HW236033   3.044   0.243   2.316 -0.6018 -1.0809  0.5224
 8134SOL     OW36034   1.256   1.131   6.356  0.6002 -0.0531  0.4429
 8134SOL    HW136035   1.314   1.092   6.421 -0.9799  0.1175  1.9706
 8134SOL    HW236036   1.174   1.100   6.394  1.0928  1.0785  2.4415
 8135SOL     OW36037   0.408   1.807   5.879 -0.3319 -0.1012 -0.2510
 8135SOL    HW136038   0.493   1.802   5.834 -1.3813 -1.0676 -2.0833
 8135SOL    HW236039   0.373   1.719   5.867 -1.3702  0.3050 -0.1713
 8136SOL     OW36040   1.248   1.560   6.042 -0.0551 -0.2676 -0.2924
 8136SOL    HW136041   1.182   1.585   6.107 -1.3134  1.2168 -2.1656
 8136SOL    HW236042   1.252   1.466   6.061 -1.6327 -0.4382 -0.7959
 8137SOL     OW36043   1.355   2.587   6.279  0.4873 -0.4781  0.2888
 8137SOL    HW136044   1.302   2.628   6.348  0.4103  0.2439 -0.2009
 8137SOL    HW236045   1.430   2.646   6.286  1.5632 -1.7620 -0.7932
 8138SOL     OW36046   3.986   2.499   2.693 -0.0395 -0.0434  0.5668
 8138SOL    HW136047   4.029   2.438   2.753  0.3285 -0.0037  0.3437
 8138SOL    HW236048   3.914   2.540   2.742 -0.4785  1.1734 -1.1114
 8139SOL     OW36049   2.668   2.601   7.339 -0.0232 -0.1046 -0.4672
 8139SOL    HW136050   2.596   2.633   7.285  0.7945  0.9369 -0.9488
 8139SOL    HW236051   2.687   2.676   7.396 -2.9656 -1.4859  2.2599
 8140SOL     OW36052   2.663   2.925  11.806 -0.4148 -0.4612 -0.4169
 8140SOL    HW136053   2.731   2.937  11.872 -1.0122  0.6466 -0.0047
 8140SOL    HW236054   2.592   2.981  11.837  1.1225  0.9799  0.4425
 8141SOL     OW36055   1.489   0.099  15.687  0.4726 -0.0176 -0.2871
 8141SOL    HW136056   1.452   0.068  15.770 -1.4936 -1.2074 -1.5960
 8141SOL    HW236057   1.579   0.069  15.680  1.1585  2.1897 -1.1429
 8142SOL     OW36058   3.367   0.200   0.179 -0.7184  0.3077  0.3858
 8142SOL    HW136059   3.406   0.205   0.092  1.4952  0.8080  1.4009
 8142SOL    HW236060   3.321   0.284   0.176  1.2282  1.3413 -0.6169
 8143SOL     OW36061   4.647   1.513   1.867  0.0113 -0.2242  0.4269
 8143SOL    HW136062   4.628   1.475   1.953  0.0466  0.5397  0.7676
 8143SOL    HW236063   4.578   1.463   1.824 -1.9221  1.8978  1.1078
 8144SOL     OW36064   1.788   1.413   0.635  0.2370 -0.1929 -0.1835
 8144SOL    HW136065   1.796   1.332   0.585  0.1447 -0.1069 -0.3369
 8144SOL    HW236066   1.693   1.412   0.643  0.2598 -0.0215  0.1174
 8145SOL     OW36067   1.828   3.817  15.007  0.1883 -0.4552 -0.7930
 8145SOL    HW136068   1.908   3.781  15.044 -0.1845 -1.2131 -0.7143
 8145SOL    HW236069   1.871   3.843  14.926  0.0460 -1.4287 -1.1851
 8146SOL     OW36070   4.665   0.255   0.479  0.2052 -0.5867  0.3032
 8146SOL    HW136071   4.659   0.198   0.402  3.4209 -0.7466  0.1545
 8146SOL    HW236072   4.578   0.246   0.518 -0.1955 -1.7384 -0.8480
 8147SOL     OW36073   2.831   1.398   5.241 -0.0695  0.4355 -0.7982
 8147SOL    HW136074   2.790   1.348   5.171 -2.2645  0.9889  0.1117
 8147SOL    HW236075   2.909   1.343   5.253 -0.5327 -0.1680 -0.5566
 8148SOL     OW36076   3.209   3.371   9.022 -0.2731  0.1394  0.0099
 8148SOL    HW136077   3.258   3.310   8.967  3.1053  2.0766  0.9153
 8148SOL    HW236078   3.157   3.415   8.955  1.4759  0.5720 -1.0569
 8149SOL     OW36079   0.122   3.021  15.896 -0.1087 -0.6106  0.1442
 8149SOL    HW136080   0.109   2.988  15.807 -0.6877 -1.8016  0.6666
 8149SOL    HW236081   0.032   3.020  15.927 -0.1565 -0.0449  0.0078
 8150SOL     OW36082   0.050   0.280   1.996 -0.8744  0.4252 -0.3006
 8150SOL    HW136083   0.054   0.306   2.088  2.3576 -0.9115 -0.0643
 8150SOL    HW236084   0.121   0.217   1.982 -1.7320 -0.3507 -1.0719
 8151SOL     OW36085   4.473   4.413   3.604 -0.3112 -0.8628  0.4722
 8151SOL    HW136086   4.476   4.391   3.511  0.8761 -1.6107  0.6826
 8151SOL    HW236087   4.564   4.388   3.619 -0.3096 -0.2808  1.4792
 8152SOL     OW36088   3.302   2.684   2.027 -0.0614  0.0860  0.2834
 8152SOL    HW136089   3.381   2.656   1.980  0.9100  0.1202  1.9133
 8152SOL    HW236090   3.293   2.607   2.083 -0.7994 -1.7362 -2.2949
 8153SOL     OW36091   3.503   0.791   8.505 -0.2547  0.1552  0.4629
 8153SOL    HW136092   3.462   0.792   8.418  1.3040 -0.1064 -0.2799
 8153SOL    HW236093   3.480   0.878   8.539  1.6785  0.8731 -0.0456
 8154SOL     OW36094   0.803   2.632   4.657  0.4150  0.1046 -0.5905
 8154SOL    HW136095   0.813   2.577   4.579  3.6128  0.8157 -0.6998
 8154SOL    HW236096   0.834   2.579   4.731 -0.3388  1.5214  0.7399
 8155SOL     OW36097   1.683   0.350   3.884  0.5172  0.2403  0.3462
 8155SOL    HW136098   1.670   0.352   3.790  0.0238 -1.2979  0.3854
 8155SOL    HW236099   1.766   0.301   3.880  1.6718  2.1922  0.3219
 8156SOL     OW36100   1.086   2.394   3.193 -0.0237 -0.0878  0.3688
 8156SOL    HW136101   0.994   2.411   3.212 -0.4928  2.1082 -3.7238
 8156SOL    HW236102   1.125   2.480   3.212 -0.9361  0.3847  0.1132
 8157SOL     OW36103   4.129   0.076   2.641  0.1092 -0.4866 -0.2626
 8157SOL    HW136104   4.055   0.027   2.678  0.0851  0.8905  1.4790
 8157SOL    HW236105   4.101   0.166   2.654  1.2231 -0.5001  2.1971
 8158SOL     OW36106   1.601   3.924   7.977 -0.5489  0.8362 -0.1161
 8158SOL    HW136107   1.648   3.843   7.997 -1.1189  0.9374  1.5909
 8158SOL    HW236108   1.514   3.905   8.012 -0.5670  2.4836  0.7348
 8159SOL     OW36109   4.583   2.254   4.852 -0.2814 -0.4005 -0.2882
 8159SOL    HW136110   4.583   2.252   4.757  2.0443  0.6763 -0.3294
 8159SOL    HW236111   4.491   2.279   4.864  0.6057  2.7339 -0.0328
 8160SOL     OW36112   1.099   4.252   5.762  0.3953 -0.1304 -0.7449
 8160SOL    HW136113   1.014   4.297   5.757  0.4147  0.0330  0.2527
 8160SOL    HW236114   1.146   4.309   5.822  1.9225 -2.6722  0.4535
 8161SOL     OW36115   1.810   0.757  15.607 -0.2692 -0.1856  0.1894
 8161SOL    HW136116   1.834   0.760  15.514 -0.2145 -0.9068  0.1778
 8161SOL    HW236117   1.887   0.797  15.646  1.1505 -2.0185 -0.7268
 8162SOL     OW36118   1.394   0.072   7.573 -0.2712 -0.1334 -0.0821
 8162SOL    HW136119   1.404   0.008   7.643 -0.0644 -1.3241 -1.2087
 8162SOL    HW236120   1.416   0.024   7.493 -0.3679  1.4413 -1.0508
 8163SOL     OW36121   0.235   1.073  10.855  0.1314 -0.3608 -0.4645
 8163SOL    HW136122   0.257   1.129  10.930 -0.7610 -0.7598  0.0994
 8163SOL    HW236123   0.290   0.998  10.874  0.6387  0.4487  1.2975
 8164SOL     OW36124   0.424   3.846   6.978 -0.0977  0.3267 -0.0228
 8164SOL    HW136125   0.488   3.829   6.909 -1.6630  2.0898 -1.9164
 8164SOL    HW236126   0.344   3.844   6.925 -0.7708 -1.3874  1.0637
 8165SOL     OW36127   1.118   2.911   2.600  0.4097  0.0260  0.5123
 8165SOL    HW136128   1.186   2.864   2.648  1.9526  1.6555 -0.0512
 8165SOL    HW236129   1.041   2.887   2.651 -1.2226 -0.9193 -2.3590
 8166SOL     OW36130   0.759   2.204   0.657 -0.3325  0.4013 -0.4393
 8166SOL    HW136131   0.685   2.144   0.668  0.6158 -0.8274 -0.7934
 8166SOL    HW236132   0.765   2.235   0.566  2.5050 -2.2253 -1.1455
 8167SOL     OW36133   3.382   1.724   2.737 -0.1788 -0.3358  0.1760
 8167SOL    HW136134   3.373   1.792   2.803 -0.2864 -2.0444  1.9276
 8167SOL    HW236135   3.329   1.652   2.771 -0.5351 -1.1657 -2.1741
 8168SOL     OW36136   2.833   0.927   5.692  0.1385 -0.3855  0.2063
 8168SOL    HW136137   2.814   0.955   5.782  0.6904  1.1926 -0.1512
 8168SOL    HW236138   2.927   0.948   5.689 -0.0556  0.5065  0.2887
 8169SOL     OW36139   1.578   3.516   0.616 -0.0036  0.1906  0.2127
 8169SOL    HW136140   1.618   3.565   0.688 -1.2644  0.7042  0.5555
 8169SOL    HW236141   1.607   3.561   0.537 -1.3723 -1.4072 -1.2088
 8170SOL     OW36142   4.272   0.889  11.283 -0.1185  0.0338 -0.2249
 8170SOL    HW136143   4.367   0.893  11.266 -0.0202  1.0106  0.5495
 8170SOL    HW236144   4.250   0.796  11.283  3.6684 -0.8614 -3.0872
 8171SOL     OW36145   4.335   3.618   3.852  0.0970 -0.3526  0.6285
 8171SOL    HW136146   4.408   3.597   3.910  1.0858  0.2850 -0.3802
 8171SOL    HW236147   4.361   3.553   3.786  1.1068 -0.8055  1.4622
 8172SOL     OW36148   2.008   3.715   8.116 -0.0216  0.6900  0.5873
 8172SOL    HW136149   2.037   3.774   8.186  0.9329 -0.9956  1.6027
 8172SOL    HW236150   2.013   3.773   8.040 -0.0572 -2.6063 -1.9398
 8173SOL     OW36151   3.611   3.398   9.347  0.1571 -0.3402  0.3194
 8173SOL    HW136152   3.685   3.459   9.350 -0.4257  0.3225  1.4800
 8173SOL    HW236153   3.646   3.314   9.317  0.7056 -1.2577  3.4972
 8174SOL     OW36154   0.824   1.900   7.940  0.4984  0.1641 -0.6382
 8174SOL    HW136155   0.778   1.825   7.903  0.5359 -0.4645  0.6004
 8174SOL    HW236156   0.913   1.876   7.915  1.0647 -0.4567  1.9842
 8175SOL     OW36157   3.230   1.976   4.002  0.4206  0.3621  0.1052
 8175SOL    HW136158   3.324   1.994   4.001  0.0986  2.0966  1.0690
 8175SOL    HW236159   3.223   1.942   4.092  4.3283  1.9637  0.9982
 8176SOL     OW36160   2.586   1.384   9.826  0.1471 -0.1249 -0.4398
 8176SOL    HW136161   2.527   1.328   9.775  0.6156 -0.8032 -0.2321
 8176SOL    HW236162   2.551   1.355   9.910  0.3895 -3.1186 -1.3498
 8177SOL     OW36163   1.774   1.724  15.900 -0.5481  0.0792 -0.1915
 8177SOL    HW136164   1.757   1.735  15.807  0.3451 -1.4202 -0.5220
 8177SOL    HW236165   1.711   1.792  15.927  0.6984  1.1201  0.1396
 8178SOL     OW36166   3.466   2.060  13.687 -0.6034  0.4804  0.0224
 8178SOL    HW136167   3.479   2.009  13.766 -2.5156  2.1071  1.3928
 8178SOL    HW236168   3.376   2.031  13.674  0.0690 -0.2057 -3.1063
 8179SOL     OW36169   4.455   1.930   2.288 -0.1565 -0.1445 -0.5272
 8179SOL    HW136170   4.539   1.977   2.286  1.6682 -3.4600 -1.5944
 8179SOL    HW236171   4.393   2.003   2.293  1.3793  0.8213  4.8667
 8180SOL     OW36172   2.110   2.889  11.446 -0.0943  0.0331 -0.3847
 8180SOL    HW136173   2.046   2.947  11.488  0.5294  0.4010  0.0590
 8180SOL    HW236174   2.188   2.932  11.482  0.0420 -1.1949  0.7786
 8181SOL     OW36175   2.763   1.421   8.741  0.5064  0.1250  0.6777
 8181SOL    HW136176   2.836   1.480   8.727  1.7481 -1.0125  2.3641
 8181SOL    HW236177   2.707   1.466   8.804  0.0259  0.6389 -0.1149
 8182SOL     OW36178   4.572   1.518   2.723  0.2620 -0.0551 -0.9630
 8182SOL    HW136179   4.594   1.530   2.631  1.5569 -1.1033 -0.7878
 8182SOL    HW236180   4.656   1.549   2.757 -1.1298  2.0235  0.6482
 8183SOL     OW36181   3.953   4.721  16.101  0.4612  0.2026 -0.6501
 8183SOL    HW136182   3.894   0.056  16.120 -0.1976 -0.9300  1.6812
 8183SOL    HW236183   3.925   4.689  16.016 -0.7481 -1.6455  0.4349
 8184SOL     OW36184   2.115   1.126   7.084  0.4167  0.0550  0.5216
 8184SOL    HW136185   2.055   1.193   7.050  1.0382 -1.0644 -2.6672
 8184SOL    HW236186   2.053   1.080   7.141  0.6692 -2.1743 -1.0467
 8185SOL     OW36187   1.932   3.553   3.115 -0.5529 -0.2219  0.6018
 8185SOL    HW136188   2.000   3.519   3.172 -1.1988 -1.9662  0.3435
 8185SOL    HW236189   1.976   3.607   3.049 -0.0625 -0.7305  0.5227
 8186SOL     OW36190   3.543   2.647  10.651 -0.0973 -0.6136 -0.4089
 8186SOL    HW136191   3.591   2.685  10.578  2.1998 -0.8589  0.9930
 8186SOL    HW236192   3.606   2.585  10.687 -0.0667  0.6167  1.6978
 8187SOL     OW36193   1.502   4.731   8.876 -0.1962  0.4189  0.1845
 8187SOL    HW136194   1.555   4.703   8.801 -0.7714  0.2400 -0.1523
 8187SOL    HW236195   1.548   4.685   8.946 -0.2091 -1.2537 -0.9014
 8188SOL     OW36196   2.392   0.159  14.927 -0.2226 -0.4866  0.1143
 8188SOL    HW136197   2.311   0.163  14.877  0.7157 -0.5619 -1.4542
 8188SOL    HW236198   2.449   0.212  14.870  0.2249 -1.4995 -0.3910
 8189SOL     OW36199   1.630   0.188   4.794  0.0253 -0.2520 -0.5254
 8189SOL    HW136200   1.636   0.120   4.861 -0.3310 -0.7397 -0.9918
 8189SOL    HW236201   1.612   0.143   4.712  1.2448  1.4088 -1.7164
 8190SOL     OW36202   0.891   0.185   4.498  0.1636  0.2699  0.4717
 8190SOL    HW136203   0.948   0.238   4.554  0.5310 -1.6665  1.9240
 8190SOL    HW236204   0.912   0.096   4.527 -0.9723  0.1768  0.9914
 8191SOL     OW36205   3.023   1.207   5.314  0.4737 -0.1356  0.4198
 8191SOL    HW136206   3.096   1.242   5.365  1.1606  1.8505 -1.9184
 8191SOL    HW236207   3.009   1.121   5.356  0.9188 -0.4107  0.0099
 8192SOL     OW36208   0.433   3.709   9.428 -0.6559 -0.6965 -0.1920
 8192SOL    HW136209   0.426   3.737   9.519  0.0731  1.1595 -0.7183
 8192SOL    HW236210   0.511   3.654   9.432 -0.1376  0.0770  0.0649
 8193SOL     OW36211   4.621   2.425   8.630 -0.0927 -0.4822 -0.4873
 8193SOL    HW136212   4.619   2.336   8.664  0.1834 -0.5987 -0.7778
 8193SOL    HW236213   4.608   2.467   8.715 -3.8483  0.2909 -1.4404
 8194SOL     OW36214   1.987   1.677   7.269  0.2827 -0.6820  0.4974
 8194SOL    HW136215   1.925   1.605   7.259 -0.5531  0.1802 -0.4239
 8194SOL    HW236216   1.990   1.715   7.182  1.1250 -3.2022 -0.5682
 8195SOL     OW36217   2.109   3.467   8.054  0.2396 -0.4866 -0.3010
 8195SOL    HW136218   2.072   3.555   8.060  0.8258 -0.2070 -0.7738
 8195SOL    HW236219   2.121   3.448   8.147 -3.4026 -0.5294  0.1510
 8196SOL     OW36220   3.615   2.074   2.287  0.4586 -0.1505 -0.1440
 8196SOL    HW136221   3.649   2.058   2.375  1.3004 -0.4655 -0.5354
 8196SOL    HW236222   3.526   2.106   2.302  1.0273  0.3336  2.1436
 8197SOL     OW36223   3.710   1.106  16.460 -0.0779 -0.2898  0.3007
 8197SOL    HW136224   3.742   1.092  16.549  0.5859 -0.7144  0.0005
 8197SOL    HW236225   3.618   1.086  16.473  0.0732  1.2969  3.7896
 8198SOL     OW36226   3.885   2.366   4.257 -0.0797 -0.2490  0.5458
 8198SOL    HW136227   3.921   2.325   4.178  3.8200  0.4696  1.9100
 8198SOL    HW236228   3.805   2.318   4.276  0.4708 -2.1661 -1.9893
 8199SOL     OW36229   3.385   1.786   3.709  0.3437 -0.0365  0.1709
 8199SOL    HW136230   3.395   1.755   3.799 -2.0538  0.4323  0.6002
 8199SOL    HW236231   3.432   1.869   3.717  2.0318 -0.9593 -0.2011
 8200SOL     OW36232   0.304   3.583   9.229  0.0820  0.2090  0.9171
 8200SOL    HW136233   0.350   3.627   9.300  1.4127 -0.7389  0.6520
 8200SOL    HW236234   0.221   3.571   9.275  0.2036 -1.2760  0.7444
 8201SOL     OW36235   1.159   3.832  16.472 -0.5567  0.3686  0.0999
 8201SOL    HW136236   1.096   3.897  16.501 -3.4939 -2.7208  0.6718
 8201SOL    HW236237   1.154   3.754  16.527 -1.2705  0.1935 -0.2130
 8202SOL     OW36238   2.564   3.260   2.875  0.2576  0.1438 -0.4921
 8202SOL    HW136239   2.477   3.231   2.903  0.2038  3.1191  2.4417
 8202SOL    HW236240   2.570   3.236   2.783  0.3104  1.0157 -0.7112
 8203SOL     OW36241   1.509   0.506   3.226  0.7638 -0.4951 -0.1962
 8203SOL    HW136242   1.487   0.598   3.234  2.3421 -0.2119  0.9493
 8203SOL    HW236243   1.559   0.507   3.308  0.0669  1.1468  0.1970
 8204SOL     OW36244   4.208   0.529   3.626 -0.0666 -0.5772 -0.1836
 8204SOL    HW136245   4.295   0.509   3.592  0.1078  1.7678 -1.0868
 8204SOL    HW236246   4.147   0.463   3.592 -2.1859  1.7481 -0.8591
 8205SOL     OW36247   0.817   2.532  12.095  0.2833 -0.1681 -0.1231
 8205SOL    HW136248   0.844   2.524  12.186 -2.4064  1.6160  0.8553
 8205SOL    HW236249   0.896   2.505  12.049 -0.5766 -0.1028 -1.6360
 8206SOL     OW36250   4.419   0.069  17.166  0.3487 -0.0559  0.2181
 8206SOL    HW136251   4.460   0.153  17.183 -1.4510  0.9233 -0.2364
 8206SOL    HW236252   4.463   0.054  17.082 -1.3865  0.4970 -0.8075
 8207SOL     OW36253   3.198   2.184   7.677  0.4734  0.0079  0.1139
 8207SOL    HW136254   3.167   2.266   7.639 -1.8847 -0.5448  0.8790
 8207SOL    HW236255   3.146   2.123   7.625  1.1245 -0.7783  0.3723
 8208SOL     OW36256   1.452   4.649  10.413 -0.4010 -0.4234  0.1750
 8208SOL    HW136257   1.410   4.563  10.400  0.6500 -1.2127  1.9459
 8208SOL    HW236258   1.474   4.649  10.506 -1.0839  1.2837  0.3336
 8209SOL     OW36259   0.415   2.278   7.178 -0.6720  0.4913 -0.2991
 8209SOL    HW136260   0.449   2.232   7.255 -0.6658  1.7811  0.4784
 8209SOL    HW236261   0.322   2.267   7.196 -0.8750 -0.5096 -1.9879
 8210SOL     OW36262   1.192   3.983   8.277 -0.4464  0.2876 -0.3171
 8210SOL    HW136263   1.150   4.010   8.196 -0.8946 -0.8623 -0.4632
 8210SOL    HW236264   1.118   3.971   8.336 -1.1530  2.1945 -0.8185
 8211SOL     OW36265   4.460   1.448   7.474 -0.3921  0.8498 -0.6922
 8211SOL    HW136266   4.524   1.484   7.536 -0.4756 -1.8534  0.9871
 8211SOL    HW236267   4.400   1.403   7.533  0.2337  1.1987  0.2186
 8212SOL     OW36268   1.544   0.295   7.473 -0.1996 -0.0057  0.4089
 8212SOL    HW136269   1.500   0.220   7.513  0.7364 -0.3658  0.7794
 8212SOL    HW236270   1.584   0.325   7.554 -0.3415  3.0957 -0.6737
 8213SOL     OW36271   3.690   4.229   1.688  0.2898 -0.3347 -0.2090
 8213SOL    HW136272   3.679   4.276   1.605 -2.0976 -0.4227  0.0533
 8213SOL    HW236273   3.775   4.257   1.723 -0.6232  0.8517  1.0724
 8214SOL     OW36274   1.915   4.499   0.513 -0.2253 -0.6473 -0.3900
 8214SOL    HW136275   1.920   4.499   0.418  0.2314 -1.4127 -0.3708
 8214SOL    HW236276   1.971   4.422   0.528  1.0096  0.3257 -0.0278
 8215SOL     OW36277   3.602   3.670   0.349 -0.7598  0.3861 -0.1349
 8215SOL    HW136278   3.569   3.741   0.293  1.1588  0.0932 -1.6362
 8215SOL    HW236279   3.525   3.644   0.399 -0.0224 -0.4614  0.5598
 8216SOL     OW36280   4.234   4.060  17.452 -0.1393 -0.5477 -0.6177
 8216SOL    HW136281   4.208   4.090  17.538  0.7536 -0.1103 -0.4959
 8216SOL    HW236282   4.328   4.049  17.465 -0.5091 -0.2240  2.1699
 8217SOL     OW36283   1.088   1.579   7.968 -0.2346 -0.3626 -0.1973
 8217SOL    HW136284   1.118   1.526   7.894 -1.3932 -3.0743  1.2483
 8217SOL    HW236285   1.161   1.639   7.981 -1.4779  1.0591  0.1551
 8218SOL     OW36286   3.753   3.919  17.512  0.5597  0.0425 -0.2492
 8218SOL    HW136287   3.811   3.866  17.566  0.4318 -1.3455 -1.4564
 8218SOL    HW236288   3.817   3.977  17.469 -0.8085  0.9994 -1.0095
 8219SOL     OW36289   2.781   2.284   4.201 -0.2239 -0.1568  0.4810
 8219SOL    HW136290   2.818   2.337   4.131 -0.8447 -0.4492 -0.0673
 8219SOL    HW236291   2.738   2.212   4.155 -1.4108  3.3343 -3.7316
 8220SOL     OW36292   0.720   1.899   6.790 -0.0310  0.2669  0.1496
 8220SOL    HW136293   0.658   1.826   6.785  0.4636 -0.0903 -0.7679
 8220SOL    HW236294   0.687   1.936   6.872  0.8524  0.9424  0.1941
 8221SOL     OW36295   2.252   2.819  14.019  0.2127 -0.7000  0.2337
 8221SOL    HW136296   2.287   2.907  14.034  0.6107 -1.0767  1.5545
 8221SOL    HW236297   2.330   2.771  13.991  2.2031  1.9822  1.1669
 8222SOL     OW36298   3.313   3.547   2.095 -0.2511  0.3150  0.3108
 8222SOL    HW136299   3.312   3.455   2.069 -1.2307 -0.1150  1.8443
 8222SOL    HW236300   3.322   3.594   2.012  1.2297  0.6561  0.6667
 8223SOL     OW36301   1.934   1.544   3.558 -0.2607 -0.7174 -0.2424
 8223SOL    HW136302   1.908   1.629   3.521  0.2070 -1.2381 -1.7829
 8223SOL    HW236303   1.875   1.534   3.633  0.8714 -1.2903  0.5690
 8224SOL     OW36304   2.016   2.399   5.036 -0.7023  0.1309  0.5370
 8224SOL    HW136305   2.108   2.419   5.018 -1.4299  3.2458  0.2757
 8224SOL    HW236306   1.982   2.479   5.076 -1.7976 -0.0999  0.0645
 8225SOL     OW36307   2.946   1.326  10.532 -0.0128  0.0417  0.0563
 8225SOL    HW136308   3.006   1.252  10.537  0.2583  0.1949 -0.9980
 8225SOL    HW236309   2.991   1.393  10.480 -0.0101 -0.5719 -0.7217
 8226SOL     OW36310   0.365   0.036   4.470  0.1747  0.3456  0.1265
 8226SOL    HW136311   0.358   4.683   4.443  1.3503 -0.4286  2.3948
 8226SOL    HW236312   0.449   0.042   4.517 -0.9738 -3.0369  2.6219
 8227SOL     OW36313   4.458   2.685   5.493  0.0681  0.0641 -0.0264
 8227SOL    HW136314   4.520   2.758   5.495 -0.9430  0.9379 -0.3652
 8227SOL    HW236315   4.394   2.709   5.426 -1.1972 -1.6874  0.5524
 8228SOL     OW36316   2.487   4.107  11.373 -0.6380  0.4690 -0.2014
 8228SOL    HW136317   2.476   4.139  11.462  1.4155  2.6537 -0.7143
 8228SOL    HW236318   2.460   4.015  11.369  4.0820 -0.9066 -0.9113
 8229SOL     OW36319   0.735   3.733  10.287 -0.1803  0.1758  0.2797
 8229SOL    HW136320   0.643   3.759  10.295 -0.7006 -1.9909  1.3392
 8229SOL    HW236321   0.723   3.638  10.279  2.2614 -0.1833  1.1377
 8230SOL     OW36322   3.692   0.552  16.228 -0.1782 -0.5172  0.0925
 8230SOL    HW136323   3.709   0.527  16.319  1.7727 -1.9561 -0.6640
 8230SOL    HW236324   3.628   0.618  16.253  0.8761  1.9994 -3.7600
 8231SOL     OW36325   0.234   1.650   7.743  0.6884 -0.3730  0.0368
 8231SOL    HW136326   0.289   1.586   7.788 -0.3093 -0.9565  0.4330
 8231SOL    HW236327   0.160   1.650   7.805  0.6274 -0.6738 -0.0405
 8232SOL     OW36328   0.508   4.737  12.010  0.4474 -0.5332  0.0665
 8232SOL    HW136329   0.440   0.007  11.942  1.9423 -1.4564 -1.5434
 8232SOL    HW236330   0.476   0.063  12.073  2.0417  1.4686 -1.1828
 8233SOL     OW36331   3.854   0.437   2.348  0.7805  0.4499 -0.2363
 8233SOL    HW136332   3.804   0.363   2.312 -1.9497  1.7891  0.8501
 8233SOL    HW236333   3.926   0.439   2.285  0.3451  0.7995 -0.7125
 8234SOL     OW36334   3.442   1.939  10.086 -0.2789 -0.7100 -0.0305
 8234SOL    HW136335   3.486   2.017  10.119 -1.5570  0.5746 -1.3535
 8234SOL    HW236336   3.457   1.942   9.992  1.7398 -5.0461  0.1774
 8235SOL     OW36337   2.403   4.325  12.725  0.3453  0.3907 -0.0335
 8235SOL    HW136338   2.357   4.260  12.779  2.2276 -0.2104  0.8375
 8235SOL    HW236339   2.476   4.368  12.770 -0.5001  1.1638  0.5985
 8236SOL     OW36340   0.693   3.816   0.199  0.3872  0.3981 -0.2283
 8236SOL    HW136341   0.721   3.744   0.142 -1.2175  0.8442 -1.5460
 8236SOL    HW236342   0.781   3.833   0.233  1.2351 -0.5914 -1.9250
 8237SOL     OW36343   1.804   1.809   4.882  0.0780  0.1860 -0.5002
 8237SOL    HW136344   1.846   1.863   4.816 -0.9463  0.0374 -1.2878
 8237SOL    HW236345   1.752   1.879   4.921 -0.7547 -1.3869  1.2277
 8238SOL     OW36346   3.051   3.898   7.691  0.1948 -0.1849 -0.3232
 8238SOL    HW136347   3.090   3.811   7.687 -1.0344 -0.6161 -3.0551
 8238SOL    HW236348   2.974   3.898   7.634  0.2699  1.4223 -0.4329
 8239SOL     OW36349   3.147   0.627  14.258 -0.1200  0.7934 -0.1350
 8239SOL    HW136350   3.075   0.563  14.259 -1.0375  1.7993 -1.3228
 8239SOL    HW236351   3.221   0.567  14.260  0.5922  1.6958  0.2959
 8240SOL     OW36352   0.411   1.926  11.925  0.3793 -0.0686 -0.5031
 8240SOL    HW136353   0.481   1.923  11.990 -1.5023  0.7662  1.5946
 8240SOL    HW236354   0.437   1.995  11.864 -0.3539 -0.9264 -1.7871
 8241SOL     OW36355   2.674   2.710   3.446 -0.3649  0.5348  0.0645
 8241SOL    HW136356   2.703   2.704   3.537 -0.9041  0.4862  0.2317
 8241SOL    HW236357   2.717   2.792   3.420  0.1756  0.7030  1.5169
 8242SOL     OW36358   0.634   1.638   8.811 -0.0209  0.2686 -0.3575
 8242SOL    HW136359   0.672   1.720   8.782 -0.5664  0.3403 -0.8462
 8242SOL    HW236360   0.663   1.631   8.902  1.1327  0.7226 -0.6953
 8243SOL     OW36361   2.947   4.320   5.457 -0.2539  0.4335  0.2483
 8243SOL    HW136362   2.879   4.311   5.524  2.2063  0.3419  2.7751
 8243SOL    HW236363   2.894   4.353   5.385  0.0375 -1.4079 -0.8017
 8244SOL     OW36364   0.722   4.424  12.905  0.0614 -0.5934  0.0994
 8244SOL    HW136365   0.639   4.402  12.947 -0.4043  0.3791 -0.3232
 8244SOL    HW236366   0.715   4.510  12.864 -1.6078 -1.9075 -2.3621
 8245SOL     OW36367   0.052   2.477   2.413 -0.4033 -0.2582  0.6728
 8245SOL    HW136368   4.718   2.540   2.417 -0.2473  0.0412 -1.2847
 8245SOL    HW236369   0.061   2.459   2.506 -1.4518 -0.2071  0.7856
 8246SOL     OW36370   2.628   1.268   4.115 -0.1193  0.5860  0.0858
 8246SOL    HW136371   2.560   1.316   4.163  1.4136  1.0133  1.8247
 8246SOL    HW236372   2.630   1.316   4.033  1.6779 -0.7881 -0.6680
 8247SOL     OW36373   2.906   4.384   1.261 -0.4628  0.0558 -0.1223
 8247SOL    HW136374   2.853   4.446   1.211  1.0620  0.7278 -0.8811
 8247SOL    HW236375   2.916   4.433   1.343 -1.0175  1.1870 -0.7381
 8248SOL     OW36376   1.765   4.491   2.256 -0.0232  0.4684  0.3296
 8248SOL    HW136377   1.731   4.454   2.174 -1.5308  0.8567  0.7721
 8248SOL    HW236378   1.676   4.503   2.290 -0.9804 -1.6052 -1.4672
 8249SOL     OW36379   3.174   4.394   4.107  0.4438 -0.1763 -0.0492
 8249SOL    HW136380   3.166   4.488   4.090  1.5978 -0.1534 -0.4721
 8249SOL    HW236381   3.242   4.379   4.173 -2.2382  1.0585  3.0081
 8250SOL     OW36382   4.083   0.888   3.936  0.2546 -0.0494  0.2841
 8250SOL    HW136383   3.996   0.898   3.974  0.1178 -0.7700  0.1540
 8250SOL    HW236384   4.134   0.906   4.015 -0.8846  1.4485  0.6822
 8251SOL     OW36385   3.805   3.437   2.425 -0.0026 -0.4318 -0.2077
 8251SOL    HW136386   3.774   3.376   2.492  1.1436 -2.5788 -1.6677
 8251SOL    HW236387   3.792   3.389   2.344  1.6132 -1.4446  0.1468
 8252SOL     OW36388   3.308   0.879   3.607 -0.6737 -0.6502  0.0359
 8252SOL    HW136389   3.403   0.886   3.617 -0.3851  0.3813 -3.3401
 8252SOL    HW236390   3.275   0.845   3.690  2.0749  1.0831  1.8244
 8253SOL     OW36391   1.865   3.177   5.229 -0.5790  0.0989  0.5260
 8253SOL    HW136392   1.794   3.167   5.166  0.7603 -0.6303 -0.8470
 8253SOL    HW236393   1.823   3.147   5.310  0.0970 -0.9946  0.4745
 8254SOL     OW36394   1.028   1.154   2.850  0.1599  0.0522 -0.3451
 8254SOL    HW136395   0.944   1.193   2.826  0.6341  1.8252  0.9302
 8254SOL    HW236396   1.044   1.087   2.784 -0.2367 -0.4157  0.0301
 8255SOL     OW36397   1.156   4.186   1.385 -0.1012 -0.3855 -0.0047
 8255SOL    HW136398   1.123   4.112   1.436  0.2526 -1.2115 -0.9643
 8255SOL    HW236399   1.175   4.246   1.457 -0.4124 -1.5147  1.0207
 8256SOL     OW36400   2.310   3.018   5.433 -0.6462 -0.2677 -0.3344
 8256SOL    HW136401   2.405   3.021   5.447 -0.9012  0.0207  1.3243
 8256SOL    HW236402   2.303   3.112   5.412 -3.9386 -0.9784 -2.4115
 8257SOL     OW36403   0.555   2.753   7.822  0.2932  0.0781  0.4041
 8257SOL    HW136404   0.600   2.792   7.747  1.1875 -1.8013 -0.0388
 8257SOL    HW236405   0.465   2.784   7.807  0.5501  1.0407  0.9253
 8258SOL     OW36406   3.869   1.662   9.392 -0.2382 -0.2383  0.4295
 8258SOL    HW136407   3.913   1.665   9.307 -0.8491 -1.6243  0.0789
 8258SOL    HW236408   3.884   1.752   9.421  1.0622 -0.2976 -0.0601
 8259SOL     OW36409   1.283   3.179   8.818 -0.0704  0.6153  0.4028
 8259SOL    HW136410   1.218   3.245   8.796  0.1456  0.4644 -0.7120
 8259SOL    HW236411   1.347   3.228   8.869  1.4576 -0.9548  0.0254
 8260SOL     OW36412   1.578   2.318  13.488  0.4108 -0.2088 -0.4188
 8260SOL    HW136413   1.505   2.375  13.510  0.4171 -0.5779  0.5822
 8260SOL    HW236414   1.640   2.314  13.562 -0.8369 -0.6156  0.6041
 8261SOL     OW36415   1.566   1.624   4.762 -0.0713  0.0015 -0.5769
 8261SOL    HW136416   1.624   1.649   4.834  0.5404 -1.6838 -0.4942
 8261SOL    HW236417   1.489   1.681   4.762 -0.8702 -1.0798 -0.9295
 8262SOL     OW36418   2.244   0.113   6.326  0.2107 -0.9165 -0.9345
 8262SOL    HW136419   2.232   0.099   6.232  1.7547  1.6762 -1.5146
 8262SOL    HW236420   2.262   0.206   6.339 -0.7703 -0.8952  0.2451
 8263SOL     OW36421   3.707   0.162   7.101 -0.1723  0.3884 -0.0646
 8263SOL    HW136422   3.689   0.069   7.117 -0.8341  0.7199  1.1143
 8263SOL    HW236423   3.659   0.197   7.176 -0.2522  2.3471 -1.0311
 8264SOL     OW36424   4.089   3.240   2.555 -0.3028 -0.3081 -0.6205
 8264SOL    HW136425   3.994   3.243   2.565 -0.2883  2.5237 -1.1701
 8264SOL    HW236426   4.093   3.210   2.464 -1.6573  1.2632 -1.1948
 8265SOL     OW36427   2.357   2.222   3.440 -0.0612  0.1434  0.0430
 8265SOL    HW136428   2.308   2.149   3.402  0.6105 -0.6325  0.6730
 8265SOL    HW236429   2.345   2.287   3.371 -1.6053 -0.1816  0.0092
 8266SOL     OW36430   3.181   3.771   0.789  0.4780  0.4572 -0.3451
 8266SOL    HW136431   3.116   3.840   0.800 -0.6315 -0.4011 -1.4484
 8266SOL    HW236432   3.255   3.831   0.798  1.0378 -0.2046 -0.5230
 8267SOL     OW36433   0.521   0.401   2.413  0.0839  0.5460  0.0810
 8267SOL    HW136434   0.564   0.454   2.346 -0.2337  2.4542  1.3610
 8267SOL    HW236435   0.435   0.443   2.414 -0.5026 -0.6670 -1.6109
 8268SOL     OW36436   3.797   2.644   8.511  0.3930  0.4323 -0.0412
 8268SOL    HW136437   3.738   2.717   8.492 -0.6046 -0.5406 -0.6735
 8268SOL    HW236438   3.869   2.668   8.453 -0.2352 -0.8661 -1.3682
 8269SOL     OW36439   2.275   1.064   6.091 -0.0012  0.9158  0.2083
 8269SOL    HW136440   2.334   1.069   6.016 -0.1699 -0.7668 -0.0283
 8269SOL    HW236441   2.189   1.066   6.049  0.2229 -2.9898 -0.3451
 8270SOL     OW36442   3.831   1.699   7.690 -0.2936 -0.0661 -0.4091
 8270SOL    HW136443   3.751   1.660   7.655 -0.5317  1.4540 -1.5383
 8270SOL    HW236444   3.842   1.772   7.629 -3.0330 -0.3936 -1.2791
 8271SOL     OW36445   4.685   0.892  15.716  0.2655 -0.0515 -0.3900
 8271SOL    HW136446   4.641   0.904  15.632  1.4015 -1.1811 -1.1479
 8271SOL    HW236447   4.632   0.830  15.765  2.0919 -1.2897 -0.0160
 8272SOL     OW36448   4.379   2.833  17.077  0.1549 -0.8260 -0.0348
 8272SOL    HW136449   4.339   2.834  17.164  2.1880  0.9822  0.8700
 8272SOL    HW236450   4.307   2.810  17.018  0.4295  1.1395 -1.1406
 8273SOL     OW36451   1.686   1.646   7.922  0.4349 -0.0520  0.0363
 8273SOL    HW136452   1.651   1.733   7.937  0.6098 -0.2652  1.6513
 8273SOL    HW236453   1.606   1.594   7.932  0.5697 -0.4026 -0.7165
 8274SOL     OW36454   4.039   3.080  11.286 -0.4476 -0.7636  0.1112
 8274SOL    HW136455   3.944   3.093  11.285 -0.5163 -1.1112  2.4239
 8274SOL    HW236456   4.057   3.024  11.362 -1.5258  0.9904  1.6579
 8275SOL     OW36457   2.263   3.212   6.522  0.1404 -0.5888  0.1620
 8275SOL    HW136458   2.250   3.166   6.438 -0.6290  2.4230 -1.3604
 8275SOL    HW236459   2.237   3.145   6.586  1.7624 -0.5483  0.8553
 8276SOL     OW36460   4.259   0.483   2.479  0.0790  0.5116 -0.1822
 8276SOL    HW136461   4.213   0.542   2.539  2.0926  2.5191 -0.6172
 8276SOL    HW236462   4.192   0.414   2.476  0.4355  0.2423 -1.7110
 8277SOL     OW36463   3.290   4.687   8.036  0.3590 -0.2502  0.2692
 8277SOL    HW136464   3.276   4.610   8.091 -1.7051 -1.0083 -1.2961
 8277SOL    HW236465   3.295   0.010   8.110 -1.3381  1.0701 -0.7043
 8278SOL     OW36466   2.561   1.989   1.612 -0.7054 -0.4704  0.1937
 8278SOL    HW136467   2.591   2.071   1.573  0.4647 -1.1437 -0.3055
 8278SOL    HW236468   2.645   1.944   1.618  0.1781  1.1663  0.1219
 8279SOL     OW36469   0.349   3.081   6.230 -0.3054  0.1013 -0.1634
 8279SOL    HW136470   0.312   3.051   6.147  0.5685  0.6575 -0.7462
 8279SOL    HW236471   0.324   3.174   6.233 -1.0971 -0.1014 -0.4597
 8280SOL     OW36472   3.133   3.716   4.576  0.2665  0.3100  0.1412
 8280SOL    HW136473   3.144   3.623   4.597 -0.5777  0.1383 -0.1953
 8280SOL    HW236474   3.040   3.730   4.593 -0.0930 -1.9838  0.0640
 8281SOL     OW36475   0.570   4.240   4.111  0.1598 -0.2289  0.0094
 8281SOL    HW136476   0.599   4.327   4.082  0.1278 -0.5439 -0.9910
 8281SOL    HW236477   0.611   4.184   4.045  0.0610 -0.2990  0.0081
 8282SOL     OW36478   4.327   2.663   3.136 -0.2337  0.1540  0.4024
 8282SOL    HW136479   4.290   2.575   3.129 -1.7413  0.8114  0.2209
 8282SOL    HW236480   4.253   2.718   3.160  1.0560  2.4900 -0.9494
 8283SOL     OW36481   3.371   3.784   6.692  0.1057 -0.6345 -0.4138
 8283SOL    HW136482   3.465   3.765   6.700  0.4329  1.0742 -0.2992
 8283SOL    HW236483   3.339   3.700   6.658 -3.6108  1.2377 -1.5501
 8284SOL     OW36484   2.805   4.507   7.541 -0.1746  0.0621 -0.0835
 8284SOL    HW136485   2.822   4.541   7.629  1.2359  0.9867 -0.7222
 8284SOL    HW236486   2.871   4.559   7.495  0.3828 -0.4049  0.1835
 8285SOL     OW36487   0.499   1.465   6.972 -0.3088  0.7655  0.2154
 8285SOL    HW136488   0.425   1.521   6.947 -1.9403 -1.3014  0.4566
 8285SOL    HW236489   0.566   1.503   6.915  0.0708 -1.8103 -1.0309
 8286SOL     OW36490   3.084   4.664  10.658 -0.5915 -0.2498 -0.0083
 8286SOL    HW136491   3.040   4.582  10.678 -0.5370 -0.1723  0.4316
 8286SOL    HW236492   3.031   4.725  10.709 -1.9809 -0.5523 -1.0958
 8287SOL     OW36493   2.354   0.960   3.482 -0.1176  0.2744  0.7740
 8287SOL    HW136494   2.268   0.938   3.518 -0.1563  1.6012  1.5039
 8287SOL    HW236495   2.337   0.952   3.388 -1.4698 -0.4156  1.0721
 8288SOL     OW36496   3.204   4.649   4.044 -0.0712 -0.1960 -0.5492
 8288SOL    HW136497   3.246   4.723   4.089  0.2217 -0.5207 -0.2911
 8288SOL    HW236498   3.165   4.681   3.963 -0.0941 -1.5134 -1.0471
 8289SOL     OW36499   3.543   0.944   6.046 -0.1433 -0.3442  0.3561
 8289SOL    HW136500   3.574   0.986   6.126  1.7168  0.3815 -0.7572
 8289SOL    HW236501   3.514   0.861   6.085  0.7087 -0.6271  0.3881
 8290SOL     OW36502   1.813   1.509   8.785  0.0769 -0.3934 -0.1048
 8290SOL    HW136503   1.802   1.566   8.862 -0.1887 -1.9771  1.0320
 8290SOL    HW236504   1.722   1.484   8.778 -0.6383  1.7556  1.3096
 8291SOL     OW36505   1.750   0.914  14.471 -0.5494 -0.5636  0.0381
 8291SOL    HW136506   1.676   0.971  14.492  1.1932  1.6789  0.0388
 8291SOL    HW236507   1.820   0.979  14.468 -0.4039 -0.7947 -1.5126
 8292SOL     OW36508   4.180   1.756  14.654  0.0696  0.0654  0.0246
 8292SOL    HW136509   4.167   1.709  14.571  1.5125 -1.8025  0.8554
 8292SOL    HW236510   4.266   1.795  14.639  0.9960 -1.2856  1.8476
 8293SOL     OW36511   3.683   1.423   3.395  0.6973  0.1895 -0.0869
 8293SOL    HW136512   3.614   1.457   3.337 -1.0818  0.4352  2.1500
 8293SOL    HW236513   3.631   1.363   3.448  1.7582  0.7174  1.5572
 8294SOL     OW36514   0.762   0.435   6.324 -0.0114 -0.5952 -0.0126
 8294SOL    HW136515   0.810   0.403   6.248  1.7545  3.0041 -0.4456
 8294SOL    HW236516   0.805   0.391   6.397  1.6507  1.4888  0.2516
 8295SOL     OW36517   4.282   0.551   2.035  0.0053 -0.4141  0.7131
 8295SOL    HW136518   4.243   0.593   1.958  2.5130 -1.0095 -0.8707
 8295SOL    HW236519   4.369   0.589   2.034  0.4686 -1.4858  0.4199
 8296SOL     OW36520   4.618   4.686   1.192 -0.7758  0.7642  0.2704
 8296SOL    HW136521   4.570   4.638   1.259 -0.5840  0.5941  0.2828
 8296SOL    HW236522   4.612   4.627   1.117 -1.1916  1.8911 -0.5855
 8297SOL     OW36523   1.428   4.401   6.692 -0.0272  0.3577 -0.3210
 8297SOL    HW136524   1.354   4.447   6.731 -0.5448  0.5662 -1.5434
 8297SOL    HW236525   1.505   4.438   6.736 -0.6721  3.0329 -1.4671
 8298SOL     OW36526   1.533   3.096   7.323  0.2490 -0.0594  0.2469
 8298SOL    HW136527   1.446   3.096   7.284  0.2496 -1.4186  0.2487
 8298SOL    HW236528   1.539   3.009   7.362 -0.3667  1.3363  3.4648
 8299SOL     OW36529   2.390   4.729  12.866 -0.1371  0.6351 -0.1412
 8299SOL    HW136530   2.447   4.720  12.942 -2.0132  2.0603  1.4352
 8299SOL    HW236531   2.307   4.692  12.899 -1.4892  3.0869 -0.8323
 8300SOL     OW36532   3.492   3.458   4.709 -0.5250  0.0326 -0.2732
 8300SOL    HW136533   3.404   3.477   4.678 -1.4766 -1.3434  1.5984
 8300SOL    HW236534   3.527   3.547   4.721 -1.5620  0.5638 -1.1559
 8301SOL     OW36535   2.464   0.032   2.539  0.5850  0.2702  0.2709
 8301SOL    HW136536   2.433   0.040   2.630  1.1624  2.0694  0.3135
 8301SOL    HW236537   2.545   4.720   2.546  1.6975  2.0943  0.5449
 8302SOL     OW36538   4.052   1.137   2.168  0.3239 -0.6913 -0.1516
 8302SOL    HW136539   4.041   1.051   2.207  1.0393 -0.0362  1.4943
 8302SOL    HW236540   4.016   1.124   2.081  0.3480 -0.1093 -0.2511
 8303SOL     OW36541   1.685   4.247   9.303  0.0806 -0.0731  0.1220
 8303SOL    HW136542   1.590   4.260   9.313  0.0937  0.3088 -0.2658
 8303SOL    HW236543   1.694   4.153   9.321  0.9864 -0.0743 -0.3329
 8304SOL     OW36544   3.961   3.096   9.150  0.2119 -0.1735 -0.0039
 8304SOL    HW136545   4.029   3.029   9.164 -0.4715 -1.0305 -0.7358
 8304SOL    HW236546   3.942   3.058   9.064 -0.3333 -0.7436  0.3675
 8305SOL     OW36547   1.323   1.990   2.551 -0.2111 -0.2772  0.4201
 8305SOL    HW136548   1.346   1.959   2.463  0.2056  0.3834  0.2945
 8305SOL    HW236549   1.352   2.081   2.544  1.7066 -0.9225 -0.1254
 8306SOL     OW36550   2.610   2.705   5.314  0.3365  0.2859  0.0818
 8306SOL    HW136551   2.597   2.793   5.348 -0.5800  0.0273  0.4054
 8306SOL    HW236552   2.698   2.714   5.276  1.1027  1.8754  2.2268
 8307SOL     OW36553   1.532   3.580   3.641 -0.1884 -0.0069  0.4590
 8307SOL    HW136554   1.481   3.592   3.562  0.2437 -2.3806 -0.1920
 8307SOL    HW236555   1.548   3.485   3.637  1.6148  0.3513 -0.5182
 8308SOL     OW36556   1.515   4.002   4.915 -0.0344  0.9489 -0.0293
 8308SOL    HW136557   1.560   4.085   4.902 -0.8378  1.0993 -1.9809
 8308SOL    HW236558   1.475   3.996   4.828  2.5087  2.4193 -1.2808
 8309SOL     OW36559   0.722   1.098   5.105 -0.5317  0.1827  0.2759
 8309SOL    HW136560   0.805   1.082   5.060 -1.7988 -1.1517 -1.6354
 8309SOL    HW236561   0.757   1.163   5.165  0.5380 -2.7710  2.8349
 8310SOL     OW36562   0.329   0.596   3.778 -0.1055 -0.1714 -0.1545
 8310SOL    HW136563   0.370   0.512   3.800  1.2631 -0.1190 -2.4214
 8310SOL    HW236564   0.401   0.633   3.727  0.3422  0.1614  0.7098
 8311SOL     OW36565   1.090   0.003   6.773 -0.0042 -0.3182 -0.3631
 8311SOL    HW136566   1.121   0.089   6.802  1.8802 -0.5284 -1.7169
 8311SOL    HW236567   1.129   4.738   6.685 -1.7553 -2.0537 -1.0725
 8312SOL     OW36568   3.791   1.268  12.706 -0.2422 -0.1023  0.2880
 8312SOL    HW136569   3.874   1.281  12.659  0.5681  1.0103  2.0204
 8312SOL    HW236570   3.810   1.313  12.789  1.5115 -1.4111  0.6014
 8313SOL     OW36571   0.165   0.848  17.569 -0.0566 -0.3456 -0.0876
 8313SOL    HW136572   0.205   0.912  17.511  0.1420  0.1842  0.6342
 8313SOL    HW236573   0.078   0.887  17.578  1.2728  2.2441  1.3746
 8314SOL     OW36574   1.800   2.198  12.218 -0.4820 -0.1949  0.2716
 8314SOL    HW136575   1.838   2.262  12.157  0.9181  0.4230  1.7925
 8314SOL    HW236576   1.869   2.184  12.283 -0.3555 -0.3270  0.1091
 8315SOL     OW36577   1.883   2.164   4.153  0.1986  0.0767 -0.6935
 8315SOL    HW136578   1.840   2.166   4.239  0.1392 -0.9713 -0.6945
 8315SOL    HW236579   1.861   2.253   4.125  1.0282  0.5283  0.0785
 8316SOL     OW36580   4.386   4.630  15.414 -0.2008  0.3061 -0.1001
 8316SOL    HW136581   4.469   4.593  15.383 -1.2116 -0.3688 -1.9421
 8316SOL    HW236582   4.328   4.610  15.341 -0.4259  1.0714 -0.1345
 8317SOL     OW36583   4.558   0.715   5.024  1.0047  0.0625  0.2110
 8317SOL    HW136584   4.590   0.679   5.107  2.0293  1.3903  0.3933
 8317SOL    HW236585   4.589   0.660   4.953 -0.9410  0.1854 -0.7367
 8318SOL     OW36586   1.913   1.886   5.234  0.1850 -0.7650 -0.3824
 8318SOL    HW136587   1.936   1.950   5.301 -1.4031 -0.6016  0.0042
 8318SOL    HW236588   1.988   1.829   5.253  1.5457  1.3276  0.5163
 8319SOL     OW36589   1.847   3.023   8.549  0.2188  0.0632  0.0725
 8319SOL    HW136590   1.940   3.047   8.546 -0.3328  1.7901 -3.1857
 8319SOL    HW236591   1.817   3.112   8.532 -2.0314 -0.6884  0.1826
 8320SOL     OW36592   1.544   2.439   8.384  0.6191  0.8180  0.1207
 8320SOL    HW136593   1.563   2.345   8.374 -0.5094  0.7618 -1.6000
 8320SOL    HW236594   1.448   2.438   8.386  0.6586 -1.0370  0.6407
 8321SOL     OW36595   3.476   1.042   5.326 -0.0481 -0.1750 -0.1493
 8321SOL    HW136596   3.550   1.034   5.385  0.4627 -0.1300 -0.7915
 8321SOL    HW236597   3.508   1.003   5.245  1.2255  2.1258 -0.7474
 8322SOL     OW36598   4.131   2.919  12.009 -0.0486 -0.6614 -0.0950
 8322SOL    HW136599   4.107   2.922  11.916  1.2654 -2.4485 -0.4913
 8322SOL    HW236600   4.050   2.883  12.045  0.5748 -2.1348 -0.1442
 8323SOL     OW36601   2.007   2.975   2.293 -0.5247 -0.1010  0.1746
 8323SOL    HW136602   2.085   3.021   2.326 -0.3918  1.7020 -2.5935
 8323SOL    HW236603   1.953   3.004   2.367  0.3919  0.7844  0.4989
 8324SOL     OW36604   4.357   1.145   4.119 -0.1608  0.0358 -0.5071
 8324SOL    HW136605   4.261   1.149   4.113 -0.1116  0.5633 -0.9822
 8324SOL    HW236606   4.365   1.083   4.191  2.3422 -0.0803 -0.8735
 8325SOL     OW36607   1.480   1.118   9.901  0.4967  0.3597 -0.0892
 8325SOL    HW136608   1.472   1.100   9.994 -1.8684  1.4584 -0.0546
 8325SOL    HW236609   1.435   1.203   9.904  0.7398  0.5492 -1.5099
 8326SOL     OW36610   1.403   2.035  12.193  0.5924 -0.1724  0.3974
 8326SOL    HW136611   1.324   2.080  12.223  2.1123  1.3029  2.2129
 8326SOL    HW236612   1.388   1.957  12.247  1.7872 -0.8437 -0.2352
 8327SOL     OW36613   1.448   1.670  12.234  0.4139  0.0172  0.2105
 8327SOL    HW136614   1.407   1.733  12.293  0.3218 -0.7241  0.9289
 8327SOL    HW236615   1.397   1.589  12.239 -0.3251  0.4427 -0.3300
 8328SOL     OW36616   1.806   3.714   6.182  0.5036  0.3346  0.0382
 8328SOL    HW136617   1.750   3.784   6.216 -0.1002 -1.4555  2.7033
 8328SOL    HW236618   1.888   3.753   6.211  0.6074 -0.3375  0.6490
 8329SOL     OW36619   2.088   2.144  17.722 -0.0156 -0.2294  0.4241
 8329SOL    HW136620   2.156   2.105  17.667  0.9170  3.1903 -0.8215
 8329SOL    HW236621   2.118   2.095   0.047  4.0665  0.8267 -0.5333
 8330SOL     OW36622   3.853   2.893   0.999  0.2456 -0.2535  0.1604
 8330SOL    HW136623   3.877   2.966   0.942 -4.1501 -1.6390 -3.4968
 8330SOL    HW236624   3.880   2.940   1.078  2.5257  0.3484 -0.9752
 8331SOL     OW36625   0.048   4.499   2.228  0.3033 -0.4427  0.5566
 8331SOL    HW136626   0.034   4.412   2.266 -0.0216 -0.0006  1.4504
 8331SOL    HW236627   0.135   4.522   2.261  0.3646 -0.5185  0.4502
 8332SOL     OW36628   1.315   4.027  13.164  0.6054  0.1293 -0.1821
 8332SOL    HW136629   1.368   3.950  13.141 -0.1349 -0.4036 -0.0894
 8332SOL    HW236630   1.252   3.999  13.231  0.6508  1.1045  0.2580
 8333SOL     OW36631   0.333   2.236  13.775 -0.0241 -0.2693 -0.1958
 8333SOL    HW136632   0.327   2.255  13.869 -1.7840 -1.0199 -0.1533
 8333SOL    HW236633   0.247   2.193  13.772 -0.3455  0.6584 -3.2575
 8334SOL     OW36634   4.195   2.387   8.721 -0.3521  0.0456  0.0309
 8334SOL    HW136635   4.105   2.385   8.687 -1.5430 -1.7482  3.2084
 8334SOL    HW236636   4.216   2.294   8.712  0.9190  0.2802  0.6572
 8335SOL     OW36637   2.454   0.499   1.468  0.2319  0.0557 -0.5344
 8335SOL    HW136638   2.420   0.569   1.524  2.0251  0.3797  0.1505
 8335SOL    HW236639   2.390   0.432   1.493 -0.1447  1.8746  3.3875
 8336SOL     OW36640   0.913   3.852   8.999 -0.9889  0.0590  0.3825
 8336SOL    HW136641   0.933   3.841   9.092 -0.0600 -0.0004  0.1726
 8336SOL    HW236642   0.818   3.862   8.999 -1.0767 -0.6702  2.3630
 8337SOL     OW36643   0.091   0.948   2.155  0.1840 -0.6434 -0.3942
 8337SOL    HW136644   0.055   0.974   2.071  0.1886 -1.1903 -0.5652
 8337SOL    HW236645   0.139   1.027   2.181 -3.9989  1.3345  1.3070
 8338SOL     OW36646   0.530   0.838   2.412  0.3431 -0.0342 -0.3790
 8338SOL    HW136647   0.450   0.836   2.465  1.9016 -0.6816  1.9780
 8338SOL    HW236648   0.537   0.747   2.384 -1.7340 -0.0532 -0.7695
 8339SOL     OW36649   2.905   3.683   1.705  0.0872 -0.1858  0.4787
 8339SOL    HW136650   2.836   3.739   1.740  0.3175  1.8724 -2.3598
 8339SOL    HW236651   2.945   3.638   1.779 -0.9569 -1.1890  0.4155
 8340SOL     OW36652   3.277   1.190   3.267 -0.0840  0.3892 -0.1391
 8340SOL    HW136653   3.247   1.100   3.279 -0.3032  0.8879  3.1752
 8340SOL    HW236654   3.357   1.174   3.318 -0.1599 -0.5260 -0.3076
 8341SOL     OW36655   3.009   0.811   9.740  0.2884 -0.1685 -0.1685
 8341SOL    HW136656   2.997   0.771   9.654  1.0169  0.9338 -0.7844
 8341SOL    HW236657   2.975   0.750   9.806  2.1110 -0.1675  0.7820
 8342SOL     OW36658   0.328   4.099   5.049  0.0796 -0.6019  0.0048
 8342SOL    HW136659   0.269   4.166   5.015  0.4324 -0.0507  0.4639
 8342SOL    HW236660   0.413   4.137   5.027 -0.4092  0.8797  0.6374
 8343SOL     OW36661   4.475   1.459  12.876 -0.3748  0.2956  0.6726
 8343SOL    HW136662   4.451   1.544  12.837  0.8241  0.0973 -0.5060
 8343SOL    HW236663   4.489   1.477  12.969  1.7498  0.5350  0.2948
 8344SOL     OW36664   0.757   4.506   0.006 -0.4431 -0.5693 -0.1911
 8344SOL    HW136665   0.843   4.462   0.008 -0.4092 -0.5608 -1.5869
 8344SOL    HW236666   0.704   4.435  17.720  0.0003  0.0584 -2.0257
 8345SOL     OW36667   1.696   4.045   5.629 -0.0180 -0.4785 -0.5041
 8345SOL    HW136668   1.787   4.058   5.602  0.8991 -0.5438  2.5515
 8345SOL    HW236669   1.697   4.103   5.705 -0.0816 -1.0215 -0.0889
 8346SOL     OW36670   2.711   3.241  11.973  0.2653 -0.3479 -0.2785
 8346SOL    HW136671   2.616   3.240  11.979  0.2753 -2.0766 -0.4599
 8346SOL    HW236672   2.740   3.249  12.064  2.6666 -0.8289 -0.9969
 8347SOL     OW36673   2.698   3.784   6.390  0.0594  0.3992 -0.2252
 8347SOL    HW136674   2.626   3.845   6.382  0.2622  0.6185 -0.3783
 8347SOL    HW236675   2.651   3.703   6.409  1.5007  0.0257  1.7590
 8348SOL     OW36676   1.778   2.232   7.517 -0.7195  0.2649 -0.0659
 8348SOL    HW136677   1.778   2.251   7.611  0.8284  0.2634 -0.0578
 8348SOL    HW236678   1.687   2.237   7.491 -1.0329 -0.4365  0.8753
 8349SOL     OW36679   0.629   0.351   8.808 -0.0010 -0.8212  0.4558
 8349SOL    HW136680   0.644   0.266   8.850  2.6878 -0.1920  0.7936
 8349SOL    HW236681   0.547   0.330   8.764 -1.0742  0.3747  1.9047
 8350SOL     OW36682   3.990   4.356   0.471 -0.4031 -0.0651  0.1232
 8350SOL    HW136683   3.992   4.438   0.423 -1.2931 -1.5785 -2.5103
 8350SOL    HW236684   3.947   4.304   0.403 -1.2436 -1.0617  1.4134
 8351SOL     OW36685   3.044   0.719   1.407  0.2462  0.3543 -0.2392
 8351SOL    HW136686   3.128   0.764   1.396 -0.0521  0.8716 -0.3762
 8351SOL    HW236687   3.031   0.698   1.499 -0.2432 -0.1738 -0.4261
 8352SOL     OW36688   2.776   1.585  10.111 -0.2085  0.3992  0.4182
 8352SOL    HW136689   2.779   1.655  10.045 -2.5600  0.7241  0.6499
 8352SOL    HW236690   2.846   1.528  10.079  0.7392  1.3298  0.8176
 8353SOL     OW36691   1.543   3.458  16.251  0.2584  0.4883  0.0760
 8353SOL    HW136692   1.589   3.531  16.291 -1.0112 -0.0950  2.6419
 8353SOL    HW236693   1.529   3.391  16.318 -0.6453  1.1164  0.5207
 8354SOL     OW36694   1.315   2.086   8.220  0.1818  0.0274  0.2937
 8354SOL    HW136695   1.246   2.021   8.209  3.0409 -3.0390  0.5727
 8354SOL    HW236696   1.362   2.056   8.297  0.1272 -0.8717 -0.0243
 8355SOL     OW36697   1.331   1.524   2.495  0.2406 -0.2621 -0.0477
 8355SOL    HW136698   1.263   1.461   2.520  2.9252 -3.0100  0.1702
 8355SOL    HW236699   1.313   1.516   2.402  0.2304 -0.8756  0.0076
 8356SOL     OW36700   3.335   0.504  14.545  0.1246 -0.3757 -0.2897
 8356SOL    HW136701   3.413   0.554  14.566 -0.8142  1.3857 -1.0093
 8356SOL    HW236702   3.332   0.512  14.450  1.4068 -0.5044 -0.3393
 8357SOL     OW36703   4.169   3.005   4.095 -0.2354  0.0767 -0.1812
 8357SOL    HW136704   4.212   2.967   4.172 -1.6851 -0.7674  0.2029
 8357SOL    HW236705   4.169   2.934   4.031 -0.9906  0.8259 -1.0109
 8358SOL     OW36706   2.064   3.884  16.106 -0.1565 -0.1519 -0.0845
 8358SOL    HW136707   2.019   3.800  16.104  0.9381 -0.6661 -2.6285
 8358SOL    HW236708   2.113   3.881  16.024 -0.1484  0.0328 -0.0879
 8359SOL     OW36709   4.096   1.253   7.168  0.0947  0.3203  0.0609
 8359SOL    HW136710   4.107   1.275   7.075  0.1543  0.8854  0.2022
 8359SOL    HW236711   4.174   1.296   7.203 -1.3385  2.8082  0.2605
 8360SOL     OW36712   0.305   1.063   8.031 -0.0101  0.2298  0.4452
 8360SOL    HW136713   0.361   1.078   7.955 -0.5204  1.0817  0.2363
 8360SOL    HW236714   0.378   1.081   8.090  0.9211 -0.8376 -0.3914
 8361SOL     OW36715   1.958   4.102   2.452  0.3786 -0.4846  0.1190
 8361SOL    HW136716   1.917   4.188   2.450 -1.3581 -1.3477 -0.6706
 8361SOL    HW236717   1.875   4.057   2.467 -0.1064  0.9753  1.7824
 8362SOL     OW36718   0.747   1.839   4.746 -0.2301 -0.6391  0.0031
 8362SOL    HW136719   0.682   1.882   4.801 -0.3507  0.1076 -0.7226
 8362SOL    HW236720   0.699   1.760   4.720  0.4983 -0.7117 -1.1213
 8363SOL     OW36721   2.040   3.795   2.200 -0.5586  0.2482 -0.1043
 8363SOL    HW136722   2.021   3.871   2.145 -2.7083 -0.2447 -0.0700
 8363SOL    HW236723   2.091   3.830   2.273  0.0390  0.7423 -0.7667
 8364SOL     OW36724   2.084   0.580   3.213  0.6388  0.3202  0.5521
 8364SOL    HW136725   1.999   0.549   3.183  0.0101  0.4050  2.2590
 8364SOL    HW236726   2.118   0.625   3.136  3.4934 -0.7113  1.1859
 8365SOL     OW36727   3.759   1.669   2.064  0.4948 -0.0977  0.0505
 8365SOL    HW136728   3.740   1.597   2.005  0.8687 -1.7642  1.9309
 8365SOL    HW236729   3.766   1.743   2.004  0.6403  0.7472  1.1118
 8366SOL     OW36730   3.589   3.256   1.440  0.3296 -0.3175  0.2765
 8366SOL    HW136731   3.678   3.291   1.428  0.9343 -2.5388 -1.6781
 8366SOL    HW236732   3.584   3.258   1.535  1.8219 -0.5046  0.3567
 8367SOL     OW36733   2.972   2.163   3.384  0.0015 -0.6038  0.3852
 8367SOL    HW136734   2.896   2.190   3.332  0.0127  2.8291  2.1428
 8367SOL    HW236735   3.021   2.245   3.377 -1.8496  0.1841 -3.5877
 8368SOL     OW36736   0.664   3.396   9.040 -0.4984  0.0915 -0.7338
 8368SOL    HW136737   0.741   3.362   9.085  0.4202  1.3114 -1.3961
 8368SOL    HW236738   0.691   3.380   8.949  1.4437 -1.2715  0.0820
 8369SOL     OW36739   3.370   1.648   8.236  0.0118 -0.1420  0.3118
 8369SOL    HW136740   3.413   1.597   8.305 -0.1686 -0.7212 -0.0085
 8369SOL    HW236741   3.383   1.730   8.283  0.2574  1.0480 -1.8724
 8370SOL     OW36742   1.005   3.386   4.575  0.7088  0.7183 -0.2617
 8370SOL    HW136743   0.977   3.421   4.660 -0.1102 -0.0095 -0.2363
 8370SOL    HW236744   1.059   3.314   4.610 -1.5031 -0.5043  0.6169
 8371SOL     OW36745   4.152   0.097   6.269  0.0065 -0.6506  0.2415
 8371SOL    HW136746   4.073   0.116   6.219 -0.3951  1.0356  1.4864
 8371SOL    HW236747   4.217   0.145   6.217  1.0482 -0.2273  1.9444
 8372SOL     OW36748   1.452   3.467   2.192  0.0165 -0.2211 -0.0094
 8372SOL    HW136749   1.389   3.494   2.259  0.4696  0.1048  0.2863
 8372SOL    HW236750   1.502   3.545   2.172  0.6332 -0.8837 -1.0629
 8373SOL     OW36751   0.356   0.157   7.084  0.4181  0.0282  0.3530
 8373SOL    HW136752   0.410   0.152   7.163  0.7747 -0.2006  0.0947
 8373SOL    HW236753   0.412   0.204   7.023 -0.3023  1.5881  0.8854
 8374SOL     OW36754   3.155   1.886   7.805  0.0123 -0.0155 -0.2858
 8374SOL    HW136755   3.217   1.959   7.796 -1.8355  1.6484  0.4563
 8374SOL    HW236756   3.088   1.923   7.747 -0.1231  1.1824  0.6322
 8375SOL     OW36757   2.339   1.563   8.585  0.5993  0.3394 -0.3907
 8375SOL    HW136758   2.315   1.612   8.506 -0.3290  0.3291 -0.1204
 8375SOL    HW236759   2.373   1.628   8.646 -0.3465  0.4090  0.0652
 8376SOL     OW36760   4.021   1.249   4.968 -0.5192  0.3955 -0.8546
 8376SOL    HW136761   4.075   1.170   4.978 -2.4292 -0.5923  1.5012
 8376SOL    HW236762   3.930   1.220   4.969  0.1017 -1.5218 -0.1956
 8377SOL     OW36763   1.220   0.819  10.130  0.8878  0.6933 -0.6199
 8377SOL    HW136764   1.224   0.841  10.223 -1.8466 -0.4679 -0.2315
 8377SOL    HW236765   1.228   0.723  10.138 -0.6053  0.5677 -0.5620
 8378SOL     OW36766   2.378   1.365   5.277  0.3534  0.1744  0.6863
 8378SOL    HW136767   2.394   1.360   5.182  1.1919  3.4814  0.6242
 8378SOL    HW236768   2.284   1.379   5.284  0.4791  2.4075 -1.7327
 8379SOL     OW36769   1.808   4.400  11.670 -0.4041  0.4034  0.2110
 8379SOL    HW136770   1.769   4.419  11.755  2.9347 -0.9200  2.0316
 8379SOL    HW236771   1.890   4.377  11.714 -0.1670  1.8968  0.5624
 8380SOL     OW36772   2.171   1.930   3.981 -0.2985 -0.2909 -0.1999
 8380SOL    HW136773   2.122   1.871   4.037 -0.4782  0.5081  0.4943
 8380SOL    HW236774   2.137   1.910   3.895  2.4175 -0.9478 -1.1176
 8381SOL     OW36775   0.662   2.257   5.706  0.0347  0.1106 -0.1314
 8381SOL    HW136776   0.724   2.184   5.713 -0.8723 -0.5832  0.4938
 8381SOL    HW236777   0.592   2.205   5.745 -1.9925  2.2514 -0.8846
 8382SOL     OW36778   3.553   2.032   3.691  0.3331  0.2476  0.1981
 8382SOL    HW136779   3.552   2.085   3.771  3.9459  0.1718  0.3157
 8382SOL    HW236780   3.621   2.072   3.637 -0.6227 -0.5744 -1.6035
 8383SOL     OW36781   2.215   4.052   8.905  0.0545 -0.2799 -0.3660
 8383SOL    HW136782   2.245   3.964   8.928 -0.7764 -0.5177 -0.1751
 8383SOL    HW236783   2.162   4.067   8.984 -1.3256  0.9285 -1.5255
 8384SOL     OW36784   2.381   0.898   0.569 -0.3954  0.1629 -0.0475
 8384SOL    HW136785   2.437   0.878   0.644 -0.1001 -1.3057 -0.6493
 8384SOL    HW236786   2.443   0.953   0.521 -1.9916  1.1318 -0.9759
 8385SOL     OW36787   0.869   1.562   9.376 -0.4364  0.1808 -0.1601
 8385SOL    HW136788   0.785   1.596   9.408 -0.2179  0.2885  0.2955
 8385SOL    HW236789   0.884   1.489   9.435 -4.3449 -0.2761  0.2427
 8386SOL     OW36790   3.032   3.468  15.561  0.3721  0.6283 -0.0984
 8386SOL    HW136791   2.952   3.511  15.530  0.2412  0.9277  0.6668
 8386SOL    HW236792   3.094   3.521  15.511 -2.4339  3.0459 -1.0169
 8387SOL     OW36793   2.673   3.566   1.557 -0.1899  0.5695  0.0466
 8387SOL    HW136794   2.710   3.590   1.473  0.1951 -0.5879 -0.1217
 8387SOL    HW236795   2.747   3.585   1.614 -0.7051  0.1186  0.8743
 8388SOL     OW36796   2.983   4.067   5.334 -0.0785  0.0355 -0.3959
 8388SOL    HW136797   3.007   4.126   5.406  0.2023  0.8407 -1.1553
 8388SOL    HW236798   2.888   4.080   5.334 -0.3448 -1.8986 -0.5414
 8389SOL     OW36799   3.317   3.657   1.847  0.0281 -0.2521 -0.7885
 8389SOL    HW136800   3.385   3.615   1.795 -1.1068 -2.9965 -0.0542
 8389SOL    HW236801   3.334   3.749   1.826 -0.5077 -0.8230 -3.6881
 8390SOL     OW36802   2.230   0.834   9.408 -0.1792 -0.4550 -0.4705
 8390SOL    HW136803   2.230   0.753   9.356 -2.1393  0.5883 -2.0977
 8390SOL    HW236804   2.140   0.864   9.395 -0.4862 -1.6682 -1.1601
 8391SOL     OW36805   2.862   0.667   4.079  0.0015 -0.2152 -0.1468
 8391SOL    HW136806   2.792   0.706   4.026 -0.0541  0.4684  0.4342
 8391SOL    HW236807   2.883   0.739   4.138  1.6174 -0.0473 -0.9432
 8392SOL     OW36808   1.104   2.329   8.651 -0.1223  0.2302  0.1145
 8392SOL    HW136809   1.137   2.402   8.702 -1.4296  0.2673  0.9056
 8392SOL    HW236810   1.043   2.285   8.710 -1.2470  1.3745 -0.2222
 8393SOL     OW36811   1.898   0.544  16.594 -0.1761 -0.2373 -0.2575
 8393SOL    HW136812   1.864   0.546  16.505  0.3629 -0.8673 -0.4726
 8393SOL    HW236813   1.989   0.518  16.581 -0.1443 -0.1297 -0.2581
 8394SOL     OW36814   2.100   3.404   9.677 -0.2701 -0.5619  0.3973
 8394SOL    HW136815   2.087   3.338   9.744 -1.3048 -0.4415  0.3232
 8394SOL    HW236816   2.060   3.352   9.608  0.5585  0.0707 -0.5634
 8395SOL     OW36817   2.292   3.813   9.365 -0.2286  0.4214 -0.2807
 8395SOL    HW136818   2.299   3.757   9.443 -0.0263  0.7365 -0.0699
 8395SOL    HW236819   2.223   3.764   9.320 -0.0680 -0.9005  0.8897
 8396SOL     OW36820   1.090   2.570   2.869  0.1248 -0.2306 -0.1336
 8396SOL    HW136821   1.131   2.613   2.794  0.8210  1.2580  1.0999
 8396SOL    HW236822   1.007   2.541   2.831  0.6305 -1.9474  0.0669
 8397SOL     OW36823   0.981   3.401   2.549 -0.0296  0.1803  0.0390
 8397SOL    HW136824   1.062   3.451   2.535 -0.8209  1.1877 -1.0511
 8397SOL    HW236825   0.970   3.354   2.466 -1.2452 -0.0878  0.3560
 8398SOL     OW36826   3.136   2.256   0.205 -0.0261 -0.1423 -1.0521
 8398SOL    HW136827   3.200   2.188   0.182  0.8893  0.3615  0.0535
 8398SOL    HW236828   3.099   2.204   0.276  1.6241 -0.1489 -0.2059
 8399SOL     OW36829   1.597   3.907   2.464  1.0045 -0.0120  0.2563
 8399SOL    HW136830   1.589   3.967   2.538 -0.3242 -1.8177  1.5843
 8399SOL    HW236831   1.585   3.818   2.497  1.8266 -0.3191 -0.2781
 8400SOL     OW36832   3.221   0.765   7.241 -0.2712 -0.0640 -0.4178
 8400SOL    HW136833   3.165   0.754   7.318 -1.0607  0.5341 -0.9006
 8400SOL    HW236834   3.294   0.704   7.252 -0.4358 -0.5249 -1.7863
 8401SOL     OW36835   0.426   4.140   9.284 -0.0635  0.3497  0.5881
 8401SOL    HW136836   0.374   4.064   9.260 -1.3340  1.6402 -0.8159
 8401SOL    HW236837   0.404   4.201   9.213  3.0217  2.3822  1.3450
 8402SOL     OW36838   3.381   2.737   8.511  0.2126 -0.4816  0.6594
 8402SOL    HW136839   3.309   2.792   8.542 -0.2356 -0.0074 -1.2650
 8402SOL    HW236840   3.399   2.685   8.590 -0.9387  1.2126  2.0533
 8403SOL     OW36841   2.780   1.541  17.554 -0.2807  0.2960 -0.1106
 8403SOL    HW136842   2.838   1.593  17.610  1.1496  0.6524 -1.8988
 8403SOL    HW236843   2.743   1.480  17.617  0.7661  1.5875  1.7763
 8404SOL     OW36844   3.321   3.822   0.093  0.2135 -0.5312 -0.7153
 8404SOL    HW136845   3.249   3.877   0.062  0.8768 -0.1794 -1.6183
 8404SOL    HW236846   3.386   3.887   0.120 -2.6315  1.6725  0.8116
 8405SOL     OW36847   2.765   1.736   1.015 -0.2334 -0.6011  0.0807
 8405SOL    HW136848   2.703   1.801   0.983 -0.1673 -0.6039 -0.0525
 8405SOL    HW236849   2.818   1.786   1.077  1.8308  0.3726 -2.4678
 8406SOL     OW36850   3.245   0.096   1.450 -0.2007 -0.0967 -0.7586
 8406SOL    HW136851   3.213   0.185   1.466 -1.1744 -0.5209 -0.3812
 8406SOL    HW236852   3.163   0.063   1.414 -0.3661 -1.8202  1.1978
 8407SOL     OW36853   2.266   2.102  12.517 -0.2333  0.5778 -0.1925
 8407SOL    HW136854   2.349   2.087  12.562  1.7527 -1.3752 -4.5595
 8407SOL    HW236855   2.302   2.183  12.480  1.2853  0.8922  1.9333
 8408SOL     OW36856   0.576   3.692   6.786 -0.8144  0.1682 -0.1295
 8408SOL    HW136857   0.632   3.699   6.709  1.4329  0.1562  1.5087
 8408SOL    HW236858   0.603   3.607   6.821 -1.6109  0.5576  1.4443
 8409SOL     OW36859   3.128   1.315   8.554  0.6403 -0.0539 -0.9917
 8409SOL    HW136860   3.119   1.327   8.649  1.4452  0.2742 -0.9581
 8409SOL    HW236861   3.045   1.338   8.512  0.3049  0.6135  0.0233
 8410SOL     OW36862   1.432   3.933  16.574 -0.3328 -0.1066 -0.3721
 8410SOL    HW136863   1.461   3.937  16.665 -1.2509  1.5278 -0.1647
 8410SOL    HW236864   1.348   3.894  16.595  0.9765 -1.6096  2.0786
 8411SOL     OW36865   4.226   0.212   6.904  0.2394  0.2590 -0.0626
 8411SOL    HW136866   4.166   0.138   6.892 -1.4805  1.4922  1.0227
 8411SOL    HW236867   4.184   0.257   6.977 -1.5101 -1.3489 -0.0697
 8412SOL     OW36868   3.537   4.549   4.622 -0.3017  0.4366  0.1206
 8412SOL    HW136869   3.557   4.455   4.620 -0.5750  0.4302 -3.1773
 8412SOL    HW236870   3.459   4.551   4.566 -0.5789  0.3089  0.5015
 8413SOL     OW36871   2.218   4.023   3.286  0.3329  0.2117  0.0195
 8413SOL    HW136872   2.150   3.999   3.350  1.0030  1.4722  1.2174
 8413SOL    HW236873   2.173   4.035   3.203  0.3976 -2.1624 -0.3474
 8414SOL     OW36874   3.883   2.342   3.192  0.0452 -0.2256 -0.2270
 8414SOL    HW136875   3.948   2.293   3.242 -0.1017 -0.2457 -0.0566
 8414SOL    HW236876   3.811   2.280   3.196  1.3624 -1.8630 -1.8279
 8415SOL     OW36877   4.134   1.585   8.152 -0.4182  0.0824 -0.2840
 8415SOL    HW136878   4.141   1.658   8.090 -1.6996  1.1705  0.8513
 8415SOL    HW236879   4.040   1.568   8.144  0.2971 -4.0004  0.1414
 8416SOL     OW36880   0.483   3.624  10.249 -0.3579  0.6905  0.6444
 8416SOL    HW136881   0.397   3.660  10.229 -1.3782 -1.2151  1.5463
 8416SOL    HW236882   0.457   3.538  10.283 -2.1866  0.4794 -1.3314
 8417SOL     OW36883   3.608   4.304   0.507 -0.0380  0.6414 -0.1352
 8417SOL    HW136884   3.670   4.295   0.435  0.7287  0.8605  0.5024
 8417SOL    HW236885   3.613   4.396   0.532  1.2772  1.0189 -1.8233
 8418SOL     OW36886   1.468   2.991  12.249  0.7129 -0.6319 -0.2014
 8418SOL    HW136887   1.543   2.951  12.294  1.0289  0.3751  0.1440
 8418SOL    HW236888   1.445   3.057  12.314 -0.6844  0.1146 -1.4727
 8419SOL     OW36889   2.529   4.099   5.121  0.3873  0.1891  0.0548
 8419SOL    HW136890   2.466   4.132   5.185 -0.1866  1.3349 -1.1166
 8419SOL    HW236891   2.465   4.041   5.079  1.1525 -1.5997  1.3482
 8420SOL     OW36892   4.540   1.561   8.344  0.0134  0.4273 -0.0308
 8420SOL    HW136893   4.627   1.567   8.304  0.6050  0.9028  1.3156
 8420SOL    HW236894   4.479   1.521   8.283  1.2027 -1.9585  0.3232
 8421SOL     OW36895   1.046   3.671   2.079  0.4009 -0.0229 -0.0519
 8421SOL    HW136896   1.050   3.673   1.984  0.7283 -0.1858 -0.0411
 8421SOL    HW236897   0.951   3.680   2.092  0.3735  1.3406 -1.3078
 8422SOL     OW36898   1.336   0.436   9.336 -0.0819 -0.0548 -0.2401
 8422SOL    HW136899   1.404   0.503   9.345 -0.5268  0.2019  1.1983
 8422SOL    HW236900   1.305   0.452   9.247  0.9842 -0.0680 -0.6102
 8423SOL     OW36901   4.085   2.286   4.046 -0.5693  0.0688  0.5423
 8423SOL    HW136902   4.054   2.293   3.956  1.6953  1.8988 -0.0763
 8423SOL    HW236903   4.094   2.191   4.054  0.4758  0.3257  2.4472
 8424SOL     OW36904   1.985   0.643   7.824 -0.4097 -0.4047  0.6723
 8424SOL    HW136905   1.997   0.737   7.835 -0.9854 -0.2352 -0.0553
 8424SOL    HW236906   2.075   0.610   7.824  0.4218  1.7858 -1.5269
 8425SOL     OW36907   1.258   0.230   2.426  0.3955 -0.2497 -0.4424
 8425SOL    HW136908   1.303   0.230   2.342 -1.1109  0.3948 -1.2468
 8425SOL    HW236909   1.315   0.173   2.478  0.3483 -0.5260 -0.6927
 8426SOL     OW36910   0.743   4.264   6.573 -0.5371  0.0364  0.2174
 8426SOL    HW136911   0.811   4.329   6.558  0.8932 -1.5672 -0.1598
 8426SOL    HW236912   0.668   4.319   6.548  0.1350 -0.3940 -2.6655
 8427SOL     OW36913   0.450   2.456   0.036 -0.3220 -0.2957 -0.0049
 8427SOL    HW136914   0.498   2.539   0.036 -0.1826 -0.3776 -0.3577
 8427SOL    HW236915   0.395   2.473  17.711 -3.4752 -1.0158  2.1012
 8428SOL     OW36916   0.919   0.889   4.437 -0.1948 -0.1295 -0.6296
 8428SOL    HW136917   0.832   0.886   4.398  0.1655 -0.5590 -1.4017
 8428SOL    HW236918   0.970   0.918   4.362 -0.0494 -0.5064 -0.6781
 8429SOL     OW36919   2.715   2.020   9.626 -0.4888  0.3792 -0.5036
 8429SOL    HW136920   2.690   2.100   9.671  2.8742  0.4354  1.2731
 8429SOL    HW236921   2.670   1.955   9.680 -0.6840  1.0283  0.1089
 8430SOL     OW36922   0.044   2.579   4.076  0.6005 -0.5430 -0.4432
 8430SOL    HW136923   0.076   2.514   4.139  1.8431 -1.3925 -1.9618
 8430SOL    HW236924   0.097   2.557   3.999  1.0341  1.9849 -0.8851
 8431SOL     OW36925   3.958   3.204   1.603  0.5646 -0.2241 -0.2616
 8431SOL    HW136926   4.021   3.184   1.672  0.5194 -0.3955 -0.2699
 8431SOL    HW236927   4.015   3.240   1.536  0.9232 -0.8411 -0.2829
 8432SOL     OW36928   0.931   2.360   8.044 -0.1323 -0.0203 -0.2429
 8432SOL    HW136929   0.952   2.449   8.072  1.2357 -0.1322 -0.8997
 8432SOL    HW236930   0.886   2.382   7.963 -0.9254 -1.9414 -0.3304
 8433SOL     OW36931   0.403   0.972  15.580  0.1078 -0.2012 -0.4389
 8433SOL    HW136932   0.413   0.945  15.489 -1.3810  0.2175 -0.7133
 8433SOL    HW236933   0.484   1.015  15.609 -0.6786  1.3266 -0.4801
 8434SOL     OW36934   0.441   4.255   5.793 -0.3414  0.5701  0.6993
 8434SOL    HW136935   0.488   4.222   5.869  1.7653  0.0039 -0.8373
 8434SOL    HW236936   0.435   4.178   5.736 -2.9900 -0.7501  2.7874
 8435SOL     OW36937   1.556   0.549  15.774 -1.1166  0.2836 -0.3396
 8435SOL    HW136938   1.473   0.565  15.728 -0.0703  2.8244 -1.3195
 8435SOL    HW236939   1.524   0.473  15.823 -0.2714  0.0100 -0.2115
 8436SOL     OW36940   2.779   0.228   5.364  0.6958 -0.2143 -0.5369
 8436SOL    HW136941   2.758   0.154   5.308 -2.3703  0.2034  0.0764
 8436SOL    HW236942   2.873   0.229   5.347  0.7688 -0.7125 -0.1704
 8437SOL     OW36943   1.930   4.622   3.976 -0.6954  0.9160  0.1408
 8437SOL    HW136944   1.872   4.661   3.910 -0.1609 -0.3377 -1.0823
 8437SOL    HW236945   1.879   4.626   4.056 -1.3222 -3.1107 -0.0719
 8438SOL     OW36946   4.311   4.414   2.275 -0.5081  0.1145  0.2699
 8438SOL    HW136947   4.329   4.389   2.366  0.4419  0.6930  0.2324
 8438SOL    HW236948   4.365   4.491   2.260  0.8455 -0.6158  1.3942
 8439SOL     OW36949   2.253   1.688   8.352  0.0078  0.1900  0.9653
 8439SOL    HW136950   2.269   1.693   8.258 -0.9323 -1.2776  0.7300
 8439SOL    HW236951   2.160   1.666   8.352  0.3626 -1.2452 -1.5389
 8440SOL     OW36952   3.434   0.434  15.417 -0.2586  0.4838  0.3693
 8440SOL    HW136953   3.507   0.483  15.380  2.2132 -3.2311  0.2542
 8440SOL    HW236954   3.410   0.384  15.338 -0.9698  0.3699  0.6592
 8441SOL     OW36955   4.295   0.788   2.191  0.0647 -0.0455  0.3341
 8441SOL    HW136956   4.249   0.827   2.265  1.7487 -1.3592  2.0732
 8441SOL    HW236957   4.248   0.708   2.170 -1.7821  0.7754  1.3798
 8442SOL     OW36958   0.881   0.065   4.143 -0.0514 -0.1339 -0.1554
 8442SOL    HW136959   0.856   0.053   4.235 -1.0083  3.2709  0.0051
 8442SOL    HW236960   0.963   0.015   4.138  1.0819  1.7507 -0.2230
 8443SOL     OW36961   1.117   0.238   5.086  0.1790  0.3134  0.3433
 8443SOL    HW136962   1.108   0.333   5.095  0.2514  0.4913 -1.4455
 8443SOL    HW236963   1.035   0.215   5.129 -0.7885  1.1113 -1.0848
 8444SOL     OW36964   2.962   3.565   8.025 -0.4791 -0.4780  0.2455
 8444SOL    HW136965   2.969   3.660   8.015 -2.8679 -0.0947  2.2739
 8444SOL    HW236966   2.934   3.531   7.941 -0.5087 -0.1539  0.1226
 8445SOL     OW36967   3.508   3.191   3.109 -0.9952 -0.4611 -0.8398
 8445SOL    HW136968   3.443   3.249   3.070 -1.6375  1.2980  2.8481
 8445SOL    HW236969   3.536   3.143   3.031  0.3976 -1.4932  0.2942
 8446SOL     OW36970   1.085   2.731   9.902 -0.0056 -0.0130 -0.1384
 8446SOL    HW136971   1.107   2.815   9.862  2.0926 -0.3303  0.3337
 8446SOL    HW236972   0.996   2.755   9.929  0.1459 -0.8596  1.1182
 8447SOL     OW36973   0.245   1.997   3.477 -0.4244  0.3085 -0.1077
 8447SOL    HW136974   0.181   2.066   3.459  0.7408  1.3388 -0.3473
 8447SOL    HW236975   0.287   2.021   3.560  1.5948 -0.0868 -1.0159
 8448SOL     OW36976   1.271   2.090   7.342  0.0746 -0.1519  0.2397
 8448SOL    HW136977   1.198   2.127   7.391 -0.5918 -1.4523  0.2295
 8448SOL    HW236978   1.223   2.011   7.317 -1.0309  1.3113 -2.3154
 8449SOL     OW36979   4.644   4.117  15.329 -0.4833  0.0387 -0.1560
 8449SOL    HW136980   4.680   4.113  15.418 -2.0350 -0.3976  0.4528
 8449SOL    HW236981   4.577   4.049  15.333 -0.0232 -0.4986 -1.4400
 8450SOL     OW36982   3.833   2.103   4.878  0.0780 -0.0567 -0.3274
 8450SOL    HW136983   3.839   2.157   4.957 -0.9988  1.4476 -1.2753
 8450SOL    HW236984   3.744   2.069   4.893  1.1989 -1.2699  3.5256
 8451SOL     OW36985   1.380   1.398   4.409  0.7045  0.1322 -0.1820
 8451SOL    HW136986   1.445   1.461   4.441 -0.5288  1.7558 -0.8501
 8451SOL    HW236987   1.397   1.324   4.467 -0.1910  0.7003  0.7966
 8452SOL     OW36988   1.972   2.682  14.964  0.2615  0.6731  0.0551
 8452SOL    HW136989   1.984   2.690  14.869  2.8007  1.9476  0.4747
 8452SOL    HW236990   2.054   2.638  14.986  0.0806  0.3230  0.0372
 8453SOL     OW36991   0.301   4.403  13.763 -0.1676 -0.1250  0.4329
 8453SOL    HW136992   0.269   4.432  13.849  0.2191 -0.7541  0.7809
 8453SOL    HW236993   0.383   4.360  13.786  0.6377  2.2145  1.9743
 8454SOL     OW36994   4.427   0.272   5.404 -0.6327  0.0404  0.6142
 8454SOL    HW136995   4.401   0.296   5.494 -1.3305  1.2346  0.1000
 8454SOL    HW236996   4.386   0.344   5.356  0.4582  0.3800  0.1857
 8455SOL     OW36997   2.627   2.666   2.193 -0.3112 -0.1456  0.8224
 8455SOL    HW136998   2.713   2.684   2.156 -0.3343 -1.1756  0.2862
 8455SOL    HW236999   2.591   2.755   2.190 -0.2313 -0.1785 -0.6611
 8456SOL     OW37000   2.052   2.285   1.275  0.3649 -0.2116 -0.8002
 8456SOL    HW137001   2.111   2.344   1.229  0.5750 -0.0734 -0.3483
 8456SOL    HW237002   2.030   2.214   1.214 -3.6841  0.5450 -0.2592
 8457SOL     OW37003   4.542   2.536   3.617  0.5755 -0.2254 -0.0634
 8457SOL    HW137004   4.500   2.571   3.539  0.0969 -0.3504  0.1346
 8457SOL    HW237005   4.627   2.510   3.582  0.6023 -0.8379  0.4544
 8458SOL     OW37006   3.415   3.399   8.196  0.1777 -0.3001  0.4335
 8458SOL    HW137007   3.450   3.488   8.194 -1.3591  0.3175  1.5072
 8458SOL    HW237008   3.320   3.411   8.204  0.1865  1.3388 -1.9834
 8459SOL     OW37009   2.485   0.745  10.613 -0.3459 -0.5719  0.2696
 8459SOL    HW137010   2.558   0.688  10.587 -0.3024 -0.5677  0.3839
 8459SOL    HW237011   2.506   0.768  10.703  1.0920  1.6081 -0.6062
 8460SOL     OW37012   2.917   4.316   6.297  0.9146 -0.0124 -0.6675
 8460SOL    HW137013   2.889   4.257   6.367 -0.2667  1.1709 -0.1334
 8460SOL    HW237014   2.874   4.391   6.339  0.6498 -0.0948 -0.7933
 8461SOL     OW37015   0.247   2.504   1.758  0.1964 -0.8598  0.4230
 8461SOL    HW137016   0.162   2.525   1.796  0.4534 -2.0756  1.6723
 8461SOL    HW237017   0.241   2.409   1.750  0.4441 -0.7713 -0.9056
 8462SOL     OW37018   0.032   0.394   5.713  0.1617  0.5609  0.4308
 8462SOL    HW137019   0.097   0.337   5.674  1.2647  2.0923  0.0119
 8462SOL    HW237020   0.018   0.342   5.792  0.9276 -0.2295  0.0379
 8463SOL     OW37021   0.552   2.393   5.034  0.0695  0.1680  0.3749
 8463SOL    HW137022   0.534   2.440   5.115  0.4327 -0.6172  0.9117
 8463SOL    HW237023   0.642   2.365   5.051  1.1591  1.6214 -2.9557
 8464SOL     OW37024   1.944   0.906  14.069 -0.7891  0.3151 -0.1052
 8464SOL    HW137025   1.850   0.914  14.050 -0.9444  0.4184  0.6966
 8464SOL    HW237026   1.968   0.996  14.093 -0.5468  0.3123 -0.3456
 8465SOL     OW37027   4.278   1.416   3.816 -0.0382 -0.3519  0.0325
 8465SOL    HW137028   4.220   1.342   3.797 -3.0927  1.9248  0.3540
 8465SOL    HW237029   4.210   1.483   3.826 -0.8619 -1.3859  1.3366
 8466SOL     OW37030   1.914   1.825   6.772 -0.3874 -0.4973 -0.2031
 8466SOL    HW137031   1.937   1.880   6.698 -0.5459 -0.9657 -0.6028
 8466SOL    HW237032   1.820   1.810   6.760 -0.6896  1.3560 -0.0949
 8467SOL     OW37033   4.415   1.541   6.754  0.4695 -0.4827 -0.2575
 8467SOL    HW137034   4.389   1.633   6.756  1.1723 -0.3039  0.4448
 8467SOL    HW237035   4.474   1.538   6.830  0.8862  0.0721 -0.5649
 8468SOL     OW37036   3.757   0.905   4.505 -0.0242  0.0992  0.8311
 8468SOL    HW137037   3.757   0.819   4.547 -1.8485 -0.8869 -1.1992
 8468SOL    HW237038   3.671   0.903   4.462  0.1039 -0.4968  0.5910
 8469SOL     OW37039   1.131   4.093   6.654 -0.5473  0.7358  0.1733
 8469SOL    HW137040   1.166   4.004   6.647 -0.8241  0.6263  0.2119
 8469SOL    HW237041   1.073   4.074   6.727  2.0226  0.6131  2.1740
 8470SOL     OW37042   0.982   2.017   7.382  0.6123 -0.1149 -0.1632
 8470SOL    HW137043   0.928   1.957   7.330 -0.1348 -0.1902  0.6990
 8470SOL    HW237044   0.929   2.095   7.370  3.6916  1.7135 -1.5803
 8471SOL     OW37045   2.437   0.232   1.817  0.3664  0.3673  0.0221
 8471SOL    HW137046   2.342   0.234   1.824  0.5410  0.2865  2.3217
 8471SOL    HW237047   2.464   0.192   1.900 -3.4972 -2.5583 -0.1121
 8472SOL     OW37048   2.797   2.443   3.009 -0.2627  0.2159  0.3804
 8472SOL    HW137049   2.725   2.380   3.013 -1.0843  1.2993  2.4136
 8472SOL    HW237050   2.775   2.467   2.918 -2.9898  0.8885  1.2097
 8473SOL     OW37051   2.379   4.165   5.592 -0.6756 -0.2013 -0.0140
 8473SOL    HW137052   2.339   4.091   5.637  0.1256 -0.8255 -0.3293
 8473SOL    HW237053   2.362   4.246   5.639 -1.1454  0.4185 -1.2568
 8474SOL     OW37054   4.428   0.084   7.091  0.0033 -0.6969  0.9791
 8474SOL    HW137055   4.373   0.036   7.153 -2.8499 -1.0644 -1.8968
 8474SOL    HW237056   4.359   0.111   7.031  1.9088  1.0654 -0.4505
 8475SOL     OW37057   2.581   3.021   7.373 -0.4960 -0.3111  0.7474
 8475SOL    HW137058   2.597   3.064   7.457  1.9970  1.6851 -0.7636
 8475SOL    HW237059   2.497   2.979   7.392 -1.5213  0.8960 -1.0678
 8476SOL     OW37060   2.345   2.512   8.489  0.3179  0.1070  0.6388
 8476SOL    HW137061   2.430   2.555   8.496 -0.3681  1.0858  2.6732
 8476SOL    HW237062   2.285   2.584   8.508 -1.1944 -0.4452 -2.0058
 8477SOL     OW37063   3.443   1.296   2.031  0.3839  0.4478  0.0244
 8477SOL    HW137064   3.364   1.256   2.065  0.5318  1.4792  1.5743
 8477SOL    HW237065   3.434   1.386   2.064  1.9123  0.4211  0.5247
 8478SOL     OW37066   3.256   0.403  13.614 -0.0753  0.1627  0.4004
 8478SOL    HW137067   3.316   0.453  13.559 -0.2410  2.3647  2.2197
 8478SOL    HW237068   3.312   0.382  13.689  0.0415  0.0169  0.2734
 8479SOL     OW37069   2.763   3.967   6.877 -0.2354  0.4688 -1.2494
 8479SOL    HW137070   2.773   3.913   6.799 -1.3024  2.0394 -2.4813
 8479SOL    HW237071   2.819   4.043   6.861  0.6852  0.3063  1.1930
 8480SOL     OW37072   3.065   1.651   2.144  0.0213  0.0149  0.0164
 8480SOL    HW137073   3.152   1.634   2.107  0.6766  1.6224  0.8112
 8480SOL    HW237074   3.030   1.714   2.081  1.0466  1.1713  0.6015
 8481SOL     OW37075   1.173   0.590   7.241  0.2144  0.2908  0.2791
 8481SOL    HW137076   1.225   0.567   7.318 -0.7035 -0.6761  0.5934
 8481SOL    HW237077   1.145   0.500   7.226 -1.8412  1.1401 -0.9941
 8482SOL     OW37078   2.207   1.361   2.866  0.1713  0.4697  0.0588
 8482SOL    HW137079   2.170   1.277   2.893  0.0413  0.4770 -0.0962
 8482SOL    HW237080   2.251   1.342   2.783 -1.2760 -0.5837 -0.4598
 8483SOL     OW37081   0.570   4.514   7.635 -0.0049  0.4777 -0.1268
 8483SOL    HW137082   0.478   4.514   7.608 -0.2098 -0.9453  0.5564
 8483SOL    HW237083   0.598   4.605   7.629 -0.1640  0.3382 -3.0848
 8484SOL     OW37084   3.006   3.404   3.407 -0.8636  0.2883  0.0064
 8484SOL    HW137085   3.007   3.328   3.349  0.1146  2.1903 -2.4540
 8484SOL    HW237086   3.078   3.382   3.466 -1.2786 -0.9979  0.0405
 8485SOL     OW37087   0.781   1.366   8.240 -0.0044  0.4679 -0.4647
 8485SOL    HW137088   0.798   1.448   8.194  2.3960  1.0600  1.4824
 8485SOL    HW237089   0.698   1.386   8.284 -0.6283 -1.5426 -0.6937
 8486SOL     OW37090   0.247   3.713   0.837  0.6349 -0.4529 -0.3991
 8486SOL    HW137091   0.182   3.669   0.782 -0.1673 -1.1436  1.0960
 8486SOL    HW237092   0.324   3.711   0.780  1.0806  1.8661  0.1053
 8487SOL     OW37093   0.462   1.414   0.228  0.0133  0.0926 -0.8026
 8487SOL    HW137094   0.441   1.339   0.284 -0.6230  0.4126 -0.6141
 8487SOL    HW237095   0.377   1.428   0.186 -1.6917 -4.4049  1.1142
 8488SOL     OW37096   2.597   4.662   9.083  0.2160 -0.8228 -0.1876
 8488SOL    HW137097   2.650   4.630   9.010 -2.3770  1.5894 -3.1210
 8488SOL    HW237098   2.515   4.655   9.034 -0.9157  2.2591  1.2415
 8489SOL     OW37099   1.954   2.545   6.233 -0.1401 -0.0076 -0.7213
 8489SOL    HW137100   1.869   2.501   6.238 -0.0977  0.0585  0.6837
 8489SOL    HW237101   1.969   2.525   6.140 -1.2772 -2.5185 -0.3682
 8490SOL     OW37102   4.388   3.878   7.914  0.7695 -0.2852  0.7634
 8490SOL    HW137103   4.385   3.957   7.967 -3.5873 -0.1340  0.3154
 8490SOL    HW237104   4.377   3.808   7.978  0.5177 -0.5780  0.4029
 8491SOL     OW37105   1.010   0.665  17.078 -0.1290  0.2971 -0.0774
 8491SOL    HW137106   0.931   0.611  17.081 -0.1552  0.2870 -0.9956
 8491SOL    HW237107   1.050   0.645  16.994  0.4265  1.0429  0.0008
 8492SOL     OW37108   0.211   3.621   2.308 -0.0474  0.4726 -0.9441
 8492SOL    HW137109   0.260   3.666   2.377  0.7227  1.4748 -2.1228
 8492SOL    HW237110   0.233   3.675   2.231 -0.5932  0.8129 -0.8612
 8493SOL     OW37111   0.221   3.327   3.106 -0.3574 -0.3355  0.7221
 8493SOL    HW137112   0.263   3.348   3.190 -0.3198  1.1755  0.3406
 8493SOL    HW237113   0.253   3.240   3.084 -1.2196 -0.4036 -0.2045
 8494SOL     OW37114   2.822   0.396   4.258  0.3432  0.3425  0.3273
 8494SOL    HW137115   2.801   0.483   4.226  0.6801  1.0185  1.9523
 8494SOL    HW237116   2.788   0.348   4.182  2.9401 -1.5705  0.3658
 8495SOL     OW37117   3.336   3.995   0.871  0.7948 -0.4863  0.1186
 8495SOL    HW137118   3.407   4.022   0.930  2.2407 -1.3019 -1.2420
 8495SOL    HW237119   3.259   4.047   0.896  0.3881 -0.5514 -1.0242
 8496SOL     OW37120   1.399   4.126   8.356 -0.6358  0.0563  0.4660
 8496SOL    HW137121   1.411   4.176   8.276  1.6228 -2.3555 -0.7204
 8496SOL    HW237122   1.328   4.069   8.324 -1.5322  1.9557 -0.8916
 8497SOL     OW37123   1.703   4.243   7.563  0.0804  0.5482 -0.0340
 8497SOL    HW137124   1.700   4.314   7.498 -0.5640  1.5697  1.1271
 8497SOL    HW237125   1.796   4.250   7.586 -0.4277 -0.9346  2.3986
 8498SOL     OW37126   0.440   2.478   8.951 -0.0853 -0.3831  0.2547
 8498SOL    HW137127   0.408   2.530   8.877 -0.1397  1.6369  1.7165
 8498SOL    HW237128   0.505   2.423   8.907 -0.5692 -0.0350 -0.9065
 8499SOL     OW37129   1.635   2.997   2.806 -0.1001  0.1905 -0.7945
 8499SOL    HW137130   1.552   3.017   2.763 -0.5653 -0.0426  0.0011
 8499SOL    HW237131   1.659   3.089   2.796  0.5485 -0.0501 -1.4663
 8500SOL     OW37132   4.578   0.453   8.513 -0.1379  0.1043 -0.1702
 8500SOL    HW137133   4.580   0.367   8.557  0.2423  1.3792  2.3332
 8500SOL    HW237134   4.561   0.431   8.422  0.1357  3.0892 -0.9177
 8501SOL     OW37135   1.232   1.487   2.232 -0.4468  0.0590  0.9764
 8501SOL    HW137136   1.236   1.568   2.181 -3.4481 -0.1115  0.4994
 8501SOL    HW237137   1.138   1.474   2.246  0.0129 -2.0043  2.1822
 8502SOL     OW37138   4.690   3.968   4.143 -0.0321  0.1867  0.3862
 8502SOL    HW137139   4.680   3.902   4.074 -1.0824  1.9238 -1.1401
 8502SOL    HW237140   0.044   3.991   4.128 -0.5205  1.1801 -1.1477
 8503SOL     OW37141   2.664   3.947   7.141  0.4364  0.2722 -0.0912
 8503SOL    HW137142   2.616   3.865   7.147 -0.4657  0.6751 -1.9266
 8503SOL    HW237143   2.680   3.964   7.048  2.1946  0.1088  0.1778
 8504SOL     OW37144   3.542   3.369   6.698  0.5363  0.0272  0.2691
 8504SOL    HW137145   3.525   3.331   6.612 -2.9036  0.7062  0.6430
 8504SOL    HW237146   3.493   3.448   6.678  0.4968 -0.2323 -0.6476
 8505SOL     OW37147   2.016   1.696   3.141  0.6169  0.2720  0.3327
 8505SOL    HW137148   1.975   1.704   3.227  0.0180  1.3577 -0.0672
 8505SOL    HW237149   2.105   1.668   3.163  0.1947 -1.5792 -0.2495
 8506SOL     OW37150   2.984   1.675   5.778  0.3406  0.0475 -0.1675
 8506SOL    HW137151   2.964   1.765   5.753 -0.1721  0.1201  0.4740
 8506SOL    HW237152   3.049   1.649   5.714  1.0655  1.2611  0.0810
 8507SOL     OW37153   2.563   1.993   7.330  0.0812 -0.4366 -0.1920
 8507SOL    HW137154   2.595   2.034   7.410  1.7366 -4.4712  1.2064
 8507SOL    HW237155   2.471   1.975   7.350 -0.0620 -0.6739 -1.0430
 8508SOL     OW37156   0.242   2.371   2.228 -0.0876  0.3037  0.1679
 8508SOL    HW137157   0.167   2.389   2.285  0.2967  1.7696  0.2173
 8508SOL    HW237158   0.314   2.405   2.280 -1.0307  3.2989 -0.4611
 8509SOL     OW37159   3.676   0.749  12.350 -0.3655 -0.5813 -0.2409
 8509SOL    HW137160   3.647   0.754  12.441  0.9107  0.3557  0.1164
 8509SOL    HW237161   3.734   0.673  12.352  0.8835  0.4314  1.9135
 8510SOL     OW37162   1.659   1.326   2.362 -0.0101  0.0319 -0.2714
 8510SOL    HW137163   1.748   1.361   2.360 -0.6970  1.6932 -1.8987
 8510SOL    HW237164   1.629   1.374   2.439 -0.7781  1.0104 -1.1805
 8511SOL     OW37165   0.875   0.890   3.243  0.1903  0.5952 -0.1688
 8511SOL    HW137166   0.968   0.895   3.266  0.0070 -2.7501  1.3385
 8511SOL    HW237167   0.871   0.868   3.150  0.2795  1.7673 -0.4502
 8512SOL     OW37168   4.236   2.292   2.691 -0.1331  0.1138  0.0235
 8512SOL    HW137169   4.324   2.255   2.686 -0.0497  0.3508 -0.2743
 8512SOL    HW237170   4.255   2.385   2.682  0.3495 -0.0381 -0.5072
 8513SOL     OW37171   1.898   3.738  15.693  0.2168  0.0898 -0.1207
 8513SOL    HW137172   1.846   3.660  15.672 -0.2910  0.4455 -0.1854
 8513SOL    HW237173   1.828   3.794  15.726 -1.7333 -0.9464 -2.4248
 8514SOL     OW37174   1.508   0.180   2.835 -0.9952 -0.1696  0.0146
 8514SOL    HW137175   1.537   0.256   2.785 -0.6880 -0.3024 -0.0156
 8514SOL    HW237176   1.463   0.222   2.908 -0.4834  1.5445 -0.6567
 8515SOL     OW37177   2.409   3.211  15.682  0.1778  0.3713 -0.3199
 8515SOL    HW137178   2.374   3.233  15.595  1.0426 -0.7582 -0.9579
 8515SOL    HW237179   2.488   3.263  15.694 -0.1854 -0.0386  3.7042
 8516SOL     OW37180   2.201   2.005   2.039 -0.1144  0.4019 -0.0467
 8516SOL    HW137181   2.196   2.002   1.943  0.7040  0.6242 -0.1027
 8516SOL    HW237182   2.130   2.066   2.059  0.3864  1.2973 -0.9657
 8517SOL     OW37183   4.144   4.430   3.625 -0.1130  0.4663  0.1152
 8517SOL    HW137184   4.076   4.491   3.655  2.0122  2.8658  0.0372
 8517SOL    HW237185   4.097   4.389   3.552  0.3727  1.9220 -1.0369
 8518SOL     OW37186   1.830   1.521   7.706 -0.4367  0.1152 -0.0802
 8518SOL    HW137187   1.799   1.576   7.779 -0.5014 -1.2228  0.8958
 8518SOL    HW237188   1.752   1.500   7.656  0.0452 -1.4211 -0.1914
 8519SOL     OW37189   3.555   1.192   7.989  0.5899  0.1616  0.4652
 8519SOL    HW137190   3.554   1.216   8.082 -0.3188  0.7195  0.3082
 8519SOL    HW237191   3.512   1.269   7.952 -0.9509 -0.9857 -0.1385
 8520SOL     OW37192   3.395   1.459   1.137  0.2189  0.4079 -0.1740
 8520SOL    HW137193   3.369   1.374   1.171 -0.9714  1.1567  0.7927
 8520SOL    HW237194   3.310   1.495   1.111  0.0220  1.6917  2.2505
 8521SOL     OW37195   1.500   2.626   8.188  0.0215  0.7181 -0.1563
 8521SOL    HW137196   1.567   2.615   8.120 -0.3970 -0.0112 -0.4461
 8521SOL    HW237197   1.527   2.550   8.239  1.3252  0.4876 -1.1757
 8522SOL     OW37198   4.684   4.093   2.733  0.3792 -0.2747  0.1990
 8522SOL    HW137199   4.620   4.024   2.722  1.6612 -2.1344  4.3653
 8522SOL    HW237200   4.623   4.146   2.783 -0.1191 -1.6539  1.0397
 8523SOL     OW37201   0.830   3.604   3.674 -0.0266 -0.4266  0.3336
 8523SOL    HW137202   0.879   3.523   3.691  2.7006  1.7103  2.6533
 8523SOL    HW237203   0.737   3.584   3.686 -0.1338 -0.3692 -0.3893
 8524SOL     OW37204   2.862   4.268   5.114 -0.0887 -0.0505 -0.6031
 8524SOL    HW137205   2.954   4.294   5.115 -0.3803  1.1260 -2.4566
 8524SOL    HW237206   2.865   4.178   5.146  1.7488 -0.7388 -2.6827
 8525SOL     OW37207   2.584   2.312   5.623  0.2433 -0.1962  0.6683
 8525SOL    HW137208   2.495   2.312   5.658  0.1906  1.9588  0.5894
 8525SOL    HW237209   2.636   2.270   5.691 -0.8454 -1.4206  0.7362
 8526SOL     OW37210   3.651   4.709   1.625 -0.0025  0.5219 -0.5693
 8526SOL    HW137211   3.575   4.697   1.682 -0.2191  0.4656 -0.8701
 8526SOL    HW237212   3.631   0.052   1.578  2.4225  0.4522 -1.6997
 8527SOL     OW37213   3.269   1.889   6.461 -0.6118  0.3568  0.5455
 8527SOL    HW137214   3.202   1.830   6.426  1.5594 -1.2272 -0.9802
 8527SOL    HW237215   3.255   1.883   6.555  1.3644 -1.7988  0.7014
 8528SOL     OW37216   4.374   2.475   9.057  0.0361  0.3070 -0.2290
 8528SOL    HW137217   4.372   2.555   9.110  0.6844 -0.3850  0.8190
 8528SOL    HW237218   4.377   2.409   9.125 -1.3401  2.9564  2.4122
 8529SOL     OW37219   3.571   0.257   7.314  0.1454 -0.2504 -0.1809
 8529SOL    HW137220   3.488   0.220   7.345 -0.3147  0.9452 -0.0146
 8529SOL    HW237221   3.543   0.346   7.297  0.0257 -0.2180  0.1810
 8530SOL     OW37222   1.179   1.077   0.203  0.3737 -0.1451 -0.5328
 8530SOL    HW137223   1.232   1.025   0.141 -1.0837 -2.2962  0.0111
 8530SOL    HW237224   1.248   1.108   0.261 -2.0799 -2.2172  3.4575
 8531SOL     OW37225   0.888   3.016  12.488 -1.2030 -0.1014  0.3403
 8531SOL    HW137226   0.979   3.041  12.469 -1.3768  1.0234  1.0357
 8531SOL    HW237227   0.893   2.960  12.566 -0.0839 -0.2543  0.1632
 8532SOL     OW37228   2.324   0.472   5.694  0.9300 -0.3892 -0.3037
 8532SOL    HW137229   2.335   0.520   5.612  0.0329  1.3898  0.6078
 8532SOL    HW237230   2.274   0.525   5.757 -0.3314 -0.5243 -1.1839
 8533SOL     OW37231   2.438   2.009   8.938 -0.3939 -0.5572  0.1194
 8533SOL    HW137232   2.446   1.962   9.021 -1.8892 -0.8889  0.0697
 8533SOL    HW237233   2.525   2.050   8.930 -0.8142 -0.1855 -2.4232
 8534SOL     OW37234   3.084   0.033   3.836 -0.1367 -0.2482  0.2525
 8534SOL    HW137235   2.995   0.069   3.833 -0.8023 -1.7901  1.5985
 8534SOL    HW237236   3.074   4.705   3.767 -0.5605 -0.2624  0.3252
 8535SOL     OW37237   2.208   1.229   2.327 -0.0859 -0.2852 -0.1717
 8535SOL    HW137238   2.297   1.246   2.298 -0.1413  0.2237 -0.0412
 8535SOL    HW237239   2.208   1.256   2.419 -0.0197  0.6255 -0.4396
 8536SOL     OW37240   0.720   3.338   7.685 -0.3936 -0.5265  0.4199
 8536SOL    HW137241   0.688   3.425   7.665 -2.4929 -0.9136  2.0498
 8536SOL    HW237242   0.752   3.352   7.774 -1.9258 -1.1396  1.0711
 8537SOL     OW37243   1.410   4.252   9.377 -0.6532 -0.2066 -0.3174
 8537SOL    HW137244   1.339   4.247   9.314 -0.4199  1.3764 -0.7235
 8537SOL    HW237245   1.362   4.292   9.450  0.8726  0.6678  0.2209
 8538SOL     OW37246   3.150   3.832  15.064  0.3018  0.1441 -0.7050
 8538SOL    HW137247   3.145   3.879  14.981 -2.0960 -0.4234 -0.8780
 8538SOL    HW237248   3.137   3.890  15.140  0.3607  0.4295 -0.9144
 8539SOL     OW37249   4.023   2.713   8.375 -0.2969  0.5644  0.4533
 8539SOL    HW137250   4.110   2.695   8.412  0.4865  0.7234 -1.3282
 8539SOL    HW237251   4.049   2.759   8.295 -0.5934 -1.3204 -0.7392
 8540SOL     OW37252   1.009   3.866   7.485 -0.1721 -0.1866  0.2261
 8540SOL    HW137253   1.035   3.777   7.461 -0.4386 -0.4880  1.0372
 8540SOL    HW237254   1.077   3.911   7.435 -0.3206  0.8938  1.0003
 8541SOL     OW37255   1.804   1.093   2.515 -0.3034  0.0035  0.5110
 8541SOL    HW137256   1.852   1.142   2.448  1.1323 -1.0487  0.7704
 8541SOL    HW237257   1.715   1.087   2.482 -0.5814  1.6619  0.9812
 8542SOL     OW37258   3.894   1.052   6.307  0.6559  0.1370 -1.1299
 8542SOL    HW137259   3.933   1.017   6.227 -1.4131 -1.9586 -1.2372
 8542SOL    HW237260   3.802   1.029   6.298  0.2415  1.5742 -0.4582
 8543SOL     OW37261   2.911   0.356   9.712 -0.1582 -0.0950  0.4613
 8543SOL    HW137262   2.831   0.313   9.743 -0.5455  1.0835  1.0937
 8543SOL    HW237263   2.876   0.415   9.646  0.1399  0.3394  0.6948
 8544SOL     OW37264   2.019   1.604   6.960 -0.5362 -0.4558 -0.4437
 8544SOL    HW137265   2.106   1.614   6.922  0.4712 -0.5555  1.8099
 8544SOL    HW237266   1.974   1.657   6.894 -3.9096 -0.7239  1.6448
 8545SOL     OW37267   4.388   0.362   7.161  0.6820  0.2097  0.1831
 8545SOL    HW137268   4.402   0.267   7.155  3.1348  0.6682 -1.0113
 8545SOL    HW237269   4.474   0.385   7.127  1.2256  0.7299  1.9571
 8546SOL     OW37270   0.270   1.744  15.265  0.0501  0.3656 -0.5440
 8546SOL    HW137271   0.312   1.684  15.205 -0.3158 -1.1582  0.7197
 8546SOL    HW237272   0.287   1.826  15.218  0.3799  0.1525 -0.7864
 8547SOL     OW37273   0.654   0.425  13.070 -0.3185 -0.0804 -0.0006
 8547SOL    HW137274   0.562   0.441  13.092 -0.3631  0.4712 -0.5681
 8547SOL    HW237275   0.647   0.378  12.987  1.6928 -0.5696  0.1281
 8548SOL     OW37276   0.333   3.414   7.166 -0.0205  0.4437  0.7388
 8548SOL    HW137277   0.275   3.429   7.091 -1.7992 -0.1682  2.0003
 8548SOL    HW237278   0.418   3.387   7.133 -1.4056 -2.5777 -0.3208
 8549SOL     OW37279   3.513   0.054   6.265 -0.0693  0.3213  0.1614
 8549SOL    HW137280   3.571   4.722   6.238  0.6220  0.2991  1.6784
 8549SOL    HW237281   3.435   0.027   6.218  1.0279 -0.3251 -1.2845
 8550SOL     OW37282   0.596   4.050   8.362 -0.1893  0.1229 -0.0927
 8550SOL    HW137283   0.634   4.033   8.448  0.5257  1.4040 -0.1442
 8550SOL    HW237284   0.647   4.124   8.327  0.4136 -0.7317 -1.0214
 8551SOL     OW37285   4.614   4.503   7.593  0.4985  0.4585 -0.5615
 8551SOL    HW137286   4.663   4.439   7.542  3.6653 -0.4928  3.7118
 8551SOL    HW237287   4.624   4.467   7.681 -0.2952 -0.6289 -0.9107
 8552SOL     OW37288   3.910   0.002   4.866  0.0270 -0.2848  0.1074
 8552SOL    HW137289   3.986   4.733   4.923  1.5775 -0.0321 -1.9270
 8552SOL    HW237290   3.955   0.041   4.791 -1.6833 -0.5252 -1.0690
 8553SOL     OW37291   2.360   2.879   9.522  0.4468 -0.4875 -0.0770
 8553SOL    HW137292   2.378   2.931   9.600  0.4542  0.3725 -0.6578
 8553SOL    HW237293   2.409   2.796   9.525 -0.6096 -1.1983 -2.1918
 8554SOL     OW37294   2.919   1.039   9.451  0.1077 -0.5724 -0.3669
 8554SOL    HW137295   2.998   1.090   9.468  0.0106  0.3751 -2.7697
 8554SOL    HW237296   2.857   1.054   9.523 -1.4084 -2.5653 -1.2440
 8555SOL     OW37297   0.312   0.939   3.488 -0.3034  0.1143 -0.3294
 8555SOL    HW137298   0.312   0.852   3.450 -1.8473 -0.2800  0.6043
 8555SOL    HW237299   0.380   0.988   3.442 -1.1987  1.0642 -0.6483
 8556SOL     OW37300   1.351   3.802   3.840 -0.5768 -0.1280 -0.5082
 8556SOL    HW137301   1.364   3.793   3.934  1.6516  0.4345 -0.7802
 8556SOL    HW237302   1.408   3.877   3.823  1.6644 -0.9366  3.4332
 8557SOL     OW37303   3.960   3.350  17.545 -0.3097 -0.3482  0.3235
 8557SOL    HW137304   3.890   3.336  17.481 -0.9580  0.1340  0.9291
 8557SOL    HW237305   3.912   3.406  17.606  1.2913  1.8604 -0.4542
 8558SOL     OW37306   1.870   0.063  10.924  0.0608  0.3174 -0.3976
 8558SOL    HW137307   1.947   0.023  10.883  0.4594  1.0825 -0.3925
 8558SOL    HW237308   1.886   0.157  10.926 -2.1183  0.6856 -0.0937
 8559SOL     OW37309   1.654   1.083   3.526 -0.0014 -0.1025  0.3141
 8559SOL    HW137310   1.733   1.136   3.511 -0.1839  0.1441  0.2207
 8559SOL    HW237311   1.596   1.159   3.521 -1.7178 -1.5923 -2.0820
 8560SOL     OW37312   2.384   0.858   5.906  0.0964  0.6794 -0.4731
 8560SOL    HW137313   2.333   0.845   5.826  0.7313  1.2797 -0.9783
 8560SOL    HW237314   2.411   0.947   5.885 -2.2215  1.3869 -0.4647
 8561SOL     OW37315   0.882   4.104  14.780 -0.1860 -0.0173 -0.1066
 8561SOL    HW137316   0.797   4.075  14.747 -0.0527  0.8906 -1.2483
 8561SOL    HW237317   0.917   4.020  14.810 -1.0914 -1.4564 -3.0684
 8562SOL     OW37318   4.091   0.614   3.919  0.1149  0.3930  0.2158
 8562SOL    HW137319   4.087   0.710   3.917  4.5642  0.5482 -0.7273
 8562SOL    HW237320   4.009   0.587   3.960 -0.4414  1.5499 -0.1403
 8563SOL     OW37321   0.196   1.008  15.765  0.0789 -0.0135 -0.1062
 8563SOL    HW137322   0.256   0.957  15.711 -1.3156  2.2174 -3.7695
 8563SOL    HW237323   0.106   0.983  15.744  0.4426  0.7584 -2.6508
 8564SOL     OW37324   2.362   1.089   7.735 -0.3412 -0.6688 -0.1860
 8564SOL    HW137325   2.386   1.064   7.824  2.1098 -0.6796 -0.8508
 8564SOL    HW237326   2.409   1.033   7.673  3.4058  1.1518  1.0530
 8565SOL     OW37327   0.429   0.136  14.547  0.0429 -0.5107 -0.7735
 8565SOL    HW137328   0.342   0.175  14.537 -0.4959 -1.2627  0.9211
 8565SOL    HW237329   0.409   0.046  14.573  0.6583  0.0527  1.7173
 8566SOL     OW37330   0.154   3.409   4.462 -0.5103 -0.3973 -0.5429
 8566SOL    HW137331   0.085   3.350   4.430 -0.8034 -0.4426  0.1610
 8566SOL    HW237332   0.210   3.414   4.385  0.8170 -0.5676  0.4127
 8567SOL     OW37333   4.515   2.433   5.600  0.0516 -0.4366 -0.0341
 8567SOL    HW137334   4.500   2.440   5.694 -0.4869 -1.2089 -0.0608
 8567SOL    HW237335   4.500   2.523   5.570  1.7952  0.0120  0.4108
 8568SOL     OW37336   2.797   1.397   7.626  0.4238 -0.1786 -0.3546
 8568SOL    HW137337   2.710   1.359   7.614  0.2934  0.1070 -0.3111
 8568SOL    HW237338   2.851   1.349   7.689 -1.5179 -1.4153  0.3633
 8569SOL     OW37339   3.449   1.313   8.219  0.3550  0.3102 -0.6035
 8569SOL    HW137340   3.392   1.252   8.267  1.9531 -0.5660  0.1552
 8569SOL    HW237341   3.386   1.366   8.170  0.8190  1.5251  0.1182
 8570SOL     OW37342   0.023   0.505   2.276 -0.0524 -0.1441  0.6097
 8570SOL    HW137343   0.042   0.574   2.212 -0.3290  0.6969  1.4329
 8570SOL    HW237344   0.096   0.517   2.337  0.8270  1.4586 -0.7061
 8571SOL     OW37345   2.014   2.237   8.785 -0.1155 -0.2771 -0.2643
 8571SOL    HW137346   2.021   2.143   8.802  0.1310 -0.3794 -0.9371
 8571SOL    HW237347   2.094   2.253   8.734  0.7749 -0.7677  0.9756
 8572SOL     OW37348   1.474   0.941   2.603  1.0137 -0.0707 -0.0414
 8572SOL    HW137349   1.428   1.001   2.661  0.0669 -0.0770 -0.7690
 8572SOL    HW237350   1.481   0.990   2.521  0.0145 -0.8133 -0.5839
 8573SOL     OW37351   3.836   1.718   3.349 -0.2538 -0.4481  0.2716
 8573SOL    HW137352   3.797   1.768   3.277 -2.3910 -2.8386 -0.2366
 8573SOL    HW237353   3.760   1.701   3.406 -1.4829  0.6870 -1.0294
 8574SOL     OW37354   1.667   1.492  12.226  0.0905  0.5832  0.5299
 8574SOL    HW137355   1.607   1.422  12.250 -0.8991  0.9737 -0.8012
 8574SOL    HW237356   1.603   1.564  12.220 -1.9110 -1.0014  2.6653
 8575SOL     OW37357   0.195   0.875   6.257  0.2295 -0.2524  0.2922
 8575SOL    HW137358   0.165   0.861   6.167  2.5640 -2.4821 -0.1399
 8575SOL    HW237359   0.280   0.837   6.237 -0.4983 -1.0774 -1.2280
 8576SOL     OW37360   4.128   2.772  11.292 -0.0453 -0.0912 -0.1860
 8576SOL    HW137361   4.182   2.693  11.293  1.2150  0.7687 -0.0552
 8576SOL    HW237362   4.143   2.799  11.201 -3.0408  1.8778 -0.0727
 8577SOL     OW37363   4.646   4.642   3.799  0.1322 -0.4808 -0.2947
 8577SOL    HW137364   4.552   4.637   3.784 -0.1812  2.7147  0.6685
 8577SOL    HW237365   4.652   4.707   3.868  1.9536 -1.6481  0.6481
 8578SOL     OW37366   0.809   0.055   3.019  0.1058  0.3230 -0.5045
 8578SOL    HW137367   0.747   0.112   2.974 -0.2132  0.3883  0.0215
 8578SOL    HW237368   0.891   0.075   2.974 -1.5122  0.0546 -3.6042
 8579SOL     OW37369   3.566   4.158  16.689  0.7804  0.6413  0.3226
 8579SOL    HW137370   3.558   4.162  16.594 -0.1790 -0.7506  0.3462
 8579SOL    HW237371   3.600   4.069  16.690  0.4343  0.4925 -1.3085
 8580SOL     OW37372   3.780   3.327   1.958 -0.0956  0.2377 -0.2520
 8580SOL    HW137373   3.775   3.311   2.052  0.4516  1.4177 -0.0223
 8580SOL    HW237374   3.873   3.310   1.945 -0.1969  0.3670 -1.1682
 8581SOL     OW37375   3.101   2.482  16.701 -0.6577  0.7104 -0.0594
 8581SOL    HW137376   3.015   2.512  16.731 -0.7157  0.8931 -0.4048
 8581SOL    HW237377   3.150   2.492  16.782 -2.4469 -0.1552  1.1351
 8582SOL     OW37378   2.586   4.701   3.193  0.7401 -0.1393 -0.2548
 8582SOL    HW137379   2.621   4.619   3.227 -0.3375 -1.1505 -1.5698
 8582SOL    HW237380   2.579   0.009   3.276  0.7212  0.9844 -0.8764
 8583SOL     OW37381   4.066   0.603   4.346  0.1063 -0.2465 -0.1639
 8583SOL    HW137382   4.053   0.695   4.324  0.0436 -0.2409 -0.1011
 8583SOL    HW237383   3.981   0.564   4.327 -0.8737  1.8235  0.0317
 8584SOL     OW37384   1.304   3.251   2.764 -0.5919  0.6891  0.3758
 8584SOL    HW137385   1.219   3.217   2.794 -0.3586 -0.9002 -0.7848
 8584SOL    HW237386   1.346   3.168   2.742 -1.4685  0.0210  1.2421
 8585SOL     OW37387   3.144   3.548   8.487 -0.3085 -0.3084  0.0534
 8585SOL    HW137388   3.052   3.524   8.500 -1.3870  2.7713 -1.7180
 8585SOL    HW237389   3.138   3.584   8.398  0.0697  0.7216  0.4475
 8586SOL     OW37390   2.352   2.387  11.899  0.0876 -0.2780  0.2691
 8586SOL    HW137391   2.366   2.303  11.854 -5.0195 -0.4200 -1.0680
 8586SOL    HW237392   2.441   2.421  11.900  0.0253 -0.1152  0.2821
 8587SOL     OW37393   4.697   2.771   7.481 -0.0283  0.0537 -0.2849
 8587SOL    HW137394   4.730   2.746   7.567 -2.0281  4.3322  1.7387
 8587SOL    HW237395   4.610   2.732   7.490  1.0716 -1.6642  2.6696
 8588SOL     OW37396   0.991   3.478  16.251  0.1905 -1.1049 -0.0930
 8588SOL    HW137397   0.903   3.443  16.261 -0.1166  0.0409  1.3111
 8588SOL    HW237398   0.995   3.480  16.156 -2.1567 -0.6744 -0.1858
 8589SOL     OW37399   0.219   0.349   5.391  0.0896  0.1513  0.7948
 8589SOL    HW137400   0.261   0.350   5.304 -0.6226  0.9690  0.4639
 8589SOL    HW237401   0.139   0.304   5.365  0.7033 -0.2738 -0.3743
 8590SOL     OW37402   2.407   3.346  14.093 -0.0688 -0.2116  0.2198
 8590SOL    HW137403   2.457   3.421  14.126 -1.3952  1.8869 -2.4795
 8590SOL    HW237404   2.324   3.359  14.138 -0.2926  0.3460 -0.3439
 8591SOL     OW37405   0.887   4.655  16.914 -0.3132 -0.1843 -0.5945
 8591SOL    HW137406   0.953   4.688  16.975  0.8884 -1.0247 -1.4324
 8591SOL    HW237407   0.823   4.616  16.973  0.6917  0.8112  1.1420
 8592SOL     OW37408   0.790   3.921   4.622 -0.2003 -0.7522  0.3788
 8592SOL    HW137409   0.868   3.880   4.659  2.2502  1.5987 -2.1302
 8592SOL    HW237410   0.789   3.897   4.529 -0.0895  0.5101  0.0583
 8593SOL     OW37411   1.815   3.926   3.032  0.5461 -0.1786 -0.6310
 8593SOL    HW137412   1.808   3.949   3.125  0.4916 -0.7945 -0.4779
 8593SOL    HW237413   1.890   3.867   3.026  0.2169 -0.5011 -1.5094
 8594SOL     OW37414   2.399   4.318  10.653  0.2037 -0.2092 -0.2780
 8594SOL    HW137415   2.423   4.252  10.588 -0.0839 -2.1572  1.5970
 8594SOL    HW237416   2.482   4.322  10.699 -1.6311  0.5680  2.9527
 8595SOL     OW37417   1.480   2.560   1.757  0.0554  0.2036  0.0473
 8595SOL    HW137418   1.414   2.552   1.826 -1.2001  1.0906 -1.0375
 8595SOL    HW237419   1.521   2.638   1.795 -0.7398 -0.4420  2.1864
 8596SOL     OW37420   0.148   3.902   5.615 -0.1333  0.2844 -0.6700
 8596SOL    HW137421   0.071   3.849   5.594 -0.9928  1.0124  0.6621
 8596SOL    HW237422   0.216   3.839   5.590 -0.6233 -0.8173  0.8007
 8597SOL     OW37423   2.511   2.031   2.843 -0.4235  0.3980 -0.1064
 8597SOL    HW137424   2.418   2.045   2.862 -1.0988 -0.8395 -2.6326
 8597SOL    HW237425   2.525   1.937   2.844  1.9077  0.7235 -0.6538
 8598SOL     OW37426   2.738   0.030  10.170 -0.1483 -0.2571 -0.4237
 8598SOL    HW137427   2.674   0.015  10.240 -1.2831  0.8128 -1.2144
 8598SOL    HW237428   2.819   0.034  10.220 -0.1100  0.1442 -0.5161
 8599SOL     OW37429   0.029   0.916   2.646 -0.2086 -0.0373  0.1101
 8599SOL    HW137430   0.043   0.874   2.561  0.4039 -1.3434  0.8589
 8599SOL    HW237431   4.733   0.847   2.701 -1.9150  0.4304 -0.3586
 8600SOL     OW37432   2.208   3.739   6.896  0.0847 -0.0802 -0.5470
 8600SOL    HW137433   2.128   3.776   6.860  0.1738 -0.3956 -1.0702
 8600SOL    HW237434   2.271   3.740   6.824 -0.6151  1.8483 -1.1370
 8601SOL     OW37435   0.254   1.166  11.118  0.8668 -0.5121  0.0580
 8601SOL    HW137436   0.276   1.114  11.196 -0.8791 -1.2574  0.0510
 8601SOL    HW237437   0.240   1.248  11.165 -2.7304 -1.7252  1.1164
 8602SOL     OW37438   0.703   3.468   6.044  0.0331 -0.2289  0.3733
 8602SOL    HW137439   0.616   3.478   6.006  0.3597  1.0442 -0.0332
 8602SOL    HW237440   0.744   3.555   6.041  1.9855 -1.1207  1.4413
 8603SOL     OW37441   2.193   3.532   3.529  0.1371 -0.0977 -0.3631
 8603SOL    HW137442   2.243   3.478   3.468 -0.6029 -0.5243 -0.5928
 8603SOL    HW237443   2.263   3.593   3.552 -0.0788  0.2374 -0.5815
 8604SOL     OW37444   2.937   2.788   9.860 -0.6039  0.2589  0.0892
 8604SOL    HW137445   2.918   2.783   9.767 -0.7298 -2.0567  0.2423
 8604SOL    HW237446   2.859   2.741   9.889 -0.0729  0.7096  2.2911
 8605SOL     OW37447   0.056   1.591   2.199 -0.0395  0.3303 -0.2692
 8605SOL    HW137448   4.710   1.547   2.193  0.2708 -0.2102 -0.6946
 8605SOL    HW237449   0.058   1.648   2.121 -1.7883 -0.1359 -0.6571
 8606SOL     OW37450   2.290   4.315   3.156 -0.3228 -0.4246 -0.0581
 8606SOL    HW137451   2.219   4.313   3.220 -0.5951 -1.9356 -0.4047
 8606SOL    HW237452   2.258   4.254   3.089  1.2739 -0.4186 -0.8190
 8607SOL     OW37453   1.042   3.128   1.864  0.0624  0.8126  0.0878
 8607SOL    HW137454   1.069   3.199   1.923  1.7498 -0.2238  0.5522
 8607SOL    HW237455   0.981   3.182   1.813  0.1556  2.6975  1.9516
 8608SOL     OW37456   3.231   4.582  16.326 -0.3045  0.4865  0.1949
 8608SOL    HW137457   3.313   4.540  16.300 -0.1264  0.8239  0.2068
 8608SOL    HW237458   3.255   4.670  16.355 -1.5865  1.2799 -1.0824
 8609SOL     OW37459   2.527   4.452   4.462 -0.2085  0.2941 -0.7710
 8609SOL    HW137460   2.610   4.474   4.503  0.9149  0.6679 -3.2495
 8609SOL    HW237461   2.562   4.432   4.375 -1.1160 -0.1138 -1.0421
 8610SOL     OW37462   0.462   4.249   3.663 -0.0734 -0.1689  0.7196
 8610SOL    HW137463   0.441   4.251   3.569 -1.1615  0.6790  0.9829
 8610SOL    HW237464   0.447   4.339   3.690 -1.1419 -0.3854  0.8585
 8611SOL     OW37465   2.211   3.314   7.536  0.0749  0.5152 -0.1358
 8611SOL    HW137466   2.230   3.292   7.445 -0.3830  0.8501 -0.3128
 8611SOL    HW237467   2.117   3.331   7.532 -0.1438 -0.2086  2.0112
 8612SOL     OW37468   1.784   2.845  15.034 -0.3184 -0.1089 -0.3013
 8612SOL    HW137469   1.855   2.781  15.030 -0.1861 -0.0854  2.0007
 8612SOL    HW237470   1.750   2.838  15.123 -0.5215 -1.6822 -0.4882
 8613SOL     OW37471   2.307   1.610   3.221  0.2770  0.0301 -0.2708
 8613SOL    HW137472   2.306   1.518   3.194 -0.2048  0.5952 -2.2249
 8613SOL    HW237473   2.377   1.601   3.286  2.3209  2.1608 -2.1611
 8614SOL     OW37474   2.013   2.831  14.467 -0.0712  0.4692 -0.6330
 8614SOL    HW137475   1.955   2.817  14.392  0.3181 -1.9925 -0.4548
 8614SOL    HW237476   2.083   2.877  14.422  0.0040  1.9772  1.0080
 8615SOL     OW37477   2.153   2.464   9.081  0.4307  0.0220  0.0073
 8615SOL    HW137478   2.097   2.541   9.091  0.2866 -0.3560  1.9907
 8615SOL    HW237479   2.168   2.461   8.986  1.2905 -0.9060  0.1660
 8616SOL     OW37480   0.858   0.506   3.655  0.2064  0.2886 -0.0964
 8616SOL    HW137481   0.816   0.504   3.569 -0.0380 -2.2773  0.0717
 8616SOL    HW237482   0.846   0.418   3.692  1.0852 -0.3460 -1.3256
 8617SOL     OW37483   1.847   4.251   5.368  0.4920 -0.6178 -0.3363
 8617SOL    HW137484   1.910   4.246   5.441 -1.5241 -1.0006  1.3797
 8617SOL    HW237485   1.832   4.345   5.365 -0.4798 -0.7902 -0.8837
 8618SOL     OW37486   2.118   3.468  11.318 -0.0450 -0.2532 -0.1931
 8618SOL    HW137487   2.035   3.516  11.308 -0.2281 -0.4752  0.2952
 8618SOL    HW237488   2.148   3.479  11.408 -0.2068  1.7160 -0.3795
 8619SOL     OW37489   4.398   3.171   0.283 -0.1199  0.1120 -0.2127
 8619SOL    HW137490   4.375   3.078   0.284  1.8290 -0.3961 -2.2042
 8619SOL    HW237491   4.489   3.154   0.259 -0.9661 -2.9402 -1.3474
 8620SOL     OW37492   0.561   1.893   3.699  0.1113  0.2550  0.1702
 8620SOL    HW137493   0.539   1.914   3.790 -1.1579 -1.2957  0.2322
 8620SOL    HW237494   0.579   1.800   3.714 -2.4827 -0.0052  1.6911
 8621SOL     OW37495   4.433   1.066  16.881  0.1629 -0.2429  0.2466
 8621SOL    HW137496   4.404   1.065  16.790  0.7746  0.8974  0.0407
 8621SOL    HW237497   4.511   1.119  16.864  1.6614 -2.5170  0.0043
 8622SOL     OW37498   3.457   3.985  13.805 -0.0202 -0.1363  0.1301
 8622SOL    HW137499   3.473   4.079  13.810  0.8174 -0.2448 -0.5827
 8622SOL    HW237500   3.491   3.954  13.721 -2.2419  0.5378 -1.0336
 8623SOL     OW37501   2.643   3.451   6.184  0.3645 -0.0735  0.1633
 8623SOL    HW137502   2.676   3.363   6.162 -2.0996 -0.3762 -2.3646
 8623SOL    HW237503   2.661   3.452   6.278 -0.3342 -0.8887  0.3060
 8624SOL     OW37504   2.750   3.678   4.018 -0.0377 -0.6228  0.5859
 8624SOL    HW137505   2.684   3.740   3.987 -2.7324 -3.4030  0.8884
 8624SOL    HW237506   2.729   3.676   4.111 -0.6515 -2.3984  0.3935
 8625SOL     OW37507   0.246   1.162   1.783 -0.3908  0.1498 -0.0316
 8625SOL    HW137508   0.330   1.143   1.824  0.7379 -0.0297 -2.3965
 8625SOL    HW237509   0.197   1.193   1.859 -0.5548  0.7428 -0.3800
 8626SOL     OW37510   3.710   3.112   3.940  0.3167  0.2668 -0.3784
 8626SOL    HW137511   3.655   3.152   3.873  0.6207  1.7433  0.2701
 8626SOL    HW237512   3.693   3.017   3.936  1.1223 -0.0140  2.5362
 8627SOL     OW37513   3.700   0.082   8.528 -0.3232  0.0071  0.3131
 8627SOL    HW137514   3.722   4.736   8.488 -1.0928  0.4899 -1.1294
 8627SOL    HW237515   3.777   0.090   8.584 -0.7414 -2.2004  1.2329
 8628SOL     OW37516   2.319   4.194  16.556 -0.3921  0.4751  0.1852
 8628SOL    HW137517   2.295   4.266  16.497 -2.1099  0.4272  0.8202
 8628SOL    HW237518   2.375   4.148  16.494 -2.6332 -2.0173  0.0275
 8629SOL     OW37519   4.672   4.534   4.996  0.2437  0.6359 -0.6135
 8629SOL    HW137520   4.677   4.566   4.906  0.8297 -1.2137 -1.2344
 8629SOL    HW237521   4.714   4.449   4.982 -0.6015  0.2116 -0.6045
 8630SOL     OW37522   3.849   3.010   8.894  0.3936  0.1589 -0.4769
 8630SOL    HW137523   3.856   2.925   8.851  0.1199 -0.0248 -0.1585
 8630SOL    HW237524   3.803   3.066   8.831  0.4641  0.3545 -0.3567
 8631SOL     OW37525   3.839   4.572  15.076 -0.4662 -0.4542 -0.3381
 8631SOL    HW137526   3.751   4.551  15.045 -1.1862 -0.5631  1.7445
 8631SOL    HW237527   3.860   4.495  15.128  0.8077 -0.4352 -0.8206
 8632SOL     OW37528   2.961   0.244  11.050  0.5386 -0.0186 -0.8239
 8632SOL    HW137529   3.047   0.201  11.051  1.4884  1.8895  0.4941
 8632SOL    HW237530   2.901   0.175  11.022  0.5290 -0.3276 -0.0259
 8633SOL     OW37531   3.984   2.311   0.009 -0.1185  0.6407 -0.5038
 8633SOL    HW137532   3.902   2.307   0.058 -1.4923 -0.3754 -2.8991
 8633SOL    HW237533   3.969   2.392  17.713 -0.9519 -0.1217 -1.5441
 8634SOL     OW37534   2.981   0.823   5.975 -0.0868  0.2994  0.0161
 8634SOL    HW137535   2.926   0.750   6.003 -1.5590  0.6473 -1.9747
 8634SOL    HW237536   2.911   0.888   5.987  1.0135  1.2213  1.4510
 8635SOL     OW37537   3.117   4.367   0.772  0.2200  0.1625  0.9572
 8635SOL    HW137538   3.120   4.288   0.826  1.6781 -0.7965 -0.5207
 8635SOL    HW237539   3.210   4.389   0.775  0.0954  0.5401  2.1434
 8636SOL     OW37540   1.610   4.416   4.129 -0.2548  1.0138 -0.3476
 8636SOL    HW137541   1.693   4.458   4.147 -0.8171  1.4102  1.3137
 8636SOL    HW237542   1.576   4.432   4.217 -1.5430 -0.2116 -0.6027
 8637SOL     OW37543   1.653   0.375  10.599  0.7483  0.2586 -0.3429
 8637SOL    HW137544   1.596   0.450  10.617  0.5138  0.4918 -2.0740
 8637SOL    HW237545   1.607   0.293  10.618 -2.6870  2.1961 -0.3222
 8638SOL     OW37546   2.719   3.975   2.745  0.0831  0.1667 -0.1386
 8638SOL    HW137547   2.742   3.906   2.682 -3.2386 -1.2429  0.1935
 8638SOL    HW237548   2.805   4.012   2.725  0.1402  1.4230  2.5402
 8639SOL     OW37549   3.450   0.870  10.136  0.0254 -0.0667  0.2204
 8639SOL    HW137550   3.495   0.827  10.063 -0.3181 -2.7279  1.5737
 8639SOL    HW237551   3.475   0.811  10.208  0.2342  0.5108  0.6184
 8640SOL     OW37552   2.826   1.714   7.563 -0.2002 -0.0802  0.8927
 8640SOL    HW137553   2.859   1.626   7.584  1.2645  0.4350  0.7137
 8640SOL    HW237554   2.866   1.774   7.625 -1.3945  1.2513  0.3665
 8641SOL     OW37555   1.863   1.219  12.788  0.3827  0.1602 -0.1397
 8641SOL    HW137556   1.845   1.261  12.704 -2.1959  0.6252  0.6201
 8641SOL    HW237557   1.945   1.171  12.779 -0.0951 -0.5641 -0.6275
 8642SOL     OW37558   3.689   2.764  13.556 -0.0857 -0.5626  0.5176
 8642SOL    HW137559   3.781   2.761  13.529 -0.7380  0.3105 -1.8003
 8642SOL    HW237560   3.651   2.683  13.521  0.3452  0.0891 -1.4773
 8643SOL     OW37561   3.213   1.079   6.524  0.0010  0.1861 -0.0198
 8643SOL    HW137562   3.212   1.069   6.619 -0.5171 -3.5784 -0.4295
 8643SOL    HW237563   3.122   1.066   6.499 -0.0059 -0.0994  0.1476
 8644SOL     OW37564   3.152   3.918   1.685  0.0757 -0.0645  0.4764
 8644SOL    HW137565   3.145   3.873   1.769 -0.2709 -0.4981  0.2167
 8644SOL    HW237566   3.199   3.990   1.727  0.3405 -1.1490  2.0354
 8645SOL     OW37567   0.416   0.651  16.327  0.0609 -0.1056  0.1531
 8645SOL    HW137568   0.327   0.630  16.357  1.0633 -0.4280  2.9381
 8645SOL    HW237569   0.394   0.684  16.240  2.4896  0.5404 -0.2097
 8646SOL     OW37570   0.439   2.838   4.871 -0.4619  0.3302  0.3840
 8646SOL    HW137571   0.371   2.841   4.804  0.1424 -0.9005 -0.2943
 8646SOL    HW237572   0.480   2.752   4.859  1.1292  1.2142 -0.4650
 8647SOL     OW37573   1.448   4.614   1.719  0.2215 -0.1567  0.5252
 8647SOL    HW137574   1.473   4.521   1.715  0.2779 -0.1183 -0.0064
 8647SOL    HW237575   1.457   4.647   1.629 -2.0324 -1.5289 -0.2078
 8648SOL     OW37576   3.495   3.344   1.192  0.4667  0.3925 -0.6603
 8648SOL    HW137577   3.498   3.436   1.217 -0.6044  0.7724 -1.9700
 8648SOL    HW237578   3.481   3.307   1.279  1.1013 -0.5024 -0.9319
 8649SOL     OW37579   3.297   1.552   6.306  0.2607  0.2522 -0.4422
 8649SOL    HW137580   3.247   1.490   6.254  0.0185 -0.2286  0.3606
 8649SOL    HW237581   3.240   1.629   6.301  0.1085  0.3686  2.8602
 8650SOL     OW37582   1.352   0.160  13.604 -0.0928  0.2236 -0.1473
 8650SOL    HW137583   1.420   0.094  13.619 -1.2093 -0.7461  0.6360
 8650SOL    HW237584   1.389   0.238  13.644 -0.8642 -0.6672  2.2865
 8651SOL     OW37585   2.519   1.837  13.607 -0.4557 -0.8593 -0.0262
 8651SOL    HW137586   2.600   1.878  13.637 -2.0039  2.9223 -0.9974
 8651SOL    HW237587   2.499   1.887  13.527 -1.2703 -1.7735 -0.3916
 8652SOL     OW37588   0.802   3.001   2.425 -0.1619 -0.2517 -0.2604
 8652SOL    HW137589   0.859   3.037   2.493 -1.2993  0.7124  0.1964
 8652SOL    HW237590   0.737   3.072   2.420 -0.1725 -0.1770  1.0104
 8653SOL     OW37591   3.055   2.233   8.321 -0.3871 -0.2048 -0.0900
 8653SOL    HW137592   3.101   2.266   8.244 -0.1806 -2.0381 -0.7591
 8653SOL    HW237593   3.038   2.144   8.291  0.6576 -0.5855  0.4252
 8654SOL     OW37594   0.306   1.388  11.483 -0.1511  0.0502  0.2401
 8654SOL    HW137595   0.269   1.442  11.553 -0.2914  2.1478 -1.4162
 8654SOL    HW237596   0.226   1.361  11.437 -0.0751  0.8946 -0.4061
 8655SOL     OW37597   0.310   0.269   5.961 -0.6676 -0.5855  0.3410
 8655SOL    HW137598   0.221   0.288   5.991 -1.3930 -2.6755 -0.5189
 8655SOL    HW237599   0.354   0.353   5.973 -2.3489  0.1729  1.2566
 8656SOL     OW37600   2.495   1.181  13.278  0.3613  0.7078 -0.2068
 8656SOL    HW137601   2.517   1.091  13.253  1.4459  0.6080  1.1013
 8656SOL    HW237602   2.557   1.238  13.233 -1.2057  1.7192 -1.1077
 8657SOL     OW37603   1.894   1.863   8.206 -0.0948  0.3800  0.2511
 8657SOL    HW137604   1.944   1.793   8.249  0.8572  0.6547 -0.4291
 8657SOL    HW237605   1.878   1.819   8.123  0.0025  1.1487 -0.1637
 8658SOL     OW37606   1.213   3.051   5.807 -0.4169 -0.4131 -0.3771
 8658SOL    HW137607   1.188   2.961   5.830  0.4895 -0.4091  0.6193
 8658SOL    HW237608   1.306   3.055   5.785 -0.3344 -2.7329 -0.3903
 8659SOL     OW37609   4.667   0.982   4.517 -0.0787  0.9334 -0.1980
 8659SOL    HW137610   0.006   1.035   4.536 -0.3825  1.3400 -0.0980
 8659SOL    HW237611   4.616   0.991   4.598  0.8745 -2.0046  0.7541
 8660SOL     OW37612   2.445   1.375   7.747  0.1712 -0.1434  0.1851
 8660SOL    HW137613   2.429   1.469   7.739  1.0366 -0.0906 -1.1099
 8660SOL    HW237614   2.360   1.332   7.738  0.3471 -0.5097  0.2747
 8661SOL     OW37615   1.954   0.566   1.431 -0.1591 -0.4067 -0.0068
 8661SOL    HW137616   1.952   0.656   1.399 -4.3833 -0.2122  0.7408
 8661SOL    HW237617   2.021   0.563   1.499  0.9984 -1.1285 -1.1870
 8662SOL     OW37618   1.019   1.808  16.989 -0.6047 -0.1324  0.5024
 8662SOL    HW137619   0.978   1.809  17.076 -2.8095  1.2773 -0.5678
 8662SOL    HW237620   1.108   1.777  17.008  0.2808  0.8354 -2.1285
 8663SOL     OW37621   4.116   4.692  16.835 -0.2082 -0.2390  0.1502
 8663SOL    HW137622   4.112   4.738  16.919 -1.7998 -0.6522  0.3114
 8663SOL    HW237623   4.053   4.620  16.846 -0.4695  0.1211  1.0260
 8664SOL     OW37624   3.619   2.853   3.859 -0.4045  0.6766  0.1800
 8664SOL    HW137625   3.524   2.844   3.851 -0.2492  0.0497 -0.9661
 8664SOL    HW237626   3.646   2.765   3.831 -1.2207  1.0202 -1.6183
 8665SOL     OW37627   0.646   3.189   3.396  0.1387 -0.1261  0.3853
 8665SOL    HW137628   0.739   3.213   3.385  0.6458 -1.8946  0.8202
 8665SOL    HW237629   0.652   3.114   3.454  0.1129 -1.7800 -1.7511
 8666SOL     OW37630   3.179   0.912   9.295 -0.0303 -0.0806 -0.4102
 8666SOL    HW137631   3.209   0.961   9.219  0.7988 -2.5823 -1.7195
 8666SOL    HW237632   3.083   0.913   9.289 -0.2060  0.6279  2.7564
 8667SOL     OW37633   3.902   4.714   2.273 -0.4044  0.0459 -0.0163
 8667SOL    HW137634   3.910   4.725   2.179  1.1692  1.1781  0.2613
 8667SOL    HW237635   3.962   0.044   2.303 -0.0594  0.0506 -0.7385
 8668SOL     OW37636   3.169   2.043   4.740  0.3693  1.0426 -0.6684
 8668SOL    HW137637   3.101   1.994   4.787  1.6520  0.5880  0.7035
 8668SOL    HW237638   3.205   1.974   4.684  0.3967  0.0047  0.6210
 8669SOL     OW37639   4.486   4.649   6.194 -0.4138  0.6924 -0.2341
 8669SOL    HW137640   4.514   4.560   6.216 -3.0204  0.1918  0.9989
 8669SOL    HW237641   4.391   4.635   6.193 -0.6831  2.6245 -0.4486
 8670SOL     OW37642   4.317   0.455   4.254  0.0578  0.2849 -0.0344
 8670SOL    HW137643   4.269   0.390   4.203 -2.2315  2.0230 -0.1291
 8670SOL    HW237644   4.246   0.511   4.287 -0.2381 -0.3975  0.4821
 8671SOL     OW37645   0.872   4.003   2.668  0.2489  0.4850  0.0292
 8671SOL    HW137646   0.794   3.985   2.616  0.5626  0.2148 -0.3435
 8671SOL    HW237647   0.831   4.058   2.735  0.2362 -0.1602  0.5527
 8672SOL     OW37648   1.678   3.451   1.305 -0.3701  0.2792 -0.6186
 8672SOL    HW137649   1.749   3.475   1.246 -0.3665 -0.0165 -0.7319
 8672SOL    HW237650   1.700   3.494   1.387 -0.0422 -0.5909 -0.2499
 8673SOL     OW37651   4.269   1.372   8.183  0.1286  0.2994 -0.0785
 8673SOL    HW137652   4.193   1.321   8.210  0.5785 -0.6876 -0.6630
 8673SOL    HW237653   4.222   1.456   8.183 -0.6514 -0.1416 -0.3333
 8674SOL     OW37654   4.735   1.654   9.728 -0.0327  0.2313 -0.2057
 8674SOL    HW137655   0.041   1.729   9.765  0.6334 -0.3200  0.1120
 8674SOL    HW237656   4.695   1.595   9.792  0.8098 -0.2084 -0.0822
 8675SOL     OW37657   0.459   3.462   7.941  0.2294  0.1790 -0.4687
 8675SOL    HW137658   0.491   3.551   7.954 -0.1055 -0.0218  1.7230
 8675SOL    HW237659   0.441   3.436   8.031  0.2881 -0.1267 -0.5456
 8676SOL     OW37660   0.817   4.508   7.095 -0.8480  0.2410 -0.5977
 8676SOL    HW137661   0.797   4.425   7.138  0.0346  0.5758  0.4537
 8676SOL    HW237662   0.858   4.473   7.016 -1.7475  0.1857 -1.0403
 8677SOL     OW37663   2.674   2.475   1.735  0.2959  0.2506 -0.3559
 8677SOL    HW137664   2.636   2.486   1.648  0.3506  0.3262 -0.3702
 8677SOL    HW237665   2.676   2.566   1.765  0.8041  0.2038 -0.2415
 8678SOL     OW37666   1.476   3.165   3.187  0.2807  0.0987  0.4115
 8678SOL    HW137667   1.467   3.231   3.119 -0.2344  2.3887  2.7113
 8678SOL    HW237668   1.408   3.195   3.248  0.0421  0.2205  0.0867
 8679SOL     OW37669   1.103   4.338  14.918  0.1189 -0.1094 -0.6565
 8679SOL    HW137670   1.195   4.317  14.901  0.6941 -0.3830  2.8242
 8679SOL    HW237671   1.099   4.372  15.007  1.2952  0.9514 -1.0065
 8680SOL     OW37672   0.990   0.925   1.703 -0.8430 -0.5966 -0.1031
 8680SOL    HW137673   0.997   0.864   1.777 -2.2030 -1.1970 -0.4831
 8680SOL    HW237674   0.955   0.869   1.634 -0.8561 -2.5516  1.4932
 8681SOL     OW37675   0.446   4.540   2.227  0.5565 -0.5650 -0.1580
 8681SOL    HW137676   0.472   4.631   2.244 -1.6269 -0.1852  1.1370
 8681SOL    HW237677   0.459   4.538   2.132 -0.8785  0.2906 -0.3803
 8682SOL     OW37678   2.452   0.730   2.732 -0.1018  0.3284 -0.1688
 8682SOL    HW137679   2.387   0.678   2.686  2.9071 -3.5650 -0.0456
 8682SOL    HW237680   2.528   0.672   2.726 -0.2430 -0.1262  2.3520
 8683SOL     OW37681   0.234   0.480   1.647 -0.5897  0.2769  0.0927
 8683SOL    HW137682   0.222   0.575   1.646  3.5346  0.7804 -2.6297
 8683SOL    HW237683   0.322   0.476   1.610  0.1296  1.3798  1.6955
 8684SOL     OW37684   2.519   4.300   0.366  0.5759  0.4960 -0.1540
 8684SOL    HW137685   2.500   4.372   0.427  5.3319  1.2314  0.4648
 8684SOL    HW237686   2.453   4.236   0.395 -0.2546  1.5758  0.3493
 8685SOL     OW37687   2.157   2.351   5.302  0.5530 -0.1471  0.1337
 8685SOL    HW137688   2.082   2.355   5.362  1.0448 -0.1839  0.7515
 8685SOL    HW237689   2.120   2.361   5.214  1.4564  0.5313 -0.1598
 8686SOL     OW37690   0.138   3.442   4.727 -0.2040  0.2230 -0.0116
 8686SOL    HW137691   0.218   3.491   4.749 -0.8369  0.5928  1.4324
 8686SOL    HW237692   0.139   3.462   4.633  1.1453  0.4184  0.0441
 8687SOL     OW37693   0.679   4.606   3.192  0.2512  0.1980  0.1686
 8687SOL    HW137694   0.714   4.529   3.147  1.5944  0.4491  0.7842
 8687SOL    HW237695   0.679   4.664   3.117 -1.0133  1.7754  1.3767
 8688SOL     OW37696   4.576   0.728   5.771 -0.2023  0.1974 -0.2757
 8688SOL    HW137697   4.656   0.684   5.799  0.4905  0.9009 -1.1408
 8688SOL    HW237698   4.542   0.680   5.694  1.0155 -0.1384 -0.6051
 8689SOL     OW37699   4.517   3.764  17.676  0.1987  0.4495 -0.2532
 8689SOL    HW137700   4.475   3.678  17.682 -0.5211  0.8251  0.0176
 8689SOL    HW237701   4.517   3.787  17.583 -0.7283 -1.2302 -0.6642
 8690SOL     OW37702   0.991   0.125   2.754 -0.1626 -0.3899 -0.1082
 8690SOL    HW137703   0.944   0.207   2.740  1.9882  0.2194 -3.6981
 8690SOL    HW237704   1.074   0.156   2.790 -0.5775  0.9711 -0.3343
 8691SOL     OW37705   4.210   3.454   4.093 -0.0782  0.0026  0.3921
 8691SOL    HW137706   4.215   3.509   4.171  0.3096  1.2056 -0.4785
 8691SOL    HW237707   4.242   3.515   4.027  1.8081 -0.9025  0.4609
 8692SOL     OW37708   3.399   3.348   7.755  0.3294  0.0478  0.0985
 8692SOL    HW137709   3.418   3.333   7.848  0.6082 -0.2670 -0.0122
 8692SOL    HW237710   3.439   3.273   7.713  1.8706  0.9566 -0.0711
 8693SOL     OW37711   0.978   1.366   3.228 -0.1628  0.0980 -0.2221
 8693SOL    HW137712   0.991   1.450   3.273 -1.2885 -0.4157  1.0530
 8693SOL    HW237713   0.929   1.392   3.150 -0.2666  0.1514 -0.1397
 8694SOL     OW37714   0.880   3.943  16.796  0.1424  0.2204  0.5831
 8694SOL    HW137715   0.827   4.022  16.801 -0.4099 -0.0020 -1.5678
 8694SOL    HW237716   0.809   3.881  16.811  0.4180 -0.5391 -1.1550
 8695SOL     OW37717   2.639   0.861   4.769  0.3679 -0.9631 -0.0232
 8695SOL    HW137718   2.647   0.839   4.862 -1.0419  1.3750  0.6397
 8695SOL    HW237719   2.729   0.831   4.753  0.8340 -0.2686  1.2268
 8696SOL     OW37720   0.385   0.421  10.913  0.1658  0.1896 -0.0725
 8696SOL    HW137721   0.360   0.379  10.830 -2.0944  0.8540  0.2803
 8696SOL    HW237722   0.420   0.348  10.964  1.3147 -0.6252 -1.9900
 8697SOL     OW37723   4.186   1.656   2.170 -0.0977 -0.0301  0.4376
 8697SOL    HW137724   4.164   1.721   2.237  0.5793  0.0805  0.5609
 8697SOL    HW237725   4.158   1.573   2.207  1.5887 -1.1389 -0.7866
 8698SOL     OW37726   3.620   0.314   4.402  0.2356 -0.4648 -0.0290
 8698SOL    HW137727   3.544   0.292   4.455  0.8377 -1.0445  0.5829
 8698SOL    HW237728   3.668   0.231   4.411 -0.2647 -0.5256  2.0674
 8699SOL     OW37729   0.204   1.942   1.859  0.3527 -0.0594 -0.0557
 8699SOL    HW137730   0.118   1.900   1.856 -0.5056  1.7503 -0.8920
 8699SOL    HW237731   0.227   1.935   1.952 -0.7560  0.2231  0.2376
 8700SOL     OW37732   2.573   1.472   2.048  0.2622  0.2757  0.1839
 8700SOL    HW137733   2.580   1.492   1.955 -0.1980 -0.3704  0.0049
 8700SOL    HW237734   2.655   1.425   2.062 -0.9359 -1.6269  0.8440
 8701SOL     OW37735   4.183   3.830   3.722 -0.3636  0.7791 -0.4317
 8701SOL    HW137736   4.215   3.816   3.633 -1.0602  0.5350 -0.6419
 8701SOL    HW237737   4.220   3.756   3.770 -0.8964  0.5208 -0.4208
 8702SOL     OW37738   4.328   0.272   0.946 -0.0292  0.2251 -0.2502
 8702SOL    HW137739   4.244   0.310   0.919  1.1358  2.0323 -1.3643
 8702SOL    HW237740   4.383   0.348   0.924  1.4398 -0.1619  2.1160
 8703SOL     OW37741   3.018   0.161   2.790 -0.0891  0.6023 -0.0004
 8703SOL    HW137742   3.011   0.255   2.802 -0.1136  0.6670 -0.5118
 8703SOL    HW237743   2.952   0.137   2.854  1.2012  0.4891  1.2778
 8704SOL     OW37744   2.537   4.640   8.099 -0.3190  0.5585  0.0666
 8704SOL    HW137745   2.447   4.643   8.131 -0.0676  0.4059  0.7856
 8704SOL    HW237746   2.577   4.589   8.169 -0.6820 -0.5232 -0.5293
 8705SOL     OW37747   1.630   0.834   0.026 -0.5286  0.2773  0.3355
 8705SOL    HW137748   1.718   0.845   0.063 -0.0523 -2.1578 -0.0967
 8705SOL    HW237749   1.614   0.740   0.016  1.7952  0.0127 -0.9597
 8706SOL     OW37750   3.148   0.724   8.517 -0.1026  0.4053 -0.2620
 8706SOL    HW137751   3.129   0.735   8.610 -1.1194  0.2555 -0.4570
 8706SOL    HW237752   3.122   0.813   8.492 -2.2646 -0.8184 -2.3628
 8707SOL     OW37753   3.968   3.637   3.861 -0.4659 -0.1575 -0.2348
 8707SOL    HW137754   3.954   3.627   3.767 -1.2788 -1.9644  0.0764
 8707SOL    HW237755   3.976   3.732   3.868  0.8445 -0.3702  1.2056
 8708SOL     OW37756   0.584   0.463   1.577  0.0719  0.8490 -0.0878
 8708SOL    HW137757   0.562   0.556   1.562  1.4645  1.1722 -0.1098
 8708SOL    HW237758   0.553   0.412   1.502  0.7485  1.2359 -0.6356
 8709SOL     OW37759   0.742   0.106   7.350  0.0331 -0.0995  0.6562
 8709SOL    HW137760   0.677   0.173   7.331  1.5963  0.9734 -0.8658
 8709SOL    HW237761   0.787   0.088   7.267 -3.8804 -2.0453 -1.0383
 8710SOL     OW37762   4.029   1.753   3.556  0.0320  0.2012 -0.3691
 8710SOL    HW137763   3.986   1.735   3.473  0.5946 -0.8801 -0.4287
 8710SOL    HW237764   3.960   1.748   3.622 -0.3088  1.1740 -0.6570
 8711SOL     OW37765   0.833   4.040  11.945 -1.0070 -0.3526  0.0089
 8711SOL    HW137766   0.869   4.088  11.872  1.2263 -3.1983 -0.7465
 8711SOL    HW237767   0.781   4.100  11.998 -0.3220  0.8161 -0.6539
 8712SOL     OW37768   2.817   3.396   9.350  0.4174  0.6392 -0.3152
 8712SOL    HW137769   2.740   3.400   9.406  0.3069 -1.7185 -0.2941
 8712SOL    HW237770   2.858   3.476   9.381  2.5507 -0.3682 -0.5206
 8713SOL     OW37771   4.101   4.158   1.627  0.3472 -0.1264  0.1820
 8713SOL    HW137772   4.081   4.173   1.720  0.0012  0.2442  0.0496
 8713SOL    HW237773   4.023   4.195   1.585  1.3158 -1.6776 -2.9447
 8714SOL     OW37774   0.719   0.038   2.354  0.7145 -0.7597  0.3672
 8714SOL    HW137775   0.722   4.696   2.303  0.4600  0.1043 -0.9916
 8714SOL    HW237776   0.812   0.062   2.350  0.4528  0.2990  0.6004
 8715SOL     OW37777   2.649   4.336   5.420 -0.1409  0.7202 -0.1128
 8715SOL    HW137778   2.684   4.259   5.375 -1.1154 -0.8592  1.8816
 8715SOL    HW237779   2.594   4.366   5.347  1.8719  0.8764 -1.5761
 8716SOL     OW37780   3.013   3.755   7.394  0.2961  0.5036  0.0063
 8716SOL    HW137781   3.102   3.759   7.360  0.3094 -1.5186 -0.1520
 8716SOL    HW237782   2.979   3.836   7.356  1.1965  0.7465 -0.2658
 8717SOL     OW37783   2.084   3.305   5.768 -0.7819  0.6343  0.4396
 8717SOL    HW137784   2.033   3.253   5.831  0.0614  1.4810  1.8165
 8717SOL    HW237785   2.019   3.347   5.711 -1.1435 -0.2077  0.2303
 8718SOL     OW37786   0.487   3.834   1.018 -0.8546 -0.1160 -0.1786
 8718SOL    HW137787   0.401   3.838   0.976  0.7281 -0.4953 -3.4987
 8718SOL    HW237788   0.482   3.746   1.056 -1.4245 -0.5135 -1.1494
 8719SOL     OW37789   3.217   4.666   3.334 -0.2953  0.4527  0.4172
 8719SOL    HW137790   3.290   4.721   3.306 -0.6207  0.6202 -0.0978
 8719SOL    HW237791   3.237   4.637   3.423 -0.1716  0.3442  0.3548
 8720SOL     OW37792   1.319   2.292   2.483 -0.2547 -0.1626 -0.7315
 8720SOL    HW137793   1.349   2.314   2.572  2.7827  0.0643 -1.8247
 8720SOL    HW237794   1.231   2.329   2.484 -0.1502 -0.0013  2.7930
 8721SOL     OW37795   1.375   0.709   3.907 -0.0238  0.2788 -0.1117
 8721SOL    HW137796   1.457   0.719   3.955  1.8385 -2.2491 -2.7560
 8721SOL    HW237797   1.319   0.781   3.936  1.4810  2.4361 -2.5897
 8722SOL     OW37798   0.228   3.276   7.677  0.2103 -0.1199 -0.0048
 8722SOL    HW137799   0.316   3.315   7.667 -0.1677  0.3696 -1.3882
 8722SOL    HW237800   0.191   3.247   7.594 -3.7107  2.2349  0.9278
 8723SOL     OW37801   0.293   0.822   6.621 -0.3479 -0.1969  0.4809
 8723SOL    HW137802   0.318   0.732   6.598  2.0947  0.8310 -0.9490
 8723SOL    HW237803   0.204   0.820   6.586 -0.0487  0.5926 -0.3334
 8724SOL     OW37804   2.765   2.310   7.375 -0.0657  0.0646 -0.4391
 8724SOL    HW137805   2.681   2.308   7.421  0.6557  2.0392  0.9533
 8724SOL    HW237806   2.775   2.401   7.403  1.0377 -0.0257 -0.5435
 8725SOL     OW37807   2.792   4.016   4.010 -0.0439 -0.0838 -0.2319
 8725SOL    HW137808   2.844   3.952   4.058 -0.5122 -1.3917 -1.4709
 8725SOL    HW237809   2.861   4.077   3.985 -0.3755  0.1913 -0.4714
 8726SOL     OW37810   3.469   3.957  17.559 -0.0145 -0.0510  0.5706
 8726SOL    HW137811   3.562   3.945  17.541 -0.5393 -2.6720 -0.3770
 8726SOL    HW237812   3.429   3.872  17.541  1.9210 -0.5587 -1.3754
 8727SOL     OW37813   4.421   0.042   2.924  0.3753 -0.0723  0.4651
 8727SOL    HW137814   4.346   0.100   2.940 -0.1844 -0.9776  1.0979
 8727SOL    HW237815   4.459   0.031   3.011  0.4694 -0.5135  0.3671
 8728SOL     OW37816   3.608   1.181   6.682 -0.2065 -0.3070  1.0417
 8728SOL    HW137817   3.593   1.243   6.754 -1.3352  0.5982  0.0093
 8728SOL    HW237818   3.648   1.237   6.616 -0.6972 -2.5972 -1.1642
 8729SOL     OW37819   1.026   1.046  17.515 -0.5429  0.5702 -0.6362
 8729SOL    HW137820   1.009   0.958  17.550  1.8089  1.4918  2.8452
 8729SOL    HW237821   0.959   1.099  17.559 -2.7458 -0.9296 -2.2093
 8730SOL     OW37822   2.069   4.381   6.855  0.2194  0.1759 -0.2165
 8730SOL    HW137823   2.161   4.361   6.874  0.0438 -0.2457  0.1810
 8730SOL    HW237824   2.074   4.469   6.892 -0.8763  0.6382 -1.1751
 8731SOL     OW37825   2.988   0.167   7.358  0.9789 -0.1323  0.1892
 8731SOL    HW137826   2.931   0.102   7.316 -0.6113  0.9201  0.7178
 8731SOL    HW237827   3.069   0.117   7.351  0.4039 -1.2138  1.1392
 8732SOL     OW37828   1.202   0.169   4.832  0.4718  0.0903  0.0012
 8732SOL    HW137829   1.215   0.074   4.831 -0.1367  0.0074 -0.2005
 8732SOL    HW237830   1.192   0.178   4.927 -1.6516 -0.7283 -0.1464
 8733SOL     OW37831   2.913   0.656   5.422 -0.1605 -0.0693 -0.1570
 8733SOL    HW137832   2.847   0.657   5.492  1.3631  3.1976  1.2166
 8733SOL    HW237833   2.866   0.616   5.349 -0.4753  0.0099  0.0000
 8734SOL     OW37834   1.582   2.661   8.613  0.1047  0.6572  0.0081
 8734SOL    HW137835   1.664   2.639   8.656 -0.1052  0.9985  0.5798
 8734SOL    HW237836   1.581   2.579   8.563  0.9260  1.4045 -1.1995
 8735SOL     OW37837   3.074   3.027   7.973 -0.4667 -1.0513  0.1945
 8735SOL    HW137838   3.061   3.093   7.905 -1.7145 -1.4073  0.0839
 8735SOL    HW237839   3.170   3.023   7.979 -0.4219  1.4097  1.3147
 8736SOL     OW37840   0.549   3.077  14.270  0.2705 -0.1490  0.0704
 8736SOL    HW137841   0.541   3.058  14.364 -0.4860 -0.8623 -0.1400
 8736SOL    HW237842   0.493   3.011  14.229 -0.3198 -0.3358  1.1726
 8737SOL     OW37843   2.766   4.409  16.839  0.0237 -0.0831 -0.0706
 8737SOL    HW137844   2.737   4.336  16.894  2.1064 -0.7664  0.1168
 8737SOL    HW237845   2.749   4.488  16.889  1.1630 -0.0576  0.2664
 8738SOL     OW37846   0.338   3.814   8.577 -0.5781 -0.9188 -0.0741
 8738SOL    HW137847   0.351   3.773   8.492  2.4003  1.2656 -0.6882
 8738SOL    HW237848   0.324   3.903   8.545  1.7082 -0.0479  1.2968
 8739SOL     OW37849   0.382   1.819  14.480  0.5688  0.7467 -0.5853
 8739SOL    HW137850   0.304   1.870  14.458  0.0205 -0.3690 -1.1874
 8739SOL    HW237851   0.374   1.750  14.414  0.9126 -0.1622  0.3331
 8740SOL     OW37852   4.239   3.633   6.565  0.3862 -0.4515 -0.1901
 8740SOL    HW137853   4.180   3.688   6.618  1.4428  0.6682 -0.1709
 8740SOL    HW237854   4.320   3.675   6.594 -0.1335 -0.1827  0.8853
 8741SOL     OW37855   0.575   0.999   9.428  0.2399 -0.6117  0.5278
 8741SOL    HW137856   0.490   1.043   9.424 -0.2419 -1.5921 -0.0286
 8741SOL    HW237857   0.541   0.919   9.389 -0.2571 -0.1475 -0.0011
 8742SOL     OW37858   1.112   4.000   2.011  1.2218 -0.7610 -0.2536
 8742SOL    HW137859   1.203   4.020   2.033  0.2094  2.3238  1.1371
 8742SOL    HW237860   1.105   3.908   2.038  0.6253 -1.5018 -2.9089
 8743SOL     OW37861   1.272   0.863   9.349 -0.1551  0.5927 -0.4274
 8743SOL    HW137862   1.304   0.943   9.306  1.1347  0.4819  0.3226
 8743SOL    HW237863   1.272   0.799   9.278  3.3406 -2.0147  1.9714
 8744SOL     OW37864   3.862   4.510   4.377  0.6247 -0.2832 -0.3512
 8744SOL    HW137865   3.883   4.542   4.465  2.4610  1.1349 -1.2969
 8744SOL    HW237866   3.873   4.415   4.386  0.3797 -0.5237 -2.7064
 8745SOL     OW37867   2.227   3.402  11.091 -0.0007 -0.2607 -0.2593
 8745SOL    HW137868   2.216   3.405  11.186 -1.0265  0.6511 -0.4100
 8745SOL    HW237869   2.291   3.331  11.081 -0.6150 -0.9301  0.5179
 8746SOL     OW37870   1.780   3.703   1.160 -0.3733  0.0474 -0.1335
 8746SOL    HW137871   1.816   3.620   1.131  1.4294  1.0527 -0.7907
 8746SOL    HW237872   1.799   3.765   1.090  0.7174  0.6431  0.6831
 8747SOL     OW37873   1.716   3.465   2.686 -0.2744  0.5287 -0.1038
 8747SOL    HW137874   1.653   3.525   2.646 -0.7336  1.2945  1.7910
 8747SOL    HW237875   1.781   3.460   2.616 -0.1628  1.2302 -0.0488
 8748SOL     OW37876   4.169   2.591   7.485 -0.2250 -0.1970  0.5159
 8748SOL    HW137877   4.155   2.503   7.450  0.5099 -0.6377  1.3049
 8748SOL    HW237878   4.090   2.634   7.456 -0.2487  0.6273  1.8040
 8749SOL     OW37879   3.719   3.621   8.062  0.3292  0.1353  0.2706
 8749SOL    HW137880   3.752   3.666   7.984 -0.9149 -2.4500 -1.7586
 8749SOL    HW237881   3.708   3.528   8.038 -0.4561 -0.0581  1.4009
 8750SOL     OW37882   2.360   3.247   9.603  0.0671 -0.7039 -0.3652
 8750SOL    HW137883   2.283   3.293   9.636  0.6977 -1.5994  2.3662
 8750SOL    HW237884   2.366   3.178   9.669  0.0274 -1.3563 -1.0432
 8751SOL     OW37885   3.031   3.352   1.713 -0.2151  0.3338  0.4062
 8751SOL    HW137886   3.124   3.330   1.709 -0.4500  0.1763 -4.0805
 8751SOL    HW237887   3.032   3.403   1.794 -0.6014 -0.1612  0.7207
 8752SOL     OW37888   1.130   4.102   2.626 -0.6394  0.2006 -0.2467
 8752SOL    HW137889   1.176   4.020   2.643  0.9589  1.2524  0.4605
 8752SOL    HW237890   1.043   4.068   2.646 -0.2391  0.1026  1.3097
 8753SOL     OW37891   3.284   1.376   4.112 -0.0210  0.4933  0.5694
 8753SOL    HW137892   3.354   1.396   4.049  0.5621  2.4088  1.8277
 8753SOL    HW237893   3.231   1.454   4.094 -0.6788 -0.3503 -1.1317
 8754SOL     OW37894   3.925   4.242   8.490  0.1217  0.1654 -0.1467
 8754SOL    HW137895   3.934   4.211   8.400  0.6819 -0.4631  0.1284
 8754SOL    HW237896   3.924   4.158   8.536 -0.8520  0.2166 -0.0829
 8755SOL     OW37897   1.825   0.316  11.201 -0.7446  0.5576  0.3033
 8755SOL    HW137898   1.907   0.277  11.170 -0.7748  1.1736 -0.5556
 8755SOL    HW237899   1.865   0.395  11.237  0.8517 -0.5639  1.0220
 8756SOL     OW37900   3.865   1.613   2.301 -0.0129  0.3921 -0.2572
 8756SOL    HW137901   3.822   1.641   2.221  1.2479  0.4796 -0.9134
 8756SOL    HW237902   3.914   1.535   2.273  0.0506  1.1164 -2.1615
 8757SOL     OW37903   2.738   3.287   2.387 -0.1416  0.0547  0.1376
 8757SOL    HW137904   2.800   3.290   2.314 -1.2299  1.8415 -0.7221
 8757SOL    HW237905   2.711   3.195   2.387 -0.2895  0.1026 -1.2032
 8758SOL     OW37906   0.586   4.340  17.643  0.7982  0.6656  0.0332
 8758SOL    HW137907   0.512   4.339  17.583  0.2618 -1.0651  0.7334
 8758SOL    HW237908   0.630   4.258  17.620  0.4475  0.2614  0.8134
 8759SOL     OW37909   2.389   3.250   8.253  0.0665 -0.9071 -0.4113
 8759SOL    HW137910   2.339   3.230   8.174 -0.7769  1.2837 -0.4284
 8759SOL    HW237911   2.478   3.241   8.218 -0.9158 -3.2626 -2.3619
 8760SOL     OW37912   2.141   3.608   2.691 -0.1892 -0.3816  0.0504
 8760SOL    HW137913   2.123   3.698   2.716 -2.5344 -1.2372  1.5314
 8760SOL    HW237914   2.050   3.579   2.680 -0.2727  1.2789 -3.6624
 8761SOL     OW37915   3.404   3.748   5.893  0.4119  0.5040  0.2181
 8761SOL    HW137916   3.369   3.661   5.872  0.3315  0.4238  0.6939
 8761SOL    HW237917   3.497   3.726   5.886  0.3139  0.2037 -0.1780
 8762SOL     OW37918   3.353   4.602  10.572 -0.1989 -0.4308  0.2826
 8762SOL    HW137919   3.383   4.671  10.632  1.0776 -2.2652  1.7390
 8762SOL    HW237920   3.263   4.629  10.559 -0.0756  0.0959  0.5295
 8763SOL     OW37921   2.514   2.684   0.353  0.4421 -0.3123 -0.6534
 8763SOL    HW137922   2.564   2.606   0.326 -0.5516 -1.7094  1.5469
 8763SOL    HW237923   2.423   2.658   0.336  0.2177 -0.2706  0.5071
 8764SOL     OW37924   3.836   1.128   4.662 -0.2552  0.0648  0.2450
 8764SOL    HW137925   3.866   1.071   4.733  1.3307  0.8742  0.2238
 8764SOL    HW237926   3.840   1.074   4.583  1.1505  0.2735  0.1826
 8765SOL     OW37927   3.865   2.201  14.789 -0.1087 -0.4377 -0.3126
 8765SOL    HW137928   3.827   2.115  14.806 -0.5845  0.0145  0.8954
 8765SOL    HW237929   3.876   2.243  14.874  0.3192 -0.9662 -0.1000
 8766SOL     OW37930   4.127   1.614  14.890  0.3304 -0.4748  0.3902
 8766SOL    HW137931   4.182   1.645  14.818 -0.4288 -1.8608 -0.7853
 8766SOL    HW237932   4.108   1.692  14.942  3.6486  1.9340 -2.0076
 8767SOL     OW37933   3.947   3.763   3.298 -0.0499  0.2794  0.2807
 8767SOL    HW137934   3.997   3.683   3.282 -0.5859  0.2425 -1.2617
 8767SOL    HW237935   3.863   3.722   3.319  0.0781  0.9516  2.0632
 8768SOL     OW37936   0.678   0.354   4.991 -0.2088 -0.1642  0.1792
 8768SOL    HW137937   0.717   0.272   4.960 -0.2084  0.5224 -1.5978
 8768SOL    HW237938   0.608   0.367   4.927 -1.0323 -2.3604  0.6194
 8769SOL     OW37939   4.191   1.112   6.639  0.4995 -0.1765  0.2700
 8769SOL    HW137940   4.147   1.027   6.647 -0.1208  0.2035  0.8715
 8769SOL    HW237941   4.272   1.088   6.593  1.8465 -0.4093  2.7796
 8770SOL     OW37942   2.735   0.281   4.848 -0.6790 -0.0147  0.3240
 8770SOL    HW137943   2.657   0.337   4.842 -0.9401 -0.6180 -2.0052
 8770SOL    HW237944   2.799   0.336   4.802  1.1529 -0.3231  2.5290
 8771SOL     OW37945   0.499   3.951   6.013 -0.7489 -0.6942  0.1068
 8771SOL    HW137946   0.532   4.041   6.012 -0.8652 -0.6540 -0.1209
 8771SOL    HW237947   0.431   3.962   5.947 -0.7901 -1.0720  0.0892
 8772SOL     OW37948   3.536   4.679   5.778  0.0621  0.2813  0.1863
 8772SOL    HW137949   3.444   4.705   5.787 -0.1788 -0.0965 -1.1818
 8772SOL    HW237950   3.534   4.672   5.683 -2.3129  2.1552  0.1108
 8773SOL     OW37951   4.079   0.770   8.981 -0.0545  0.4947  0.1283
 8773SOL    HW137952   3.987   0.744   8.979  0.0433 -0.0794  3.3073
 8773SOL    HW237953   4.078   0.839   8.914  2.2054  0.4987  0.1042
 8774SOL     OW37954   2.926   0.885   4.249 -0.2252 -0.1269 -0.2177
 8774SOL    HW137955   2.887   0.945   4.312 -0.7140  0.1764 -0.8081
 8774SOL    HW237956   2.939   0.945   4.175 -0.2946  1.4886  1.0859
 8775SOL     OW37957   2.590   1.043   9.184  0.2693 -0.0002  0.7997
 8775SOL    HW137958   2.579   1.133   9.154 -1.6169  0.7976  3.7494
 8775SOL    HW237959   2.544   1.048   9.269 -0.3004  1.5435  0.4076
 8776SOL     OW37960   1.729   3.927  16.278 -0.1268  0.4413 -0.1330
 8776SOL    HW137961   1.674   3.884  16.212 -1.3748  2.2859 -0.3020
 8776SOL    HW237962   1.716   4.016  16.247  0.3013  0.3983 -0.4421
 8777SOL     OW37963   2.902   2.127   4.405 -0.0397 -0.0052  0.5449
 8777SOL    HW137964   2.853   2.172   4.336  1.0410  0.9077  0.3813
 8777SOL    HW237965   2.872   2.178   4.480 -1.5844 -1.5398  0.9868
 8778SOL     OW37966   4.621   1.257  16.838  0.1977  0.1036 -0.3799
 8778SOL    HW137967   4.712   1.226  16.840  0.7260  1.7178  0.6413
 8778SOL    HW237968   4.627   1.340  16.790 -0.3204  0.8350  0.8203
 8779SOL     OW37969   0.944   3.268   5.046 -0.1227  0.3830  0.0034
 8779SOL    HW137970   0.939   3.220   4.964  1.0555  1.2351 -0.5713
 8779SOL    HW237971   0.854   3.256   5.077 -0.0250  2.2945  1.0553
 8780SOL     OW37972   4.259   4.000  10.527 -0.2130  0.2242 -0.0719
 8780SOL    HW137973   4.301   4.031  10.447  0.3692  0.9237  0.5015
 8780SOL    HW237974   4.330   3.998  10.592  0.7746  0.0090 -1.1579
 8781SOL     OW37975   2.169   4.338   4.393  0.4479  0.2250  0.3541
 8781SOL    HW137976   2.216   4.419   4.373 -0.1028  0.7600  1.2563
 8781SOL    HW237977   2.205   4.274   4.331  0.7255  0.3356  0.4015
 8782SOL     OW37978   4.715   3.983   1.651 -0.2339  0.1560 -0.3000
 8782SOL    HW137979   4.662   4.060   1.630  1.0848  1.1434 -0.0203
 8782SOL    HW237980   0.064   4.002   1.618  0.1581 -0.0254  0.6228
 8783SOL     OW37981   0.494   4.348   6.506 -0.0188 -0.2937 -0.1849
 8783SOL    HW137982   0.476   4.257   6.483  0.0854 -0.1210 -0.9568
 8783SOL    HW237983   0.446   4.364   6.588  1.1888 -1.4694  0.7550
 8784SOL     OW37984   3.717   3.812   7.434  0.2049  0.2866  0.3375
 8784SOL    HW137985   3.685   3.884   7.489  0.0514  0.5885 -0.1444
 8784SOL    HW237986   3.783   3.772   7.491  0.6260 -0.7484 -0.8909
 8785SOL     OW37987   2.218   3.443   3.798  0.4874  0.1098 -0.2462
 8785SOL    HW137988   2.165   3.450   3.719  0.2164  1.5987  0.0654
 8785SOL    HW237989   2.311   3.440   3.775  0.5239 -0.9075  0.0174
 8786SOL     OW37990   4.731   2.443   7.989 -0.0499 -0.0379  0.0249
 8786SOL    HW137991   4.715   2.358   7.948 -1.7866  1.0201 -1.5206
 8786SOL    HW237992   4.648   2.489   7.973  2.0413  3.5417 -0.4312
 8787SOL     OW37993   1.588   2.898   3.064  0.2155  0.1789  0.0504
 8787SOL    HW137994   1.599   2.927   2.974 -0.1784  1.2914  0.3700
 8787SOL    HW237995   1.557   2.981   3.099  1.8133  1.2723 -1.1277
 8788SOL     OW37996   2.486   0.871  11.630 -0.0800 -0.0269 -0.0210
 8788SOL    HW137997   2.408   0.854  11.682 -0.3439 -1.6450 -0.9320
 8788SOL    HW237998   2.490   0.803  11.563  1.4000  0.0568 -0.0165
 8789SOL     OW37999   3.791   2.215   9.310 -0.0253 -0.8609 -0.1693
 8789SOL    HW138000   3.750   2.172   9.385  0.6822  1.3873  1.5133
 8789SOL    HW238001   3.722   2.203   9.244 -1.1328 -4.0279  1.5525
 8790SOL     OW38002   3.329   4.449   8.159  0.1688 -0.4120 -0.3772
 8790SOL    HW138003   3.365   4.375   8.111  2.2574  0.8909 -0.8379
 8790SOL    HW238004   3.367   4.431   8.244  1.1637 -0.4406 -0.8312
 8791SOL     OW38005   0.205   3.022   6.696  0.1084 -0.1389  0.2756
 8791SOL    HW138006   0.165   3.098   6.655  0.1165  0.5837  1.6062
 8791SOL    HW238007   0.294   3.018   6.660  0.0718  0.9928  0.0566
 8792SOL     OW38008   4.130   2.020  11.534 -0.1336  0.0845 -0.4218
 8792SOL    HW138009   4.148   2.108  11.501 -0.0233 -0.2979 -1.3824
 8792SOL    HW238010   4.155   2.045  11.623 -1.1040 -2.0226  0.4523
 8793SOL     OW38011   1.834   0.960   5.281 -0.2419 -0.2705 -0.1261
 8793SOL    HW138012   1.894   1.022   5.240 -0.2742 -0.1525  0.0049
 8793SOL    HW238013   1.809   1.009   5.359 -2.0739 -2.6805  0.7687
 8794SOL     OW38014   3.570   3.163   7.661  0.2421 -0.3519 -0.2149
 8794SOL    HW138015   3.587   3.099   7.592  1.2373  0.7161 -0.9511
 8794SOL    HW238016   3.649   3.152   7.715  0.1813  1.0988  0.1680
 8795SOL     OW38017   2.382   2.691   1.605 -0.1313  0.5722  0.6603
 8795SOL    HW138018   2.438   2.692   1.682 -0.1805  0.8958  0.6941
 8795SOL    HW238019   2.357   2.781   1.583 -0.8020  0.3988  0.6898
 8796SOL     OW38020   3.109   2.086  14.210  0.2574 -0.2629  0.9705
 8796SOL    HW138021   3.157   2.090  14.128  1.9186 -1.0977  1.8869
 8796SOL    HW238022   3.145   2.164  14.251  0.7296 -0.1230  0.2842
 8797SOL     OW38023   3.064   1.493  10.335 -0.4240 -0.0775 -0.2013
 8797SOL    HW138024   3.041   1.452  10.251  0.5721 -1.4434  0.2028
 8797SOL    HW238025   3.153   1.524  10.324  0.8145 -3.5273  0.0075
 8798SOL     OW38026   1.858   0.536  10.616  0.0404  0.1040 -0.5950
 8798SOL    HW138027   1.792   0.469  10.600 -0.2360  0.5251 -1.2102
 8798SOL    HW238028   1.872   0.541  10.710 -1.2886 -0.5004 -0.3762
 8799SOL     OW38029   2.402   1.048   9.436  0.3718  0.3194  0.3978
 8799SOL    HW138030   2.341   0.982   9.402  0.5857 -0.8024  2.2216
 8799SOL    HW238031   2.462   0.995   9.489  2.3122  1.4746 -0.6453
 8800SOL     OW38032   3.143   2.287   6.662  0.1957 -0.3102  0.3235
 8800SOL    HW138033   3.094   2.280   6.580 -0.6198  1.0604  0.6926
 8800SOL    HW238034   3.191   2.368   6.651 -0.1993 -0.1896 -0.4875
 8801SOL     OW38035   4.563   4.081   0.387  0.2192  0.0343  0.0369
 8801SOL    HW138036   4.578   4.076   0.481  0.1706  1.0401  0.0920
 8801SOL    HW238037   4.525   4.168   0.378 -1.3878 -0.5183  1.4468
 8802SOL     OW38038   3.627   4.401   8.178 -0.1986 -0.2143 -0.4441
 8802SOL    HW138039   3.606   4.310   8.198  1.7704 -0.2740  1.3676
 8802SOL    HW238040   3.658   4.442   8.259 -0.6274 -0.3812 -0.1971
 8803SOL     OW38041   1.287   4.066   7.868  0.0776  0.3118  0.5306
 8803SOL    HW138042   1.362   4.124   7.882 -0.7927  1.5582 -0.0069
 8803SOL    HW238043   1.316   4.014   7.793  0.6489  1.6047 -0.1515
 8804SOL     OW38044   3.523   0.543   4.207 -0.1590 -0.0651 -0.1137
 8804SOL    HW138045   3.542   0.470   4.266  0.6175 -1.2317 -1.8086
 8804SOL    HW238046   3.446   0.583   4.247 -0.0720  0.2473 -0.2648
 8805SOL     OW38047   4.429   0.070   8.426 -0.3992  0.1099 -0.1895
 8805SOL    HW138048   4.511   0.078   8.475  0.8586  1.3808 -2.5478
 8805SOL    HW238049   4.453   0.079   8.334  0.0426  1.6306  0.0780
 8806SOL     OW38050   3.215   0.780   3.837 -0.2783  0.4237  0.4571
 8806SOL    HW138051   3.165   0.712   3.881  1.1377 -0.6345  0.4243
 8806SOL    HW238052   3.272   0.804   3.911 -0.8814  0.5774  0.8771
 8807SOL     OW38053   1.292   3.432   7.109 -0.0757 -0.3217  0.1192
 8807SOL    HW138054   1.352   3.506   7.120 -0.2134 -0.0886 -0.6516
 8807SOL    HW238055   1.282   3.401   7.199 -0.5538 -1.8557 -0.4576
 8808SOL     OW38056   0.179   2.681   8.936  0.2755  0.0124  0.2046
 8808SOL    HW138057   0.098   2.725   8.908  0.1420  0.1094  0.7318
 8808SOL    HW238058   0.190   2.636   8.853 -1.8405 -0.6514  0.2843
 8809SOL     OW38059   0.532   1.098   3.381  0.4061 -0.1598  0.2532
 8809SOL    HW138060   0.610   1.138   3.342  1.2694 -1.6789  0.4181
 8809SOL    HW238061   0.568   1.086   3.469  0.3157  1.8264  0.5739
 8810SOL     OW38062   3.387   1.523   8.485  0.6620  0.0975 -0.4395
 8810SOL    HW138063   3.407   1.448   8.540 -1.4167  0.8785  1.3956
 8810SOL    HW238064   3.385   1.600   8.543  0.5142  0.1660 -0.5353
 8811SOL     OW38065   4.596   2.847  14.564  0.5383  0.6583 -0.1945
 8811SOL    HW138066   4.510   2.876  14.533  1.1276  0.8672 -1.6278
 8811SOL    HW238067   4.617   2.912  14.630  1.7158  2.5137 -2.4246
 8812SOL     OW38068   3.977   2.146   9.099 -0.2515  0.1790  0.4581
 8812SOL    HW138069   3.995   2.238   9.079  1.6749 -0.4968 -0.9266
 8812SOL    HW238070   3.913   2.169   9.166  0.3469  1.7934  0.4793
 8813SOL     OW38071   4.192   0.870   6.943 -0.7536 -0.7203  0.5508
 8813SOL    HW138072   4.199   0.801   6.877  0.3723 -1.2776  1.2519
 8813SOL    HW238073   4.232   0.945   6.898 -2.6838 -1.6653 -2.7521
 8814SOL     OW38074   1.281   2.647   8.532  0.0758 -0.5077  0.1098
 8814SOL    HW138075   1.346   2.616   8.470  0.1852 -0.7608  0.3513
 8814SOL    HW238076   1.318   2.613   8.614 -0.2511 -1.5058 -0.1598
 8815SOL     OW38077   0.655   4.129   9.445 -0.0472  0.6360 -0.0565
 8815SOL    HW138078   0.586   4.117   9.380 -0.8625  0.6962  0.8042
 8815SOL    HW238079   0.681   4.036   9.449  1.3824  1.0560  0.5281
 8816SOL     OW38080   4.032   3.440  11.322  0.7768 -0.5865 -0.5599
 8816SOL    HW138081   3.980   3.385  11.264 -3.0338  1.2805  1.1014
 8816SOL    HW238082   4.120   3.415  11.294 -0.1596 -2.1550 -2.0755
 8817SOL     OW38083   1.085   1.846  11.903  0.3173  0.3481  0.1958
 8817SOL    HW138084   1.133   1.782  11.850  0.8909  0.3166  0.7571
 8817SOL    HW238085   1.049   1.789  11.971 -0.3677  0.6806  0.1108
 8818SOL     OW38086   3.658   0.434   5.908 -0.5431  0.0020  0.3132
 8818SOL    HW138087   3.643   0.427   6.002  0.2955 -0.0024  0.4491
 8818SOL    HW238088   3.679   0.344   5.883 -3.3130 -0.0801 -1.6869
 8819SOL     OW38089   1.550   1.202  12.167 -0.2299 -0.1977 -0.3272
 8819SOL    HW138090   1.506   1.127  12.128 -1.1321 -1.3008  2.8067
 8819SOL    HW238091   1.497   1.212  12.246 -0.4824 -2.0389 -0.2751
 8820SOL     OW38092   1.365   1.907   2.289 -0.8267 -0.1259 -1.1282
 8820SOL    HW138093   1.346   1.836   2.228 -0.6146  0.0347 -1.3854
 8820SOL    HW238094   1.373   1.981   2.229  0.9456  0.6529  0.0650
 8821SOL     OW38095   1.271   1.045   7.839  0.1853 -0.2014  0.3492
 8821SOL    HW138096   1.185   1.086   7.832 -0.2108 -0.9867  0.7597
 8821SOL    HW238097   1.255   0.977   7.773  0.7448  0.7580 -0.7909
 8822SOL     OW38098   1.321   2.551   7.497 -0.4277  0.6063 -0.0404
 8822SOL    HW138099   1.408   2.551   7.457 -0.3644  0.3118  0.1020
 8822SOL    HW238100   1.295   2.643   7.506 -1.1658  0.3666  0.2579
 8823SOL     OW38101   0.844   0.864   8.356 -0.1597 -0.0437  0.4017
 8823SOL    HW138102   0.851   0.957   8.335  0.0166  0.2777  1.8865
 8823SOL    HW238103   0.763   0.847   8.309 -0.1901  1.6291 -0.1295
 8824SOL     OW38104   0.646   2.781   9.561  0.4095  0.4147 -0.6253
 8824SOL    HW138105   0.569   2.832   9.588  1.4625  1.7963 -0.2091
 8824SOL    HW238106   0.609   2.711   9.508 -0.3707  1.2280 -1.1650
 8825SOL     OW38107   4.423   1.208   3.062  0.9323  0.7629  0.2212
 8825SOL    HW138108   4.474   1.127   3.059 -1.2724 -0.6145 -0.2733
 8825SOL    HW238109   4.475   1.250   2.994  0.0963 -0.0305 -0.9179
 8826SOL     OW38110   2.324   2.719   6.215 -0.2788 -0.5702 -0.5456
 8826SOL    HW138111   2.416   2.741   6.233 -0.6154 -1.2582  2.0575
 8826SOL    HW238112   2.322   2.626   6.239 -1.6202 -0.0399  1.3316
 8827SOL     OW38113   3.059   1.922   9.142 -0.7164 -0.1557 -0.3488
 8827SOL    HW138114   3.063   1.830   9.117  1.1267 -0.0597 -0.4337
 8827SOL    HW238115   3.152   1.929   9.162 -0.5631 -1.6447 -0.5211
 8828SOL     OW38116   0.047   0.187   3.777  0.2027  0.3227 -0.4698
 8828SOL    HW138117   0.137   0.187   3.811 -0.3735  0.4981  1.0547
 8828SOL    HW238118   0.024   0.094   3.778 -0.9117  0.6470  2.7446
 8829SOL     OW38119   3.120   0.091  13.208  0.5369 -0.0497  0.0903
 8829SOL    HW138120   3.199   0.049  13.175  0.7990 -0.8326  1.7187
 8829SOL    HW238121   3.144   0.156  13.275  1.0687 -1.1015  0.9134
 8830SOL     OW38122   2.487   4.583   3.610  0.5633 -0.0101 -0.0624
 8830SOL    HW138123   2.561   4.552   3.558  0.8447  1.1375 -0.3383
 8830SOL    HW238124   2.464   4.506   3.662  0.3426  1.2887  1.7742
 8831SOL     OW38125   1.150   3.636   9.257  0.7789  0.1580 -0.0386
 8831SOL    HW138126   1.093   3.591   9.195  1.0347  0.1569 -0.2686
 8831SOL    HW238127   1.095   3.713   9.268  1.5033  0.9690 -2.2594
 8832SOL     OW38128   3.709   1.756   3.595  0.4216 -0.0202  1.1353
 8832SOL    HW138129   3.742   1.825   3.652  1.5723  1.1788 -0.9704
 8832SOL    HW238130   3.725   1.682   3.653 -0.4112  2.3494  4.3622
 8833SOL     OW38131   0.500   1.051   5.983 -0.1527  0.3102  0.3569
 8833SOL    HW138132   0.577   1.004   5.950 -0.3032  0.9795 -0.9598
 8833SOL    HW238133   0.432   1.012   5.928 -0.0003  0.2182  0.2331
 8834SOL     OW38134   3.999   0.436   5.101  0.7471  0.5013 -0.0046
 8834SOL    HW138135   3.941   0.410   5.029  1.4235 -1.0452  0.0121
 8834SOL    HW238136   4.037   0.350   5.116  0.0610  0.1514 -0.2531
 8835SOL     OW38137   1.838   1.735   5.947 -0.0831  0.4228 -0.1724
 8835SOL    HW138138   1.869   1.779   5.868  0.1889 -0.7895 -0.7395
 8835SOL    HW238139   1.890   1.654   5.947 -1.7938 -0.6557 -1.4297
 8836SOL     OW38140   0.351   4.671  11.772 -0.0245 -0.3753 -0.2346
 8836SOL    HW138141   0.385   4.584  11.751  2.1891  0.3282  0.4255
 8836SOL    HW238142   0.265   4.665  11.731  1.1141 -0.5320 -2.5644
 8837SOL     OW38143   3.814   2.315   5.099  0.1208 -0.1088  0.0030
 8837SOL    HW138144   3.730   2.268   5.098  1.4314 -2.3828 -2.2788
 8837SOL    HW238145   3.794   2.376   5.027  1.7901  0.2239 -0.1813
 8838SOL     OW38146   3.887   1.099  17.071 -0.2946 -0.1184 -0.2732
 8838SOL    HW138147   3.860   1.155  16.999  0.4341 -0.0968 -0.5305
 8838SOL    HW238148   3.959   1.055  17.025 -0.2944 -0.8711  0.4422
 8839SOL     OW38149   3.619   1.203   4.199  0.2566 -0.2946 -0.2202
 8839SOL    HW138150   3.543   1.252   4.230 -0.1693  0.1375 -1.8974
 8839SOL    HW238151   3.583   1.172   4.115  0.2631 -1.6598  0.2913
 8840SOL     OW38152   3.114   1.897   2.812  0.2162 -0.2896  0.3960
 8840SOL    HW138153   3.051   1.897   2.884 -0.0949 -1.9622  0.1287
 8840SOL    HW238154   3.060   1.885   2.734 -0.1616  0.0501  0.6080
 8841SOL     OW38155   3.370   2.611   4.456  0.3241  0.1807  0.5180
 8841SOL    HW138156   3.299   2.674   4.468  0.4159  0.5616 -0.9296
 8841SOL    HW238157   3.363   2.573   4.368 -0.0670  0.0308  0.6186
 8842SOL     OW38158   1.275   1.751  17.101 -0.2444 -0.0623 -0.5695
 8842SOL    HW138159   1.359   1.733  17.059  0.1848 -1.9671  1.1331
 8842SOL    HW238160   1.286   1.845  17.117  1.4638  0.0573 -2.3840
 8843SOL     OW38161   1.760   2.074   9.562  0.6863 -0.2737 -0.0469
 8843SOL    HW138162   1.778   2.112   9.648 -1.7655 -3.0834  1.7065
 8843SOL    HW238163   1.719   1.997   9.601  1.3251  0.4108  1.9798
 8844SOL     OW38164   2.164   2.270   0.295 -0.1276  0.3015 -0.3537
 8844SOL    HW138165   2.137   2.284   0.385 -0.9617  2.0346 -0.8666
 8844SOL    HW238166   2.082   2.243   0.253  0.3727  2.6439 -2.9129
 8845SOL     OW38167   3.647   3.078   0.422 -0.1324 -0.4915 -0.2535
 8845SOL    HW138168   3.724   3.127   0.448  0.1284 -0.6500 -0.7296
 8845SOL    HW238169   3.612   3.140   0.358  1.1214  1.8350  1.3341
 8846SOL     OW38170   3.611   0.026   2.271  0.0569  0.1979 -0.2200
 8846SOL    HW138171   3.679   4.702   2.295 -1.8277 -0.6963  2.8545
 8846SOL    HW238172   3.569   0.046   2.355  2.3161  0.5772  0.8168
 8847SOL     OW38173   2.502   4.427   4.888  0.5229 -0.3284 -1.0960
 8847SOL    HW138174   2.489   4.460   4.799 -0.6974  0.6745 -0.5411
 8847SOL    HW238175   2.552   4.346   4.880  1.3321 -0.1747  2.3586
 8848SOL     OW38176   0.812   2.022  13.169  0.3979 -0.7481  0.3862
 8848SOL    HW138177   0.906   2.013  13.155  0.4844 -0.8311  1.0289
 8848SOL    HW238178   0.787   2.038  13.078  1.5744  0.3577  0.2532
 8849SOL     OW38179   2.725   1.109   5.453  0.0600 -0.3784 -0.6229
 8849SOL    HW138180   2.756   1.193   5.485  0.9851 -0.1482 -2.1395
 8849SOL    HW238181   2.752   1.047   5.520 -0.7449 -0.4556 -0.3633
 8850SOL     OW38182   3.328   1.731  10.609  0.2519  1.0091 -0.2029
 8850SOL    HW138183   3.382   1.742  10.687 -1.2838  0.7056  0.9037
 8850SOL    HW238184   3.390   1.679  10.558 -0.5186 -0.0333 -0.0678
 8851SOL     OW38185   4.397   2.307   7.229 -0.0236 -0.1482  0.3905
 8851SOL    HW138186   4.321   2.313   7.170  0.5039 -0.7009 -0.3497
 8851SOL    HW238187   4.471   2.319   7.170 -1.6752 -0.9243 -1.8546
 8852SOL     OW38188   4.730   3.227   4.348  0.0564 -0.6750  0.6223
 8852SOL    HW138189   4.650   3.192   4.308 -0.1232  1.1130 -0.6083
 8852SOL    HW238190   0.041   3.236   4.266  1.6005  0.9792  1.7466
 8853SOL     OW38191   2.591   3.974   9.256 -0.5802 -0.1485  0.6005
 8853SOL    HW138192   2.655   3.910   9.288 -0.4477 -0.1070  0.4203
 8853SOL    HW238193   2.563   4.015   9.338 -0.0608  1.2570  0.0749
 8854SOL     OW38194   2.349   1.310   6.779 -0.3153  0.5928 -0.8893
 8854SOL    HW138195   2.279   1.329   6.717 -2.2724 -1.7269  0.5774
 8854SOL    HW238196   2.311   1.232   6.820  2.0910 -0.0353  0.1397
 8855SOL     OW38197   1.837   1.244   7.857  0.4522  0.0650 -0.2497
 8855SOL    HW138198   1.929   1.241   7.883  0.1898  1.6254  0.8383
 8855SOL    HW238199   1.823   1.339   7.860  0.7898  0.0801  1.0272
 8856SOL     OW38200   4.456   1.799   4.428  0.3536  0.1388  0.3880
 8856SOL    HW138201   4.477   1.774   4.338  0.7454 -0.9034  0.7646
 8856SOL    HW238202   4.391   1.866   4.410  1.5868  0.2280 -3.6939
 8857SOL     OW38203   1.373   3.964  16.870  0.6482  0.0859  0.6232
 8857SOL    HW138204   1.423   3.961  16.952  0.7770  0.6959  0.5680
 8857SOL    HW238205   1.306   3.899  16.891  1.2350 -0.1692  1.7168
 8858SOL     OW38206   1.892   2.972   6.507  0.1045 -0.0939 -0.3503
 8858SOL    HW138207   1.983   2.948   6.489 -0.1591 -0.8076 -0.6981
 8858SOL    HW238208   1.899   3.027   6.585  0.5384 -2.7338  1.4889
 8859SOL     OW38209   2.640   2.568   8.580 -0.4713  0.2243  0.3188
 8859SOL    HW138210   2.615   2.603   8.495  0.3700 -0.5876 -0.2532
 8859SOL    HW238211   2.671   2.649   8.620 -1.8479  0.7087  0.4172
 8860SOL     OW38212   4.261   4.045   2.750 -0.6409  0.5061 -0.2428
 8860SOL    HW138213   4.289   4.134   2.730  0.1482  0.2906 -0.0980
 8860SOL    HW238214   4.267   4.047   2.846  2.2874  2.0561 -0.4438
 8861SOL     OW38215   2.010   2.549   0.129  0.1837 -0.3764 -0.2457
 8861SOL    HW138216   1.928   2.534   0.176  1.5401  1.0785  2.5490
 8861SOL    HW238217   1.976   2.615   0.068  2.4203 -0.1752 -1.2603
 8862SOL     OW38218   3.442   1.528   9.988  0.1219 -0.2437  0.1606
 8862SOL    HW138219   3.465   1.440  10.019  0.6047  0.2449  1.1818
 8862SOL    HW238220   3.525   1.546   9.944 -0.5975  0.3062 -0.9913
 8863SOL     OW38221   3.489   0.854   7.140 -0.0735 -0.3125  0.1597
 8863SOL    HW138222   3.574   0.840   7.182 -1.4297  0.5396  3.1427
 8863SOL    HW238223   3.430   0.835   7.213  0.0730  0.0034  0.3614
 8864SOL     OW38224   4.343   3.820   7.656 -0.3013 -0.5942  0.1080
 8864SOL    HW138225   4.248   3.813   7.660 -0.2141 -0.7650  2.1994
 8864SOL    HW238226   4.359   3.820   7.751  2.3046 -0.7009 -0.3143
 8865SOL     OW38227   2.244   0.762  16.027 -0.3097  0.2696 -0.4411
 8865SOL    HW138228   2.149   0.769  16.035 -0.3420  2.4442 -3.0465
 8865SOL    HW238229   2.259   0.829  15.962 -0.3799  1.8420  1.1666
 8866SOL     OW38230   0.635   3.622   2.850 -0.0977  0.4384  0.9720
 8866SOL    HW138231   0.619   3.671   2.769  0.4283 -0.2227  0.4629
 8866SOL    HW238232   0.561   3.561   2.854  0.5034 -0.3492  0.1375
 8867SOL     OW38233   1.449   4.695   7.232  0.2219  0.1611  0.1176
 8867SOL    HW138234   1.460   0.052   7.237  3.1368 -0.2863  2.0276
 8867SOL    HW238235   1.540   4.672   7.217 -0.3460 -1.3094 -1.1086
 8868SOL     OW38236   0.190   4.442   3.258 -0.0294 -0.5599  0.0616
 8868SOL    HW138237   0.124   4.427   3.326  0.5929  1.3461  1.0959
 8868SOL    HW238238   0.256   4.381   3.292 -0.6093 -1.1155  0.1831
 8869SOL     OW38239   2.035   0.720   0.204  0.3702 -0.4458 -0.1536
 8869SOL    HW138240   2.027   0.625   0.197 -2.4673 -0.3016  1.3831
 8869SOL    HW238241   2.099   0.716   0.275 -1.3246  0.8680  1.4237
 8870SOL     OW38242   0.871   2.997   0.986  0.2019  0.1700 -0.0275
 8870SOL    HW138243   0.948   3.052   0.979 -1.0618  1.7800 -1.3246
 8870SOL    HW238244   0.915   2.924   1.029  0.5456  0.0850 -0.5169
 8871SOL     OW38245   1.207   0.899   4.031  0.2812  0.5005  0.0974
 8871SOL    HW138246   1.252   0.971   3.986  1.6348 -0.3626  0.0855
 8871SOL    HW238247   1.125   0.938   4.062 -0.1887 -1.0544  0.7876
 8872SOL     OW38248   2.926   3.827   5.167  0.2361  0.0729 -0.7229
 8872SOL    HW138249   2.983   3.755   5.192  0.4946 -0.2919 -2.3765
 8872SOL    HW238250   2.941   3.886   5.241 -2.1927 -1.3166  0.8676
 8873SOL     OW38251   1.439   0.782  13.604  0.8135  0.4465  0.1482
 8873SOL    HW138252   1.533   0.765  13.606  0.9116  1.0066  0.3251
 8873SOL    HW238253   1.412   0.694  13.630 -0.4344  0.1938 -2.0017
 8874SOL     OW38254   1.259   4.377  17.306  0.0808  0.5603 -0.0294
 8874SOL    HW138255   1.344   4.392  17.346 -0.0190  1.4824 -0.1439
 8874SOL    HW238256   1.275   4.407  17.217 -0.9950  1.2591  0.0049
 8875SOL     OW38257   3.031   4.167   1.261  0.5122  0.0335 -0.2559
 8875SOL    HW138258   2.963   4.234   1.258 -0.8410 -1.3218  0.0656
 8875SOL    HW238259   3.025   4.130   1.349 -1.2358 -0.1195 -0.4349
 8876SOL     OW38260   0.700   2.902   7.535  0.2241 -0.0119 -0.1399
 8876SOL    HW138261   0.791   2.918   7.562 -0.3360  3.3639 -0.1874
 8876SOL    HW238262   0.669   2.962   7.603  3.0083  0.4212  0.7863
 8877SOL     OW38263   0.743   4.387   1.423 -0.4414  0.3346  0.1472
 8877SOL    HW138264   0.663   4.436   1.445 -1.2466 -1.3272  0.8869
 8877SOL    HW238265   0.702   4.301   1.425  1.4313 -0.5229  0.9139
 8878SOL     OW38266   2.866   4.650  12.356 -0.3807  0.2289  0.5069
 8878SOL    HW138267   2.777   4.683  12.345 -0.1894  0.2018 -1.0417
 8878SOL    HW238268   2.878   4.600  12.275  1.5606 -1.1184  1.6140
 8879SOL     OW38269   0.569   0.888   1.307 -0.0805  0.0205  0.1824
 8879SOL    HW138270   0.627   0.965   1.301  2.2836 -1.6266  1.7758
 8879SOL    HW238271   0.488   0.932   1.283  0.4039  1.6833  1.6208
 8880SOL     OW38272   0.154   0.422   4.232 -0.3369 -0.9606  0.1600
 8880SOL    HW138273   0.144   0.338   4.186 -0.4110 -0.4091 -0.8224
 8880SOL    HW238274   0.192   0.398   4.317 -2.8973  2.2199  2.2252
 8881SOL     OW38275   3.114   3.172   4.006 -0.6952  0.1854 -0.2429
 8881SOL    HW138276   3.197   3.142   4.043 -0.4185 -0.0737 -1.0745
 8881SOL    HW238277   3.046   3.167   4.073 -1.7419 -0.6897 -1.3677
 8882SOL     OW38278   4.611   1.968  13.347 -0.4304 -0.0198 -0.0587
 8882SOL    HW138279   4.674   2.033  13.379 -0.5569  0.1143 -0.0801
 8882SOL    HW238280   4.564   1.950  13.428 -0.3275  0.4035  0.0935
 8883SOL     OW38281   2.020   4.612   5.959 -0.3380 -0.3838  0.2059
 8883SOL    HW138282   1.982   4.667   5.890 -2.5501  0.3933  2.0796
 8883SOL    HW238283   1.963   4.638   6.031  1.9621  2.5455  0.9693
 8884SOL     OW38284   1.310   0.079   3.726  0.2371  0.4538 -0.2274
 8884SOL    HW138285   1.316   4.729   3.762 -0.0661  0.8253  0.7238
 8884SOL    HW238286   1.365   0.122   3.791  0.3121  0.5626 -0.3636
 8885SOL     OW38287   0.250   3.756  16.429 -0.5082 -0.2648  0.0254
 8885SOL    HW138288   0.164   3.733  16.464  0.1385  0.0568  1.8462
 8885SOL    HW238289   0.223   3.826  16.370  3.5934  1.7980  0.5867
 8886SOL     OW38290   0.098   1.377   6.685 -0.1540 -0.8919 -0.1393
 8886SOL    HW138291   0.021   1.334   6.724  0.0514 -2.3510 -1.3447
 8886SOL    HW238292   0.057   1.444   6.631  0.3999 -1.2051 -0.9380
 8887SOL     OW38293   3.964   4.475  16.898  0.0294 -0.4354 -0.2509
 8887SOL    HW138294   3.899   4.406  16.908 -1.0800  0.6165 -0.1381
 8887SOL    HW238295   4.043   4.423  16.884 -1.0519 -1.6470 -1.8149
 8888SOL     OW38296   2.974   3.363  11.468  0.0507 -0.2162  0.2880
 8888SOL    HW138297   2.978   3.271  11.442 -2.3598  0.4241 -2.2599
 8888SOL    HW238298   2.997   3.373  11.561  0.4207 -1.8232  0.3765
 8889SOL     OW38299   3.337   4.085   7.390 -0.6090 -0.7899 -0.3438
 8889SOL    HW138300   3.388   4.099   7.310  0.5479 -0.8269  0.3833
 8889SOL    HW238301   3.311   3.996   7.367  1.7499 -1.1517 -1.6999
 8890SOL     OW38302   3.519   2.637  15.903  0.1718 -0.0563 -0.0361
 8890SOL    HW138303   3.500   2.686  15.824  0.7594  0.6411  0.2559
 8890SOL    HW238304   3.593   2.687  15.938 -0.5878  0.4242  0.8806
 8891SOL     OW38305   1.503   3.194   6.043 -0.2299 -0.0369 -0.9668
 8891SOL    HW138306   1.479   3.270   6.095  1.1238 -1.5376  1.8705
 8891SOL    HW238307   1.453   3.206   5.962 -0.4099  3.4560 -0.3354
 8892SOL     OW38308   3.562   0.986  17.734  0.1378  0.1737  0.6728
 8892SOL    HW138309   3.492   1.050  17.748 -0.0327 -0.3737  2.3371
 8892SOL    HW238310   3.520   0.904   0.011  0.5772 -0.0821  0.5776
 8893SOL     OW38311   3.759   3.679   2.297  0.1354 -0.1557 -0.3444
 8893SOL    HW138312   3.790   3.591   2.319 -2.6373 -0.5820  1.9855
 8893SOL    HW238313   3.694   3.657   2.231 -1.6492 -0.5671  1.5377
 8894SOL     OW38314   1.488   2.356   2.210  1.3577  0.3432 -1.0965
 8894SOL    HW138315   1.425   2.349   2.282  0.1483  2.7242 -1.9012
 8894SOL    HW238316   1.440   2.383   2.131  1.3735  0.8168 -0.9455
 8895SOL     OW38317   2.275   4.181   4.176 -0.3286  0.8963  0.0531
 8895SOL    HW138318   2.300   4.254   4.120  0.9682  0.3059 -0.1229
 8895SOL    HW238319   2.364   4.147   4.183 -1.2238 -1.2592  1.0557
 8896SOL     OW38320   3.902   3.373   8.056  0.4678  0.4462  0.6868
 8896SOL    HW138321   3.973   3.329   8.008 -0.2319  0.5246 -0.4281
 8896SOL    HW238322   3.936   3.415   8.134 -0.0809  1.2800  0.4713
 8897SOL     OW38323   3.083   3.766  11.331  0.1415 -0.5554  0.4275
 8897SOL    HW138324   3.026   3.778  11.407  2.3672 -2.7404  2.4206
 8897SOL    HW238325   3.035   3.693  11.292 -0.3620 -0.0818  0.1573
 8898SOL     OW38326   1.192   2.751   4.241  0.0951  0.0917  0.6752
 8898SOL    HW138327   1.196   2.844   4.260  2.0742 -0.1920  1.6744
 8898SOL    HW238328   1.130   2.739   4.169 -0.6886  0.4336  1.2934
 8899SOL     OW38329   2.559   2.082   4.944 -0.1036  0.2842 -0.3439
 8899SOL    HW138330   2.629   2.147   4.952  1.7354 -1.8978  1.2156
 8899SOL    HW238331   2.493   2.118   5.003  0.6864 -3.3784  2.7849
 8900SOL     OW38332   3.691   3.255   2.228 -1.0459  0.8644  0.6430
 8900SOL    HW138333   3.682   3.166   2.260  0.1196 -0.5417 -2.9485
 8900SOL    HW238334   3.601   3.286   2.215 -1.3526 -1.0889 -1.9847
 8901SOL     OW38335   0.896   1.842   5.153 -0.6461 -0.2310 -0.3019
 8901SOL    HW138336   0.925   1.828   5.064  0.9017  1.2499 -0.0233
 8901SOL    HW238337   0.874   1.935   5.150 -0.3638 -0.2719 -3.4009
 8902SOL     OW38338   3.563   4.372  11.405 -0.3199  0.1733  0.4081
 8902SOL    HW138339   3.624   4.419  11.462  0.5521  0.6585 -0.9248
 8902SOL    HW238340   3.496   4.340  11.466 -0.6152 -0.2308 -0.1333
 8903SOL     OW38341   3.886   4.100   8.238  0.7316  0.1608 -0.3355
 8903SOL    HW138342   3.818   4.032   8.240  1.1359 -0.1910  2.9231
 8903SOL    HW238343   3.916   4.111   8.148  1.2988  0.0625 -0.1606
 8904SOL     OW38344   0.989   0.752   2.238 -0.1925 -0.1850  0.0805
 8904SOL    HW138345   1.060   0.697   2.272  1.7749  0.9752 -2.1531
 8904SOL    HW238346   1.030   0.838   2.245 -1.7485  0.5802 -0.1154
 8905SOL     OW38347   4.523   0.943   7.667  0.1229 -0.3706  0.0075
 8905SOL    HW138348   4.618   0.950   7.654 -0.2118  0.3433 -2.1272
 8905SOL    HW238349   4.510   0.850   7.686  0.6912 -0.6197 -0.7903
 8906SOL     OW38350   4.206   4.596   6.195 -0.1387  0.1545  0.2049
 8906SOL    HW138351   4.118   4.576   6.165 -0.5710  0.2117  1.4078
 8906SOL    HW238352   4.188   4.683   6.230 -0.6438  1.3591 -3.0881
 8907SOL     OW38353   3.254   1.458  16.992 -0.6973  0.3658 -0.1263
 8907SOL    HW138354   3.206   1.387  17.035 -0.0364 -0.0618 -0.0956
 8907SOL    HW238355   3.290   1.509  17.065 -0.2628 -0.4419  0.2280
 8908SOL     OW38356   2.930   2.774   9.575  0.9251  0.4513 -0.0563
 8908SOL    HW138357   2.902   2.865   9.562 -1.2625 -0.4915 -1.8659
 8908SOL    HW238358   2.947   2.752   9.484  1.7500 -0.6028  0.3559
 8909SOL     OW38359   1.300   2.891   8.950  0.2474  0.1942  0.2101
 8909SOL    HW138360   1.306   2.883   8.855  0.4019  1.8540  0.0927
 8909SOL    HW238361   1.289   2.985   8.959  0.1718 -0.0781  2.9073
 8910SOL     OW38362   1.797   0.291   2.343 -0.2606  0.2859 -0.1527
 8910SOL    HW138363   1.740   0.216   2.363  0.8136 -0.3754  0.4527
 8910SOL    HW238364   1.739   0.363   2.368 -1.9651 -1.7783  1.8782
 8911SOL     OW38365   1.109   1.685   4.611 -0.5614 -0.2127 -0.6674
 8911SOL    HW138366   1.088   1.645   4.526 -0.5529  2.3126 -1.8639
 8911SOL    HW238367   1.092   1.608   4.665  0.6072 -0.3629 -0.5139
 8912SOL     OW38368   2.450   1.250  10.020 -0.5407 -0.3916  0.5589
 8912SOL    HW138369   2.448   1.170  10.073 -0.3123 -1.0370 -0.4037
 8912SOL    HW238370   2.385   1.298  10.071 -0.3252 -1.1041  1.5275
 8913SOL     OW38371   4.281   2.919   4.328  0.3241  0.4466 -0.2636
 8913SOL    HW138372   4.354   2.858   4.339  0.1675  0.3200  0.0548
 8913SOL    HW238373   4.230   2.890   4.403  0.4461 -0.6550 -0.6186
 8914SOL     OW38374   2.897   2.745   8.894 -0.0578  0.0365 -0.1258
 8914SOL    HW138375   2.895   2.650   8.880  1.4420  0.3536 -2.4752
 8914SOL    HW238376   2.986   2.766   8.921 -0.1828  0.0502  0.2757
 8915SOL     OW38377   0.048   2.514   3.493  0.0213 -0.5175  0.0370
 8915SOL    HW138378   0.086   2.545   3.575  0.6051  0.4234 -0.5910
 8915SOL    HW238379   0.107   2.558   3.431 -1.6533  1.2873 -0.2874
 8916SOL     OW38380   4.446   2.860   7.720 -0.4304  0.2569 -0.0989
 8916SOL    HW138381   4.535   2.891   7.707 -0.0942 -1.4470 -1.8290
 8916SOL    HW238382   4.446   2.812   7.637 -0.2595  0.6080 -0.2984
 8917SOL     OW38383   2.921   3.177   0.087  0.0178 -0.0755 -0.9291
 8917SOL    HW138384   2.926   3.173  17.743 -0.2501  0.2405 -0.9578
 8917SOL    HW238385   2.935   3.086   0.110  0.4061 -0.0624 -1.1130
 8918SOL     OW38386   0.758   2.010   8.907 -0.2816  0.2656 -0.1093
 8918SOL    HW138387   0.779   1.929   8.859 -1.5182 -0.4380  0.5336
 8918SOL    HW238388   0.750   1.991   9.000 -1.9659  0.2668 -0.2604
 8919SOL     OW38389   0.649   1.098   7.376 -0.0852  0.4499  0.4873
 8919SOL    HW138390   0.734   1.119   7.415  0.4798  1.0572 -1.0378
 8919SOL    HW238391   0.615   1.028   7.432  1.1979  0.0567  0.7700
 8920SOL     OW38392   1.400   4.402   8.107 -0.1984  0.0098 -0.1528
 8920SOL    HW138393   1.407   4.371   8.017 -2.4942  0.0666 -0.3509
 8920SOL    HW238394   1.415   4.495   8.093  1.2797  0.1625  2.5050
 8921SOL     OW38395   3.928   1.675   0.733 -0.2927 -0.5510 -0.1116
 8921SOL    HW138396   3.920   1.744   0.799  1.1278  1.1754 -1.7472
 8921SOL    HW238397   4.020   1.678   0.708  0.1352 -4.5940  0.9869
 8922SOL     OW38398   1.985   1.629   8.323  0.0176 -0.0696  0.1276
 8922SOL    HW138399   1.936   1.595   8.399 -0.5097 -0.2194 -0.2792
 8922SOL    HW238400   2.015   1.548   8.281 -0.9408  0.6554 -1.9508
 8923SOL     OW38401   4.062   2.983  17.182 -0.0401  0.0645  0.0692
 8923SOL    HW138402   4.140   3.038  17.179 -0.8697  1.1787 -1.3440
 8923SOL    HW238403   4.049   2.989  17.276 -0.7145  1.5644 -0.1219
 8924SOL     OW38404   1.431   1.842   3.083  0.3762  0.2380 -0.2889
 8924SOL    HW138405   1.336   1.837   3.091  0.9051 -2.5242  4.5744
 8924SOL    HW238406   1.449   1.936   3.088 -0.2291  0.2847  0.8388
 8925SOL     OW38407   0.900   1.522   3.821 -0.1407  0.2161  0.2850
 8925SOL    HW138408   0.832   1.471   3.777 -1.2531  1.5714  0.4441
 8925SOL    HW238409   0.917   1.588   3.754 -1.6894 -2.0522 -2.3262
 8926SOL     OW38410   0.101   0.543   9.785  0.0085 -0.3238  0.6051
 8926SOL    HW138411   0.030   0.554   9.723 -0.4472  2.7760  1.6703
 8926SOL    HW238412   0.130   0.634   9.790 -0.3804 -0.2177  1.0258
 8927SOL     OW38413   0.659   2.758   5.384 -1.3586  0.5305 -0.0101
 8927SOL    HW138414   0.716   2.828   5.350 -0.0409 -2.0753 -3.0866
 8927SOL    HW238415   0.715   2.727   5.456  2.6387 -0.6596 -3.6732
 8928SOL     OW38416   3.163   3.433   4.076  0.0216  0.0146 -0.0584
 8928SOL    HW138417   3.154   3.353   4.025 -0.5301  0.0484 -0.0197
 8928SOL    HW238418   3.118   3.497   4.021  1.7289  0.7717 -0.5606
 8929SOL     OW38419   2.605   0.357   1.305  0.2321 -0.2730  0.4362
 8929SOL    HW138420   2.532   0.415   1.328  1.3549  0.7602  1.4061
 8929SOL    HW238421   2.656   0.417   1.251  0.0539 -1.4750 -1.0865
 8930SOL     OW38422   1.809   1.721   2.292 -0.4091  0.6014 -0.1767
 8930SOL    HW138423   1.827   1.815   2.291  1.9217  0.1907  2.0095
 8930SOL    HW238424   1.716   1.714   2.272 -0.7588  0.4696  1.4527
 8931SOL     OW38425   0.839   3.102   2.100 -0.3037 -0.3822  0.0510
 8931SOL    HW138426   0.786   3.022   2.098 -2.4008  0.9969  1.2184
 8931SOL    HW238427   0.911   3.068   2.047 -0.5828  0.0476 -0.6077
 8932SOL     OW38428   1.871   2.770   8.414  0.1502 -0.2034  0.3871
 8932SOL    HW138429   1.861   2.838   8.480 -1.5344  0.0517 -0.1260
 8932SOL    HW238430   1.838   2.807   8.333 -0.2724  0.1708  0.7305
 8933SOL     OW38431   1.431   3.043   5.401 -0.1547  0.3352  0.1908
 8933SOL    HW138432   1.348   3.040   5.449 -1.0442  0.8069 -1.3220
 8933SOL    HW238433   1.471   2.963   5.438  1.7967  1.4240  0.4509
 8934SOL     OW38434   3.976   4.225   1.036  0.5199  0.4306 -0.1832
 8934SOL    HW138435   3.913   4.153   1.036  1.0230 -0.0135 -0.4012
 8934SOL    HW238436   4.015   4.221   0.948  0.4253  0.5395 -0.2306
 8935SOL     OW38437   1.693   3.676  16.368  0.1714 -0.0603  0.1773
 8935SOL    HW138438   1.693   3.771  16.376  0.2423 -0.0829  0.4435
 8935SOL    HW238439   1.711   3.658  16.460  0.4535 -0.3187  0.0737
 8936SOL     OW38440   1.726   0.813  13.044 -0.1597 -0.5726  0.3557
 8936SOL    HW138441   1.679   0.815  13.127 -2.1891  0.2505 -0.8103
 8936SOL    HW238442   1.676   0.876  12.992 -3.1330 -2.7120  0.6612
 8937SOL     OW38443   0.192   3.918   6.844 -0.0519  0.0857 -0.5724
 8937SOL    HW138444   0.146   3.937   6.762  0.1252 -0.8075 -0.8844
 8937SOL    HW238445   0.116   3.908   6.901  0.4348  0.1829  0.0954
 8938SOL     OW38446   2.989   3.540   5.591  0.1768 -0.4168 -0.2990
 8938SOL    HW138447   2.924   3.486   5.637 -0.5091 -0.1720 -0.9885
 8938SOL    HW238448   2.950   3.627   5.587 -0.5462 -0.7206  0.0687
 8939SOL     OW38449   1.031   4.172   8.762 -0.5135  0.4548 -0.0839
 8939SOL    HW138450   1.042   4.258   8.802  2.8296 -0.2704  0.5420
 8939SOL    HW238451   1.024   4.191   8.668 -0.7370 -1.4014 -0.4392
 8940SOL     OW38452   0.684   3.461  14.736  0.2558 -0.2531  0.4804
 8940SOL    HW138453   0.712   3.475  14.645 -3.4637 -1.4543 -0.8605
 8940SOL    HW238454   0.717   3.544  14.772  1.1720 -1.1432  1.6574
 8941SOL     OW38455   4.221   0.761  16.653 -0.1115 -0.0519  0.5928
 8941SOL    HW138456   4.256   0.772  16.564 -3.3121  0.1368 -0.6396
 8941SOL    HW238457   4.185   0.847  16.671  0.7741 -0.0355  2.2375
 8942SOL     OW38458   1.747   1.510   5.267  0.6486 -0.2806 -0.4128
 8942SOL    HW138459   1.752   1.563   5.347 -0.6783 -0.6311 -0.1046
 8942SOL    HW238460   1.713   1.569   5.200 -1.7421  2.2309  2.9991
 8943SOL     OW38461   1.759   3.014   5.720 -0.0507  0.2636  0.0214
 8943SOL    HW138462   1.689   3.079   5.720 -0.3377 -0.0651 -1.5288
 8943SOL    HW238463   1.708   2.940   5.751 -0.1585 -0.1422 -1.1348
 8944SOL     OW38464   3.506   0.059   2.560  0.3531  0.0754  0.4142
 8944SOL    HW138465   3.424   0.069   2.608  2.0495  4.4037  2.4766
 8944SOL    HW238466   3.503   4.704   2.541 -1.1186 -0.0800  1.3767
 8945SOL     OW38467   2.209   4.128   2.979  0.5029  0.5330  0.4869
 8945SOL    HW138468   2.273   4.060   2.958  0.8194  0.5253  1.5168
 8945SOL    HW238469   2.128   4.112   2.930  0.5224  1.6271  0.0997
 8946SOL     OW38470   3.345   0.141  14.612 -0.1770 -0.5587 -0.3097
 8946SOL    HW138471   3.366   0.233  14.631 -1.5254  0.1057 -2.0088
 8946SOL    HW238472   3.328   0.108  14.700  0.7532  2.0776  0.8815
 8947SOL     OW38473   4.736   0.729   4.510  0.3225  0.1999 -0.5053
 8947SOL    HW138474   4.699   0.692   4.590 -1.3949  0.3162 -1.2517
 8947SOL    HW238475   4.705   0.819   4.520 -0.2553 -0.0115 -0.3810
 8948SOL     OW38476   1.347   4.246   4.853 -0.0037  0.0749 -0.0486
 8948SOL    HW138477   1.420   4.264   4.913 -0.3288 -1.6157  0.8418
 8948SOL    HW238478   1.345   4.324   4.797 -2.4569  0.9194  1.2324
 8949SOL     OW38479   3.328   2.454   2.808  0.0918  0.6198 -0.1787
 8949SOL    HW138480   3.289   2.497   2.884  0.9814  0.5392  0.3175
 8949SOL    HW238481   3.248   2.411   2.777  1.9930 -1.3610 -2.3808
 8950SOL     OW38482   1.658   3.078   3.560  0.2714 -0.3848 -0.7212
 8950SOL    HW138483   1.582   3.121   3.522  0.1162 -0.4058 -0.4333
 8950SOL    HW238484   1.624   3.073   3.649  0.2331  0.2580 -0.6971
 8951SOL     OW38485   4.409   2.604   3.846  0.4956 -0.0762 -0.2059
 8951SOL    HW138486   4.482   2.611   3.785  1.6753  0.5157  1.2976
 8951SOL    HW238487   4.386   2.513   3.828  1.7412 -0.7504  1.6882
 8952SOL     OW38488   2.789   0.192  13.051 -0.6107 -0.2917  0.8972
 8952SOL    HW138489   2.872   0.146  13.057  0.4769  1.5231 -0.1700
 8952SOL    HW238490   2.735   0.114  13.056  1.3876 -1.7050  0.2178
 8953SOL     OW38491   3.968   1.699  12.465 -0.3372  0.2718 -0.7078
 8953SOL    HW138492   3.875   1.676  12.461 -0.3525  0.3990 -1.0641
 8953SOL    HW238493   3.985   1.736  12.378  1.6517  0.0723 -0.4027
 8954SOL     OW38494   4.665   2.038  12.084 -0.4064 -0.1106 -0.6631
 8954SOL    HW138495   4.629   2.093  12.013  1.0180  0.0140 -1.2790
 8954SOL    HW238496   4.599   2.039  12.153 -0.2544  1.4908 -0.5370
 8955SOL     OW38497   0.143   3.319  16.986 -0.2211 -0.1417  0.4115
 8955SOL    HW138498   0.099   3.235  17.001  2.0412 -1.0699  1.7585
 8955SOL    HW238499   0.234   3.293  16.989 -0.6353 -1.7454 -1.1175
 8956SOL     OW38500   4.345   0.007   1.069 -0.6108  0.6386 -0.3289
 8956SOL    HW138501   4.353   0.097   1.038  0.0255  0.6591 -0.1031
 8956SOL    HW238502   4.424   4.713   1.026 -0.4488  0.1089  0.3705
 8957SOL     OW38503   2.560   0.033   3.892 -0.5044  0.0460 -0.1140
 8957SOL    HW138504   2.592   0.055   3.805  3.7868 -0.4090  1.3374
 8957SOL    HW238505   2.579   4.677   3.888 -1.7554 -0.2629  1.1591
 8958SOL     OW38506   3.581   2.383   2.146  0.1258 -0.3476 -0.7235
 8958SOL    HW138507   3.645   2.312   2.153 -1.3992 -1.5626  0.6148
 8958SOL    HW238508   3.567   2.382   2.051 -2.9694  0.2004 -0.2768
 8959SOL     OW38509   0.817   0.373   4.291  0.6726 -0.3500 -0.5265
 8959SOL    HW138510   0.830   0.459   4.332 -0.5610  0.2810 -1.4613
 8959SOL    HW238511   0.835   0.330   4.374 -0.4638 -0.9244 -0.5886
 8960SOL     OW38512   0.499   0.846  16.687 -0.1499 -0.3222  0.5522
 8960SOL    HW138513   0.493   0.875  16.596 -0.1572  0.8526  0.9348
 8960SOL    HW238514   0.517   0.928  16.733  0.5038 -0.4869  0.5827
 8961SOL     OW38515   1.780   1.384   9.565 -0.2678 -0.7223  0.1201
 8961SOL    HW138516   1.816   1.297   9.580  2.1072  0.2646  0.1884
 8961SOL    HW238517   1.730   1.404   9.644 -0.0399 -0.3197  0.1648
 8962SOL     OW38518   1.488   4.396   2.748 -0.3153 -0.2093  0.2561
 8962SOL    HW138519   1.538   4.349   2.815 -0.3208  0.7478  0.9421
 8962SOL    HW238520   1.437   4.450   2.809 -0.1312 -0.3390  0.5275
 8963SOL     OW38521   3.944   2.137   3.396 -0.1695 -0.4768  0.2776
 8963SOL    HW138522   3.877   2.105   3.335 -0.8419 -2.2289  1.9413
 8963SOL    HW238523   4.030   2.105   3.368 -1.6156 -1.2962 -3.2433
 8964SOL     OW38524   3.598   2.934   1.101  0.6110  0.2920  0.3377
 8964SOL    HW138525   3.620   3.026   1.117 -0.2611  0.7317 -1.0218
 8964SOL    HW238526   3.675   2.922   1.045  0.0071  3.9696 -1.2382
 8965SOL     OW38527   1.535   4.301   3.492  0.0309 -0.2440 -0.6496
 8965SOL    HW138528   1.608   4.264   3.543  2.2997  0.6770 -3.2300
 8965SOL    HW238529   1.477   4.226   3.505  4.0798 -3.2261  0.4254
 8966SOL     OW38530   0.642   2.836  17.107  0.2132 -0.2445  0.4228
 8966SOL    HW138531   0.720   2.854  17.055  0.1971 -1.4909 -0.0349
 8966SOL    HW238532   0.578   2.833  17.036 -0.0895  1.6814  0.6108
 8967SOL     OW38533   4.231   1.896  12.287  0.7099  0.0617 -0.0414
 8967SOL    HW138534   4.264   1.934  12.368 -0.8767  3.4728 -1.0093
 8967SOL    HW238535   4.296   1.827  12.273 -1.1278 -1.6976  0.0687
 8968SOL     OW38536   4.162   3.074   8.841  0.4645 -0.1572  0.1616
 8968SOL    HW138537   4.070   3.047   8.837  0.0205  1.1767  1.2509
 8968SOL    HW238538   4.203   2.995   8.806  1.4655  1.0882 -1.4175
 8969SOL     OW38539   1.780   0.544   6.923  0.3227 -0.1623 -0.3767
 8969SOL    HW138540   1.868   0.534   6.959 -0.6540  2.1635  2.6696
 8969SOL    HW238541   1.742   0.624   6.959 -0.9140 -2.2434  2.9863
 8970SOL     OW38542   0.018   0.472   6.821  0.4863  0.3161  0.1115
 8970SOL    HW138543   0.039   0.511   6.737 -1.1195  0.0388 -0.4206
 8970SOL    HW238544   0.001   0.550   6.874  1.9019  2.9853 -3.4043
 8971SOL     OW38545   0.508   2.153   0.905 -0.7298  0.1374  0.2208
 8971SOL    HW138546   0.470   2.088   0.846  0.5582  0.5244 -1.0614
 8971SOL    HW238547   0.475   2.122   0.989 -0.5666 -0.6495 -0.0094
 8972SOL     OW38548   0.773   2.086  11.663 -0.1620  0.1387  0.5727
 8972SOL    HW138549   0.850   2.142  11.668  0.2735 -0.3706 -0.3630
 8972SOL    HW238550   0.797   2.050  11.578 -2.1587 -1.3367  0.6249
 8973SOL     OW38551   3.147   2.866   0.459  0.7219 -0.3085  0.1464
 8973SOL    HW138552   3.205   2.834   0.528  1.9242  2.0762  0.2494
 8973SOL    HW238553   3.200   2.930   0.413  0.9040 -0.3037  0.3621
 8974SOL     OW38554   3.345   3.050  17.463  0.4270  0.0250 -0.2844
 8974SOL    HW138555   3.295   3.129  17.484  1.2375  1.2465 -2.9304
 8974SOL    HW238556   3.311   3.035  17.375 -1.8945  2.0337  0.2621
 8975SOL     OW38557   3.466   0.029  10.758 -0.4306  0.0026  0.2298
 8975SOL    HW138558   3.438   0.019  10.849  0.4760 -0.2095  0.4910
 8975SOL    HW238559   3.465   0.124  10.745 -3.0678  0.0158  0.5818
 8976SOL     OW38560   2.931   4.310   2.806 -0.5548  0.2378  0.7391
 8976SOL    HW138561   2.903   4.243   2.743 -1.2341  2.2156 -1.0778
 8976SOL    HW238562   3.026   4.318   2.799 -0.8323  2.4378 -0.4033
 8977SOL     OW38563   0.854   4.695   8.510  0.2212  0.1446  0.0935
 8977SOL    HW138564   0.866   4.660   8.599  0.6479  0.1146  0.0207
 8977SOL    HW238565   0.765   4.663   8.497  0.5942 -0.5959 -0.5786
 8978SOL     OW38566   4.220   2.718   8.156 -0.3577 -0.1676  0.1198
 8978SOL    HW138567   4.228   2.702   8.062  0.2916  0.4693  0.0629
 8978SOL    HW238568   4.291   2.665   8.193 -0.2388 -1.4458 -1.9949
 8979SOL     OW38569   1.672   1.736   2.607  0.0066  0.2147 -0.2599
 8979SOL    HW138570   1.605   1.724   2.674 -0.9304 -0.9153 -1.4129
 8979SOL    HW238571   1.737   1.669   2.627 -2.0017 -1.6264  0.0830
 8980SOL     OW38572   1.847   4.532   4.548  0.0727  0.4054 -0.1969
 8980SOL    HW138573   1.894   4.454   4.575 -0.8356 -0.0333  0.1334
 8980SOL    HW238574   1.893   4.594   4.605 -0.7659 -0.7763  1.7724
 8981SOL     OW38575   3.255   0.547  10.224 -0.2801 -0.2522 -0.2432
 8981SOL    HW138576   3.350   0.540  10.216 -0.2143  0.2855  0.1122
 8981SOL    HW238577   3.254   0.524  10.316 -0.9288  1.5885  0.2008
 8982SOL     OW38578   4.140   4.330   3.929  0.0308 -0.0330 -0.5899
 8982SOL    HW138579   4.167   4.384   4.002  2.1803 -1.2718 -0.4780
 8982SOL    HW238580   4.095   4.260   3.977  0.8504 -0.8208 -0.9683
 8983SOL     OW38581   3.479   3.403  14.481 -0.7839 -0.5547 -0.4410
 8983SOL    HW138582   3.487   3.323  14.533 -0.5082 -0.1000  0.2148
 8983SOL    HW238583   3.405   3.379  14.426 -1.6404 -0.5833  0.7308
 8984SOL     OW38584   2.155   2.927   5.657  0.3848  0.4101 -0.5827
 8984SOL    HW138585   2.197   2.964   5.580  1.8152  0.7578  0.3592
 8984SOL    HW238586   2.103   2.859   5.613  0.7034  0.5025 -1.0919
 8985SOL     OW38587   0.367   0.189  12.163  0.3152  0.2991  0.2519
 8985SOL    HW138588   0.313   0.267  12.175  0.4817  0.6983 -1.4913
 8985SOL    HW238589   0.451   0.226  12.191  1.0027 -0.5421 -0.6930
 8986SOL     OW38590   0.185   2.479   7.559  0.1517  0.0718 -0.5173
 8986SOL    HW138591   0.150   2.438   7.480 -7.2891 -0.2506  2.9894
 8986SOL    HW238592   0.207   2.563   7.517 -0.6917  0.5593  0.0280
 8987SOL     OW38593   4.485   2.411   7.451 -0.6419 -0.5631 -0.0364
 8987SOL    HW138594   4.466   2.347   7.520 -1.0529  1.9009  2.1210
 8987SOL    HW238595   4.442   2.374   7.374 -1.9191 -0.4211  0.6182
 8988SOL     OW38596   1.760   3.489   5.398 -0.0439 -0.6143  0.0375
 8988SOL    HW138597   1.719   3.488   5.311 -1.0068  0.4432  0.4727
 8988SOL    HW238598   1.766   3.585   5.404 -0.0149 -0.6696  0.9195
 8989SOL     OW38599   4.075   1.510   4.208 -0.5655 -0.0491  0.2339
 8989SOL    HW138600   4.078   1.530   4.302 -0.1331 -3.0312  0.8500
 8989SOL    HW238601   4.143   1.565   4.169 -0.4072 -0.4581 -0.0559
 8990SOL     OW38602   2.714   1.985  13.733  0.4860 -0.1005 -0.3126
 8990SOL    HW138603   2.804   2.017  13.742  0.0886  1.5863 -2.3011
 8990SOL    HW238604   2.688   1.990  13.825 -0.1998  2.5034 -0.6695
 8991SOL     OW38605   0.882   0.892   6.625 -0.1897  0.1911 -0.1914
 8991SOL    HW138606   0.804   0.882   6.570 -0.0054  1.6795 -0.7244
 8991SOL    HW238607   0.847   0.830   6.689  1.4993 -1.0532 -0.4467
 8992SOL     OW38608   4.724   1.211   1.610 -0.6197 -1.0646  1.0950
 8992SOL    HW138609   4.702   1.218   1.703  0.7978  0.5884  1.3084
 8992SOL    HW238610   0.035   1.129   1.599  0.8927  0.1061 -0.7995
 8993SOL     OW38611   2.445   3.701   1.593  0.3837 -0.4035  0.5130
 8993SOL    HW138612   2.373   3.641   1.613 -0.5920  0.4082 -0.4724
 8993SOL    HW238613   2.508   3.634   1.568 -0.3897 -1.6594  1.9721
 8994SOL     OW38614   2.276   0.497  17.743  0.0827  0.4793 -0.1776
 8994SOL    HW138615   2.236   0.530  17.663  0.4962 -2.2371 -1.4930
 8994SOL    HW238616   2.199   0.480   0.047  1.8161  0.7966  2.3455
 8995SOL     OW38617   2.101   3.838   4.332  0.0086 -0.1432 -0.0356
 8995SOL    HW138618   2.070   3.925   4.308 -1.6133 -1.0019 -1.0599
 8995SOL    HW238619   2.100   3.845   4.428 -1.5492  0.7496 -0.1059
 8996SOL     OW38620   1.028   1.778   3.584  0.0051 -0.8422  0.2304
 8996SOL    HW138621   1.110   1.770   3.535 -0.6651  2.3092 -1.3566
 8996SOL    HW238622   0.983   1.810   3.507  1.1316  0.2318  0.0170
 8997SOL     OW38623   4.179   1.266   1.058 -0.0995 -0.2428 -0.0473
 8997SOL    HW138624   4.106   1.259   1.119  0.1683 -3.8529 -0.1148
 8997SOL    HW238625   4.204   1.357   1.072 -2.5755  0.4160 -0.0285
 8998SOL     OW38626   1.046   3.069   7.047  0.1468  0.5357 -0.4159
 8998SOL    HW138627   0.996   3.005   6.996  1.8692 -1.3163  0.2334
 8998SOL    HW238628   0.977   3.126   7.082  0.6878  0.8977  0.0576
 8999SOL     OW38629   2.350   2.008  15.664 -0.0337  0.1547  0.1113
 8999SOL    HW138630   2.408   2.073  15.623  0.6268 -0.1730  0.5315
 8999SOL    HW238631   2.328   2.061  15.741  0.8431  0.4983  0.1266
 9000SOL     OW38632   3.686   0.621   6.837  0.2382  0.5926 -0.1077
 9000SOL    HW138633   3.773   0.660   6.846  1.1406 -1.6043  0.5234
 9000SOL    HW238634   3.706   0.528   6.847  0.5848  0.6048 -0.7053
 9001SOL     OW38635   3.925   3.543   1.536 -0.2591 -0.2092 -0.3875
 9001SOL    HW138636   3.953   3.533   1.627  1.3655  1.8837 -0.6456
 9001SOL    HW238637   3.991   3.610   1.516 -0.6308  0.5090  0.8138
 9002SOL     OW38638   3.876   2.270  15.055 -0.1702  0.4614  0.3892
 9002SOL    HW138639   3.944   2.327  15.093  1.7170 -1.7067  0.2486
 9002SOL    HW238640   3.872   2.207  15.127  0.0058  1.6187  1.4193
 9003SOL     OW38641   4.071   4.383   7.724 -0.3004  0.2612 -0.1790
 9003SOL    HW138642   4.163   4.408   7.718 -0.5275  0.6504 -2.0216
 9003SOL    HW238643   4.054   4.350   7.813 -0.5213  1.3162  0.1699
 9004SOL     OW38644   2.683   3.076  14.028  0.3617  0.2675 -0.5305
 9004SOL    HW138645   2.777   3.085  14.013  0.2731  0.4236 -0.9745
 9004SOL    HW238646   2.664   3.001  13.971 -0.6057 -0.1420  0.3365
 9005SOL     OW38647   0.132   4.065   6.611 -0.2482  0.6368  0.1693
 9005SOL    HW138648   0.217   4.097   6.641  0.2039 -0.7986  0.3864
 9005SOL    HW238649   0.074   4.140   6.626  0.7005  0.9512  2.2860
 9006SOL     OW38650   3.046   1.551  13.083 -0.0349 -0.2461 -0.2701
 9006SOL    HW138651   3.041   1.543  13.178 -0.1730 -0.3165 -0.2832
 9006SOL    HW238652   3.098   1.471  13.069 -0.0351 -0.1784 -0.6511
 9007SOL     OW38653   2.831   2.689   5.164 -0.0377 -0.1471 -0.2076
 9007SOL    HW138654   2.864   2.779   5.162 -1.0329  0.2494  1.2253
 9007SOL    HW238655   2.886   2.655   5.094  1.5812 -0.6396  1.3103
 9008SOL     OW38656   2.323   1.961   2.538 -0.1760  0.7390  0.5205
 9008SOL    HW138657   2.238   2.004   2.546 -0.9599 -0.6747 -0.1478
 9008SOL    HW238658   2.318   1.904   2.615  1.0456  0.6226  0.5139
 9009SOL     OW38659   2.598   1.763   2.872 -0.2536 -0.1398  0.2754
 9009SOL    HW138660   2.583   1.709   2.794  0.9153  0.4495 -0.3630
 9009SOL    HW238661   2.675   1.721   2.909 -0.5752  1.8680  3.2214
 9010SOL     OW38662   3.180   4.162   8.501  0.1444  0.4921 -0.0252
 9010SOL    HW138663   3.095   4.205   8.508 -0.5006 -0.7503 -0.2191
 9010SOL    HW238664   3.181   4.090   8.564 -0.1450  1.5651  1.1948
 9011SOL     OW38665   3.634   1.509   7.569 -0.1044 -0.3565  0.0215
 9011SOL    HW138666   3.580   1.430   7.578 -1.6418  0.8040  0.8830
 9011SOL    HW238667   3.681   1.502   7.486 -2.4163 -1.1158 -1.2198
 9012SOL     OW38668   0.239   0.722   5.076 -0.4554  0.4142  0.8351
 9012SOL    HW138669   0.244   0.799   5.132 -0.2063  1.5719 -0.8035
 9012SOL    HW238670   0.214   0.760   4.992  1.1529 -3.9159 -1.6288
 9013SOL     OW38671   1.253   3.781   2.338  0.2091  0.1083  0.5778
 9013SOL    HW138672   1.267   3.809   2.247  1.0882 -0.9624  0.3781
 9013SOL    HW238673   1.260   3.870   2.373  0.4505  0.4131 -0.2400
 9014SOL     OW38674   3.578   1.874   7.876 -0.3372 -0.2302  0.3165
 9014SOL    HW138675   3.554   1.847   7.788  0.8098 -0.8775  0.1942
 9014SOL    HW238676   3.555   1.797   7.929 -0.5229  1.8511  3.2557
 9015SOL     OW38677   0.476   3.696   5.740 -0.2905 -0.6717 -0.1548
 9015SOL    HW138678   0.541   3.652   5.686  0.7447  0.0040  0.5425
 9015SOL    HW238679   0.409   3.713   5.674  1.8475  1.1000 -1.8963
 9016SOL     OW38680   2.059   0.458  17.118  0.4843 -0.7820  0.0601
 9016SOL    HW138681   2.129   0.504  17.164 -0.3410  1.7604 -1.2177
 9016SOL    HW238682   2.023   0.526  17.062 -0.2970 -0.0820  1.4254
 9017SOL     OW38683   0.240   4.702  13.809  0.0621 -0.3500 -0.6119
 9017SOL    HW138684   0.246   4.643  13.734  2.8210 -0.4105 -0.3251
 9017SOL    HW238685   0.193   4.651  13.875  1.2427  0.7773  1.1080
 9018SOL     OW38686   4.617   2.289   9.842 -0.0987 -0.3566  0.2942
 9018SOL    HW138687   4.562   2.368   9.843  2.9384  1.7285  1.3865
 9018SOL    HW238688   4.640   2.286   9.749 -0.8511 -0.0685  0.0997
 9019SOL     OW38689   1.443   2.677   2.986  0.0871  0.5354 -0.2002
 9019SOL    HW138690   1.504   2.744   3.016  0.7901 -0.2871  0.2477
 9019SOL    HW238691   1.505   2.610   2.955  0.5958  0.7481  0.3569
 9020SOL     OW38692   1.380   4.317  14.967 -0.1455 -0.0237  0.6974
 9020SOL    HW138693   1.445   4.295  14.900  1.0097  2.3335  1.0405
 9020SOL    HW238694   1.434   4.379  15.016  0.9258  0.4898 -1.0927
 9021SOL     OW38695   2.765   4.466   3.164  0.2402 -0.1524 -0.4190
 9021SOL    HW138696   2.820   4.388   3.167 -0.7890 -0.8898 -0.6567
 9021SOL    HW238697   2.831   4.526   3.130 -0.2956  0.8504  0.3135
 9022SOL     OW38698   4.295   4.357  10.567 -0.0685 -0.7699 -0.1155
 9022SOL    HW138699   4.377   4.342  10.520  0.9808  0.4489  1.3308
 9022SOL    HW238700   4.314   4.291  10.634 -1.0149  0.1888  1.0936
 9023SOL     OW38701   3.642   1.970   8.145 -0.4797 -0.0886  0.4642
 9023SOL    HW138702   3.720   1.915   8.147  1.7851  3.1358  1.1704
 9023SOL    HW238703   3.614   1.956   8.055  1.4036  0.3957 -0.1996
 9024SOL     OW38704   2.427   2.631   4.886 -0.2812 -0.3070  0.2156
 9024SOL    HW138705   2.454   2.587   4.805 -0.8353  0.0165 -0.1500
 9024SOL    HW238706   2.345   2.673   4.859  0.6186  1.1591 -0.1781
 9025SOL     OW38707   1.948   0.234   8.331 -0.1763  0.2996 -0.8348
 9025SOL    HW138708   2.037   0.219   8.363 -0.1303  1.2896 -0.4988
 9025SOL    HW238709   1.955   0.226   8.236 -0.1679  0.2639 -0.8314
 9026SOL     OW38710   4.687   1.469  16.704  0.4107 -0.1249  0.2671
 9026SOL    HW138711   4.691   1.542  16.765  3.0938 -1.6142  1.8506
 9026SOL    HW238712   0.029   1.485  16.654 -1.4190  2.6522 -1.7963
 9027SOL     OW38713   3.190   0.799   6.964 -0.4912 -0.1429 -0.5716
 9027SOL    HW138714   3.279   0.772   6.942 -0.0192  0.7200  0.2438
 9027SOL    HW238715   3.196   0.788   7.059  0.7441  2.1566 -0.3616
 9028SOL     OW38716   1.262   1.478   8.928 -0.1973  0.6328 -0.4202
 9028SOL    HW138717   1.229   1.428   9.002  1.4495 -1.8306 -1.3399
 9028SOL    HW238718   1.202   1.552   8.930 -0.9848  0.0360 -2.0339
 9029SOL     OW38719   0.038   4.566   7.868  0.0977  0.1506  0.3669
 9029SOL    HW138720   0.000   4.480   7.851  1.6643 -0.2997 -0.8123
 9029SOL    HW238721   4.700   4.610   7.906  0.8726  0.4865  1.5377
 9030SOL     OW38722   1.129   0.011  11.366 -0.2028  0.2130 -0.2967
 9030SOL    HW138723   1.105   0.103  11.364  1.0551  0.6424  3.7484
 9030SOL    HW238724   1.221   0.032  11.352  0.4254 -0.8124  2.2027
 9031SOL     OW38725   2.609   2.207   9.811 -0.7690  0.8466 -0.3280
 9031SOL    HW138726   2.542   2.149   9.848 -0.9634 -0.0612 -2.1078
 9031SOL    HW238727   2.648   2.243   9.890 -1.5283 -0.4857  0.6579
 9032SOL     OW38728   2.961   2.432   5.554 -0.1429 -0.0767  0.0361
 9032SOL    HW138729   2.889   2.495   5.549  0.6163  0.8216  0.3439
 9032SOL    HW238730   2.906   2.362   5.519 -0.8115  1.4986 -2.0573
 9033SOL     OW38731   0.316   0.380  16.231  0.0258  0.1061 -1.3699
 9033SOL    HW138732   0.297   0.422  16.147  0.2824  0.3630 -1.2984
 9033SOL    HW238733   0.410   0.365  16.226 -0.3942 -2.8283 -0.7309
 9034SOL     OW38734   2.354   1.340   7.256  0.1175  0.0688 -0.5443
 9034SOL    HW138735   2.289   1.410   7.256 -0.7605 -0.7238  3.1544
 9034SOL    HW238736   2.428   1.387   7.295 -0.5881 -0.7787  1.8709
 9035SOL     OW38737   2.237   3.352  14.312 -0.0692 -0.5764 -0.5265
 9035SOL    HW138738   2.215   3.434  14.357 -4.7043 -1.5513 -1.0228
 9035SOL    HW238739   2.159   3.296  14.323 -0.7878  0.2676 -1.3469
 9036SOL     OW38740   1.567   1.712   8.220  0.5960 -0.1431 -0.4504
 9036SOL    HW138741   1.519   1.629   8.218 -0.0478  0.2882 -2.6265
 9036SOL    HW238742   1.649   1.673   8.191  0.2549 -1.2799  0.1024
 9037SOL     OW38743   1.740   3.149   3.286 -0.3294  0.0135 -0.4154
 9037SOL    HW138744   1.728   3.111   3.373  2.6437  0.1577  0.0522
 9037SOL    HW238745   1.652   3.173   3.257  0.0904  1.0243 -0.8268
 9038SOL     OW38746   3.407   0.430   6.231  0.3922 -0.4253  0.3338
 9038SOL    HW138747   3.371   0.379   6.157 -0.2701 -0.3974  0.6366
 9038SOL    HW238748   3.390   0.380   6.310 -2.0100 -0.9149 -0.4899
 9039SOL     OW38749   0.199   1.361  13.382  0.2602 -0.3306  0.4646
 9039SOL    HW138750   0.250   1.280  13.378  0.9917  0.0789  1.3642
 9039SOL    HW238751   0.119   1.331  13.425  0.4293 -1.2959  0.0947
 9040SOL     OW38752   1.463   2.104   3.174 -0.3582 -0.0286 -0.3468
 9040SOL    HW138753   1.511   2.161   3.235 -0.6866  0.8569 -0.9043
 9040SOL    HW238754   1.391   2.158   3.142  0.3183 -0.6854 -3.0347
 9041SOL     OW38755   2.858   2.463  16.893  0.5966  0.2916 -0.3526
 9041SOL    HW138756   2.879   2.381  16.939 -0.5991 -0.8520 -1.8386
 9041SOL    HW238757   2.805   2.504  16.961  0.4671 -0.2302 -0.1361
 9042SOL     OW38758   4.676   1.252  10.669  0.2249 -0.5209  0.2605
 9042SOL    HW138759   4.662   1.244  10.575 -0.1902 -0.2959  0.3049
 9042SOL    HW238760   0.030   1.272  10.682 -0.0267  0.1492  1.0254
 9043SOL     OW38761   3.432   1.310   4.352 -0.2004  0.3268  0.9940
 9043SOL    HW138762   3.377   1.363   4.294  0.3099  0.8846  1.0178
 9043SOL    HW238763   3.479   1.384   4.392  0.6178  2.1488 -3.3162
 9044SOL     OW38764   4.017   1.106   5.253 -0.1063 -0.0898 -0.0530
 9044SOL    HW138765   3.956   1.144   5.189  0.0295 -0.3894 -0.3583
 9044SOL    HW238766   3.953   1.076   5.318 -3.0691  1.4674 -2.2411
 9045SOL     OW38767   3.708   2.524   6.913 -0.4038 -0.0716 -0.4373
 9045SOL    HW138768   3.630   2.578   6.926 -0.1254 -0.3589  2.4100
 9045SOL    HW238769   3.724   2.555   6.824  0.4674  0.0087 -0.2546
 9046SOL     OW38770   3.590   0.828   3.389  0.4983 -0.1845  0.1982
 9046SOL    HW138771   3.536   0.750   3.398  0.0478  0.0584 -0.3579
 9046SOL    HW238772   3.675   0.788   3.372 -1.4623 -4.1845 -0.1230
 9047SOL     OW38773   0.986   0.234   3.461 -0.5433  0.2257  0.5292
 9047SOL    HW138774   0.988   0.145   3.424  2.1878  0.0959  0.9523
 9047SOL    HW238775   0.977   0.208   3.553  0.5461  0.9692  0.8389
 9048SOL     OW38776   0.297   4.293   1.170 -0.3311 -0.2307  0.2203
 9048SOL    HW138777   0.328   4.371   1.125  0.6639 -0.4640  0.4868
 9048SOL    HW238778   0.204   4.313   1.167 -0.1552  0.5389 -0.0620
 9049SOL     OW38779   2.419   3.999  14.846  0.5617 -0.2503  0.2758
 9049SOL    HW138780   2.370   4.068  14.892  1.6250 -0.9698  2.4995
 9049SOL    HW238781   2.351   3.975  14.784  1.3611  0.1467 -0.7535
 9050SOL     OW38782   1.025   0.669   1.874  0.6667 -0.1630  0.3722
 9050SOL    HW138783   0.963   0.600   1.849  0.3006 -0.1495  1.2270
 9050SOL    HW238784   0.990   0.699   1.958  0.4875 -0.6396  0.4672
 9051SOL     OW38785   1.192   2.064   6.515  0.4251 -0.6202  0.2110
 9051SOL    HW138786   1.227   2.153   6.523 -0.3087 -0.2823 -0.3204
 9051SOL    HW238787   1.113   2.081   6.566 -0.1189 -1.4666 -0.3611
 9052SOL     OW38788   1.607   3.522   1.778 -0.2605  0.0211  0.4478
 9052SOL    HW138789   1.523   3.477   1.774 -0.5277  0.7659 -2.2032
 9052SOL    HW238790   1.658   3.452   1.817 -1.3878 -0.2260  1.4652
 9053SOL     OW38791   1.946   0.235   4.001  0.3938 -0.9950  0.5223
 9053SOL    HW138792   2.015   0.184   3.958  0.1297 -0.9730  0.0687
 9053SOL    HW238793   1.938   0.315   3.950 -1.3563 -2.9676 -2.3201
 9054SOL     OW38794   1.051   1.703   3.978  0.3479  0.2778  0.1802
 9054SOL    HW138795   0.963   1.712   4.015 -0.0085 -1.7680 -0.1870
 9054SOL    HW238796   1.041   1.629   3.919  2.6947 -0.5547  0.8305
 9055SOL     OW38797   4.305   3.600  15.097  0.0152 -0.0211  0.3943
 9055SOL    HW138798   4.280   3.671  15.038  0.2934 -1.5641 -1.5672
 9055SOL    HW238799   4.359   3.542  15.044  0.5035  0.9127 -0.1454
 9056SOL     OW38800   0.283   0.225   6.432 -0.5850 -0.6934  0.0713
 9056SOL    HW138801   0.310   0.221   6.340  1.3555  0.8763  0.5841
 9056SOL    HW238802   0.357   0.176   6.466 -0.3325 -0.3397  0.0250
 9057SOL     OW38803   1.115   2.911   9.325 -0.4408 -0.1172 -0.1577
 9057SOL    HW138804   1.143   2.990   9.372 -0.5195  1.2500 -2.3954
 9057SOL    HW238805   1.075   2.945   9.245 -0.3333 -0.4833 -0.3669
 9058SOL     OW38806   4.230   2.251  15.367 -0.6300  0.4787 -0.2868
 9058SOL    HW138807   4.180   2.328  15.339  0.6863  2.5973  3.3110
 9058SOL    HW238808   4.191   2.176  15.321  0.6745  0.9806 -2.2175
 9059SOL     OW38809   0.635   2.829  14.668  0.2480  0.3149 -0.0674
 9059SOL    HW138810   0.617   2.783  14.585  0.4822  1.9800 -1.0357
 9059SOL    HW238811   0.631   2.920  14.638  3.5664  1.1086  1.9935
 9060SOL     OW38812   4.066   4.193  14.960 -0.6374 -0.3940 -0.3870
 9060SOL    HW138813   4.139   4.175  14.900  2.1951  0.6402  2.7018
 9060SOL    HW238814   3.992   4.138  14.935 -1.4071  0.5217 -0.1213
 9061SOL     OW38815   1.440   1.223  10.352  0.2524 -0.0978 -0.8650
 9061SOL    HW138816   1.347   1.205  10.364  0.2627  0.1074 -0.4464
 9061SOL    HW238817   1.469   1.147  10.303 -1.7633  0.8484 -3.5021
 9062SOL     OW38818   2.998   3.929   3.752 -0.4561  0.3210  0.1052
 9062SOL    HW138819   3.062   3.951   3.819  1.0883  2.2789 -1.9971
 9062SOL    HW238820   3.029   3.841   3.731 -0.5198 -0.4065  3.2005
 9063SOL     OW38821   4.267   3.445   1.426 -0.0671  0.2196 -0.2359
 9063SOL    HW138822   4.277   3.456   1.520  2.6315 -1.7415 -0.2768
 9063SOL    HW238823   4.224   3.528   1.407 -0.5688 -0.3621 -1.6764
 9064SOL     OW38824   4.043   4.401  15.447 -0.6894 -0.1380  0.4999
 9064SOL    HW138825   3.994   4.326  15.482  0.1547 -0.2566  1.4285
 9064SOL    HW238826   4.122   4.379  15.497  0.2975 -0.1580 -1.0922
 9065SOL     OW38827   3.622   2.958   5.131 -0.2121 -0.1011 -1.1014
 9065SOL    HW138828   3.533   2.928   5.149  0.1538 -0.6451 -0.1545
 9065SOL    HW238829   3.683   2.886   5.147 -0.9734 -0.4005  0.5371
 9066SOL     OW38830   0.815   3.835   7.672  0.4432  0.4680  0.0361
 9066SOL    HW138831   0.852   3.861   7.588 -0.9001  0.8624 -0.4323
 9066SOL    HW238832   0.874   3.762   7.689  0.0011  0.4827  1.6006
 9067SOL     OW38833   4.458   3.174   1.452 -0.0489  0.1659 -0.0906
 9067SOL    HW138834   4.546   3.196   1.420  0.0653  0.3512  0.3466
 9067SOL    HW238835   4.400   3.170   1.376  0.7948 -0.9430 -0.6779
 9068SOL     OW38836   0.078   2.111   9.947 -0.3586 -0.3092  0.8272
 9068SOL    HW138837   0.030   2.193   9.937  0.1192  0.0655  1.6494
 9068SOL    HW238838   0.058   2.071   9.862 -2.6510 -1.0156  1.7100
 9069SOL     OW38839   3.614   4.690  12.865  0.4875  0.1298 -0.5194
 9069SOL    HW138840   3.589   4.680  12.773 -1.4098 -1.0560  0.1311
 9069SOL    HW238841   3.568   0.025  12.904  1.6626  0.6828 -0.1760
 9070SOL     OW38842   3.896   3.328  11.109 -0.7743 -0.1923 -0.2430
 9070SOL    HW138843   3.862   3.256  11.162  0.7711  0.0585  1.0960
 9070SOL    HW238844   3.951   3.284  11.044  0.7090 -0.2339  1.0264
 9071SOL     OW38845   0.187   1.290   3.731  0.1238 -0.2822  0.4313
 9071SOL    HW138846   0.233   1.207   3.742 -1.2066 -0.9118  1.2610
 9071SOL    HW238847   0.157   1.275   3.641 -1.3941 -1.7066  1.1762
 9072SOL     OW38848   3.960   3.511  12.909 -0.9260 -0.9269 -0.2777
 9072SOL    HW138849   3.959   3.597  12.868  0.8134 -0.9549 -0.4059
 9072SOL    HW238850   3.928   3.547  12.991  0.2554  1.0653 -0.6838
 9073SOL     OW38851   1.058   3.943   1.186 -0.1729 -0.1103 -0.0645
 9073SOL    HW138852   1.094   4.024   1.149 -0.1246 -0.7457 -1.4171
 9073SOL    HW238853   1.002   3.969   1.258 -0.7989 -0.9895 -0.2361
 9074SOL     OW38854   1.851   2.577   8.143 -0.1695 -0.3680  0.0912
 9074SOL    HW138855   1.801   2.658   8.141 -1.6227 -1.2738 -0.0036
 9074SOL    HW238856   1.931   2.603   8.097 -0.6736  0.5320 -0.2680
 9075SOL     OW38857   4.133   1.010  12.049  0.5053 -0.0653  0.4936
 9075SOL    HW138858   4.073   1.013  11.975  1.4138 -1.7949 -0.3115
 9075SOL    HW238859   4.126   1.102  12.074  0.2736 -0.0194  0.2573
 9076SOL     OW38860   3.866   4.261   0.200  0.0237  0.8299  0.0788
 9076SOL    HW138861   3.812   4.340   0.194  1.1962  1.3979 -2.9223
 9076SOL    HW238862   3.852   4.241   0.107 -0.0633  1.2873 -0.0063
 9077SOL     OW38863   3.572   3.768  14.971 -0.3660  0.0413  0.8560
 9077SOL    HW138864   3.572   3.864  14.967 -4.0154 -0.0430 -1.3212
 9077SOL    HW238865   3.603   3.748  14.882  0.3193 -0.2384  1.1661
 9078SOL     OW38866   1.614   3.794  15.687 -0.0945 -0.3261  0.2384
 9078SOL    HW138867   1.533   3.807  15.737 -0.0678  0.1185  0.1663
 9078SOL    HW238868   1.630   3.887  15.669  1.2208 -0.5183  0.3970
 9079SOL     OW38869   0.192   3.764   4.331 -0.0705  0.6841 -0.4095
 9079SOL    HW138870   0.269   3.750   4.275 -0.2085 -0.7295 -0.2470
 9079SOL    HW238871   0.237   3.797   4.408 -0.5686  0.9926 -0.2537
 9080SOL     OW38872   2.468   4.484  17.069  0.0410 -0.0820 -0.4176
 9080SOL    HW138873   2.474   4.409  17.128  1.4074  1.7211  1.7348
 9080SOL    HW238874   2.541   4.541  17.094 -0.4280  0.0938  0.5248
 9081SOL     OW38875   0.495   0.909  13.384 -0.0842  0.5189  0.1843
 9081SOL    HW138876   0.455   0.907  13.297 -2.5229  0.8021  1.2887
 9081SOL    HW238877   0.580   0.875  13.356  0.3885 -0.0220  2.2843
 9082SOL     OW38878   1.760   0.376   2.783  0.2312 -0.3771  0.3013
 9082SOL    HW138879   1.741   0.405   2.694  1.9770 -0.4099 -0.0914
 9082SOL    HW238880   1.798   0.290   2.765 -2.0810 -1.4093  0.3391
 9083SOL     OW38881   2.999   1.449  10.010 -0.4182  0.0232  0.1015
 9083SOL    HW138882   3.067   1.382  10.009 -1.0060 -0.5836  0.5222
 9083SOL    HW238883   3.035   1.517   9.953  1.3946  0.8651  2.2429
 9084SOL     OW38884   3.806   2.058  10.057  0.6951 -0.2028  0.4178
 9084SOL    HW138885   3.754   2.060  10.137 -0.6881  0.1324 -0.4927
 9084SOL    HW238886   3.897   2.046  10.084  1.6014 -0.6444 -2.7936
 9085SOL     OW38887   4.340   0.640   3.825 -0.2689 -0.1128  0.5538
 9085SOL    HW138888   4.279   0.615   3.894 -0.1640  2.2777  1.5123
 9085SOL    HW238889   4.306   0.607   3.743  1.7098  1.3392 -0.8547
 9086SOL     OW38890   1.138   2.037  11.088 -0.0535 -0.3145 -0.0802
 9086SOL    HW138891   1.161   1.978  11.159  1.4550 -1.0972 -1.2001
 9086SOL    HW238892   1.147   2.124  11.127  0.8235 -1.3253  1.9183
 9087SOL     OW38893   3.919   0.814   5.834 -0.0004  0.1203 -0.0174
 9087SOL    HW138894   3.892   0.775   5.917 -1.0743  1.7398  0.3818
 9087SOL    HW238895   3.831   0.841   5.807  0.3891 -2.1153 -3.4270
 9088SOL     OW38896   4.393   1.671  12.310 -0.2945 -0.4837 -0.5771
 9088SOL    HW138897   4.394   1.616  12.231  0.9171  0.2569 -1.0774
 9088SOL    HW238898   4.370   1.617  12.385  1.5656  0.9313  0.9944
 9089SOL     OW38899   1.581   0.663  10.905  0.5594 -0.1009 -0.9081
 9089SOL    HW138900   1.582   0.610  10.984 -0.4149  0.6892 -0.3639
 9089SOL    HW238901   1.549   0.611  10.831 -1.0035 -1.5897  0.8296
 9090SOL     OW38902   1.801   1.969   1.506 -0.3131  0.1343  0.3321
 9090SOL    HW138903   1.711   1.985   1.475 -0.7276  0.1083  1.5316
 9090SOL    HW238904   1.787   1.905   1.576 -1.6855  0.4360  0.3450
 9091SOL     OW38905   0.583   2.973   8.929 -0.1373  0.1313 -0.2590
 9091SOL    HW138906   0.550   2.908   8.868  3.5908 -2.0198  0.0468
 9091SOL    HW238907   0.530   2.950   9.006 -1.1127 -0.6157 -1.1531
 9092SOL     OW38908   1.066   0.181   8.988 -0.2372 -0.5145 -0.3961
 9092SOL    HW138909   1.152   0.189   9.028 -0.5153 -1.5888  0.4014
 9092SOL    HW238910   1.053   0.089   9.010 -0.2866 -0.4878 -0.3135
 9093SOL     OW38911   2.822   0.691   4.945 -0.5591  0.4205 -0.1675
 9093SOL    HW138912   2.878   0.684   4.868  0.7152 -0.5335  0.8336
 9093SOL    HW238913   2.878   0.738   5.007 -0.9833  0.6051  0.0749
 9094SOL     OW38914   3.623   1.429  16.765  0.0926 -0.5447 -0.9619
 9094SOL    HW138915   3.666   1.415  16.680  2.2309 -0.0243  0.0431
 9094SOL    HW238916   3.680   1.380  16.823 -2.0512 -0.2167  1.4184
 9095SOL     OW38917   0.240   4.681   9.131 -0.2297 -0.6238  0.4122
 9095SOL    HW138918   0.265   4.663   9.041 -2.0812  1.3216 -0.5030
 9095SOL    HW238919   0.225   0.037   9.128 -1.1107 -0.7143  1.6043
 9096SOL     OW38920   0.634   4.443   5.337 -0.1385 -0.0010  0.5916
 9096SOL    HW138921   0.568   4.378   5.315 -1.8988  2.0329 -0.2558
 9096SOL    HW238922   0.584   4.488   5.405 -0.9179  1.2051 -0.7842
 9097SOL     OW38923   2.280   4.144  14.045 -0.4168  0.3324  0.2996
 9097SOL    HW138924   2.232   4.223  14.071  1.5620  1.4715  0.4968
 9097SOL    HW238925   2.281   4.154  13.950 -2.4968 -0.4125  0.2100
 9098SOL     OW38926   3.046   4.658   0.834 -0.2082  0.1673  0.2835
 9098SOL    HW138927   3.083   4.691   0.752 -0.1567  0.3577  0.3825
 9098SOL    HW238928   3.061   4.565   0.814 -0.8853  0.0540  0.3242
 9099SOL     OW38929   2.741   3.204   6.087 -0.5268 -0.4480  0.1182
 9099SOL    HW138930   2.746   3.116   6.122  2.0171  0.2264  1.4887
 9099SOL    HW238931   2.753   3.187   5.994  0.2316 -1.2705  0.3682
 9100SOL     OW38932   0.627   3.050   9.281 -0.1589  0.0741 -0.1079
 9100SOL    HW138933   0.684   2.976   9.298 -1.3187 -1.4485 -2.8315
 9100SOL    HW238934   0.687   3.110   9.236 -1.0692  0.2966 -1.0465
 9101SOL     OW38935   0.143   4.321   7.204  0.0659  0.3287 -0.5933
 9101SOL    HW138936   0.219   4.264   7.217  0.4925  0.8139 -0.9720
 9101SOL    HW238937   0.184   4.405   7.181  0.0507  0.9760  1.8224
 9102SOL     OW38938   2.181   2.195   6.320  0.0441 -0.1217 -0.1953
 9102SOL    HW138939   2.196   2.102   6.301 -0.8048 -0.2689 -0.1370
 9102SOL    HW238940   2.096   2.203   6.278 -0.3832 -1.2312  0.4794
 9103SOL     OW38941   0.574   2.042   7.317 -0.2641  0.8645  0.0769
 9103SOL    HW138942   0.562   1.966   7.260 -0.7917  2.4498 -1.9071
 9103SOL    HW238943   0.488   2.047   7.357 -0.3157  1.8944 -0.1786
 9104SOL     OW38944   1.502   4.064   4.596 -0.0482 -0.2619 -0.3560
 9104SOL    HW138945   1.514   4.151   4.559  1.3107  0.0857  0.9247
 9104SOL    HW238946   1.592   4.060   4.628  0.2381  1.2108 -0.9787
 9105SOL     OW38947   4.295   2.837   8.852 -0.0402  0.0149 -0.0608
 9105SOL    HW138948   4.336   2.877   8.929 -1.4552 -0.0801  0.7491
 9105SOL    HW238949   4.367   2.843   8.790  0.7401  0.0010  0.8420
 9106SOL     OW38950   4.034   0.618   3.051  0.4018 -0.5981  0.2686
 9106SOL    HW138951   3.983   0.699   3.057  1.0359 -0.2427  0.7951
 9106SOL    HW238952   3.982   0.564   3.109 -0.8219  1.7845  1.3842
 9107SOL     OW38953   1.642   2.002   7.281 -0.1109  0.0372  0.4052
 9107SOL    HW138954   1.729   2.021   7.315 -0.6172 -0.2947  1.9148
 9107SOL    HW238955   1.593   1.985   7.362  1.5953  1.4169  1.7323
 9108SOL     OW38956   3.639   2.527  13.024 -0.5149 -0.2979  0.5191
 9108SOL    HW138957   3.545   2.509  13.022 -0.4730 -0.4813  0.0216
 9108SOL    HW238958   3.647   2.551  13.116 -0.8705 -0.1985  0.5255
 9109SOL     OW38959   1.602   3.776   0.451 -0.1592  0.5626  0.4568
 9109SOL    HW138960   1.689   3.753   0.482  0.8813  0.8354 -2.2615
 9109SOL    HW238961   1.620   3.788   0.358  0.1210 -0.6107  0.3677
 9110SOL     OW38962   0.931   3.121  12.000  0.0666 -0.8215  0.6624
 9110SOL    HW138963   0.897   3.033  12.016 -1.7584 -0.2297  0.0078
 9110SOL    HW238964   0.875   3.144  11.925  2.3798  0.5908 -0.6360
 9111SOL     OW38965   1.506   2.679  11.936 -0.1328 -0.6243 -0.2176
 9111SOL    HW138966   1.441   2.642  11.876 -0.9338  2.2495 -1.1201
 9111SOL    HW238967   1.478   2.771  11.940 -1.3531 -1.0495  1.0091
 9112SOL     OW38968   0.076   1.409   4.157  0.0997 -0.3190 -0.6110
 9112SOL    HW138969   0.089   1.327   4.203 -2.9625  0.1806  1.1611
 9112SOL    HW238970   4.725   1.429   4.185  0.5645 -0.7035  1.1551
 9113SOL     OW38971   0.867   3.002   8.905  0.5160  0.0615 -0.3125
 9113SOL    HW138972   0.903   3.037   8.824 -0.0160  2.5397  0.4990
 9113SOL    HW238973   0.775   2.980   8.886  0.7075 -1.0085 -0.0183
 9114SOL     OW38974   2.681   4.728   5.289 -0.1205 -0.0112  0.7014
 9114SOL    HW138975   2.732   4.706   5.366  1.7361  0.4547 -0.3817
 9114SOL    HW238976   2.717   4.666   5.226 -1.4470  2.1205 -2.1993
 9115SOL     OW38977   1.848   4.448   3.540  0.4437  0.5302  0.3072
 9115SOL    HW138978   1.943   4.438   3.539  0.4995  1.1381 -0.1913
 9115SOL    HW238979   1.818   4.373   3.489  0.7274  1.7606 -1.6462
 9116SOL     OW38980   2.733   1.780   1.375  0.0827 -0.0289 -0.0411
 9116SOL    HW138981   2.638   1.788   1.377  0.2507  1.7219  1.2287
 9116SOL    HW238982   2.763   1.870   1.367  1.1353 -0.2434  1.5189
 9117SOL     OW38983   2.930   0.883   2.545 -0.0677 -0.2523 -0.2562
 9117SOL    HW138984   2.899   0.971   2.567  0.7565  0.1329 -0.6307
 9117SOL    HW238985   2.846   0.839   2.550 -0.1388 -0.1222 -0.3045
 9118SOL     OW38986   0.315   2.640  17.017  0.1683  0.7533  0.8013
 9118SOL    HW138987   0.262   2.719  17.019 -1.4280 -0.2474 -0.9730
 9118SOL    HW238988   0.391   2.674  16.970 -1.7993  1.4091 -1.9358
 9119SOL     OW38989   1.865   3.056   2.484 -0.2744 -0.0198 -0.3355
 9119SOL    HW138990   1.782   3.103   2.483 -0.1017  0.2877 -0.1800
 9119SOL    HW238991   1.919   3.106   2.545 -0.4456  1.7953 -1.6669
 9120SOL     OW38992   4.578   0.324   6.525 -0.6811  0.1954 -0.1999
 9120SOL    HW138993   4.578   0.236   6.488  2.3352  0.8983 -1.8897
 9120SOL    HW238994   4.492   0.324   6.567 -1.3380  0.5350 -1.5553
 9121SOL     OW38995   4.285   4.083   4.191  0.2408  0.4154 -0.0058
 9121SOL    HW138996   4.203   4.063   4.237  2.2013 -0.9276  2.8926
 9121SOL    HW238997   4.280   4.179   4.193 -1.2078  0.3567 -0.4812
 9122SOL     OW38998   1.921   3.137   4.749  0.8168 -0.4271 -0.2680
 9122SOL    HW138999   1.927   3.222   4.703 -0.0889 -1.8348 -3.0174
 9122SOL    HW239000   1.839   3.139   4.797  0.8787 -1.6599 -0.1271
 9123SOL     OW39001   0.017   1.431  13.127 -0.1903 -0.4955  0.4313
 9123SOL    HW139002   0.102   1.406  13.164  0.6636  0.9026 -0.5744
 9123SOL    HW239003   0.015   1.395  13.038  0.9193  2.0327 -0.6449
 9124SOL     OW39004   1.983   0.968  17.363 -0.6152 -0.0872  0.7822
 9124SOL    HW139005   1.939   0.982  17.279  1.9279  2.0770 -0.2049
 9124SOL    HW239006   1.981   0.873  17.374 -1.1450 -0.4395 -2.2479
 9125SOL     OW39007   0.870   0.172   4.867  0.1230 -0.2311 -0.3091
 9125SOL    HW139008   0.918   0.213   4.795  0.4600  0.4465  0.2890
 9125SOL    HW239009   0.916   0.090   4.885  1.1637 -0.0772 -2.2569
 9126SOL     OW39010   4.469   1.115   7.450 -0.5699 -0.2276  0.4844
 9126SOL    HW139011   4.488   1.047   7.515  1.1853  2.2229  2.5290
 9126SOL    HW239012   4.375   1.096   7.448 -0.7719  0.8085  0.0884
 9127SOL     OW39013   1.047   1.969   8.194 -0.2720  0.0832  0.0146
 9127SOL    HW139014   1.043   1.878   8.223  1.1730  0.0069 -0.0293
 9127SOL    HW239015   0.957   1.997   8.181  0.6736  2.7355 -0.9218
 9128SOL     OW39016   2.444   0.794   7.432  0.2653  0.3881  0.8005
 9128SOL    HW139017   2.413   0.703   7.436 -0.9950  0.8325  1.2183
 9128SOL    HW239018   2.364   0.837   7.402  0.3523 -1.5411 -2.2319
 9129SOL     OW39019   2.692   0.054   7.946  0.1598 -0.8726  0.2344
 9129SOL    HW139020   2.638   0.095   7.878  0.2522  0.5626  1.0245
 9129SOL    HW239021   2.630   0.009   8.004 -2.9163  2.4388 -0.4949
 9130SOL     OW39022   3.984   1.390   1.554 -0.4411  0.2350 -0.2809
 9130SOL    HW139023   3.892   1.372   1.572 -0.1365 -1.1618 -0.1596
 9130SOL    HW239024   3.991   1.475   1.597 -2.3614 -0.5018  1.4886
 9131SOL     OW39025   3.031   0.489   7.727  0.0307 -0.3218 -0.0734
 9131SOL    HW139026   3.047   0.418   7.789 -0.3625  0.6861  1.1773
 9131SOL    HW239027   3.007   0.441   7.648  1.0141 -2.6188  1.0163
 9132SOL     OW39028   0.576   4.367   4.989  0.2948  0.0271 -0.3207
 9132SOL    HW139029   0.486   4.389   5.011  0.4708 -1.2917  1.6727
 9132SOL    HW239030   0.620   4.344   5.071  0.2334 -1.6432 -0.7710
 9133SOL     OW39031   3.308   2.421  14.494 -0.1406  0.4326 -0.1513
 9133SOL    HW139032   3.394   2.449  14.527 -0.4142  1.9275 -0.7116
 9133SOL    HW239033   3.254   2.480  14.548  2.0495  0.6787  1.7776
 9134SOL     OW39034   1.117   4.405   7.809  0.4060  0.2397 -0.3093
 9134SOL    HW139035   1.028   4.398   7.775  0.6395 -0.1272 -0.8387
 9134SOL    HW239036   1.103   4.471   7.878 -1.5173 -1.3714  0.8201
 9135SOL     OW39037   2.374   4.676   6.471 -0.2686 -0.1772 -0.1846
 9135SOL    HW139038   2.431   4.631   6.409 -0.4159 -0.9900  0.2707
 9135SOL    HW239039   2.324   4.729   6.409  0.0933 -0.0578 -0.3758
 9136SOL     OW39040   0.509   2.246   3.565  0.3228  0.1981 -0.1245
 9136SOL    HW139041   0.553   2.330   3.556  0.3866  0.3922  1.9095
 9136SOL    HW239042   0.530   2.207   3.650 -1.3806  0.6138  0.4815
 9137SOL     OW39043   3.951   2.939   5.914  0.3912  0.9412  0.4273
 9137SOL    HW139044   3.876   2.905   5.865  0.0386 -0.1539  1.7110
 9137SOL    HW239045   3.993   2.982   5.840 -0.3907  0.5813 -0.2216
 9138SOL     OW39046   1.913   3.531   4.900  0.5207  0.1754  0.4178
 9138SOL    HW139047   1.952   3.467   4.960 -0.4258 -2.9070 -2.2619
 9138SOL    HW239048   1.906   3.487   4.815 -0.0166  0.7244  0.1772
 9139SOL     OW39049   0.540   4.213   6.040 -0.0385 -0.2942 -0.6484
 9139SOL    HW139050   0.479   4.280   6.071 -1.1810 -1.3640 -0.6015
 9139SOL    HW239051   0.603   4.213   6.113  0.6482  0.9619 -1.2267
 9140SOL     OW39052   0.817   1.545  14.991  0.2945  0.3953  0.6045
 9140SOL    HW139053   0.896   1.596  15.008  0.2912  1.1388 -1.6916
 9140SOL    HW239054   0.752   1.614  15.007 -0.4033 -0.3886  1.2155
 9141SOL     OW39055   3.464   3.226   3.820  0.2657 -0.4270  0.1860
 9141SOL    HW139056   3.421   3.256   3.740 -1.8112 -0.6497  1.2250
 9141SOL    HW239057   3.477   3.316   3.849 -0.7224  0.4425 -2.0332
 9142SOL     OW39058   4.633   2.665   5.819  0.2142  0.0252 -0.3612
 9142SOL    HW139059   4.680   2.727   5.874 -1.2230  0.1366  0.7555
 9142SOL    HW239060   4.697   2.658   5.748 -0.8178  2.0505 -1.4824
 9143SOL     OW39061   1.887   0.249   9.650 -0.0644 -0.0252  0.3415
 9143SOL    HW139062   1.919   0.336   9.672  1.8969 -0.8851  0.8870
 9143SOL    HW239063   1.968   0.199   9.659  0.4429  0.3087 -2.3058
 9144SOL     OW39064   2.459   1.356   2.272 -0.6846  0.6380 -0.0960
 9144SOL    HW139065   2.475   1.406   2.192 -0.6245 -0.6142 -0.8606
 9144SOL    HW239066   2.521   1.285   2.260 -1.3931  0.0503 -0.2668
 9145SOL     OW39067   4.372   4.283   6.560  0.1640  0.0785  0.1730
 9145SOL    HW139068   4.415   4.346   6.618 -2.6789  1.6250  0.6146
 9145SOL    HW239069   4.311   4.344   6.517 -0.0384 -0.1625  0.1221
 9146SOL     OW39070   2.580   0.063   2.805  0.1480  0.4456 -0.4600
 9146SOL    HW139071   2.659   0.110   2.832  1.0179 -2.1202  1.4376
 9146SOL    HW239072   2.514   0.082   2.871  0.1275  1.8090 -0.8614
 9147SOL     OW39073   4.114   3.842   8.471 -0.4344  0.0213  0.0883
 9147SOL    HW139074   4.058   3.823   8.547 -0.2830  0.9781  0.4299
 9147SOL    HW239075   4.065   3.816   8.393 -0.1590 -2.1221  0.6211
 9148SOL     OW39076   3.762   1.494   6.756 -0.0086 -0.2169 -0.4285
 9148SOL    HW139077   3.787   1.526   6.669 -1.8717  0.1926 -0.8167
 9148SOL    HW239078   3.790   1.402   6.753 -2.8711 -1.0762 -0.7632
 9149SOL     OW39079   3.138   1.972   8.262 -0.4006 -0.2196 -0.0060
 9149SOL    HW139080   3.231   1.962   8.281 -0.3256 -2.4598 -1.6011
 9149SOL    HW239081   3.120   1.894   8.210 -1.6246  0.7838 -1.1033
 9150SOL     OW39082   4.728   2.646   7.712  0.3545 -0.0129 -0.0778
 9150SOL    HW139083   4.639   2.615   7.729  1.2268 -2.7819 -0.4748
 9150SOL    HW239084   0.041   2.566   7.700  0.2021 -0.1056 -0.1218
 9151SOL     OW39085   2.131   2.728   1.849 -0.6707  0.3573  1.1135
 9151SOL    HW139086   2.048   2.685   1.825 -1.4500  2.4011  0.1205
 9151SOL    HW239087   2.165   2.676   1.921  1.8138  0.1846 -0.1904
 9152SOL     OW39088   2.929   3.603   9.525 -0.2996  0.4501 -0.4956
 9152SOL    HW139089   3.020   3.576   9.519  0.0524  0.6951  3.4144
 9152SOL    HW239090   2.927   3.602   9.621 -2.9067  1.8467 -0.5179
 9153SOL     OW39091   2.302   1.995  14.895  0.5814  0.1252  0.2315
 9153SOL    HW139092   2.338   1.915  14.935 -3.2873 -2.0622 -0.6589
 9153SOL    HW239093   2.337   1.988  14.806 -1.1265  0.2060 -0.4367
 9154SOL     OW39094   2.958   2.538   6.003 -0.1416  0.3674 -0.3512
 9154SOL    HW139095   2.943   2.471   6.070  2.2411 -0.5555 -0.7548
 9154SOL    HW239096   3.036   2.502   5.962 -0.3997  0.9429 -1.3301
 9155SOL     OW39097   0.400   3.711  16.798  0.0930 -0.1223  0.2335
 9155SOL    HW139098   0.357   3.795  16.812 -0.9263 -0.5244 -0.5417
 9155SOL    HW239099   0.358   3.655  16.863 -2.0895  2.1397  0.7525
 9156SOL     OW39100   1.189   0.688   8.929 -0.0889 -0.0577 -0.2515
 9156SOL    HW139101   1.249   0.702   8.856  1.1378 -1.5521  0.4693
 9156SOL    HW239102   1.119   0.753   8.918  0.0641 -0.3866 -3.1395
 9157SOL     OW39103   2.326   2.030   5.706  0.0025  0.3890 -0.1408
 9157SOL    HW139104   2.353   1.981   5.783 -1.7993  1.1998  0.9991
 9157SOL    HW239105   2.349   2.117   5.740  0.2629  0.3878 -0.3156
 9158SOL     OW39106   3.646   0.988   5.551 -0.4905  0.1066  0.1654
 9158SOL    HW139107   3.671   0.967   5.641 -0.9590 -0.4843  0.1607
 9158SOL    HW239108   3.731   1.018   5.520 -0.6919 -0.0213 -0.4984
 9159SOL     OW39109   0.018   1.675   0.185 -0.3167  0.3887 -0.5389
 9159SOL    HW139110   0.050   1.585   0.190 -0.7887  0.4143  3.2847
 9159SOL    HW239111   0.084   1.716   0.129  0.6960 -1.7976 -0.9352
 9160SOL     OW39112   0.374   3.015  17.697 -0.1479 -0.5151  0.4795
 9160SOL    HW139113   0.464   2.982  17.697 -0.6358 -1.9063 -2.3476
 9160SOL    HW239114   0.363   3.026   0.040  0.2894 -1.9302  0.7096
 9161SOL     OW39115   2.097   0.747  16.702 -0.1962  0.6192  0.4622
 9161SOL    HW139116   2.030   0.704  16.647  1.7766 -1.6750 -0.1508
 9161SOL    HW239117   2.106   0.825  16.647  0.9468  0.3582  0.2765
 9162SOL     OW39118   4.697   4.066   8.707  0.1106 -0.4375 -0.0506
 9162SOL    HW139119   4.657   4.067   8.620 -2.4343 -1.4634  1.1134
 9162SOL    HW239120   4.652   4.132   8.760 -0.3017  0.2504 -1.2515
 9163SOL     OW39121   2.618   0.573   4.278 -0.4309  0.2506 -0.6181
 9163SOL    HW139122   2.540   0.534   4.317  1.2862 -0.9071  1.6431
 9163SOL    HW239123   2.583   0.616   4.200 -2.1473 -1.0691 -0.5821
 9164SOL     OW39124   1.952   3.181   3.636 -0.4320 -0.3663 -0.2707
 9164SOL    HW139125   1.982   3.150   3.721  2.4281 -1.2383 -1.5783
 9164SOL    HW239126   1.875   3.237   3.645 -0.1430  0.0755 -0.5125
 9165SOL     OW39127   1.669   4.265   4.916 -0.0503 -0.1215  0.0716
 9165SOL    HW139128   1.624   4.343   4.950  2.1885  2.1914 -2.2503
 9165SOL    HW239129   1.723   4.249   4.993  0.9533 -0.9767 -0.8093
 9166SOL     OW39130   2.393   4.408  11.892 -0.0695 -0.0159 -0.1971
 9166SOL    HW139131   2.483   4.426  11.921  0.3226  1.7814 -2.5012
 9166SOL    HW239132   2.398   4.408  11.796 -0.8386 -0.5523 -0.2424
 9167SOL     OW39133   0.699   1.482  14.569  0.1372 -1.1913  0.3870
 9167SOL    HW139134   0.779   1.482  14.517 -0.5948  1.4156 -0.7564
 9167SOL    HW239135   0.646   1.449  14.496 -0.6212 -0.9029  0.8017
 9168SOL     OW39136   4.282   2.851   6.699 -0.5258  0.3051  0.1260
 9168SOL    HW139137   4.328   2.787   6.754 -1.5708 -0.6062 -0.0534
 9168SOL    HW239138   4.260   2.917   6.765  1.1036  0.3798  0.6132
 9169SOL     OW39139   3.343   3.079   4.079  0.4678  0.6536  0.1069
 9169SOL    HW139140   3.392   3.096   3.999 -0.3224 -1.2060 -0.7733
 9169SOL    HW239141   3.396   3.117   4.148 -1.3557  1.0414  1.2934
 9170SOL     OW39142   2.441   2.132   1.813  0.1402 -0.2481 -0.3222
 9170SOL    HW139143   2.447   2.042   1.781  1.9526  0.2517 -1.4278
 9170SOL    HW239144   2.392   2.177   1.744 -0.9645 -0.2202  0.4906
 9171SOL     OW39145   0.151   2.919   3.276 -0.2764 -0.3498  0.2596
 9171SOL    HW139146   0.200   2.999   3.296 -0.4057 -0.2630  0.2275
 9171SOL    HW239147   0.076   2.944   3.222  1.8929  0.1437 -2.4950
 9172SOL     OW39148   4.381   4.666   4.502 -0.3926 -0.2026  0.1266
 9172SOL    HW139149   4.440   4.737   4.528 -1.0322  0.0187  0.9889
 9172SOL    HW239150   4.301   4.712   4.478 -1.6197 -0.7743  3.0331
 9173SOL     OW39151   1.948   0.417   9.362  0.0578 -0.1801 -0.2923
 9173SOL    HW139152   2.039   0.388   9.354 -0.0202 -0.5228  0.0437
 9173SOL    HW239153   1.904   0.381   9.285 -0.7229  0.0345  0.0553
 9174SOL     OW39154   1.742   3.335  14.751  0.1262 -0.1320  0.3298
 9174SOL    HW139155   1.666   3.355  14.806 -0.2356  1.1796 -0.6656
 9174SOL    HW239156   1.799   3.300  14.820  0.0185  1.7581  1.3600
 9175SOL     OW39157   0.509   3.010   5.084  0.0548 -0.5406 -0.2235
 9175SOL    HW139158   0.501   2.943   5.016 -1.1329 -0.4155 -0.2139
 9175SOL    HW239159   0.443   2.979   5.146  0.1112 -1.1075 -0.4475
 9176SOL     OW39160   0.282   0.269   3.621 -0.2888  0.0470 -0.8859
 9176SOL    HW139161   0.350   0.271   3.688  2.0761  1.0933 -3.3307
 9176SOL    HW239162   0.237   0.352   3.629  0.0236  0.1090  0.1744
 9177SOL     OW39163   2.377   4.127  11.118 -0.2848 -0.0606  0.0686
 9177SOL    HW139164   2.309   4.061  11.103  0.9603 -1.2510 -0.3444
 9177SOL    HW239165   2.409   4.106  11.206 -0.1148  0.2949  0.0910
 9178SOL     OW39166   2.648   0.819   2.528  0.0479  0.2224 -0.3088
 9178SOL    HW139167   2.638   0.846   2.437 -1.9796  0.0300 -0.1479
 9178SOL    HW239168   2.556   0.806   2.551 -0.1036  2.2432  0.1900
 9179SOL     OW39169   2.186   1.770  15.174 -0.2003 -0.5395 -0.1601
 9179SOL    HW139170   2.251   1.811  15.231 -1.3001  2.0825 -0.7758
 9179SOL    HW239171   2.131   1.836  15.130  0.5293 -0.2083 -0.5704
 9180SOL     OW39172   0.097   0.327   8.937 -0.1516 -0.2586 -0.1627
 9180SOL    HW139173   0.083   0.291   8.850  0.6102 -0.8130 -0.0536
 9180SOL    HW239174   0.157   0.259   8.967  0.4725  0.3059 -0.1182
 9181SOL     OW39175   4.613   4.334   4.315 -0.0292 -0.5409  0.6908
 9181SOL    HW139176   4.599   4.239   4.318  1.5703 -0.8488 -1.3246
 9181SOL    HW239177   4.595   4.356   4.407 -2.0481  0.2011  0.0998
 9182SOL     OW39178   0.458   4.432   1.643 -0.6558 -0.1657  0.0404
 9182SOL    HW139179   0.432   4.416   1.552  0.3875 -1.0225 -0.1017
 9182SOL    HW239180   0.452   4.527   1.651  0.6577 -0.2715  2.1344
 9183SOL     OW39181   1.045   1.425  10.746 -0.2692 -0.0632 -0.2346
 9183SOL    HW139182   1.010   1.500  10.793 -0.9239 -0.6419  0.2033
 9183SOL    HW239183   1.070   1.361  10.812  0.9932  2.2466  1.5000
 9184SOL     OW39184   4.673   0.647   4.781  0.2052 -0.2062 -0.2616
 9184SOL    HW139185   0.001   0.716   4.789 -0.0414  0.0304 -0.2429
 9184SOL    HW239186   4.729   0.576   4.750  1.2238  0.2878  0.4748
 9185SOL     OW39187   2.582   1.856  16.779  0.1091  0.3022  0.7135
 9185SOL    HW139188   2.505   1.850  16.836 -0.2472 -1.3678  0.0410
 9185SOL    HW239189   2.592   1.952  16.777 -1.8462  0.4765 -1.2032
 9186SOL     OW39190   3.245   1.319   9.266 -0.4491 -0.1029 -0.6389
 9186SOL    HW139191   3.203   1.298   9.349 -1.4983 -1.5388 -1.5245
 9186SOL    HW239192   3.239   1.234   9.222 -0.4441  1.7784 -4.2436
 9187SOL     OW39193   3.985   0.274   1.762 -0.2986 -0.2170 -0.3833
 9187SOL    HW139194   4.016   0.352   1.808  0.1428 -0.3913 -0.3815
 9187SOL    HW239195   4.056   0.213   1.781  0.8112  1.5990  1.3375
 9188SOL     OW39196   0.051   3.108   4.112 -0.1841  0.0270  0.2124
 9188SOL    HW139197   0.036   3.024   4.157 -1.6710  0.9424  1.4162
 9188SOL    HW239198   4.710   3.118   4.060  0.1966 -0.4091 -0.4551
 9189SOL     OW39199   4.083   3.518  11.001  0.9192 -0.0384 -0.2719
 9189SOL    HW139200   4.032   3.509  11.081 -0.7415  1.4635 -1.1663
 9189SOL    HW239201   4.170   3.533  11.039 -0.1541  1.2232  1.7199
 9190SOL     OW39202   3.580   3.309   0.234  0.1155 -0.0777 -0.3546
 9190SOL    HW139203   3.675   3.304   0.235  0.1516  0.4831 -0.8710
 9190SOL    HW239204   3.550   3.270   0.152 -0.0935  1.5900 -1.0778
 9191SOL     OW39205   0.791   2.027   7.040  0.2493 -0.9781 -0.8100
 9191SOL    HW139206   0.737   1.963   7.086 -1.9653  2.1769  1.0095
 9191SOL    HW239207   0.728   2.099   7.029  0.2043 -0.8147  0.6144
 9192SOL     OW39208   3.590   1.554   7.077 -0.2915 -0.1476  0.0530
 9192SOL    HW139209   3.549   1.588   7.156  0.1258 -0.9335  0.6057
 9192SOL    HW239210   3.680   1.567   7.107 -0.5042  0.7903  0.2990
 9193SOL     OW39211   3.831   0.464   3.161 -0.0379 -0.8235 -0.0474
 9193SOL    HW139212   3.818   0.528   3.230  1.5534 -0.0122 -0.5014
 9193SOL    HW239213   3.747   0.418   3.156  0.0002 -0.7745 -1.2317
 9194SOL     OW39214   3.678   0.635   7.494  0.1273  0.2108  0.3331
 9194SOL    HW139215   3.584   0.650   7.485 -0.1203 -0.7368  1.2988
 9194SOL    HW239216   3.717   0.722   7.490 -0.1430  0.3076 -0.1197
 9195SOL     OW39217   3.847   1.762   2.528 -0.1125  0.3467  0.2349
 9195SOL    HW139218   3.786   1.715   2.586  0.0692  0.7816  0.7777
 9195SOL    HW239219   3.854   1.705   2.451  1.0220  1.0642 -0.1832
 9196SOL     OW39220   2.733   4.218   0.893 -0.3987 -0.0674 -0.3599
 9196SOL    HW139221   2.733   4.293   0.834  0.9678 -0.9148 -1.4617
 9196SOL    HW239222   2.728   4.154   0.822 -0.3029 -0.8859  0.3699
 9197SOL     OW39223   1.795   1.107  11.359  0.3149  0.2855 -0.1130
 9197SOL    HW139224   1.837   1.160  11.291  0.1866 -0.2104 -0.5792
 9197SOL    HW239225   1.851   1.030  11.363  1.6373  1.3995  2.6441
 9198SOL     OW39226   0.783   0.518  17.055 -0.8081 -0.4783  0.1878
 9198SOL    HW139227   0.727   0.510  16.977 -0.8894 -0.9875  0.2983
 9198SOL    HW239228   0.823   0.432  17.044  2.1795  1.1146 -1.4003
 9199SOL     OW39229   2.850   1.183   8.616 -0.1916 -0.2315 -0.5737
 9199SOL    HW139230   2.806   1.237   8.681  1.7541  2.6103 -1.5942
 9199SOL    HW239231   2.847   1.249   8.546  0.6999 -1.3806 -1.6977
 9200SOL     OW39232   2.935   3.101   9.714  0.3854 -0.2760  0.3917
 9200SOL    HW139233   2.994   3.136   9.781 -0.8113 -2.2625  2.4574
 9200SOL    HW239234   2.963   3.163   9.646 -0.2324 -0.8749 -0.3933
 9201SOL     OW39235   3.723   1.995   4.588  0.1295 -0.2082  0.0677
 9201SOL    HW139236   3.685   1.987   4.675 -0.4484  1.6524 -0.0219
 9201SOL    HW239237   3.646   2.030   4.544  0.6547  0.2872 -0.4581
 9202SOL     OW39238   4.597   1.688   4.226  0.6016  0.0753 -0.2220
 9202SOL    HW139239   4.596   1.604   4.272  0.3436  0.3079  0.2017
 9202SOL    HW239240   4.690   1.711   4.232  0.4268  1.0382 -1.2944
 9203SOL     OW39241   3.908   4.631   6.745  0.5015 -0.4576 -0.0733
 9203SOL    HW139242   3.949   4.560   6.795  0.7867 -0.2711 -0.0491
 9203SOL    HW239243   3.921   4.703   6.806  1.1651 -0.4540 -0.2218
 9204SOL     OW39244   0.119   4.323   5.941 -0.4209  0.1859  0.0586
 9204SOL    HW139245   0.188   4.334   6.007  0.3292  1.2560 -0.9064
 9204SOL    HW239246   0.045   4.282   5.987 -0.8041  0.5964 -0.1883
 9205SOL     OW39247   4.388   4.730  16.882  0.3384  0.2367 -0.3217
 9205SOL    HW139248   4.313   4.671  16.872 -1.3719  2.0452  1.8361
 9205SOL    HW239249   4.376   0.037  16.799 -1.7693 -0.5285 -0.4438
 9206SOL     OW39250   4.589   3.559   6.776 -0.5100  0.2363 -0.2876
 9206SOL    HW139251   4.678   3.569   6.808  0.3107 -2.7642 -1.6155
 9206SOL    HW239252   4.567   3.650   6.757  0.4662  0.6587  0.6231
 9207SOL     OW39253   1.158   2.601   6.027 -0.5219  0.0138 -0.8271
 9207SOL    HW139254   1.220   2.653   5.975  1.2907  0.0598  1.3720
 9207SOL    HW239255   1.206   2.585   6.109 -0.0048 -1.8665 -1.4990
 9208SOL     OW39256   1.416   1.292   6.140 -0.2238  0.3416  0.3413
 9208SOL    HW139257   1.501   1.309   6.180  0.4858  0.5512 -1.2474
 9208SOL    HW239258   1.367   1.247   6.209 -2.2037  0.1048 -1.2452
 9209SOL     OW39259   3.268   0.158   3.631 -0.4033  0.6044 -0.1200
 9209SOL    HW139260   3.246   0.091   3.697  3.5608 -0.3201  0.2370
 9209SOL    HW239261   3.185   0.206   3.636  0.3735  1.7281  2.3126
 9210SOL     OW39262   1.839   2.975  11.712 -0.3459  0.1106  0.1078
 9210SOL    HW139263   1.884   3.024  11.642  0.1286 -0.6203 -0.1011
 9210SOL    HW239264   1.858   3.038  11.782 -0.8775  2.0760 -1.4950
 9211SOL     OW39265   0.833   2.158   6.422 -0.0594  0.3611 -0.1010
 9211SOL    HW139266   0.762   2.159   6.358  1.2987  1.1513 -1.5846
 9211SOL    HW239267   0.897   2.206   6.370 -1.1609 -0.2187 -1.9945
 9212SOL     OW39268   1.618   3.394   1.004 -0.1401  1.3747 -0.1521
 9212SOL    HW139269   1.613   3.413   1.098 -3.7795 -1.2557  0.1642
 9212SOL    HW239270   1.555   3.458   0.969 -0.0833  0.2879 -2.2176
 9213SOL     OW39271   3.574   1.854   5.866  0.2866  0.8246 -0.0274
 9213SOL    HW139272   3.491   1.887   5.902  0.7625  0.1650  1.6665
 9213SOL    HW239273   3.540   1.773   5.828  0.8758 -0.0946  1.3873
 9214SOL     OW39274   2.966   2.605   3.166 -0.0895 -0.0386 -0.0516
 9214SOL    HW139275   2.910   2.543   3.120 -1.7964  0.9117  0.7291
 9214SOL    HW239276   2.929   2.689   3.140 -1.5369 -0.5682  0.3395
 9215SOL     OW39277   0.014   3.106  14.390  0.3243  0.1878 -0.1445
 9215SOL    HW139278   4.736   3.014  14.372  1.5540  0.2322 -1.4511
 9215SOL    HW239279   0.021   3.151  14.306  1.3654 -0.5291 -0.4386
 9216SOL     OW39280   3.306   0.324   9.483  0.0969  0.4285 -0.3459
 9216SOL    HW139281   3.389   0.357   9.447  0.7760  1.6096  2.3221
 9216SOL    HW239282   3.289   0.250   9.425 -2.8874 -2.1012  3.8614
 9217SOL     OW39283   2.941   2.845   8.584 -0.6164  0.1396 -0.6834
 9217SOL    HW139284   2.937   2.777   8.517  2.5719  0.8476 -1.6015
 9217SOL    HW239285   2.856   2.829   8.625  0.6051 -0.2108  1.7075
 9218SOL     OW39286   4.472   2.194   2.048  0.0014 -0.3970  0.1949
 9218SOL    HW139287   4.523   2.255   2.102  0.6410  0.4160 -1.3046
 9218SOL    HW239288   4.386   2.189   2.089  0.2464 -0.4873  0.6910
 9219SOL     OW39289   2.375   2.709   3.493 -0.0028  0.3744 -0.7569
 9219SOL    HW139290   2.470   2.701   3.483  0.2756  1.1697  1.1328
 9219SOL    HW239291   2.332   2.643   3.440 -2.1098  1.2510 -0.1618
 9220SOL     OW39292   3.354   1.538   5.436 -0.3339  0.3707 -0.4135
 9220SOL    HW139293   3.339   1.507   5.346  1.0150  1.3733 -0.9997
 9220SOL    HW239294   3.419   1.469   5.448 -1.9711 -0.7577  1.8668
 9221SOL     OW39295   2.240   2.515   5.071  0.1566  0.3768  0.0919
 9221SOL    HW139296   2.300   2.551   5.005 -1.1825 -0.8708 -1.7997
 9221SOL    HW239297   2.278   2.570   5.140  0.5478  2.0698 -1.4497
 9222SOL     OW39298   1.682   3.130   0.565  0.3178  0.2212 -0.3052
 9222SOL    HW139299   1.626   3.185   0.510 -0.7428  0.5290  1.0986
 9222SOL    HW239300   1.721   3.193   0.625  2.3040 -2.5153  1.2420
 9223SOL     OW39301   1.357   1.977   1.628 -0.3684 -0.4637  0.0013
 9223SOL    HW139302   1.387   1.994   1.539 -0.2911  4.5158  0.9779
 9223SOL    HW239303   1.370   1.883   1.641 -1.8004 -0.6337  0.3117
 9224SOL     OW39304   0.861   2.283   9.034  0.3623 -0.1199 -0.7955
 9224SOL    HW139305   0.891   2.210   8.980  1.4968  0.2509 -0.6620
 9224SOL    HW239306   0.903   2.265   9.118 -0.0461  0.3268 -0.4886
 9225SOL     OW39307   3.639   2.170   6.247 -0.1040 -0.6013  0.5733
 9225SOL    HW139308   3.602   2.110   6.311  0.1517 -0.0235  1.2675
 9225SOL    HW239309   3.636   2.113   6.170  2.2862 -0.4881  0.4223
 9226SOL     OW39310   4.616   0.520   3.849  0.0157 -0.0246  0.6869
 9226SOL    HW139311   4.682   0.538   3.915 -1.7256  0.4328  2.2877
 9226SOL    HW239312   4.549   0.585   3.869  1.1005  0.5861  2.3413
 9227SOL     OW39313   3.608   1.997   0.258 -0.1032  0.2144  0.2200
 9227SOL    HW139314   3.694   2.037   0.249 -0.1004  0.1737  0.0573
 9227SOL    HW239315   3.613   1.962   0.347  1.5434 -2.5683 -1.0071
 9228SOL     OW39316   1.575   4.273   6.968 -0.3020  0.6379 -0.4400
 9228SOL    HW139317   1.507   4.296   6.905  0.6814 -2.8476 -2.8076
 9228SOL    HW239318   1.574   4.357   7.014  4.2731  0.1815  0.5433
 9229SOL     OW39319   4.696   0.484   2.722 -0.0579 -0.3638 -0.2778
 9229SOL    HW139320   4.658   0.402   2.752  1.3197 -0.5252  1.0482
 9229SOL    HW239321   4.671   0.504   2.632  0.0347 -1.7051 -0.5976
 9230SOL     OW39322   0.608   0.132   4.569  0.2518  0.1876  0.0043
 9230SOL    HW139323   0.600   0.224   4.543  1.0149  0.1519 -0.3744
 9230SOL    HW239324   0.703   0.125   4.584  0.0903 -1.6130  0.1584
 9231SOL     OW39325   4.695   4.510  11.831 -0.1269 -0.3584  0.4319
 9231SOL    HW139326   0.015   4.565  11.778  0.0514 -0.9874 -0.0272
 9231SOL    HW239327   0.008   4.497  11.911 -1.4366 -0.6206  1.2196
 9232SOL     OW39328   4.353   2.933  14.479  0.2544  0.4334  0.4593
 9232SOL    HW139329   4.260   2.913  14.464  0.6596 -0.3991 -0.8851
 9232SOL    HW239330   4.378   2.959  14.391  2.3117 -0.6413  0.7300
 9233SOL     OW39331   2.144   2.316   1.737  0.5608  0.0971  0.8281
 9233SOL    HW139332   2.162   2.374   1.663  2.6178 -0.1366  1.1444
 9233SOL    HW239333   2.093   2.242   1.703  0.1019  0.4592  0.7391
 9234SOL     OW39334   1.541   0.044   6.379 -0.0032 -0.9163  0.2526
 9234SOL    HW139335   1.537   0.075   6.469 -1.2386  0.1907 -0.1682
 9234SOL    HW239336   1.599   0.113   6.347 -0.8128  0.9269  2.7163
 9235SOL     OW39337   4.471   3.300   9.118 -0.3635 -0.1129 -0.2478
 9235SOL    HW139338   4.555   3.266   9.149  0.5773  0.7340 -1.8499
 9235SOL    HW239339   4.501   3.368   9.057 -1.4281 -0.9776 -1.7260
 9236SOL     OW39340   4.570   0.915   9.596 -0.0193  0.5943 -0.1936
 9236SOL    HW139341   4.598   0.984   9.655 -0.0924  1.3484 -1.0394
 9236SOL    HW239342   4.535   0.970   9.525  0.6019  1.2147 -0.0189
 9237SOL     OW39343   0.016   0.936   6.903 -0.9810 -0.3355 -0.0103
 9237SOL    HW139344   0.082   0.935   6.973  0.6562 -1.2378 -1.5737
 9237SOL    HW239345   4.682   0.982   6.946 -0.3606  2.5571 -2.0887
 9238SOL     OW39346   0.583   4.491   3.651 -0.4264 -0.4276 -0.0627
 9238SOL    HW139347   0.649   4.433   3.614 -0.4213 -1.1812  1.0900
 9238SOL    HW239348   0.588   4.560   3.585 -2.1111  0.7931  1.0743
 9239SOL     OW39349   3.984   0.094   6.052  0.4868  0.4644  0.1563
 9239SOL    HW139350   4.060   0.096   5.994  0.1690 -1.0337 -0.3230
 9239SOL    HW239351   3.962   0.001   6.049  0.0563  0.5719 -0.1095
 9240SOL     OW39352   1.955   3.259  10.380 -0.1722  0.4528 -0.0227
 9240SOL    HW139353   2.027   3.209  10.419 -0.2233  0.2203 -0.2308
 9240SOL    HW239354   1.997   3.289  10.299  0.2187 -0.6020 -0.2177
 9241SOL     OW39355   0.402   1.659   7.427 -0.0237  0.4186  0.1981
 9241SOL    HW139356   0.326   1.688   7.376  0.8525 -0.5973 -1.7091
 9241SOL    HW239357   0.418   1.738   7.478  1.8471 -0.3807  0.8313
 9242SOL     OW39358   0.201   3.304   8.959  0.3323  0.0326 -0.0468
 9242SOL    HW139359   0.260   3.340   9.026 -1.0720 -1.5333  2.0337
 9242SOL    HW239360   0.256   3.237   8.919 -1.2984 -0.4443 -1.4863
 9243SOL     OW39361   1.113   3.881  16.951  0.5742 -0.9453  0.3854
 9243SOL    HW139362   1.100   3.929  17.032 -0.8983  2.3614 -1.8041
 9243SOL    HW239363   1.061   3.927  16.885  0.2860  0.3782  1.5483
 9244SOL     OW39364   4.363   1.935   0.868 -0.3222 -0.3091 -0.1476
 9244SOL    HW139365   4.425   1.896   0.807 -0.9381 -1.5820  0.0264
 9244SOL    HW239366   4.412   1.950   0.949 -0.7003  2.0684 -0.3684
 9245SOL     OW39367   1.978   4.684   2.583 -0.3212 -0.3048 -0.5396
 9245SOL    HW139368   1.991   4.658   2.492 -3.0403 -1.7016 -0.5461
 9245SOL    HW239369   2.050   4.637   2.626  0.1145  0.7577 -0.1145
 9246SOL     OW39370   4.292   3.429   2.611 -0.1351 -0.9006  0.1656
 9246SOL    HW139371   4.235   3.358   2.583  1.5768 -1.8174 -1.0423
 9246SOL    HW239372   4.369   3.380   2.582  1.5810  2.3513 -0.8095
 9247SOL     OW39373   0.287   3.709  12.755  0.3835 -0.0983 -1.0958
 9247SOL    HW139374   0.273   3.682  12.664  0.1088  0.3788 -1.1916
 9247SOL    HW239375   0.319   3.798  12.743  1.0323 -0.0007  1.5033
 9248SOL     OW39376   2.560   3.365   5.766  0.0100  0.2045  0.3134
 9248SOL    HW139377   2.481   3.326   5.803 -1.2666  3.0596  0.6474
 9248SOL    HW239378   2.619   3.290   5.767 -0.6298 -0.3196 -1.3101
 9249SOL     OW39379   0.261   4.738   3.622 -0.0463  0.3791  0.3170
 9249SOL    HW139380   0.314   0.079   3.626 -1.1974  1.1883 -0.5976
 9249SOL    HW239381   0.178   0.024   3.581  0.0595  0.9803  0.4651
 9250SOL     OW39382   4.544   2.863   8.999 -0.0304  0.5504  0.4523
 9250SOL    HW139383   4.620   2.877   9.056  0.4548  0.8260 -0.2548
 9250SOL    HW239384   4.576   2.840   8.912 -0.6104 -1.0421  0.6754
 9251SOL     OW39385   4.184   3.749  16.978  0.0296 -0.4120 -0.4209
 9251SOL    HW139386   4.262   3.730  17.030 -1.0080 -1.0965  0.8697
 9251SOL    HW239387   4.172   3.844  16.988  1.0176 -0.2784 -0.4411
 9252SOL     OW39388   4.624   1.794   6.342  0.1219  0.0651 -0.1995
 9252SOL    HW139389   4.626   1.802   6.246  0.6543  0.0015 -0.1927
 9252SOL    HW239390   4.628   1.885   6.372 -0.1366 -0.6132  1.8792
 9253SOL     OW39391   2.896   0.053  17.301  1.0057  0.3643 -0.2143
 9253SOL    HW139392   2.912   0.047  17.207 -2.9345  0.5545 -0.8944
 9253SOL    HW239393   2.975   0.097  17.331  0.1372  0.8087  1.4741
 9254SOL     OW39394   2.778   3.748   8.459 -0.2334 -0.2515  0.3848
 9254SOL    HW139395   2.762   3.830   8.413 -0.8569 -0.4718  0.1933
 9254SOL    HW239396   2.786   3.777   8.549  0.0929 -1.9903  0.9262
 9255SOL     OW39397   2.034   1.764   2.065  0.3098 -0.0864 -0.9689
 9255SOL    HW139398   2.068   1.715   2.140 -0.9760  0.3937 -0.0602
 9255SOL    HW239399   2.117   1.809   2.049 -0.0136  0.1576 -1.9635
 9256SOL     OW39400   4.609   1.446   4.362  0.3708  0.3263 -0.8723
 9256SOL    HW139401   4.637   1.363   4.324 -1.1037  0.3058 -1.8984
 9256SOL    HW239402   4.576   1.416   4.447  1.3898  1.6903  0.0083
 9257SOL     OW39403   0.207   3.876   3.729 -0.0770  0.5492  0.1933
 9257SOL    HW139404   0.245   3.846   3.647  3.0186  0.7647  1.5528
 9257SOL    HW239405   0.116   3.892   3.705 -0.6033 -0.7229  1.3608
 9258SOL     OW39406   1.344   4.524   3.205 -0.3238 -0.6935 -0.4155
 9258SOL    HW139407   1.361   4.595   3.267  1.0495 -1.6157  0.2601
 9258SOL    HW239408   1.255   4.495   3.227 -0.5069 -0.5904 -1.0025
 9259SOL     OW39409   2.556   1.594   8.303  0.9335 -0.3810 -0.0933
 9259SOL    HW139410   2.472   1.575   8.344  0.5147  0.4609 -0.5575
 9259SOL    HW239411   2.571   1.511   8.258  0.9853  0.0145 -0.8063
 9260SOL     OW39412   0.267   4.675  12.227  0.4105  0.3508 -0.1633
 9260SOL    HW139413   0.313   4.663  12.310 -1.5464  0.4485  0.9485
 9260SOL    HW239414   0.295   0.024  12.199 -0.1984  0.9610  1.1106
 9261SOL     OW39415   0.487   1.831   2.540 -0.5443 -0.5455 -0.9186
 9261SOL    HW139416   0.576   1.866   2.546 -0.7424 -0.6086  2.5818
 9261SOL    HW239417   0.518   1.741   2.550  2.0149  0.6222  1.9615
 9262SOL     OW39418   0.025   1.655  16.913  0.6165  0.1922 -0.1366
 9262SOL    HW139419   4.721   1.621  16.992 -0.2393  0.0431 -0.6560
 9262SOL    HW239420   0.050   1.739  16.950 -0.7534  0.7850 -0.5721
 9263SOL     OW39421   3.951   0.557  16.089  0.1028  0.8503 -0.5840
 9263SOL    HW139422   3.877   0.536  16.146  1.4386  0.4235  1.0136
 9263SOL    HW239423   3.895   0.579  16.015 -0.3026 -0.3672 -0.6377
 9264SOL     OW39424   1.121   4.549   4.468 -0.0929 -0.0533 -0.4614
 9264SOL    HW139425   1.080   4.582   4.388 -1.2494 -0.9811 -0.2536
 9264SOL    HW239426   1.100   4.621   4.527  0.7981 -1.8546  2.0532
 9265SOL     OW39427   3.219   2.686   7.485 -0.0676 -0.0717 -0.0572
 9265SOL    HW139428   3.206   2.667   7.392 -2.0211 -0.6951  0.3348
 9265SOL    HW239429   3.305   2.645   7.496 -0.7081 -0.7492  2.5889
 9266SOL     OW39430   2.969   3.822   1.167  0.1762 -0.0287 -0.2788
 9266SOL    HW139431   2.918   3.898   1.140  0.6959  0.7868  0.9570
 9266SOL    HW239432   2.971   3.841   1.261  0.4165 -1.7025  0.0538
 9267SOL     OW39433   4.306   2.303   0.784  0.0399  0.3756  0.3537
 9267SOL    HW139434   4.331   2.237   0.719 -0.2002  0.5733  0.0580
 9267SOL    HW239435   4.211   2.297   0.785  0.0690 -0.3469 -1.0472
 9268SOL     OW39436   0.386   0.895   1.707  0.5930 -0.4758  0.3033
 9268SOL    HW139437   0.344   0.936   1.631 -2.2975 -0.1785  2.0532
 9268SOL    HW239438   0.445   0.965   1.736 -1.4862  1.8318 -0.9639
 9269SOL     OW39439   4.346   3.411   5.128 -0.0238 -0.2554 -0.0441
 9269SOL    HW139440   4.432   3.435   5.160  0.2939 -1.0960 -0.2743
 9269SOL    HW239441   4.373   3.337   5.073 -0.1355  0.0368 -0.4940
 9270SOL     OW39442   2.406   1.703  14.786 -0.3427  0.2212  0.2909
 9270SOL    HW139443   2.409   1.610  14.808  0.8262  0.9699  3.2595
 9270SOL    HW239444   2.446   1.745  14.862  0.8842  0.9654 -0.7584
 9271SOL     OW39445   3.485   2.167   8.782  0.1621  0.1113  0.1515
 9271SOL    HW139446   3.534   2.129   8.854  2.5502  0.9499 -1.0142
 9271SOL    HW239447   3.521   2.117   8.709 -0.0955 -0.1742  0.2215
 9272SOL     OW39448   1.847   2.194   5.036 -0.5961 -0.5442  0.0471
 9272SOL    HW139449   1.896   2.276   5.026 -3.3256  1.0373 -0.1855
 9272SOL    HW239450   1.778   2.220   5.096 -0.6502 -1.6283  0.4515
 9273SOL     OW39451   3.015   0.920   5.401 -0.4345  0.2446  0.1647
 9273SOL    HW139452   3.029   0.826   5.400 -0.3897  0.2532  0.0622
 9273SOL    HW239453   2.949   0.921   5.471 -1.2430  0.1441 -0.5853
 9274SOL     OW39454   1.150   4.213   4.380  0.0272  0.2467  0.0016
 9274SOL    HW139455   1.221   4.274   4.362  1.3970 -1.5086 -0.6192
 9274SOL    HW239456   1.079   4.252   4.329 -1.0666 -1.4168  0.2320
 9275SOL     OW39457   3.644   4.570   8.685  0.1931  0.0086 -0.2412
 9275SOL    HW139458   3.619   4.503   8.749  0.7666  0.3062  0.2969
 9275SOL    HW239459   3.672   4.632   8.752 -2.8908  1.0673  0.0818
 9276SOL     OW39460   2.124   2.890  13.429 -0.6616  0.0705 -0.0284
 9276SOL    HW139461   2.118   2.864  13.521  0.4296  1.0535  0.3092
 9276SOL    HW239462   2.039   2.864  13.392 -1.0839  2.2674 -0.5713
 9277SOL     OW39463   1.863   1.634   9.657 -0.4373 -0.2511 -0.5104
 9277SOL    HW139464   1.802   1.585   9.713  0.8929 -1.4399 -0.1095
 9277SOL    HW239465   1.909   1.560   9.617  0.0253 -0.6607  0.7876
 9278SOL     OW39466   1.473   1.759  11.975  0.5536  0.0571  0.6948
 9278SOL    HW139467   1.380   1.751  11.999  0.4544 -0.9127  0.0022
 9278SOL    HW239468   1.513   1.752  12.062  1.2514 -3.1057  0.1244
 9279SOL     OW39469   1.786   2.782   8.950  0.8002  0.2525  0.1906
 9279SOL    HW139470   1.781   2.741   8.863 -3.1076  0.4472  0.3452
 9279SOL    HW239471   1.701   2.754   8.984  0.0849  0.9062 -1.0397
 9280SOL     OW39472   2.597   1.863   8.550 -0.2182 -0.2740  0.1102
 9280SOL    HW139473   2.506   1.893   8.559  0.1678  1.3886 -1.7229
 9280SOL    HW239474   2.600   1.801   8.624 -1.4076  0.7005  0.9784
 9281SOL     OW39475   1.344   1.299   5.885  0.3295 -0.7942  0.8023
 9281SOL    HW139476   1.253   1.288   5.911 -0.2327  1.9060 -0.0769
 9281SOL    HW239477   1.378   1.302   5.975  4.7932  1.1131 -0.9430
 9282SOL     OW39478   1.122   4.172   4.987  0.2428  0.0745  0.1895
 9282SOL    HW139479   1.076   4.253   5.010 -0.3208 -0.0429 -0.5178
 9282SOL    HW239480   1.185   4.208   4.925 -0.1218  0.9583  0.3210
 9283SOL     OW39481   4.668   2.917  13.171  0.5601 -0.1438  0.1421
 9283SOL    HW139482   4.654   2.849  13.106  0.7825  0.8877 -0.9766
 9283SOL    HW239483   0.018   2.899  13.202  1.0124 -0.4847 -1.3935
 9284SOL     OW39484   4.703   3.700   7.870  0.2092  0.0542  0.1503
 9284SOL    HW139485   4.624   3.666   7.828  0.5977  0.2968 -0.7750
 9284SOL    HW239486   0.021   3.625   7.848  1.1913  0.7646  0.2599
 9285SOL     OW39487   2.513   3.964  16.847 -0.1388 -0.4040  0.0411
 9285SOL    HW139488   2.473   4.046  16.816  0.3439 -0.1176  0.1745
 9285SOL    HW239489   2.496   3.912  16.769  0.1301  1.0140 -0.9745
 9286SOL     OW39490   0.301   1.027   3.745 -0.7158 -0.3345  0.1210
 9286SOL    HW139491   0.322   0.978   3.666  0.6061 -1.0232  0.8791
 9286SOL    HW239492   0.251   0.961   3.794 -0.2105  0.8858  2.2913
 9287SOL     OW39493   0.452   4.247   1.419  0.4962  0.1662  0.5824
 9287SOL    HW139494   0.381   4.288   1.369 -1.1499  0.1191  2.8688
 9287SOL    HW239495   0.449   4.159   1.381  0.3729 -0.9869  3.3236
 9288SOL     OW39496   1.242   1.550   6.952  0.0115 -0.1267 -0.2263
 9288SOL    HW139497   1.222   1.642   6.939 -1.4845 -0.5394 -0.8791
 9288SOL    HW239498   1.178   1.500   6.901  0.6612 -0.9285 -0.2589
 9289SOL     OW39499   4.370   0.211  10.756 -0.0174  0.0071 -0.2233
 9289SOL    HW139500   4.284   0.168  10.757 -0.0293  0.1295  2.5256
 9289SOL    HW239501   4.426   0.146  10.713  1.9229  0.2790  1.8862
 9290SOL     OW39502   3.540   0.205   3.670  0.6225 -0.4170 -0.4213
 9290SOL    HW139503   3.462   0.186   3.617 -1.4378 -1.1336  2.8604
 9290SOL    HW239504   3.514   0.274   3.731  0.3127 -0.8101 -0.1081
 9291SOL     OW39505   2.935   1.022   6.266 -0.3114  0.2919  0.0343
 9291SOL    HW139506   2.954   1.026   6.360  0.5732 -1.4371 -0.0610
 9291SOL    HW239507   2.843   0.993   6.263  0.2404 -1.5020  0.0393
 9292SOL     OW39508   1.572   2.652   7.363 -0.6668  0.4663  0.4722
 9292SOL    HW139509   1.649   2.597   7.381 -1.5526 -0.5427  1.1203
 9292SOL    HW239510   1.580   2.662   7.268 -3.1367 -0.4786  0.1955
 9293SOL     OW39511   0.825   2.897   9.740 -0.6359 -0.5518  0.4388
 9293SOL    HW139512   0.784   2.849   9.668  0.2059 -0.6639  0.0406
 9293SOL    HW239513   0.809   2.836   9.813 -1.5294  0.1922  0.8754
 9294SOL     OW39514   1.856   4.113   8.673 -0.1997  0.5615  0.6162
 9294SOL    HW139515   1.857   4.209   8.670 -1.7247  0.6212  1.4644
 9294SOL    HW239516   1.829   4.098   8.764  1.5093 -1.9939  0.6957
 9295SOL     OW39517   3.593   4.030   3.333 -0.0713 -0.1276  0.1652
 9295SOL    HW139518   3.562   3.953   3.381  0.9837  0.5405  1.9093
 9295SOL    HW239519   3.660   4.040   3.400  0.8599  1.4226 -0.9695
 9296SOL     OW39520   2.434   3.558   4.423  0.4382  0.0514  0.0600
 9296SOL    HW139521   2.461   3.521   4.339  0.0290  0.3315 -0.1961
 9296SOL    HW239522   2.386   3.637   4.396 -0.3025 -0.8216 -1.2177
 9297SOL     OW39523   0.465   1.226   3.885 -0.2925  0.3816 -0.5958
 9297SOL    HW139524   0.559   1.232   3.865 -0.1187 -1.1491 -0.2262
 9297SOL    HW239525   0.433   1.168   3.816 -0.8357  0.8384 -0.7263
 9298SOL     OW39526   2.710   4.383   4.198  0.2147 -0.1825  0.0203
 9298SOL    HW139527   2.739   4.473   4.210 -0.7747  0.1027  0.3068
 9298SOL    HW239528   2.772   4.351   4.132  1.7112  2.4175  0.1722
 9299SOL     OW39529   3.030   2.543   7.056  0.1450 -0.0861  0.0411
 9299SOL    HW139530   3.026   2.521   6.962 -1.2388  1.9552 -0.3736
 9299SOL    HW239531   2.973   2.620   7.056  2.3236  1.5321 -0.1231
 9300SOL     OW39532   2.060   2.463   2.532  0.6131 -0.0421  0.1747
 9300SOL    HW139533   2.061   2.382   2.582  0.1606 -0.5693 -0.6701
 9300SOL    HW239534   2.107   2.522   2.590  1.2289  0.9231 -1.2944
 9301SOL     OW39535   2.117   3.046   7.187 -0.6266 -0.2058 -0.0859
 9301SOL    HW139536   2.062   3.020   7.113  0.3526  0.3385 -0.9983
 9301SOL    HW239537   2.085   2.982   7.250  0.7394  0.3015  1.1206
 9302SOL     OW39538   3.478   2.773  12.032 -0.1242 -0.2414 -0.3775
 9302SOL    HW139539   3.416   2.842  12.010  0.8226  0.2392 -1.5733
 9302SOL    HW239540   3.437   2.722  12.101 -1.1747 -1.2465 -1.7339
 9303SOL     OW39541   3.485   2.349   0.295  0.3718 -0.2466  0.2454
 9303SOL    HW139542   3.428   2.391   0.360  0.2460 -1.8666  1.1995
 9303SOL    HW239543   3.438   2.267   0.280  0.9709 -0.4852 -0.3198
 9304SOL     OW39544   3.205   4.224  11.047 -0.3090 -0.0862  0.2496
 9304SOL    HW139545   3.216   4.135  11.082 -3.2206  0.6607  3.1574
 9304SOL    HW239546   3.279   4.265  11.092  0.0166  2.0782 -2.3227
 9305SOL     OW39547   4.651   3.602   1.418  0.5795  0.0422  0.1207
 9305SOL    HW139548   4.631   3.509   1.407  3.2988 -0.7684  1.9749
 9305SOL    HW239549   4.575   3.639   1.463 -0.6843 -0.0090 -1.9421
 9306SOL     OW39550   2.324   0.425   9.640 -0.1638  0.0425 -0.3061
 9306SOL    HW139551   2.290   0.339   9.662  1.3082 -0.6092 -0.5394
 9306SOL    HW239552   2.241   0.470   9.626  0.6718  2.3777  2.1421
 9307SOL     OW39553   2.441   3.301   7.718 -0.6549  0.1423  0.7788
 9307SOL    HW139554   2.363   3.311   7.663 -0.8772  0.6806  1.1872
 9307SOL    HW239555   2.428   3.386   7.762  0.0396  0.6273  0.0335
 9308SOL     OW39556   4.065   3.154  11.018  0.3140  0.0649 -0.6074
 9308SOL    HW139557   4.047   3.077  10.964  2.7933 -2.2087  1.8150
 9308SOL    HW239558   4.079   3.121  11.106 -0.6386 -0.1486 -0.5283
 9309SOL     OW39559   0.203   2.333  13.001 -0.6995  0.4698  0.2130
 9309SOL    HW139560   0.212   2.262  13.065 -0.4857  0.7214  0.4609
 9309SOL    HW239561   0.176   2.400  13.064 -1.9836  0.3043 -0.1489
 9310SOL     OW39562   1.616   0.575   4.054 -0.4926  0.2754 -0.2882
 9310SOL    HW139563   1.552   0.537   4.114  1.2664  0.5420  1.7522
 9310SOL    HW239564   1.653   0.498   4.011  0.7800  0.7778 -0.0843
 9311SOL     OW39565   3.616   2.543   8.701  0.3463 -0.4116  0.2767
 9311SOL    HW139566   3.570   2.623   8.726  2.0826  0.3168  1.0539
 9311SOL    HW239567   3.677   2.579   8.637 -0.9014  2.0266  0.4451
 9312SOL     OW39568   0.551   1.293   4.977 -0.1725  0.7074  0.4410
 9312SOL    HW139569   0.464   1.266   5.006 -0.6837  0.8458 -0.9376
 9312SOL    HW239570   0.601   1.231   5.029 -1.7299  0.6784  1.9159
 9313SOL     OW39571   3.740   3.752   4.239  0.3024  0.1651 -0.2158
 9313SOL    HW139572   3.760   3.670   4.284 -1.1196  0.0669  0.2244
 9313SOL    HW239573   3.696   3.804   4.305  1.1291  1.2725 -0.5384
 9314SOL     OW39574   2.380   1.202   3.613 -0.3837  0.2154 -0.8542
 9314SOL    HW139575   2.367   1.154   3.531 -1.3206 -1.6877  0.4121
 9314SOL    HW239576   2.425   1.135   3.666  0.2085  2.3797  1.3649
 9315SOL     OW39577   2.536   3.855   2.378  0.2213  0.3715  0.2538
 9315SOL    HW139578   2.594   3.838   2.452  0.8350  0.6541 -0.1587
 9315SOL    HW239579   2.471   3.786   2.386  1.9983 -1.3600 -0.4966
 9316SOL     OW39580   2.484   2.594  11.417 -0.6296 -0.1536  0.1443
 9316SOL    HW139581   2.555   2.578  11.355 -0.1345 -0.0005  0.6756
 9316SOL    HW239582   2.530   2.549  11.488 -1.5827  0.1128  0.9288
 9317SOL     OW39583   2.970   0.718   9.507  0.3142  0.3727  0.4755
 9317SOL    HW139584   2.904   0.650   9.499  0.5160  0.4778 -1.9550
 9317SOL    HW239585   2.961   0.758   9.420  1.6875  1.5527  0.8707
 9318SOL     OW39586   1.697   0.737   2.559  0.0167  0.2912 -0.2265
 9318SOL    HW139587   1.628   0.797   2.589 -0.0802  0.3819 -0.6193
 9318SOL    HW239588   1.781   0.782   2.567 -0.0559  0.1918  1.1166
 9319SOL     OW39589   1.811   2.861   4.676 -0.5332 -0.3793 -0.1283
 9319SOL    HW139590   1.719   2.883   4.696 -0.4707  1.8165 -2.2187
 9319SOL    HW239591   1.849   2.947   4.656  2.5801 -1.2432  2.2363
 9320SOL     OW39592   3.766   4.676   1.945 -0.2533  0.1130 -0.2132
 9320SOL    HW139593   3.832   4.609   1.927 -1.3911 -1.4263  1.3900
 9320SOL    HW239594   3.689   4.632   1.908 -0.2453  1.0351 -1.3483
 9321SOL     OW39595   4.262   1.863   5.880  0.1887 -0.3202 -0.5236
 9321SOL    HW139596   4.194   1.796   5.869  0.3414 -0.8567  1.6907
 9321SOL    HW239597   4.333   1.805   5.910 -0.1546 -0.0198  0.8584
 9322SOL     OW39598   3.267   2.576  14.828  0.1344 -0.2676  0.0525
 9322SOL    HW139599   3.249   2.637  14.898  0.5550 -0.1427  0.0533
 9322SOL    HW239600   3.352   2.537  14.852  0.3186 -0.0104 -0.1730
 9323SOL     OW39601   0.471   1.583   8.099 -0.2745 -0.0362 -0.0866
 9323SOL    HW139602   0.450   1.675   8.116  0.3793  0.2642 -0.8467
 9323SOL    HW239603   0.525   1.557   8.174 -1.0038 -2.0787 -0.2814
 9324SOL     OW39604   3.456   4.415   6.560  0.3347  0.2595  0.2532
 9324SOL    HW139605   3.495   4.356   6.495 -0.2488  0.1783 -0.0163
 9324SOL    HW239606   3.368   4.426   6.525  0.6010  1.3154 -0.1042
 9325SOL     OW39607   3.950   2.771   6.125  0.1202  0.5691 -0.0770
 9325SOL    HW139608   3.966   2.823   6.046  0.2045 -1.0883 -1.1453
 9325SOL    HW239609   4.035   2.794   6.164  0.9295 -1.6398 -0.5297
 9326SOL     OW39610   2.271   0.683  17.164  0.5269 -1.1859  0.3249
 9326SOL    HW139611   2.311   0.675  17.077  2.3383 -1.6253  1.2091
 9326SOL    HW239612   2.236   0.771  17.153  2.7186 -0.2889  0.4849
 9327SOL     OW39613   3.947   0.246  13.686 -0.7892 -0.6657 -0.2094
 9327SOL    HW139614   3.999   0.167  13.701  0.6875  0.8017  2.4042
 9327SOL    HW239615   3.902   0.217  13.607 -3.0204 -1.0350  1.1883
 9328SOL     OW39616   0.829   2.127   7.778 -0.2659 -0.1610  0.3994
 9328SOL    HW139617   0.864   2.068   7.845 -1.1195 -1.3777 -0.2251
 9328SOL    HW239618   0.798   2.071   7.707 -0.1657  0.1269  0.1278
 9329SOL     OW39619   3.978   2.387   9.437  0.1042  0.0937  0.0616
 9329SOL    HW139620   3.922   2.322   9.395 -0.9678  1.0324  0.0638
 9329SOL    HW239621   3.962   2.469   9.391 -1.3259 -0.6175 -0.6923
 9330SOL     OW39622   3.847   2.732   1.514 -0.6547  0.6332  1.1968
 9330SOL    HW139623   3.822   2.825   1.512 -0.3521  0.6658 -1.5490
 9330SOL    HW239624   3.935   2.729   1.551 -0.9259 -0.3294  1.7604
 9331SOL     OW39625   3.313   2.848   2.329  0.3842 -0.9948 -0.0888
 9331SOL    HW139626   3.277   2.826   2.243  0.0588  1.1088 -0.4949
 9331SOL    HW239627   3.357   2.769   2.360 -0.7696 -0.8753  1.9023
 9332SOL     OW39628   3.974   2.978   1.265  0.0120  0.0800 -0.2751
 9332SOL    HW139629   3.984   2.954   1.357 -2.4300  2.4897  0.6201
 9332SOL    HW239630   4.033   3.053   1.260 -0.3014  0.6288  4.7521
 9333SOL     OW39631   2.260   4.197   4.591 -0.2353 -0.1540  0.0884
 9333SOL    HW139632   2.343   4.152   4.576 -1.2690 -2.4961  1.2967
 9333SOL    HW239633   2.264   4.260   4.519 -0.7539  0.9562  1.0268
 9334SOL     OW39634   2.230   0.887  15.126 -0.0594 -0.1822 -0.1941
 9334SOL    HW139635   2.265   0.815  15.074  2.0233  0.8833 -0.2774
 9334SOL    HW239636   2.205   0.839  15.204  0.8546 -1.0185 -0.4125
 9335SOL     OW39637   0.281   0.710   2.477  0.2385  0.2693  0.0268
 9335SOL    HW139638   0.218   0.771   2.438 -0.4395  0.2767  1.1232
 9335SOL    HW239639   0.243   0.630   2.442 -0.5750  0.1296  1.2135
 9336SOL     OW39640   2.527   3.183   6.528 -0.1120 -0.7478 -0.4557
 9336SOL    HW139641   2.501   3.094   6.549 -0.6272 -0.3979  0.3756
 9336SOL    HW239642   2.441   3.226   6.525 -0.4895 -1.5583 -1.2648
 9337SOL     OW39643   1.847   0.235   7.361 -0.0453  0.2208 -0.2559
 9337SOL    HW139644   1.829   0.176   7.435 -1.2926  0.1485 -0.6199
 9337SOL    HW239645   1.875   0.315   7.404 -0.9272  1.4044 -1.8843
 9338SOL     OW39646   3.339   1.230   5.724 -0.1969 -0.0269 -0.0218
 9338SOL    HW139647   3.278   1.271   5.785  0.6149  4.8765 -2.5798
 9338SOL    HW239648   3.428   1.259   5.745 -0.0472 -2.2020  2.4758
 9339SOL     OW39649   1.333   0.630   3.523 -0.0836  0.2727 -0.5573
 9339SOL    HW139650   1.250   0.590   3.549  2.1841 -3.8354  0.2935
 9339SOL    HW239651   1.395   0.575   3.571 -0.9383  0.5260  0.8375
 9340SOL     OW39652   3.835   0.264   7.761  0.4474  0.0731  0.0513
 9340SOL    HW139653   3.802   0.231   7.678 -0.2970  1.2590 -0.1285
 9340SOL    HW239654   3.821   0.357   7.741  1.2657 -0.5285 -3.3978
 9341SOL     OW39655   0.154   2.255   7.219  0.1573 -0.0554  0.6240
 9341SOL    HW139656   0.080   2.303   7.255 -1.1778 -1.6918  0.0490
 9341SOL    HW239657   0.119   2.173   7.254 -0.1541  0.2171  0.9510
 9342SOL     OW39658   2.089   1.710  11.083  0.0940  0.2825  0.3783
 9342SOL    HW139659   2.165   1.718  11.141  0.6312 -1.4147 -0.0918
 9342SOL    HW239660   2.025   1.763  11.132 -0.7861  0.1532 -0.6465
 9343SOL     OW39661   4.698   4.180   3.478 -0.1339 -0.2219 -0.4979
 9343SOL    HW139662   0.045   4.167   3.436 -0.1351  2.2003 -1.2611
 9343SOL    HW239663   4.704   4.267   3.518 -0.0768  0.7444 -2.6002
 9344SOL     OW39664   4.650   2.701  12.994  0.2672  0.5082 -0.7718
 9344SOL    HW139665   4.571   2.652  13.017  1.7541 -1.1998  0.6619
 9344SOL    HW239666   4.685   2.650  12.921  0.0609 -1.8326  0.7777
 9345SOL     OW39667   0.455   3.370   8.198 -0.4100 -0.2508  0.2872
 9345SOL    HW139668   0.550   3.364   8.213 -0.1782  3.5678  0.3999
 9345SOL    HW239669   0.427   3.279   8.190 -1.2134 -0.1458  1.9946
 9346SOL     OW39670   1.499   1.472   8.000 -0.6449  0.3028 -0.6774
 9346SOL    HW139671   1.446   1.456   8.079  0.6236 -2.3919 -0.3794
 9346SOL    HW239672   1.503   1.386   7.958  1.2191 -1.3349  2.8026
 9347SOL     OW39673   4.148   0.837   2.415  0.3230  0.0607  0.2038
 9347SOL    HW139674   4.083   0.880   2.359  0.9490  1.2971  0.4345
 9347SOL    HW239675   4.103   0.809   2.494 -1.1431 -0.5157 -0.8291
 9348SOL     OW39676   3.971   3.128  17.694 -0.5255 -0.0320  0.3886
 9348SOL    HW139677   3.951   3.206  17.641 -0.9669  0.7402  1.6827
 9348SOL    HW239678   3.989   3.166   0.029  3.5399  1.2341 -1.0298
 9349SOL     OW39679   2.408   3.667   7.665  0.3856 -0.4687  0.1497
 9349SOL    HW139680   2.434   3.753   7.698 -0.3378 -0.0586 -0.3423
 9349SOL    HW239681   2.420   3.611   7.742 -2.8390 -2.1114 -0.5437
 9350SOL     OW39682   1.409   0.651   2.842 -0.0099  0.4203 -0.4498
 9350SOL    HW139683   1.363   0.669   2.760 -1.8983 -2.6241 -0.0808
 9350SOL    HW239684   1.383   0.724   2.898 -1.3333  0.3704 -0.9949
 9351SOL     OW39685   1.741   1.628  11.147 -0.1199 -0.7195  0.1125
 9351SOL    HW139686   1.716   1.721  11.145  0.2969 -0.6590 -2.2712
 9351SOL    HW239687   1.813   1.629  11.211 -1.3161  0.0792  1.4658
 9352SOL     OW39688   2.249   2.853   0.289 -0.4492  0.0529  0.5665
 9352SOL    HW139689   2.308   2.836   0.215  1.0575 -0.9491  1.9927
 9352SOL    HW239690   2.233   2.761   0.312  0.6771 -0.2548  0.1363
 9353SOL     OW39691   3.855   1.575   8.105  0.4500  0.0206 -0.4486
 9353SOL    HW139692   3.761   1.571   8.118  0.5260  1.3281  0.5047
 9353SOL    HW239693   3.869   1.539   8.017 -0.0867  1.3749 -1.0730
 9354SOL     OW39694   1.061   3.561  16.506 -0.0417 -0.6306  0.4112
 9354SOL    HW139695   0.975   3.567  16.548 -0.8991  0.8619 -1.5806
 9354SOL    HW239696   1.041   3.521  16.422  0.3936 -0.0589  0.0350
 9355SOL     OW39697   3.266   2.259   9.748  0.0188 -0.5055  0.1308
 9355SOL    HW139698   3.236   2.302   9.827  0.8039  0.3279 -0.0178
 9355SOL    HW239699   3.223   2.174   9.750  0.6943 -0.8375  0.5153
 9356SOL     OW39700   2.089   0.293  12.385 -0.1301 -0.2829 -0.4271
 9356SOL    HW139701   2.023   0.268  12.449  0.4143  0.4885  0.4322
 9356SOL    HW239702   2.146   0.337  12.448 -0.3109  0.6260 -0.8880
 9357SOL     OW39703   2.475   4.104   6.297 -0.0190 -0.1366  0.0131
 9357SOL    HW139704   2.382   4.084   6.311  0.4601 -1.8264  0.7458
 9357SOL    HW239705   2.513   4.029   6.342  0.7122 -0.6818 -1.5386
 9358SOL     OW39706   2.404   0.908  12.199  0.0792  0.0270  0.0607
 9358SOL    HW139707   2.323   0.947  12.233  0.3875  1.2923 -0.6417
 9358SOL    HW239708   2.461   0.974  12.237 -1.0958  2.2905 -2.1161
 9359SOL     OW39709   0.155   2.877   8.400 -0.5117  0.2499 -0.3442
 9359SOL    HW139710   0.203   2.924   8.332  1.2158 -0.4883  0.3700
 9359SOL    HW239711   0.119   2.944   8.458 -1.3628 -0.3754 -0.1464
 9360SOL     OW39712   3.630   0.294   2.241  0.0823  0.4882  0.6823
 9360SOL    HW139713   3.599   0.215   2.197 -2.0405  1.3845  0.5523
 9360SOL    HW239714   3.564   0.291   2.310  0.7938 -0.8067  1.3093
 9361SOL     OW39715   1.470   1.889   4.727  0.2569  0.3657 -0.0301
 9361SOL    HW139716   1.382   1.858   4.749  0.2448  0.2150 -0.2851
 9361SOL    HW239717   1.466   1.966   4.784  3.1609 -1.5654  2.7440
 9362SOL     OW39718   0.543   3.213   2.386 -0.0653 -0.1745 -0.3766
 9362SOL    HW139719   0.530   3.290   2.329 -0.3611  0.6911  0.8532
 9362SOL    HW239720   0.490   3.145   2.343  1.3183 -0.0241 -2.3140
 9363SOL     OW39721   2.145   4.364   1.298  0.1053 -0.0691 -0.3423
 9363SOL    HW139722   2.224   4.346   1.247 -0.4190 -3.4594  0.0965
 9363SOL    HW239723   2.110   4.430   1.238 -0.5079  1.3372  1.5385
 9364SOL     OW39724   2.338   4.454   3.835  0.0830  0.1578 -0.2705
 9364SOL    HW139725   2.328   4.359   3.844 -0.4585  0.2798  0.3866
 9364SOL    HW239726   2.251   4.479   3.804 -0.2662  1.1724  1.5364
 9365SOL     OW39727   1.277   4.430   4.670  0.1292 -0.5594  0.1517
 9365SOL    HW139728   1.190   4.390   4.671  0.4625 -1.3265 -1.4985
 9365SOL    HW239729   1.265   4.473   4.585 -0.1994  2.0111  1.5025
 9366SOL     OW39730   4.489   1.263   2.799  0.4564  0.1056 -0.1007
 9366SOL    HW139731   4.543   1.205   2.746 -1.3462 -2.5950  0.9972
 9366SOL    HW239732   4.530   1.345   2.772 -0.0454 -0.0020 -1.2000
 9367SOL     OW39733   2.485   2.708  13.941 -0.0688  0.7351  0.0897
 9367SOL    HW139734   2.575   2.687  13.965 -1.1056 -1.8289  1.8101
 9367SOL    HW239735   2.454   2.618  13.949  1.9155  0.2097  1.8339
 9368SOL     OW39736   2.130   0.927  12.213  0.6703 -0.3378 -0.9365
 9368SOL    HW139737   2.144   1.018  12.189 -1.2457  0.3842  0.6144
 9368SOL    HW239738   2.099   0.928  12.304  1.6104  2.4430 -0.6513
 9369SOL     OW39739   2.407   3.800  11.283  0.2340  0.0664  0.3611
 9369SOL    HW139740   2.431   3.807  11.190 -0.7164  2.2937  0.2845
 9369SOL    HW239741   2.454   3.721  11.309 -3.1129 -1.9793  0.1772
 9370SOL     OW39742   3.538   1.262   7.633 -0.1075 -0.3190 -0.3648
 9370SOL    HW139743   3.530   1.199   7.561  0.2128  0.4727 -1.0868
 9370SOL    HW239744   3.582   1.200   7.691 -1.0264 -0.0721  0.6106
 9371SOL     OW39745   2.093   1.852  10.852 -0.4358  0.2262  0.2530
 9371SOL    HW139746   2.093   1.790  10.925 -1.0358  0.5927  0.5609
 9371SOL    HW239747   2.184   1.879  10.858 -0.0296 -1.4364  1.4554
 9372SOL     OW39748   3.172   4.641  15.353  0.1829  0.6402 -0.3469
 9372SOL    HW139749   3.118   4.572  15.393 -0.0745  1.7908  1.2835
 9372SOL    HW239750   3.248   4.630  15.411 -0.9596 -0.9288  0.8823
 9373SOL     OW39751   4.088   0.477   5.670 -0.8896  0.1765 -0.3560
 9373SOL    HW139752   4.021   0.537   5.636  0.4543  2.3450  0.8206
 9373SOL    HW239753   4.088   0.487   5.765  1.9161 -0.9182 -0.2528
 9374SOL     OW39754   0.942   3.576   7.637  0.0710  0.5153  0.4447
 9374SOL    HW139755   0.991   3.533   7.707 -1.5624  1.7047  2.3178
 9374SOL    HW239756   1.001   3.565   7.563 -0.3435  2.8406 -0.2386
 9375SOL     OW39757   2.485   0.515   8.286 -0.7687  0.1754 -0.6061
 9375SOL    HW139758   2.530   0.451   8.340 -1.8528 -1.1244 -1.2405
 9375SOL    HW239759   2.533   0.593   8.313 -2.7944  0.5128  1.9327
 9376SOL     OW39760   1.958   3.444   5.593  0.3099 -0.9177 -0.0561
 9376SOL    HW139761   1.911   3.426   5.512 -3.4550  2.9675  1.2060
 9376SOL    HW239762   1.957   3.539   5.589 -0.0973 -0.8107  2.5174
 9377SOL     OW39763   1.010   1.949   6.880  0.2031  0.3367 -0.1060
 9377SOL    HW139764   0.992   2.005   6.804 -0.4785  0.5001  0.1787
 9377SOL    HW239765   0.943   1.981   6.941 -0.5495 -0.3416 -0.5805
 9378SOL     OW39766   4.714   0.771  14.130 -0.0860 -0.1171 -0.2842
 9378SOL    HW139767   4.645   0.837  14.131 -1.0545 -1.1559  0.5583
 9378SOL    HW239768   4.713   0.756  14.035  0.4209 -0.0527 -0.2996
 9379SOL     OW39769   0.406   3.394   2.199 -0.6767  0.3253 -0.1289
 9379SOL    HW139770   0.354   3.319   2.169 -0.4699  0.4481 -0.7783
 9379SOL    HW239771   0.341   3.464   2.190 -2.2529 -0.9363  1.1936
 9380SOL     OW39772   2.685   3.607   6.733 -0.4869 -0.1121 -0.0358
 9380SOL    HW139773   2.698   3.565   6.817  0.1285  0.0947 -0.0325
 9380SOL    HW239774   2.760   3.666   6.728 -0.6614  0.1922  0.9400
 9381SOL     OW39775   0.946   4.299   7.482  0.3606 -0.1223 -0.2635
 9381SOL    HW139776   0.936   4.231   7.549 -0.8983  2.0348  1.7684
 9381SOL    HW239777   0.855   4.325   7.466 -0.7738 -2.6385  2.0500
 9382SOL     OW39778   0.695   0.214  11.928  0.1242 -0.0594 -0.2638
 9382SOL    HW139779   0.684   0.219  12.023 -3.0117 -0.3675 -0.6125
 9382SOL    HW239780   0.669   0.126  11.898 -1.3311  0.4214 -0.3807
 9383SOL     OW39781   2.223   3.180   9.163  0.4802 -0.3810  0.4265
 9383SOL    HW139782   2.174   3.127   9.225 -1.6517  0.8869 -0.2054
 9383SOL    HW239783   2.297   3.214   9.213  0.8359  1.2506 -1.2154
 9384SOL     OW39784   1.231   2.140   6.117  0.2838  0.2859 -0.0479
 9384SOL    HW139785   1.247   2.208   6.182  0.1962 -0.9376  1.2622
 9384SOL    HW239786   1.316   2.133   6.074  0.2028 -0.5121 -0.0909
 9385SOL     OW39787   0.360   4.071   8.489  0.5507  0.1933 -0.4916
 9385SOL    HW139788   0.449   4.078   8.453  0.3448  0.2954 -0.9718
 9385SOL    HW239789   0.325   4.139   8.431  1.3024  1.3276  0.3649
 9386SOL     OW39790   1.281   0.730   4.472  0.3712  0.7896  0.3022
 9386SOL    HW139791   1.280   0.679   4.391  1.3076  0.8383  0.2636
 9386SOL    HW239792   1.276   0.821   4.444  0.2309  0.0630 -2.0577
 9387SOL     OW39793   2.417   2.018   6.594 -0.5970 -0.0600  0.8822
 9387SOL    HW139794   2.347   2.072   6.630  0.5552  2.2556 -0.2891
 9387SOL    HW239795   2.362   1.949   6.557 -0.2769 -0.4072  1.0560
 9388SOL     OW39796   4.267   2.098   6.007  0.2487 -0.3839  0.1339
 9388SOL    HW139797   4.277   2.058   6.094 -1.8778 -0.7023  0.2179
 9388SOL    HW239798   4.264   2.015   5.960 -0.2810 -2.0325  3.0860
 9389SOL     OW39799   0.978   4.572   5.843 -0.0231 -0.2328 -0.5267
 9389SOL    HW139800   1.065   4.549   5.873 -0.2325  0.5294  0.6461
 9389SOL    HW239801   0.923   4.521   5.903 -2.5512  1.4952 -1.3902
 9390SOL     OW39802   1.343   2.563   6.578  0.2167  0.1127 -0.1283
 9390SOL    HW139803   1.248   2.556   6.576  0.2564 -1.1127  1.8932
 9390SOL    HW239804   1.357   2.634   6.642  3.0254 -3.0686  2.7940
 9391SOL     OW39805   0.450   3.595   5.979 -0.2760 -0.2505 -0.6807
 9391SOL    HW139806   0.465   3.640   5.895  2.3965 -0.3242 -0.2478
 9391SOL    HW239807   0.381   3.535   5.953 -0.8210  1.4348 -3.2048
 9392SOL     OW39808   1.401   1.486   4.155  0.1387  0.1633 -0.6252
 9392SOL    HW139809   1.339   1.558   4.163 -0.5422 -0.7644  2.2964
 9392SOL    HW239810   1.393   1.437   4.237  2.6846 -0.2606 -0.6245
 9393SOL     OW39811   2.513   2.017  12.958 -0.0692  0.0173  0.2030
 9393SOL    HW139812   2.527   2.084  12.891  0.6665  2.1754  2.5203
 9393SOL    HW239813   2.556   2.070  13.025 -0.9986  1.7945 -0.5869
 9394SOL     OW39814   4.462   3.276   4.486  0.1130 -0.0052  0.2534
 9394SOL    HW139815   4.483   3.244   4.399 -0.0487  0.6138 -0.0087
 9394SOL    HW239816   4.506   3.359   4.502  1.5646 -0.6436 -0.4100
 9395SOL     OW39817   2.685   0.105   2.316  0.4501 -0.1018 -0.2280
 9395SOL    HW139818   2.677   0.015   2.282 -0.1763 -0.1052 -0.0711
 9395SOL    HW239819   2.744   0.097   2.390 -1.1985 -3.0324  0.7958
 9396SOL     OW39820   2.889   1.497   2.290  0.0952 -0.0787  0.0285
 9396SOL    HW139821   2.877   1.429   2.224 -0.1202  1.8699 -1.9614
 9396SOL    HW239822   2.952   1.559   2.252 -2.0067  0.4896 -2.4855
 9397SOL     OW39823   3.193   4.726  17.402  0.5204  0.1588 -0.8092
 9397SOL    HW139824   3.166   0.051  17.469  0.7728 -2.0294  1.3940
 9397SOL    HW239825   3.191   0.040  17.322 -1.5932 -1.8708 -2.0573
 9398SOL     OW39826   4.611   4.141   8.455  0.6528 -0.2960 -0.2667
 9398SOL    HW139827   4.654   4.099   8.381  0.9557 -0.2628 -0.1086
 9398SOL    HW239828   4.521   4.143   8.422  0.3534 -0.8261  0.5164
 9399SOL     OW39829   4.671   4.401   1.934  0.5949  0.4445  0.0656
 9399SOL    HW139830   4.725   4.465   1.981 -1.2440  0.5644  1.9824
 9399SOL    HW239831   4.668   4.331   1.999  0.3576 -0.0237 -0.4456
 9400SOL     OW39832   4.683   2.763   8.788  0.0847 -0.1404  0.1786
 9400SOL    HW139833   4.646   2.686   8.831 -1.8512 -0.1933 -1.5557
 9400SOL    HW239834   4.665   2.749   8.695  1.0072  2.1613 -0.3248
 9401SOL     OW39835   1.255   4.002   4.537  0.0246 -0.5527  0.6651
 9401SOL    HW139836   1.342   4.035   4.558  0.5628 -1.3859 -0.2787
 9401SOL    HW239837   1.202   4.082   4.542  0.9913 -0.0836  3.5197
 9402SOL     OW39838   3.991   3.250  17.054  0.3308 -0.1315  0.0423
 9402SOL    HW139839   3.961   3.159  17.057  0.1707 -0.1245 -1.3789
 9402SOL    HW239840   3.912   3.288  17.093  0.7502  0.4595  0.3173
 9403SOL     OW39841   0.716   3.446  10.306  0.5849  0.6818 -0.3243
 9403SOL    HW139842   0.693   3.362  10.346 -0.4937  1.5405  0.8492
 9403SOL    HW239843   0.771   3.421  10.232  0.0173 -0.2293 -0.4353
 9404SOL     OW39844   1.711   3.282   8.507 -0.1552  0.1036 -1.0296
 9404SOL    HW139845   1.655   3.232   8.448  0.1232 -2.2751  0.7223
 9404SOL    HW239846   1.746   3.345   8.445  1.6729 -0.3730 -0.4708
 9405SOL     OW39847   3.260   0.699  17.664 -0.3577 -0.4233 -0.3090
 9405SOL    HW139848   3.308   0.721  17.744 -1.9693 -0.4544  0.6707
 9405SOL    HW239849   3.342   0.681  17.618 -0.1396  0.0743 -0.1135
 9406SOL     OW39850   1.714   3.709   8.150 -0.5797 -0.2188  0.9562
 9406SOL    HW139851   1.809   3.698   8.144 -0.8394 -1.2142 -1.0324
 9406SOL    HW239852   1.693   3.701   8.243  1.7025 -0.3785  1.4624
 9407SOL     OW39853   1.775   3.229   6.436 -0.4387  0.0043  0.5259
 9407SOL    HW139854   1.819   3.149   6.465 -1.2972 -0.5216  0.3865
 9407SOL    HW239855   1.781   3.225   6.341  1.9443 -2.4724  0.7636
 9408SOL     OW39856   1.419   3.119  11.448 -0.3868 -0.1467  0.7627
 9408SOL    HW139857   1.495   3.169  11.419 -1.2148 -0.4566 -1.8842
 9408SOL    HW239858   1.351   3.185  11.435  0.7647  1.0558  0.8951
 9409SOL     OW39859   2.671   2.533  11.216  0.4551  0.4482  0.3629
 9409SOL    HW139860   2.685   2.450  11.263 -0.3461  1.1758  1.9120
 9409SOL    HW239861   2.745   2.519  11.158  0.0608  0.2281 -0.0922
 9410SOL     OW39862   4.277   1.312   3.421  0.1909  0.4453  0.5602
 9410SOL    HW139863   4.308   1.274   3.338 -0.1669 -0.7205  0.9671
 9410SOL    HW239864   4.227   1.389   3.396  0.9221  1.1041  1.1227
 9411SOL     OW39865   1.133   1.681   5.173  0.4077 -0.0730 -0.0524
 9411SOL    HW139866   1.062   1.743   5.193  1.4338  1.9053 -2.6741
 9411SOL    HW239867   1.121   1.624   5.249  1.3210 -0.2537 -0.0534
 9412SOL     OW39868   4.151   0.067   6.571 -0.7080  0.0440  0.2776
 9412SOL    HW139869   4.155   0.082   6.477  0.0559 -3.1368 -0.1751
 9412SOL    HW239870   4.095   4.728   6.577 -0.2463 -0.1708  1.9692
 9413SOL     OW39871   3.711   4.578   3.847  0.0292  0.3449  0.1430
 9413SOL    HW139872   3.739   4.543   3.931 -0.5296  2.4141  1.2025
 9413SOL    HW239873   3.639   4.625   3.889 -2.0863 -1.1629 -1.7981
 9414SOL     OW39874   3.168   2.792   7.750 -0.4671 -0.1237  0.8567
 9414SOL    HW139875   3.174   2.760   7.660 -0.4235  1.5678  0.2535
 9414SOL    HW239876   3.260   2.804   7.772 -0.4766  1.4349  0.0283
 9415SOL     OW39877   1.681   2.689   1.561  0.6075  0.1782  0.0148
 9415SOL    HW139878   1.629   2.650   1.631 -1.2917  0.2133 -1.3925
 9415SOL    HW239879   1.745   2.619   1.543  0.0687 -0.1309 -0.7131
 9416SOL     OW39880   3.738   0.502   7.960  0.9736  0.3603  0.3304
 9416SOL    HW139881   3.788   0.540   7.888  0.2435 -0.3865 -0.5704
 9416SOL    HW239882   3.648   0.505   7.926  1.5800  0.2723 -1.2783
 9417SOL     OW39883   3.975   0.059   8.943 -0.2212  0.0674 -0.0488
 9417SOL    HW139884   3.949   0.118   8.872  1.9779 -0.7102 -1.4799
 9417SOL    HW239885   3.889   0.016   8.947  0.3759 -0.9634  1.8482
 9418SOL     OW39886   4.238   2.166   2.268  0.1167 -0.0145  0.2762
 9418SOL    HW139887   4.153   2.134   2.299 -0.7071  0.4045 -1.5712
 9418SOL    HW239888   4.237   2.262   2.272  0.4379 -0.0019  0.0553
 9419SOL     OW39889   1.788   0.944   2.113  0.1478  0.7011  0.0208
 9419SOL    HW139890   1.783   1.035   2.081 -2.3896 -0.1156 -1.8574
 9419SOL    HW239891   1.875   0.934   2.153  0.5411 -0.2569 -1.0662
 9420SOL     OW39892   2.703   0.669   3.654  0.3935 -0.6691  0.1172
 9420SOL    HW139893   2.645   0.708   3.588  0.4807 -0.4772  0.1530
 9420SOL    HW239894   2.644   0.607   3.697 -2.4944 -0.0026 -2.8281
 9421SOL     OW39895   2.174   0.243   9.365 -0.4775 -0.0755 -0.0567
 9421SOL    HW139896   2.256   0.284   9.339 -0.3887 -0.2123  0.0083
 9421SOL    HW239897   2.188   0.223   9.458  0.3532 -1.4583 -0.4817
 9422SOL     OW39898   1.481   1.339   8.578  0.6668 -0.0897  0.6054
 9422SOL    HW139899   1.405   1.371   8.530 -0.4706 -1.4080  1.5125
 9422SOL    HW239900   1.552   1.388   8.537 -2.3068 -0.0049 -4.4085
 9423SOL     OW39901   1.012   0.579   6.389 -0.3183 -0.7462  0.0680
 9423SOL    HW139902   1.043   0.578   6.298 -0.6682  0.3000 -0.0608
 9423SOL    HW239903   0.934   0.633   6.384  1.7018  2.1259 -0.1350
 9424SOL     OW39904   2.129   3.531   2.408  0.5892 -0.2037 -0.3588
 9424SOL    HW139905   2.214   3.525   2.364  0.0851  1.4151 -1.5325
 9424SOL    HW239906   2.162   3.538   2.498  0.6992  0.0250 -0.4191
 9425SOL     OW39907   3.206   1.019   6.789 -0.4664  0.2931  0.0581
 9425SOL    HW139908   3.179   0.937   6.830 -1.6001  0.7395  0.2220
 9425SOL    HW239909   3.290   1.039   6.829 -0.5346 -1.9096  1.2651
 9426SOL     OW39910   2.337   2.163  15.935 -0.0301  0.2095 -1.3994
 9426SOL    HW139911   2.425   2.127  15.943  1.0300  2.8391 -1.0936
 9426SOL    HW239912   2.351   2.235  15.997 -0.8376 -0.8878  0.0661
 9427SOL     OW39913   2.637   1.880   3.717 -0.7727 -0.0710  0.2449
 9427SOL    HW139914   2.580   1.906   3.789  0.4163 -0.6661  1.3923
 9427SOL    HW239915   2.608   1.938   3.646  0.4780 -0.0012 -0.2048
 9428SOL     OW39916   4.682   1.902   1.712  0.2222 -0.3281 -0.0272
 9428SOL    HW139917   4.682   1.817   1.757  1.6573 -0.7280 -0.7641
 9428SOL    HW239918   4.598   1.932   1.746 -0.0342 -0.6985 -0.3305
 9429SOL     OW39919   4.048   2.954  14.459  0.0600  0.3364  0.0584
 9429SOL    HW139920   4.084   2.938  14.372  1.1607 -1.9743  0.9369
 9429SOL    HW239921   3.958   2.927  14.440  1.3508 -2.5421 -1.8898
 9430SOL     OW39922   0.382   2.867  11.852 -0.0722 -0.2116 -0.0366
 9430SOL    HW139923   0.403   2.776  11.831 -2.3659 -0.5841 -0.6518
 9430SOL    HW239924   0.444   2.894  11.920 -1.2674 -0.8677  1.3078
 9431SOL     OW39925   1.110   0.713   5.286  0.2236 -0.0591 -0.2192
 9431SOL    HW139926   1.049   0.787   5.297 -0.6175 -0.3256 -3.1855
 9431SOL    HW239927   1.177   0.725   5.353 -0.4103  1.0491  0.2254
 9432SOL     OW39928   2.035   4.503   8.020  0.0310 -0.2993  0.1716
 9432SOL    HW139929   1.957   4.486   7.967 -0.6351  0.3336  0.9554
 9432SOL    HW239930   2.092   4.425   8.026  0.6865  0.2284  0.8077
 9433SOL     OW39931   4.420   0.147   8.950 -0.7962  0.6748 -0.2721
 9433SOL    HW139932   4.337   0.177   8.986 -1.1123 -0.4618 -0.0697
 9433SOL    HW239933   4.393   0.068   8.904  0.2414  1.1908 -1.7816
 9434SOL     OW39934   2.725   0.646  10.514  0.3828 -0.6841 -0.0378
 9434SOL    HW139935   2.795   0.592  10.476  1.9763 -0.2320  2.2596
 9434SOL    HW239936   2.770   0.724  10.547 -0.9291 -0.2381  0.6691
 9435SOL     OW39937   2.667   4.471   6.575 -0.3883  0.2100  0.6076
 9435SOL    HW139938   2.690   4.488   6.484 -0.9541  1.1927  0.6522
 9435SOL    HW239939   2.746   4.424   6.602 -0.5228  0.0510  0.7212
 9436SOL     OW39940   0.556   3.783   6.201  0.6548 -0.1064 -0.0811
 9436SOL    HW139941   0.514   3.833   6.131  1.4389  0.6855  0.0209
 9436SOL    HW239942   0.647   3.795   6.176  0.3864 -0.9276 -1.4824
 9437SOL     OW39943   0.781   0.923   2.919 -0.3429  0.3039 -0.1797
 9437SOL    HW139944   0.730   0.869   2.859 -1.2007  0.3037  0.5669
 9437SOL    HW239945   0.732   1.001   2.945 -1.1064 -0.0506 -0.5658
 9438SOL     OW39946   2.101   2.645   8.489  0.2883  0.0770 -0.1832
 9438SOL    HW139947   2.062   2.560   8.510 -0.7563  0.5977  0.0356
 9438SOL    HW239948   2.031   2.687   8.438 -0.1213  0.0183  0.3303
 9439SOL     OW39949   0.825   0.682   3.871 -0.1197 -0.1466  0.2470
 9439SOL    HW139950   0.850   0.632   3.793  0.3148  1.9605 -0.9693
 9439SOL    HW239951   0.802   0.611   3.931 -1.8809 -0.7039 -1.0853
 9440SOL     OW39952   4.161   1.376   6.900 -0.2273 -0.6124 -0.3897
 9440SOL    HW139953   4.188   1.465   6.877  0.4395 -1.5100 -3.0409
 9440SOL    HW239954   4.081   1.367   6.848 -0.4982 -0.9676  0.0798
 9441SOL     OW39955   0.477   1.785   7.750  0.3888 -0.4221 -0.4187
 9441SOL    HW139956   0.407   1.721   7.738 -1.8404  1.7758  0.8158
 9441SOL    HW239957   0.430   1.865   7.727  1.2158 -0.5840 -2.7232
 9442SOL     OW39958   0.570   0.482  16.509 -0.5703 -0.4128  0.2158
 9442SOL    HW139959   0.556   0.570  16.474  2.4831 -0.6668 -1.5870
 9442SOL    HW239960   0.497   0.463  16.569 -0.5625  0.8453  0.6348
 9443SOL     OW39961   3.078   3.275  16.378  0.3388 -0.6050 -0.5338
 9443SOL    HW139962   3.144   3.324  16.328  2.7073 -1.5191  1.6995
 9443SOL    HW239963   3.008   3.270  16.313  1.4007 -1.0934 -1.6534
 9444SOL     OW39964   2.238   0.927  11.416 -0.0788 -0.0214 -0.3270
 9444SOL    HW139965   2.267   0.843  11.380  0.6898 -0.4610  1.3263
 9444SOL    HW239966   2.318   0.975  11.439 -0.0865 -0.2342  0.1488
 9445SOL     OW39967   4.485   3.029   1.784 -0.1546  0.3127  0.6378
 9445SOL    HW139968   4.539   2.998   1.711  1.3777  2.1993  0.9545
 9445SOL    HW239969   4.514   2.966   1.849  0.8068 -0.0124 -0.0973
 9446SOL     OW39970   0.050   1.849  13.187 -0.0783 -0.5565 -0.5577
 9446SOL    HW139971   4.719   1.895  13.233 -0.3222 -1.1859 -0.2946
 9446SOL    HW239972   0.026   1.872  13.098 -1.4825 -0.0990 -0.0565
 9447SOL     OW39973   0.853   3.234  12.290 -0.2381 -0.1819  0.1791
 9447SOL    HW139974   0.862   3.165  12.225  0.3718 -1.2896  1.4480
 9447SOL    HW239975   0.940   3.244  12.327 -1.0391  0.1535  1.9641
 9448SOL     OW39976   0.704   4.040   8.602 -0.0970  0.2049  0.3823
 9448SOL    HW139977   0.654   3.986   8.662  0.3373 -1.3781 -0.6913
 9448SOL    HW239978   0.784   3.987   8.598 -0.0022  0.1594  2.8343
 9449SOL     OW39979   3.948   0.294   5.396  0.1822  0.0627 -0.1006
 9449SOL    HW139980   3.984   0.382   5.399  0.5633 -0.0364 -1.6176
 9449SOL    HW239981   3.869   0.290   5.450  0.5348 -1.1095  0.3424
 9450SOL     OW39982   1.998   3.844   2.693 -0.1252 -0.7511 -0.2811
 9450SOL    HW139983   1.991   3.863   2.599 -0.0297 -1.5913 -0.4599
 9450SOL    HW239984   1.988   3.933   2.728 -0.7857 -0.9002 -0.0815
 9451SOL     OW39985   1.202   3.160   3.892 -0.4361 -0.1297  0.1454
 9451SOL    HW139986   1.203   3.069   3.924 -0.6825 -0.4571 -0.7629
 9451SOL    HW239987   1.249   3.207   3.960  0.0776  0.2257 -0.4500
 9452SOL     OW39988   3.815   2.270   6.500 -0.7707  0.1429 -0.0981
 9452SOL    HW139989   3.826   2.337   6.431  0.2254 -0.8776 -0.9302
 9452SOL    HW239990   3.746   2.213   6.466 -1.4773  0.1027  1.3957
 9453SOL     OW39991   2.551   3.288  12.970 -0.6968 -0.1397 -0.2928
 9453SOL    HW139992   2.502   3.371  12.968  2.4418  1.7192  0.7325
 9453SOL    HW239993   2.635   3.318  12.938 -1.0990  0.5365 -0.7056
 9454SOL     OW39994   0.253   1.268   8.351  0.0925  0.9496  0.5210
 9454SOL    HW139995   0.212   1.352   8.372 -1.5932  0.3407 -0.3703
 9454SOL    HW239996   0.198   1.201   8.392  0.2347  0.3291 -0.3015
 9455SOL     OW39997   2.417   0.101   1.377  0.2207  0.4124 -0.2259
 9455SOL    HW139998   2.434   0.189   1.342 -0.6487  0.7544  0.2089
 9455SOL    HW239999   2.508   0.074   1.364  0.2314  0.2824  0.1365
 9456SOL     OW40000   3.906   0.032  15.248 -0.8539 -0.0186 -0.2035
 9456SOL    HW140001   3.882   4.697  15.192  1.9059 -0.5870 -0.6685
 9456SOL    HW240002   3.992   0.049  15.208  0.5518 -2.4060  1.8123
 9457SOL     OW40003   3.740   2.591  10.197 -0.5289  0.0139  0.2577
 9457SOL    HW140004   3.736   2.498  10.218 -4.2862 -0.6097 -3.2222
 9457SOL    HW240005   3.659   2.620  10.241 -0.3396  0.3990  0.3563
 9458SOL     OW40006   2.741   3.263   4.359  0.4639 -0.1374 -0.2028
 9458SOL    HW140007   2.737   3.195   4.426  0.0528  0.7786  0.6931
 9458SOL    HW240008   2.814   3.310   4.399 -0.7393  1.2834  0.3088
 9459SOL     OW40009   2.643   0.402   3.269  0.8952 -0.7243 -0.0598
 9459SOL    HW140010   2.575   0.439   3.214 -0.0322 -0.8971  0.9608
 9459SOL    HW240011   2.707   0.473   3.265  1.5904 -1.2565  1.3005
 9460SOL     OW40012   2.734   1.458   6.070  0.2106 -0.5506  0.6353
 9460SOL    HW140013   2.721   1.535   6.015 -0.2051 -1.1771 -0.1483
 9460SOL    HW240014   2.685   1.485   6.148 -1.0987 -0.6465 -0.1548
 9461SOL     OW40015   1.469   4.585   3.898 -0.0488 -0.5542  0.1278
 9461SOL    HW140016   1.554   4.543   3.900  1.0164  1.7005  1.4358
 9461SOL    HW240017   1.466   4.619   3.987 -1.5054 -0.9807  0.2469
 9462SOL     OW40018   0.597   3.631  15.217  0.1480  0.2610 -0.2183
 9462SOL    HW140019   0.644   3.705  15.177  1.0075  0.1530  0.5759
 9462SOL    HW240020   0.606   3.567  15.147  1.5749 -1.2937  1.3861
 9463SOL     OW40021   3.124   1.901  15.033 -0.2764  0.2131  0.3601
 9463SOL    HW140022   3.194   1.861  15.084 -0.3199 -2.6530 -1.8938
 9463SOL    HW240023   3.130   1.997  15.039 -0.7803  0.3624 -1.6068
 9464SOL     OW40024   2.223   2.483   9.607 -0.1585 -0.6743  0.1543
 9464SOL    HW140025   2.316   2.461   9.611 -0.4437 -2.0523 -0.7699
 9464SOL    HW240026   2.172   2.415   9.650 -2.3170  1.8735  1.6767
 9465SOL     OW40027   1.887   0.642   6.029  0.1164  0.1596 -0.0918
 9465SOL    HW140028   1.868   0.709   6.094  0.8016 -0.0013  0.2755
 9465SOL    HW240029   1.968   0.684   5.997  0.0864 -0.4462 -0.9649
 9466SOL     OW40030   2.242   2.586   0.282  0.2442 -1.2874 -0.2241
 9466SOL    HW140031   2.170   2.591   0.219 -0.7502  2.0210  1.1874
 9466SOL    HW240032   2.240   2.493   0.302 -1.1944 -1.0284  0.8170
 9467SOL     OW40033   3.559   3.594   2.592 -0.5442 -0.0281 -0.2786
 9467SOL    HW140034   3.571   3.687   2.578  0.0360  0.0518  0.7656
 9467SOL    HW240035   3.521   3.554   2.514  1.6755  3.0142 -2.8926
 9468SOL     OW40036   0.058   0.945   7.626 -0.4871 -0.1398 -0.1324
 9468SOL    HW140037   0.103   0.870   7.587 -1.2502 -0.8213  0.3063
 9468SOL    HW240038   0.126   1.008   7.602  1.7714 -2.0266  1.2958
 9469SOL     OW40039   2.925   1.404  15.731  0.2932  0.5340  0.2764
 9469SOL    HW140040   2.947   1.495  15.751  2.6403 -0.2753  1.3174
 9469SOL    HW240041   2.853   1.389  15.792 -0.2794  0.5070 -0.4080
 9470SOL     OW40042   0.644   2.929  12.652  0.6707 -0.5372 -0.2093
 9470SOL    HW140043   0.637   2.973  12.737  1.1583  0.3241 -0.6130
 9470SOL    HW240044   0.573   2.865  12.651  1.5390 -1.4291 -2.9056
 9471SOL     OW40045   1.710   0.968   9.820 -0.0983  0.5797  0.1386
 9471SOL    HW140046   1.687   0.913   9.894 -3.5482 -1.6712 -2.5967
 9471SOL    HW240047   1.626   1.012   9.804 -0.2542  0.0452 -0.5234
 9472SOL     OW40048   2.679   0.026   1.430 -0.1460 -0.1751  0.2775
 9472SOL    HW140049   2.657   4.680   1.470 -0.2727  0.8838  2.3871
 9472SOL    HW240050   2.684   0.074   1.512 -0.7926 -1.2745  0.9694
 9473SOL     OW40051   1.035   2.238   5.639 -0.2696  0.1450  0.3383
 9473SOL    HW140052   1.088   2.267   5.713 -0.5354  0.4197  0.4168
 9473SOL    HW240053   0.977   2.184   5.693  0.3222  0.6348  1.4744
 9474SOL     OW40054   2.192   3.545   5.816 -0.5865  0.5419 -0.0774
 9474SOL    HW140055   2.122   3.558   5.880  0.9141 -1.4444  1.9412
 9474SOL    HW240056   2.167   3.457   5.788  1.4117 -0.4819  1.3419
 9475SOL     OW40057   0.210   1.436   6.398  0.4271  0.0132  0.3789
 9475SOL    HW140058   0.204   1.355   6.449 -1.9248 -0.2922 -0.3599
 9475SOL    HW240059   0.243   1.404   6.314 -0.7999 -1.9518  0.6428
 9476SOL     OW40060   2.827   0.395  10.182  0.1280 -0.4055  0.3751
 9476SOL    HW140061   2.859   0.355  10.102  2.4314  1.8742  0.1655
 9476SOL    HW240062   2.861   0.484  10.168  2.4837 -1.5665 -1.1483
 9477SOL     OW40063   0.931   4.704   1.218  0.5050  0.1515  0.2460
 9477SOL    HW140064   0.981   4.654   1.153  1.1029  1.8798 -0.6135
 9477SOL    HW240065   0.983   4.694   1.298  1.2889  0.2685 -0.2463
 9478SOL     OW40066   2.394   1.028  10.639 -1.0421 -0.2831 -0.0281
 9478SOL    HW140067   2.449   0.975  10.581 -1.0088  2.0710 -2.1530
 9478SOL    HW240068   2.329   1.055  10.575 -2.4541 -2.4809  0.4717
 9479SOL     OW40069   2.453   2.880   5.032 -0.2772  0.1708  0.6275
 9479SOL    HW140070   2.458   2.786   5.011 -1.3306  0.5210 -1.1697
 9479SOL    HW240071   2.383   2.884   5.097 -2.0170  0.9469 -1.2881
 9480SOL     OW40072   1.554   2.786   2.460  0.0922  0.4604  0.5646
 9480SOL    HW140073   1.606   2.755   2.534  1.7014 -2.9996 -2.0190
 9480SOL    HW240074   1.626   2.809   2.402  0.3882 -0.1259  0.6977
 9481SOL     OW40075   0.915   4.021   8.317 -0.3287  0.1909  0.0442
 9481SOL    HW140076   0.914   4.091   8.252 -1.3799  2.4857  2.4818
 9481SOL    HW240077   0.836   3.979   8.284 -0.9418  0.8573  0.6559
 9482SOL     OW40078   0.679   3.630   5.543 -0.1371 -0.0219  0.1976
 9482SOL    HW140079   0.665   3.536   5.549  0.3184 -0.4313 -4.6951
 9482SOL    HW240080   0.752   3.636   5.604  0.6248 -0.9024 -0.6198
 9483SOL     OW40081   0.712   0.605   8.163  0.8278 -0.2600  0.2801
 9483SOL    HW140082   0.694   0.662   8.088 -2.5855 -3.5690 -1.4483
 9483SOL    HW240083   0.807   0.607   8.157  0.8216  0.9863  0.6138
 9484SOL     OW40084   0.887   2.068   0.863  0.4176  0.1197  0.3064
 9484SOL    HW140085   0.858   2.138   0.804  1.2544 -0.0746 -0.3352
 9484SOL    HW240086   0.828   1.998   0.835  1.0736  0.9178 -3.1560
 9485SOL     OW40087   0.876   2.118  17.382 -0.5113  0.6706 -0.1222
 9485SOL    HW140088   0.842   2.200  17.346  1.2175  1.6405  0.4462
 9485SOL    HW240089   0.969   2.115  17.360 -1.1171  0.9373 -2.7896
 9486SOL     OW40090   0.690   1.671  14.274 -0.0832  0.4448 -0.4298
 9486SOL    HW140091   0.719   1.650  14.185  1.7943  0.6013  0.1392
 9486SOL    HW240092   0.639   1.594  14.299  1.0567  0.0088  0.5309
 9487SOL     OW40093   2.526   2.884   5.912  0.0466 -0.5618  0.1370
 9487SOL    HW140094   2.527   2.951   5.980  1.3519 -0.4058 -0.0254
 9487SOL    HW240095   2.601   2.841   5.954 -0.9029 -0.9440  1.4483
 9488SOL     OW40096   3.439   2.668   5.854 -0.0809  0.4711 -0.3555
 9488SOL    HW140097   3.468   2.581   5.827  1.3993  1.1205 -0.8558
 9488SOL    HW240098   3.514   2.716   5.817 -1.7655  0.7827 -3.3274
 9489SOL     OW40099   0.251   3.485   7.413 -0.2089 -0.0005  0.3577
 9489SOL    HW140100   0.305   3.429   7.469 -0.2991  0.8735  1.3072
 9489SOL    HW240101   0.290   3.476   7.326 -0.4385  0.3531  0.2160
 9490SOL     OW40102   3.729   2.608   2.803 -0.3063  0.3135 -0.0733
 9490SOL    HW140103   3.685   2.524   2.792 -1.1711  0.6824  0.5219
 9490SOL    HW240104   3.708   2.643   2.890  1.3235 -1.3035  0.9786
 9491SOL     OW40105   1.812   1.977   6.079 -0.3645  0.1290  0.5622
 9491SOL    HW140106   1.838   1.889   6.050 -0.0050  0.1948  0.7004
 9491SOL    HW240107   1.742   1.960   6.142 -0.2548 -1.1931  0.3358
 9492SOL     OW40108   2.308   3.939   5.733 -0.2912  0.4684 -0.3322
 9492SOL    HW140109   2.380   3.879   5.752  1.4434  2.1082 -1.6539
 9492SOL    HW240110   2.234   3.883   5.757 -0.2777  0.1706 -0.9867
 9493SOL     OW40111   3.118   1.141  16.489 -0.2997  0.3635 -0.3910
 9493SOL    HW140112   3.212   1.155  16.498 -0.4063 -0.1835  1.3819
 9493SOL    HW240113   3.093   1.193  16.412  1.9865  0.5470 -1.0191
 9494SOL     OW40114   1.720   3.784  17.156  0.3218  0.2848  0.1276
 9494SOL    HW140115   1.683   3.784  17.245 -1.9453 -0.8152 -0.8217
 9494SOL    HW240116   1.780   3.711  17.170  0.4448  0.3671  0.0249
 9495SOL     OW40117   1.500   1.946   5.700 -0.1880 -0.4602  0.3673
 9495SOL    HW140118   1.519   1.930   5.792  0.6821  1.6115  0.5259
 9495SOL    HW240119   1.407   1.925   5.691  0.0150 -0.9246 -0.6509
 9496SOL     OW40120   2.326   2.742   7.669 -0.3380 -0.7054  0.2366
 9496SOL    HW140121   2.407   2.726   7.717  0.5177 -1.7863 -1.5627
 9496SOL    HW240122   2.284   2.786   7.743 -1.5008  0.4747 -1.1388
 9497SOL     OW40123   2.104   2.173  12.110  0.4399 -0.5346 -0.5157
 9497SOL    HW140124   2.071   2.155  12.198  1.1374  0.3001 -0.0806
 9497SOL    HW240125   2.061   2.255  12.084 -1.3788 -1.4641 -0.4190
 9498SOL     OW40126   2.304   0.512   7.554  0.5246 -0.3563 -0.3555
 9498SOL    HW140127   2.322   0.495   7.647  1.5795  2.2886 -0.0732
 9498SOL    HW240128   2.392   0.509   7.518  0.2384  1.0874 -1.1539
 9499SOL     OW40129   3.942   3.739   8.301 -0.3177 -0.1161  0.0733
 9499SOL    HW140130   3.847   3.745   8.313 -0.2606 -0.3580  0.6820
 9499SOL    HW240131   3.949   3.644   8.315  0.6490 -0.1869 -0.9413
 9500SOL     OW40132   2.587   1.223  17.521 -0.2642 -0.0649  0.3053
 9500SOL    HW140133   2.492   1.213  17.519 -0.3603  0.9116  0.2336
 9500SOL    HW240134   2.626   1.143  17.485 -1.3940 -0.3367 -0.3215
 9501SOL     OW40135   3.375   2.449   8.531  0.0351 -0.2344  0.1515
 9501SOL    HW140136   3.458   2.456   8.579 -0.3422  1.1189  0.6173
 9501SOL    HW240137   3.411   2.452   8.443 -1.2428 -3.7230 -0.4820
 9502SOL     OW40138   2.140   4.193   5.093  0.4936  0.0613 -0.1981
 9502SOL    HW140139   2.208   4.127   5.105  1.1399  0.6773 -0.4844
 9502SOL    HW240140   2.176   4.231   5.013  0.2065  2.2613  0.7318
 9503SOL     OW40141   4.171   2.309  17.080 -0.0304  0.0547 -0.6375
 9503SOL    HW140142   4.177   2.280  17.171  2.1094  2.5563  0.0301
 9503SOL    HW240143   4.231   2.249  17.036  0.8773  1.8707 -1.8618
 9504SOL     OW40144   2.659   2.277   1.915  0.4575  0.3545  0.0214
 9504SOL    HW140145   2.601   2.224   1.861 -0.6692  2.2532 -0.6659
 9504SOL    HW240146   2.674   2.360   1.868  1.9527 -1.2864 -2.4219
 9505SOL     OW40147   4.239   2.123  13.023  0.2489 -0.2459  0.0903
 9505SOL    HW140148   4.313   2.143  13.080 -0.8170  1.0156  1.0083
 9505SOL    HW240149   4.230   2.197  12.963  0.1226 -1.2762 -1.1918
 9506SOL     OW40150   2.768   0.573   7.257  0.3227  0.2329  0.1222
 9506SOL    HW140151   2.680   0.572   7.295 -0.7024  0.6531 -2.2113
 9506SOL    HW240152   2.742   0.559   7.166 -2.7197 -0.3543  1.0758
 9507SOL     OW40153   3.422   0.930   3.091 -0.3634 -0.3186 -0.2614
 9507SOL    HW140154   3.403   0.849   3.139  1.8548  0.1740  1.4865
 9507SOL    HW240155   3.426   0.997   3.160 -1.4697 -0.4162 -0.1046
 9508SOL     OW40156   1.809   3.845   4.759 -0.3234 -0.2449  0.2496
 9508SOL    HW140157   1.856   3.803   4.687  1.4893  0.8331  0.8053
 9508SOL    HW240158   1.812   3.939   4.741 -1.0042 -0.0313  1.2689
 9509SOL     OW40159   2.028   2.360   4.464 -0.1383  0.7235 -0.1961
 9509SOL    HW140160   2.078   2.440   4.448  2.1627 -0.4596  0.8995
 9509SOL    HW240161   1.939   2.392   4.473 -0.6587 -1.0229  1.0145
 9510SOL     OW40162   4.594   4.248   1.558  0.2061  0.5986 -0.2512
 9510SOL    HW140163   4.517   4.276   1.609 -1.4526 -1.4293 -1.6375
 9510SOL    HW240164   4.638   4.333   1.552  1.3484 -0.0857 -1.4345
 9511SOL     OW40165   3.209   1.717   3.493  0.2162 -0.1451  0.4589
 9511SOL    HW140166   3.282   1.764   3.535 -0.3373  1.3745 -0.2865
 9511SOL    HW240167   3.169   1.792   3.448  0.1723  0.4634  1.5055
 9512SOL     OW40168   3.235   3.201   5.178 -0.9922 -0.2956  0.1655
 9512SOL    HW140169   3.325   3.217   5.150 -0.3813 -0.8278  1.8341
 9512SOL    HW240170   3.190   3.221   5.095  0.5777  1.1596 -0.3430
 9513SOL     OW40171   3.605   3.039  13.553  0.2288  0.6360 -0.3241
 9513SOL    HW140172   3.678   3.029  13.614 -1.2771 -0.6981  1.2644
 9513SOL    HW240173   3.599   2.947  13.529  1.2431  0.4590  0.0828
 9514SOL     OW40174   0.775   0.208   1.901 -0.3355  0.2151  0.2108
 9514SOL    HW140175   0.702   0.270   1.893 -1.6547 -0.9825  2.8416
 9514SOL    HW240176   0.765   0.162   1.817  0.3745 -2.8798  1.8364
 9515SOL     OW40177   1.954   1.548   1.752 -0.0232 -0.0299 -0.0446
 9515SOL    HW140178   2.000   1.517   1.829 -0.2630 -0.8720 -0.2419
 9515SOL    HW240179   1.937   1.639   1.775  0.5041 -0.3103  1.4199
 9516SOL     OW40180   1.077   4.709  13.798 -0.3560  0.5207  0.0837
 9516SOL    HW140181   1.132   4.634  13.820  2.0122  1.9869 -0.7794
 9516SOL    HW240182   0.992   4.698  13.841 -1.3380 -1.3085 -2.2936
 9517SOL     OW40183   3.585   0.975   9.310 -0.0680  0.2253  0.1774
 9517SOL    HW140184   3.571   0.880   9.316 -1.0978  0.4667  1.5552
 9517SOL    HW240185   3.540   1.017   9.383 -0.7826  0.8769 -0.6475
 9518SOL     OW40186   3.489   4.581   4.248  0.3565  0.2628  0.0063
 9518SOL    HW140187   3.425   4.563   4.317  1.7387 -2.2093  0.6600
 9518SOL    HW240188   3.512   4.492   4.219  0.3572  0.1841  0.2498
 9519SOL     OW40189   1.675   0.659   0.704  0.4255  0.1172 -0.1332
 9519SOL    HW140190   1.704   0.575   0.740 -0.4559 -1.5256 -3.3497
 9519SOL    HW240191   1.583   0.662   0.730  0.9645 -0.3682  1.8219
 9520SOL     OW40192   1.948   2.378   2.175  0.2381  0.2120  0.2996
 9520SOL    HW140193   1.981   2.467   2.191 -0.1223  0.5695 -0.8967
 9520SOL    HW240194   1.865   2.380   2.223 -0.3521  2.6453 -0.7682
 9521SOL     OW40195   0.587   0.071   5.087 -0.8425 -0.3376 -0.1161
 9521SOL    HW140196   0.603   4.715   5.087 -0.3135 -0.2460 -1.0631
 9521SOL    HW240197   0.562   0.076   4.994 -0.8626 -1.0052 -0.1436
 9522SOL     OW40198   2.722   1.724   6.637  0.0082  0.5669  0.0788
 9522SOL    HW140199   2.797   1.666   6.652 -1.9603 -1.8794  0.3121
 9522SOL    HW240200   2.767   1.809   6.640  1.6688 -0.2755 -0.7364
 9523SOL     OW40201   2.005   1.259  13.993  0.3038  0.2530  0.1229
 9523SOL    HW140202   2.097   1.279  13.976  1.1956 -0.8067  3.6524
 9523SOL    HW240203   1.968   1.347  13.998 -0.1875  0.0951 -0.7999
 9524SOL     OW40204   2.090   1.097  17.574 -0.2810 -0.1922  0.5108
 9524SOL    HW140205   2.056   1.065  17.491  0.1836  1.2106 -0.2222
 9524SOL    HW240206   2.085   1.016  17.624 -1.5389  0.6823  1.8035
 9525SOL     OW40207   1.189   4.445   1.622  0.3030 -0.2392  0.4670
 9525SOL    HW140208   1.210   4.431   1.715 -0.4119  1.3853  0.8723
 9525SOL    HW240209   1.102   4.409   1.607  0.1518  0.3524 -0.0088
 9526SOL     OW40210   4.404   3.304   7.258  0.1638  0.2641  0.5048
 9526SOL    HW140211   4.403   3.245   7.183 -2.7094  3.8361 -2.2492
 9526SOL    HW240212   4.340   3.262   7.315 -0.5715  0.9152  0.1704
 9527SOL     OW40213   4.375   0.142   2.268 -0.3931  0.2043 -0.4624
 9527SOL    HW140214   4.394   0.055   2.231  1.7755  0.3580  0.3136
 9527SOL    HW240215   4.461   0.183   2.260 -0.5186  0.8115  1.3350
 9528SOL     OW40216   3.971   0.288  16.981 -0.1221  0.3189 -0.1989
 9528SOL    HW140217   3.914   0.211  16.983  1.1559 -0.5466  2.1089
 9528SOL    HW240218   4.029   0.272  16.906 -1.0629  2.1961 -1.3110
 9529SOL     OW40219   1.584   3.627   6.818 -0.3875 -0.8215 -0.3805
 9529SOL    HW140220   1.633   3.601   6.739 -0.2307  1.7648 -1.1620
 9529SOL    HW240221   1.511   3.675   6.777 -0.9985  0.3785  2.1139
 9530SOL     OW40222   2.102   3.354   4.562 -0.2444  0.5571 -0.3726
 9530SOL    HW140223   2.015   3.396   4.560 -1.4720 -1.9401  0.6913
 9530SOL    HW240224   2.091   3.293   4.490 -0.1070  0.1300 -0.0302
 9531SOL     OW40225   3.348   1.202  10.874  0.0990 -0.5376 -0.2232
 9531SOL    HW140226   3.397   1.174  10.952 -0.0693 -1.7738 -0.5682
 9531SOL    HW240227   3.300   1.130  10.836 -1.2495  0.6570 -0.7790
 9532SOL     OW40228   0.015   1.999   4.809  0.0414  0.1547  0.1676
 9532SOL    HW140229   4.729   1.959   4.726  0.4081 -0.8616  0.5470
 9532SOL    HW240230   4.669   2.039   4.831  0.1254  0.5763 -0.2718
 9533SOL     OW40231   4.653   3.474  17.057  0.4495  0.3932  0.0201
 9533SOL    HW140232   4.697   3.502  17.137  0.0989 -1.4153  0.8474
 9533SOL    HW240233   4.698   3.394  17.029  1.4591  0.1361  2.4203
 9534SOL     OW40234   2.545   2.393   7.219 -1.0201  0.0642  0.4690
 9534SOL    HW140235   2.515   2.386   7.310 -1.5953 -0.6619  0.2217
 9534SOL    HW240236   2.622   2.444   7.243 -0.7376 -0.0700 -0.1537
 9535SOL     OW40237   4.088   2.951   8.556  0.5054  0.3010 -0.1877
 9535SOL    HW140238   4.127   2.949   8.469 -2.2749  2.3566 -1.4899
 9535SOL    HW240239   4.075   2.857   8.572 -1.6372  0.8997  1.5968
 9536SOL     OW40240   0.182   0.867   8.416  0.4582 -0.2494 -0.5982
 9536SOL    HW140241   0.189   0.793   8.476 -1.9595 -1.3481 -1.6719
 9536SOL    HW240242   0.118   0.919   8.464  0.6670  0.3358 -0.9485
 9537SOL     OW40243   1.632   3.630   6.542  0.5459  0.6727 -0.2669
 9537SOL    HW140244   1.625   3.724   6.528 -0.1827  0.9124  1.6301
 9537SOL    HW240245   1.727   3.622   6.550  0.5671  0.5997 -0.6010
 9538SOL     OW40246   3.267   3.048  10.330 -0.6830  0.1112  0.0590
 9538SOL    HW140247   3.292   3.107  10.402  0.5201  0.5007 -0.6776
 9538SOL    HW240248   3.290   2.965  10.371  0.3040 -0.1490 -1.0008
 9539SOL     OW40249   0.031   1.835   5.813 -0.0352 -0.1605  0.1594
 9539SOL    HW140250   0.083   1.888   5.753  0.9292  1.2390  2.2462
 9539SOL    HW240251   4.694   1.817   5.757  1.2506  1.9557 -2.1948
 9540SOL     OW40252   1.944   4.339   2.737  0.0230  0.4421 -0.6710
 9540SOL    HW140253   2.039   4.346   2.727  0.0614 -1.7498 -1.8707
 9540SOL    HW240254   1.914   4.342   2.646  1.5887  0.0352 -1.1934
 9541SOL     OW40255   2.404   3.118   4.459 -0.0571  0.1913 -0.2144
 9541SOL    HW140256   2.422   3.179   4.530 -1.9242  0.6048 -0.1018
 9541SOL    HW240257   2.480   3.063   4.441 -0.4289 -0.2122 -0.5779
 9542SOL     OW40258   0.055   3.215   6.301  0.3557 -0.0007  0.1697
 9542SOL    HW140259   0.117   3.257   6.242 -0.9310 -0.1486 -1.2974
 9542SOL    HW240260   4.730   3.207   6.230  1.0701 -0.3668 -0.4262
 9543SOL     OW40261   2.358   3.951   1.023 -0.5695 -0.2379 -0.1429
 9543SOL    HW140262   2.429   3.908   0.976 -0.9661 -2.6316  1.4270
 9543SOL    HW240263   2.407   4.015   1.076 -2.5064  2.1842 -1.2574
 9544SOL     OW40264   0.122   2.186   2.457  0.4058 -0.5470 -0.1076
 9544SOL    HW140265   0.103   2.161   2.548  2.8018  1.0898  0.8581
 9544SOL    HW240266   0.207   2.229   2.469 -0.8529  1.5983  1.1300
 9545SOL     OW40267   4.131   1.877   5.238 -0.3981 -0.6730  0.4029
 9545SOL    HW140268   4.157   1.808   5.299  0.3353 -0.9826 -0.2779
 9545SOL    HW240269   4.038   1.856   5.236 -0.6556  0.2071  2.9125
 9546SOL     OW40270   2.121   4.194   9.219  0.3116 -0.0935 -0.4088
 9546SOL    HW140271   2.190   4.258   9.203  0.9262 -0.6223  0.1184
 9546SOL    HW240272   2.154   4.175   9.307  0.5061 -0.3093 -0.5293
 9547SOL     OW40273   4.061   1.897   6.330  0.9690  0.1175  1.0664
 9547SOL    HW140274   4.058   1.828   6.396 -4.4479 -1.1031 -0.4580
 9547SOL    HW240275   4.047   1.975   6.384  0.3368  1.3665 -0.8757
 9548SOL     OW40276   2.462   3.806   2.703 -0.1210  0.4366  0.1379
 9548SOL    HW140277   2.549   3.837   2.727 -1.2174  3.3753  0.2925
 9548SOL    HW240278   2.489   3.730   2.652 -2.6050 -0.8711  0.7402
 9549SOL     OW40279   2.485   1.659   6.514  0.1037  0.0902 -0.5262
 9549SOL    HW140280   2.502   1.565   6.503  0.1336  0.2173 -1.5635
 9549SOL    HW240281   2.560   1.677   6.570 -0.0389 -0.6067 -0.1027
 9550SOL     OW40282   1.185   4.367  13.760  0.0488 -0.3277  0.6701
 9550SOL    HW140283   1.235   4.287  13.775  1.0246  0.2917  0.8045
 9550SOL    HW240284   1.250   4.438  13.764 -1.1206  0.9495 -3.2089
 9551SOL     OW40285   3.786   3.690   1.741  0.2282 -0.3817  0.0376
 9551SOL    HW140286   3.878   3.710   1.759 -0.2361  1.6767  0.2000
 9551SOL    HW240287   3.755   3.643   1.818 -0.5299  0.1476  0.0562
 9552SOL     OW40288   2.889   4.418   0.640 -0.2920  0.0567 -0.3342
 9552SOL    HW140289   2.887   4.335   0.593  0.2415  2.0285 -3.8438
 9552SOL    HW240290   2.966   4.398   0.694 -0.6374  0.0355  0.1526
 9553SOL     OW40291   4.537   4.306  10.154 -0.0060  0.1189  0.5832
 9553SOL    HW140292   4.582   4.370  10.210 -0.3683  0.3605  0.5998
 9553SOL    HW240293   4.601   4.297  10.084  1.2877  0.8150  1.6738
 9554SOL     OW40294   2.931   3.302   7.099 -0.0340  0.2028  0.6862
 9554SOL    HW140295   2.929   3.308   7.195 -1.4481  2.1016  0.5322
 9554SOL    HW240296   2.838   3.281   7.088 -0.1991  1.6599 -0.7251
 9555SOL     OW40297   0.605   3.987   5.249  0.1377  0.3196  0.6778
 9555SOL    HW140298   0.638   4.013   5.162 -2.0047 -1.1809 -0.5945
 9555SOL    HW240299   0.620   3.892   5.250  2.8036  0.6807 -1.8490
 9556SOL     OW40300   3.721   4.127   8.824 -0.0312 -0.0585  0.3294
 9556SOL    HW140301   3.668   4.066   8.876  0.7770 -2.0553 -1.1670
 9556SOL    HW240302   3.784   4.071   8.778 -0.8151 -1.0713  0.4854
 9557SOL     OW40303   2.137   0.547   1.635  0.1384  0.4092  0.8237
 9557SOL    HW140304   2.174   0.459   1.631 -0.5645  0.1411  0.2650
 9557SOL    HW240305   2.218   0.598   1.631  0.8949 -0.7438  1.8586
 9558SOL     OW40306   1.902   1.807   1.816 -0.3713  0.0707 -0.5520
 9558SOL    HW140307   1.933   1.804   1.906  0.3201 -0.9519 -0.8303
 9558SOL    HW240308   1.977   1.852   1.778  1.9668 -2.1399  1.5229
 9559SOL     OW40309   0.076   0.380   7.696 -0.1469 -0.0934 -0.2842
 9559SOL    HW140310   0.006   0.443   7.711  2.1072  2.4225 -0.5098
 9559SOL    HW240311   0.050   0.320   7.626 -1.3023 -0.1947  0.2246
 9560SOL     OW40312   1.851   0.997   6.925  0.0505  0.1906 -0.9967
 9560SOL    HW140313   1.791   1.060   6.964 -0.6997 -1.6368  0.7973
 9560SOL    HW240314   1.837   0.915   6.972 -0.3193  0.0366 -1.3678
 9561SOL     OW40315   3.206   3.529   5.778 -0.0130 -0.3009  0.2151
 9561SOL    HW140316   3.133   3.572   5.733  1.6928  1.8552 -0.4945
 9561SOL    HW240317   3.152   3.479   5.838 -0.6725 -1.3239 -1.2343
 9562SOL     OW40318   3.785   2.379   3.940  0.0263 -0.0575  0.1792
 9562SOL    HW140319   3.831   2.397   3.858 -1.1766 -2.3148 -0.9755
 9562SOL    HW240320   3.788   2.467   3.977 -1.0287  0.9249 -2.0428
 9563SOL     OW40321   0.943   3.204   3.357 -0.2062  0.4279 -0.2455
 9563SOL    HW140322   1.000   3.201   3.280  0.6453  0.5702  0.3812
 9563SOL    HW240323   0.962   3.118   3.395  0.4596  1.1693  1.1050
 9564SOL     OW40324   4.684   4.390   8.522 -0.0010  0.0895  0.4103
 9564SOL    HW140325   4.677   4.294   8.521 -0.1153  0.0954  0.5310
 9564SOL    HW240326   4.721   4.406   8.609 -1.1565 -0.8325  1.0793
 9565SOL     OW40327   2.147   2.776  15.761  0.0640  0.3123  0.0305
 9565SOL    HW140328   2.218   2.725  15.722 -0.4308 -1.0554  0.8934
 9565SOL    HW240329   2.071   2.718  15.756 -0.6763  0.9575  3.6709
 9566SOL     OW40330   3.412   0.824  15.612  0.1792 -0.7421 -0.1540
 9566SOL    HW140331   3.357   0.901  15.624 -0.6061 -1.2456 -0.5285
 9566SOL    HW240332   3.364   0.770  15.549  0.0622  1.4562 -1.9451
 9567SOL     OW40333   1.630   1.041   6.270 -0.1583  0.3971  0.0225
 9567SOL    HW140334   1.547   1.039   6.317  0.2247  0.1851  0.6844
 9567SOL    HW240335   1.656   1.129   6.297  1.0346 -0.3448  1.2711
 9568SOL     OW40336   2.327   2.616   5.299 -0.3065  0.1491  0.9299
 9568SOL    HW140337   2.421   2.621   5.313  0.0310  1.3089 -1.7091
 9568SOL    HW240338   2.303   2.556   5.369 -3.5718  0.1445 -0.1784
 9569SOL     OW40339   3.537   3.811  11.255 -0.3164 -0.1241 -0.3911
 9569SOL    HW140340   3.519   3.794  11.163 -0.5889 -0.7076 -0.2369
 9569SOL    HW240341   3.618   3.861  11.257 -0.2347 -0.3335  1.4987
 9570SOL     OW40342   4.305   1.555  10.216  0.1119  0.4335 -0.0519
 9570SOL    HW140343   4.293   1.460  10.208 -2.7230  0.6373  2.0756
 9570SOL    HW240344   4.400   1.555  10.206  0.0554  2.7864 -0.5483
 9571SOL     OW40345   3.237   3.731   4.957 -0.3551 -0.5035 -0.1786
 9571SOL    HW140346   3.191   3.648   4.944  0.4497 -0.6794 -1.7890
 9571SOL    HW240347   3.262   3.729   5.049 -1.8908 -0.8398  0.2353
   4.73835   4.73835  17.75142
