Membrane in water
40347
    1TMC1    C1    1   2.717   2.636  11.485 -0.2985 -0.1165  0.3656
    1TMC1    C2    2   2.767   2.583  11.371  0.2634  0.7271 -0.1221
    1TMC1    C3    3   2.767   2.663  11.260 -0.6209 -0.2283 -0.5906
    1TMC1    C4    4   2.673   2.767  11.486 -0.0578  0.0139 -0.5986
    1TMC1    C5    5   2.685   2.840  11.377  0.1627 -0.0561 -0.0752
    1TMC1    C6    6   2.732   2.794  11.261 -0.5236  0.2299 -0.3233
    1TMC1     C    7   2.621   2.553  11.561 -0.5761 -0.3199  0.0196
    1TMC1     O    8   2.513   2.531  11.513  0.2697  0.3889  0.1913
    1TMC1     H    9   2.787   2.476  11.368  1.1870  0.8701  0.8940
    1TMC1    H1   10   2.615   2.811  11.566 -0.2523 -1.3463 -0.0093
    1TMC1    H2   11   2.743   2.849  11.169  0.7851 -1.2629 -1.0618
    1TMC1    C7   12   2.587   2.950  11.368 -0.0386  0.8278  0.4186
    1TMC1    C8   13   2.800   2.591  11.138 -0.1810 -0.7098 -0.1471
    1TMC1    O1   14   2.556   3.023  11.462 -0.6837 -0.0332 -0.3143
    1TMC1    O2   15   2.883   2.496  11.136 -0.0259 -0.1055 -0.5599
    1TMC1    O3   16   2.575   2.993  11.243  0.3019 -0.0198 -0.4801
    1TMC1    H3   17   2.573   2.917  11.181 -1.2115 -1.6189  1.4960
    1TMC1    O5   18   2.715   2.621  11.040  0.0639 -0.2234 -0.3965
    1TMC1    H5   19   2.647   2.684  11.072  0.5226  0.1365 -0.1453
    2MPD2     C   20   2.456   2.303  11.976  0.3337 -0.2800 -0.1909
    2MPD2    C1   21   2.411   2.308  11.850  0.1903  0.2367 -0.5330
    2MPD2    C2   22   2.468   2.388  11.757 -0.0118  0.1895 -0.5555
    2MPD2    C3   23   2.586   2.461  11.788  0.0591  0.4829  0.0978
    2MPD2    C4   24   2.633   2.451  11.915 -0.5079  0.2713  0.4961
    2MPD2    C5   25   2.571   2.374  12.008  0.3606  0.2195 -0.7075
    2MPD2     H   26   2.419   2.408  11.662  0.5287  1.9351 -0.4613
    2MPD2    H1   27   2.720   2.508  11.948  1.0908 -1.3229 -0.9699
    2MPD2    H2   28   2.414   2.241  12.054  1.1100 -0.2449  0.2463
    2MPD2    H3   29   2.618   2.376  12.106  0.4406  1.0725 -0.7641
    2MPD2     N   30   2.662   2.531  11.688  0.0509 -0.6875 -1.2271
    2MPD2    H5   31   2.755   2.558  11.719 -0.8008 -0.0462  0.7965
    2MPD2    N1   32   2.301   2.229  11.798  0.0157  0.5719 -0.3374
    2MPD2    H7   33   2.280   2.261  11.704  2.3040  2.2151 -0.2921
    3TMC1    C1   34   1.424   3.325  10.466  0.1714  0.7831 -0.6163
    3TMC1    C2   35   1.434   3.209  10.391  0.1616 -0.2024  0.2166
    3TMC1    C3   36   1.483   3.224  10.267 -0.7088 -0.7187 -0.7824
    3TMC1    C4   37   1.459   3.452  10.424  0.0590  0.0549 -0.2676
    3TMC1    C5   38   1.516   3.456  10.301  0.4710  0.2915 -0.5726
    3TMC1    C6   39   1.527   3.345  10.220 -0.4578  0.0323 -0.0252
    3TMC1     C   40   1.348   3.297  10.589 -0.5657 -0.3950 -0.5819
    3TMC1     O   41   1.338   3.181  10.626 -0.4177 -0.5744 -0.2068
    3TMC1     H   42   1.386   3.114  10.413 -0.0560  0.0120  0.6599
    3TMC1    H1   43   1.452   3.533  10.497  1.0652 -0.3306  0.2477
    3TMC1    H2   44   1.572   3.352  10.122  1.2824  0.6571  0.8037
    3TMC1    C7   45   1.553   3.591  10.253 -0.1439 -0.3621  0.9476
    3TMC1    C8   46   1.496   3.113  10.176  0.6012  0.2947  0.3338
    3TMC1    O1   47   1.511   3.697  10.300 -0.6648  0.1526 -0.1108
    3TMC1    O2   48   1.481   3.118  10.056  0.8782 -0.2579  0.0468
    3TMC1    O3   49   1.644   3.576  10.149 -0.1543  0.1645 -0.1393
    3TMC1    H3   50   1.708   3.502  10.145  1.3278  1.5838 -2.5397
    3TMC1    O5   51   1.567   3.021  10.243 -0.1822 -0.2680  0.1931
    3TMC1    H5   52   1.621   3.052  10.319 -1.1091 -2.0963  1.5904
    4MPD2     C   53   1.145   3.451  11.039  0.4857 -0.2567 -0.2112
    4MPD2    C1   54   1.193   3.564  10.975 -0.0690 -0.3634  0.3677
    4MPD2    C2   55   1.251   3.551  10.850  0.3690  0.8119 -0.0826
    4MPD2    C3   56   1.263   3.421  10.794 -0.0779  0.1226  0.4623
    4MPD2    C4   57   1.224   3.314  10.861  0.5101  0.6990 -0.1786
    4MPD2    C5   58   1.158   3.327  10.979  0.3242  0.5238 -0.1378
    4MPD2     H   59   1.284   3.637  10.791  2.1303  0.5013  0.4580
    4MPD2    H1   60   1.246   3.214  10.827  2.0017  1.1908 -0.6712
    4MPD2    H2   61   1.071   3.465  11.118 -1.0267 -1.1432 -1.4712
    4MPD2    H3   62   1.121   3.238  11.029  0.6277  1.4520  1.7562
    4MPD2     N   63   1.319   3.416  10.660  0.3518  0.2797  0.1391
    4MPD2    H5   64   1.354   3.504  10.622  1.9452 -0.9055 -1.1186
    4MPD2    N1   65   1.156   3.696  11.016  0.1206  0.4190  0.0828
    4MPD2    H7   66   1.199   3.773  10.966 -0.0656 -0.2047 -1.0514
    5TCq1    O1   67   2.229   0.043  12.019 -0.8037  0.4771  0.3108
    5TCq1    C1   68   2.134   4.685  12.044  0.4581 -0.5497  0.2743
    5TCq1    O2   69   2.104   4.635  12.151 -0.1586 -0.6080 -0.6597
    5TCq1    C2   70   2.036   4.681  11.935  0.5083 -0.3897  0.6054
    5TCq1    C3   71   1.908   4.670  11.970  0.3634 -0.3740 -0.3374
    5TCq1    C4   72   1.815   4.701  11.872  0.2178  0.5050 -0.3234
    5TCq1    C5   73   1.847   4.718  11.744  0.3829  0.2748 -0.3370
    5TCq1    C6   74   1.979   4.716  11.707  0.0694 -0.3931 -0.5323
    5TCq1    C7   75   2.080   4.704  11.802  0.1276 -0.0583  0.0566
    5TCq1    C8   76   2.012   0.020  11.575 -0.0706  0.5694  0.3698
    5TCq1    O4   77   1.924   0.007  11.493  0.3466 -0.1277  0.3405
    5TCq1    C9   78   1.672   4.713  11.902  0.3567  0.1327  0.1867
    5TCq1    O5   79   1.637   4.715  12.022  0.0065  0.6673 -0.2628
    5TCq1    O6   80   1.599   4.719  11.803 -0.8667  0.1985 -0.0773
    5TCq1    H1   81   2.250   0.066  11.925 -0.3269 -0.1142  0.2733
    5TCq1    H2   82   1.883   4.654  12.075 -2.1723  0.5792 -0.8211
    5TCq1    H3   83   1.775   0.015  11.669  1.5689 -0.5188 -1.8399
    5TCq1    H4   84   2.182   4.698  11.768  0.5907  3.1363  0.8381
    6MPD2     C   85   2.299   0.199  11.467  0.3441  0.7395  0.1293
    6MPD2    C1   86   2.184   0.131  11.447  0.5664 -0.1493  0.3226
    6MPD2    C2   87   2.117   0.150  11.325 -0.1053  0.3343  0.1315
    6MPD2    C3   88   2.174   0.231  11.236 -1.1431 -0.0412 -0.1206
    6MPD2    C4   89   2.295   0.297  11.256  0.0116 -0.8916  0.0454
    6MPD2    C5   90   2.357   0.278  11.376 -0.1961  0.0589  0.4923
    6MPD2     H   91   2.022   0.108  11.296  0.1697  0.6169 -1.2195
    6MPD2    H1   92   2.333   0.365  11.180 -0.6470  0.2032  0.6905
    6MPD2    H2   93   2.354   0.184  11.559  0.7643 -0.3590 -0.3015
    6MPD2    H3   94   2.457   0.317  11.395  0.5053 -0.3460 -2.3607
    6MPD2     N   95   2.088   0.242  11.119  0.3603  0.3974 -0.0064
    6MPD2    H5   96   2.019   0.169  11.104  0.6637  0.7885 -3.1989
    6MPD2    N1   97   2.135   0.067  11.564  0.3492 -0.5474 -0.2062
    6MPD2    H7   98   2.182   0.088  11.652 -0.3407 -3.0945  0.7728
    7TCq1    O1   99   3.293   3.959  12.399  0.1316  0.0312  0.1086
    7TCq1    C1  100   3.339   3.896  12.514 -0.2858  0.0965  0.4621
    7TCq1    O2  101   3.263   3.864  12.603 -0.0004  0.2008 -0.4557
    7TCq1    C2  102   3.450   3.806  12.486 -0.1252  0.3449  0.0154
    7TCq1    C3  103   3.487   3.771  12.361 -0.0554  0.5379  0.5169
    7TCq1    C4  104   3.579   3.680  12.333  0.3881  0.0930  0.4322
    7TCq1    C5  105   3.646   3.618  12.437 -0.6506 -0.6866 -0.5352
    7TCq1    C6  106   3.603   3.652  12.567  0.1875 -0.0909  0.0440
    7TCq1    C7  107   3.504   3.746  12.591 -0.7473  0.1791 -0.0935
    7TCq1    C8  108   3.694   3.611  12.663 -0.5252 -0.1284 -0.1436
    7TCq1    O4  109   3.748   3.505  12.645 -0.5856  0.1968  0.0328
    7TCq1    C9  110   3.613   3.648  12.200 -0.2254  0.4243 -0.2410
    7TCq1    O5  111   3.547   3.694  12.104  0.9344 -0.3538  0.4263
    7TCq1    O6  112   3.732   3.602  12.193 -0.0139  0.5082  0.0953
    7TCq1    H1  113   3.367   3.990  12.342  0.1566 -0.2420 -0.0054
    7TCq1    H2  114   3.428   3.796  12.273  1.5153  0.8440 -0.4653
    7TCq1    H3  115   3.718   3.542  12.409 -1.0615 -1.9133  1.7527
    7TCq1    H4  116   3.470   3.771  12.691  0.0825 -0.4831  0.3550
    8MPD2     C  117   3.951   3.665  13.097  0.3350  0.7664 -0.1831
    8MPD2    C1  118   3.935   3.554  13.013  0.2746 -0.2958 -0.5506
    8MPD2    C2  119   3.866   3.568  12.895 -0.8905  0.0732 -0.0921
    8MPD2    C3  120   3.796   3.687  12.871  0.1352 -0.8651  0.3280
    8MPD2    C4  121   3.805   3.788  12.955 -0.3022 -0.5210 -0.8178
    8MPD2    C5  122   3.893   3.786  13.058  0.3357  0.1124  0.1529
    8MPD2     H  123   3.837   3.481  12.837  0.2013 -0.8518  0.7601
    8MPD2    H1  124   3.752   3.879  12.931  1.8506  0.9734  0.1131
    8MPD2    H2  125   4.017   3.668  13.183  0.8085  0.7774 -0.5465
    8MPD2    H3  126   3.921   3.874  13.115  3.3643  0.9701 -2.6484
    8MPD2     N  127   3.707   3.697  12.765  0.4851  0.1556 -0.6474
    8MPD2    H5  128   3.663   3.787  12.746 -0.6465 -0.1256  0.6327
    8MPD2    N1  129   3.989   3.434  13.070 -0.4910  0.2555  0.4660
    8MPD2    H7  130   4.039   3.436  13.158  0.4162 -1.8555 -0.0135
    9TMC1    C1  131   1.850   3.690  11.067  0.2333  0.7180 -0.1299
    9TMC1    C2  132   1.862   3.563  11.022 -0.8122 -0.0038  0.2112
    9TMC1    C3  133   1.927   3.548  10.907 -0.2365 -0.4016 -0.9286
    9TMC1    C4  134   1.917   3.799  11.013  0.9034  0.7735  0.4780
    9TMC1    C5  135   1.990   3.767  10.905 -0.5737 -0.1566  0.1565
    9TMC1    C6  136   1.987   3.646  10.848  0.0897 -0.2063 -0.3358
    9TMC1     C  137   1.803   3.720  11.203 -0.5918 -0.1294 -0.3076
    9TMC1     O  138   1.800   3.836  11.241  0.3514 -0.2313  0.0687
    9TMC1     H  139   1.804   3.482  11.066 -0.0573  0.1900  1.5627
    9TMC1    H1  140   1.909   3.900  11.049  1.6525  0.7613  0.6764
    9TMC1    H2  141   2.045   3.627  10.758  1.5313  0.1044  0.5192
    9TMC1    C7  142   2.079   3.862  10.850 -0.2869  0.2791  0.6791
    9TMC1    C8  143   1.934   3.422  10.837  0.1482  0.6573 -0.8979
    9TMC1    O1  144   2.113   3.870  10.732 -0.3205  0.1044  0.3758
    9TMC1    O2  145   1.954   3.407  10.718 -0.4671  0.4373 -0.3050
    9TMC1    O3  146   2.158   3.900  10.952 -0.1156 -0.6814 -0.2375
    9TMC1    H3  147   2.102   3.883  11.031 -0.3375 -0.5695 -0.3710
    9TMC1    O5  148   2.012   3.350  10.922  0.3388  0.1372 -0.7040
    9TMC1    H5  149   2.006   3.381  11.015  0.8492  2.7143 -1.5176
   10MPD2     C  150   1.685   3.707  11.476  0.3375  0.1817 -0.5611
   10MPD2    C1  151   1.729   3.599  11.406  0.6897 -0.5443 -0.1647
   10MPD2    C2  152   1.728   3.470  11.466 -0.2181 -0.1128  0.0610
   10MPD2    C3  153   1.683   3.453  11.594 -0.3471 -0.7072 -0.8736
   10MPD2    C4  154   1.645   3.566  11.661 -0.4678 -0.3869  0.1982
   10MPD2    C5  155   1.648   3.691  11.610  0.8811  0.5295  0.4870
   10MPD2     H  156   1.770   3.386  11.412  0.0322 -0.4471  0.7832
   10MPD2    H1  157   1.614   3.552  11.764 -1.8196  2.3087  0.1636
   10MPD2    H2  158   1.669   3.802  11.427 -0.0199  0.0573 -0.6820
   10MPD2    H3  159   1.604   3.764  11.678 -2.0387 -0.4893 -0.3214
   10MPD2     N  160   1.671   3.324  11.660  0.1871 -0.2200  0.0970
   10MPD2    H5  161   1.652   3.340  11.759 -2.1948 -1.7732 -0.1145
   10MPD2    N1  162   1.780   3.602  11.279  0.7889 -0.3334  0.0590
   10MPD2    H7  163   1.778   3.509  11.239  0.0275  0.0776 -0.8641
   11TCq1    O1  164   2.777   3.407  14.658  0.0521 -0.1861 -0.1046
   11TCq1    C1  165   2.837   3.407  14.545  0.8843 -0.8275 -0.4022
   11TCq1    O2  166   2.926   3.476  14.497 -0.0079 -0.3480  0.2585
   11TCq1    C2  167   2.782   3.294  14.468 -1.0523 -0.2987  0.2049
   11TCq1    C3  168   2.857   3.235  14.375  0.5684 -0.0721 -0.1865
   11TCq1    C4  169   2.803   3.137  14.299 -0.3688 -0.4545  0.3709
   11TCq1    C5  170   2.668   3.093  14.314  0.2167 -0.7965 -0.8026
   11TCq1    C6  171   2.594   3.157  14.417  0.2065 -0.2825  0.1406
   11TCq1    C7  172   2.655   3.258  14.489  0.7304 -0.0153 -0.0259
   11TCq1    C8  173   2.451   3.135  14.440 -0.6354  0.2174 -0.7165
   11TCq1    O4  174   2.401   3.201  14.532 -0.0397  0.1928  0.4833
   11TCq1    C9  175   2.889   3.077  14.201  0.4552  0.2892  0.4189
   11TCq1    O5  176   2.849   2.996  14.120  0.4186  0.2401  0.7132
   11TCq1    O6  177   3.007   3.118  14.201 -0.0772  0.9650 -0.5398
   11TCq1    H1  178   2.714   3.333  14.669  0.6658 -0.7360 -0.3301
   11TCq1    H2  179   2.959   3.262  14.351  0.9789 -0.7329  0.8077
   11TCq1    H3  180   2.627   3.005  14.265 -1.2506  0.7577 -2.3642
   11TCq1    H4  181   2.589   3.313  14.555  0.0103 -0.0221 -0.7315
   12MPD2     C  182   2.174   3.035  14.438  0.0099  0.0841  0.0019
   12MPD2    C1  183   2.276   2.991  14.355  0.6433  0.3856  0.0574
   12MPD2    C2  184   2.244   2.896  14.257 -1.2169 -0.3140  0.7629
   12MPD2    C3  185   2.120   2.847  14.234  0.8768 -0.0113  0.0919
   12MPD2    C4  186   2.016   2.898  14.316 -0.2707  0.2996 -0.6194
   12MPD2    C5  187   2.046   2.990  14.417 -0.7774  0.3940  0.4122
   12MPD2     H  188   2.333   2.872  14.200  0.0769  0.8727  2.2745
   12MPD2    H1  189   1.914   2.867  14.295  0.0701 -0.5763 -1.0035
   12MPD2    H2  190   2.184   3.107  14.519  0.6641  0.2715 -0.2452
   12MPD2    H3  191   1.970   3.024  14.487  0.2638  2.1278  0.7045
   12MPD2     N  192   2.090   2.753  14.131 -0.3071 -0.4571 -0.1057
   12MPD2    H5  193   1.995   2.719  14.133 -0.3416 -0.4865 -2.0058
   12MPD2    N1  194   2.408   3.022  14.380 -0.3000 -0.3076 -0.0987
   12MPD2    H7  195   2.478   2.970  14.328  0.5310  1.9971 -1.2865
   13TCq1    O1  196   2.467   3.132  10.745  0.4827 -0.5063 -0.0886
   13TCq1    C1  197   2.337   3.104  10.729  1.0549  0.4567 -0.2083
   13TCq1    O2  198   2.280   3.092  10.624 -0.0368 -0.3041  0.1598
   13TCq1    C2  199   2.305   3.011  10.831  0.3004 -0.1914  0.2101
   13TCq1    C3  200   2.386   2.924  10.891  0.0618 -1.1458  0.6684
   13TCq1    C4  201   2.333   2.837  10.979 -0.0413 -0.7296  0.2447
   13TCq1    C5  202   2.197   2.833  11.005 -0.7432 -0.9435  0.5275
   13TCq1    C6  203   2.118   2.930  10.950 -0.1864 -0.4584 -0.2132
   13TCq1    C7  204   2.168   3.020  10.859 -0.1370  0.0735 -0.1558
   13TCq1    C8  205   1.977   2.917  10.982  0.3524 -0.4845  0.4071
   13TCq1    O4  206   1.946   2.894  11.097 -0.4738 -0.0292  0.2658
   13TCq1    C9  207   2.410   2.765  11.073 -0.2007  0.2231  1.0335
   13TCq1    O5  208   2.353   2.685  11.155  0.1284  0.3611 -0.1297
   13TCq1    O6  209   2.531   2.791  11.073 -0.2346 -0.3726 -0.1994
   13TCq1    H1  210   2.501   3.135  10.837 -0.0922  0.3819  0.0883
   13TCq1    H2  211   2.494   2.926  10.877 -0.0832 -1.7148 -0.5037
   13TCq1    H3  212   2.154   2.769  11.081 -0.4122 -0.2210  1.3206
   13TCq1    H4  213   2.112   3.102  10.815  0.3705 -0.3348 -1.5861
   14MPD2     C  214   1.710   2.890  10.723 -0.0760 -0.6360 -0.6314
   14MPD2    C1  215   1.765   2.908  10.850 -0.6976  0.2369  0.2482
   14MPD2    C2  216   1.685   2.938  10.961 -0.7438  0.3215  0.0057
   14MPD2    C3  217   1.547   2.957  10.950  0.0189 -0.5676 -0.6024
   14MPD2    C4  218   1.495   2.938  10.825 -0.7650 -0.3574  0.3339
   14MPD2    C5  219   1.573   2.911  10.715  0.5440  0.2905  0.4708
   14MPD2     H  220   1.731   2.967  11.055 -1.1279 -0.2875  0.3849
   14MPD2    H1  221   1.394   2.965  10.799 -0.8961  1.4109  2.6525
   14MPD2    H2  222   1.768   2.885  10.632  0.4525 -0.0283 -0.3235
   14MPD2    H3  223   1.524   2.917  10.618 -0.3444 -0.0915  0.8918
   14MPD2     N  224   1.471   2.991  11.061  0.0811 -0.2353  0.9246
   14MPD2    H5  225   1.522   3.015  11.146  0.0605  1.7769  0.3745
   14MPD2    N1  226   1.906   2.915  10.865  0.5657 -0.4564  0.7324
   14MPD2    H7  227   1.955   2.891  10.780  1.2057 -1.4568  1.3703
   15TCq1    O1  228   3.667   2.130   1.610 -0.2158  0.4218  0.1522
   15TCq1    C1  229   3.699   2.031   1.517  0.4550 -0.4900  1.1574
   15TCq1    O2  230   3.669   2.023   1.399 -0.1255 -0.4887  0.1783
   15TCq1    C2  231   3.799   1.946   1.576 -0.1943 -0.3102  0.5299
   15TCq1    C3  232   3.881   1.989   1.671  1.1173 -0.3765  0.2996
   15TCq1    C4  233   3.995   1.918   1.700 -0.0197 -0.5022  0.4409
   15TCq1    C5  234   4.026   1.805   1.626  0.4296  0.4340 -0.3448
   15TCq1    C6  235   3.925   1.751   1.546  0.7331 -0.2205  0.3970
   15TCq1    C7  236   3.815   1.823   1.515 -0.0635 -0.1197 -0.0396
   15TCq1    C8  237   3.957   1.626   1.478  0.3966  0.1847  0.2314
   15TCq1    O4  238   4.066   1.587   1.513  0.0981  0.1682 -0.2551
   15TCq1    C9  239   4.101   1.984   1.786  0.0754 -0.2430  0.7483
   15TCq1    O5  240   4.063   2.080   1.860 -0.2890 -0.6480  0.2360
   15TCq1    O6  241   4.207   1.922   1.809  0.0567 -0.0766 -0.2303
   15TCq1    H1  242   3.680   2.112   1.706 -1.5927  1.2959  0.5192
   15TCq1    H2  243   3.870   2.084   1.724  2.4614  0.9987 -1.9039
   15TCq1    H3  244   4.121   1.760   1.652 -0.8637  0.3844  4.2299
   15TCq1    H4  245   3.738   1.791   1.445 -0.9072  2.6760 -0.4197
   16MPD2     C  246   3.817   1.472   1.184  0.3424 -0.0478  0.1639
   16MPD2    C1  247   3.904   1.485   1.288 -0.0881  0.3890  0.3612
   16MPD2    C2  248   4.006   1.390   1.301  0.1721  0.1060  0.5218
   16MPD2    C3  249   4.017   1.280   1.215  0.8296  0.0091 -0.3608
   16MPD2    C4  250   3.928   1.275   1.110  0.4356 -0.9337  0.0102
   16MPD2    C5  251   3.833   1.368   1.089  0.0660 -0.4087 -0.4147
   16MPD2     H  252   4.064   1.411   1.390 -2.0919  0.2836  1.9496
   16MPD2    H1  253   3.932   1.193   1.038  1.5851 -0.0040 -0.9872
   16MPD2    H2  254   3.733   1.540   1.173 -0.6110 -1.3212 -0.4591
   16MPD2    H3  255   3.761   1.360   1.009 -0.1793  3.1454 -0.5496
   16MPD2     N  256   4.095   1.172   1.255  0.1038 -0.0070  0.8938
   16MPD2    H5  257   4.134   1.177   1.348  3.5224  1.1540 -0.6004
   16MPD2    N1  258   3.883   1.595   1.369 -0.2655  0.1947 -0.0343
   16MPD2    H7  259   3.806   1.656   1.345  0.2121  0.4838 -0.8579
   17TMC1    C1  260   1.416   2.652  11.195  0.1691 -0.8647  0.2535
   17TMC1    C2  261   1.315   2.634  11.281 -0.1097  0.3145 -0.0809
   17TMC1    C3  262   1.197   2.597  11.227 -0.2224  0.1479  0.1848
   17TMC1    C4  263   1.403   2.654  11.058 -0.0584 -0.2535 -0.8040
   17TMC1    C5  264   1.276   2.616  11.011  0.4218 -0.4240 -0.3139
   17TMC1    C6  265   1.176   2.581  11.096 -0.4291 -0.4075 -0.6212
   17TMC1     C  266   1.545   2.677  11.250  0.4368 -0.5010  0.9198
   17TMC1     O  267   1.538   2.760  11.336 -0.1642 -0.5954  0.3307
   17TMC1     H  268   1.332   2.637  11.388 -1.5616 -1.1109  0.1909
   17TMC1    H1  269   1.490   2.672  10.995 -0.3347  3.7207 -0.0725
   17TMC1    H2  270   1.078   2.547  11.065 -1.6498  1.0671  1.6126
   17TMC1    C7  271   1.276   2.604  10.870 -0.1401 -0.7592  0.3937
   17TMC1    C8  272   1.120   2.496  11.315  0.3971 -0.2585  0.5735
   17TMC1    O1  273   1.373   2.553  10.812 -0.5414 -0.0814 -0.0476
   17TMC1    O2  274   1.099   2.381  11.283  0.8617 -0.1353  0.8237
   17TMC1    O3  275   1.150   2.578  10.830  0.3800  0.7128 -0.2236
   17TMC1    H3  276   1.081   2.640  10.862  0.7073  1.2598 -0.5873
   17TMC1    O5  277   1.109   2.556  11.436 -0.6699 -0.1799  0.4697
   17TMC1    H5  278   1.129   2.652  11.438 -0.2508 -0.3173  3.5732
   18MPD2     C  279   1.825   2.638  11.347 -0.0119  0.1625  0.3777
   18MPD2    C1  280   1.785   2.611  11.218 -0.8347  0.8846  1.1004
   18MPD2    C2  281   1.878   2.562  11.125 -0.0352  0.0533  0.5625
   18MPD2    C3  282   2.011   2.542  11.159  0.1427 -0.3161  0.0096
   18MPD2    C4  283   2.048   2.578  11.283 -0.1995 -0.0192  0.7211
   18MPD2    C5  284   1.959   2.629  11.373  0.6023  0.3023 -0.2662
   18MPD2     H  285   1.848   2.546  11.022  0.6728  0.2485  0.3286
   18MPD2    H1  286   2.152   2.563  11.309 -0.2990  0.0366  1.1577
   18MPD2    H2  287   1.751   2.661  11.422  0.4991 -2.4011  1.6514
   18MPD2    H3  288   1.996   2.641  11.475 -2.5869 -0.5249  0.9822
   18MPD2     N  289   2.115   2.496  11.071 -0.2877 -0.2561  0.4855
   18MPD2    H5  290   2.205   2.498  11.116  1.1619  0.9905 -2.4303
   18MPD2    N1  291   1.648   2.615  11.181  0.3014  0.1088  0.9224
   18MPD2    H7  292   1.625   2.563  11.097 -0.8686  1.1660  0.5989
   19TMC2    C1  293   3.483   2.750  13.758  0.1421  0.3145  0.0134
   19TMC2    C2  294   3.461   2.822  13.640 -0.5793  0.6714  0.4292
   19TMC2    C3  295   3.336   2.818  13.581 -0.4934 -0.5406  0.0537
   19TMC2    C4  296   3.381   2.676  13.812 -0.4059  0.1750 -0.2811
   19TMC2    C5  297   3.256   2.684  13.753  0.1824  0.2313  0.8626
   19TMC2    C6  298   3.233   2.744  13.627  0.0936  0.0060 -0.7390
   19TMC2     C  299   3.623   2.726  13.790 -0.2106  0.0741  0.1334
   19TMC2     O  300   3.714   2.773  13.723  0.3587 -0.2689 -0.1664
   19TMC2     H  301   3.546   2.873  13.595 -0.7382 -0.6944 -1.3848
   19TMC2    H1  302   3.392   2.621  13.904 -0.1762  0.4586 -0.1401
   19TMC2    H2  303   3.133   2.749  13.583 -0.5627  0.2787  0.8017
   19TMC2    C7  304   3.169   2.585  13.807 -0.9754  0.4493  0.2153
   19TMC2    C8  305   3.342   2.853  13.439  0.1387 -0.2538 -0.0492
   19TMC2    O1  306   3.229   2.486  13.860  0.3667  0.3998 -0.4591
   19TMC2    O2  307   3.440   2.904  13.383 -0.5429 -0.2610  0.1922
   19TMC2    O5  308   3.220   2.898  13.415 -0.3374 -0.7683  0.4513
   19TMC2    H5  309   3.163   2.912  13.494 -1.8810 -0.3760 -0.7452
   20MPD2     C  310   3.870   2.590  13.883 -0.5909 -0.2181  0.0985
   20MPD2    C1  311   3.751   2.601  13.951 -0.3957 -0.0200 -0.3178
   20MPD2    C2  312   3.757   2.572  14.087  0.5090 -0.1634  0.6706
   20MPD2    C3  313   3.863   2.522  14.155 -0.2211 -0.1544  0.4390
   20MPD2    C4  314   3.970   2.503  14.075  1.3321 -0.0779  0.2792
   20MPD2    C5  315   3.976   2.541  13.945  0.3010  0.3955  0.0447
   20MPD2     H  316   3.667   2.590  14.144  0.2991 -1.7018  0.8330
   20MPD2    H1  317   4.061   2.468  14.122 -0.9948 -1.3157  3.8509
   20MPD2    H2  318   3.884   2.623  13.780 -1.4314 -0.9355 -0.2430
   20MPD2    H3  319   4.068   2.528  13.889  1.0061  0.0644  1.2539
   20MPD2     N  320   3.878   2.508  14.291  0.0198  0.8683  0.1892
   20MPD2    H5  321   3.966   2.466  14.320 -1.9979 -3.0253  0.6507
   20MPD2    N1  322   3.636   2.651  13.904  0.2026  0.2048 -0.0942
   20MPD2    H7  323   3.551   2.628  13.954  1.2392 -1.2038  0.9988
   21TMC2    C1  324   0.646   2.712  14.692 -0.7807 -0.0515 -0.2252
   21TMC2    C2  325   0.632   2.579  14.740 -0.0020  0.6101 -0.3472
   21TMC2    C3  326   0.528   2.550  14.823  0.1494 -0.5810  0.1635
   21TMC2    C4  327   0.572   2.810  14.743  0.6884  0.1536 -0.0062
   21TMC2    C5  328   0.476   2.778  14.838  0.0259 -0.1073 -0.3791
   21TMC2    C6  329   0.452   2.649  14.877  0.0998 -0.0102  0.1364
   21TMC2     C  330   0.769   2.736  14.617 -0.4230  0.2260  0.2143
   21TMC2     O  331   0.799   2.648  14.540 -0.1657  0.0151  0.4048
   21TMC2     H  332   0.707   2.503  14.721 -0.8221  0.0038 -1.1736
   21TMC2    H1  333   0.593   2.913  14.718  2.8810 -0.9882 -2.9124
   21TMC2    H2  334   0.366   2.623  14.937 -0.4324 -2.5703 -1.7459
   21TMC2    C7  335   0.400   2.890  14.894 -0.3316  0.1078  0.2968
   21TMC2    C8  336   0.480   2.414  14.833 -0.4942  0.0295 -0.0922
   21TMC2    O1  337   0.351   2.884  15.008  0.3689  0.1584  0.0339
   21TMC2    O2  338   0.496   2.351  14.730 -0.1451  0.2668  0.2272
   21TMC2    O5  339   0.507   2.373  14.956  0.2798  0.7196  0.2905
   21TMC2    H5  340   0.481   2.442  15.020 -0.7646 -0.5156  1.1893
   22MPD2     C  341   1.185   3.009  14.496  0.3248 -0.5953 -0.1217
   22MPD2    C1  342   1.157   2.871  14.481  0.2004  0.3698 -0.3293
   22MPD2    C2  343   1.027   2.830  14.505  0.5048  0.0041  0.2926
   22MPD2    C3  344   0.942   2.909  14.575  0.3858  0.3935  0.4021
   22MPD2    C4  345   0.974   3.041  14.603  0.2537  0.2691 -0.6336
   22MPD2    C5  346   1.088   3.090  14.556  0.5358  0.0240 -0.6176
   22MPD2     H  347   0.994   2.730  14.478  0.3796  0.8152 -2.5168
   22MPD2    H1  348   0.911   3.110  14.659 -1.7718  0.3171 -2.9988
   22MPD2    H2  349   1.277   3.051  14.457  0.7933 -1.8273 -0.3607
   22MPD2    H3  350   1.105   3.197  14.563 -1.9950  0.3183  1.1241
   22MPD2     N  351   0.828   2.857  14.639  0.3583 -0.4364 -0.1925
   22MPD2    H5  352   0.788   2.927  14.701  2.2003 -0.2891  0.8147
   22MPD2    N1  353   1.240   2.773  14.427 -0.3466 -0.1119  0.5349
   22MPD2    H7  354   1.197   2.681  14.419  1.3675 -0.9418  0.9101
   23TMC2    C1  355   2.584   4.171  14.789  0.4135  0.3382  0.2267
   23TMC2    C2  356   2.573   4.309  14.789 -0.8463 -0.4142  0.7621
   23TMC2    C3  357   2.475   4.370  14.713  0.2516  0.1191 -0.4238
   23TMC2    C4  358   2.505   4.096  14.711 -0.2008 -0.6440 -0.4606
   23TMC2    C5  359   2.417   4.159  14.626 -0.0009  0.2344  0.6354
   23TMC2    C6  360   2.405   4.299  14.623  0.1907 -0.4842 -0.1504
   23TMC2     C  361   2.690   4.107  14.857  0.1148 -0.2505 -0.1618
   23TMC2     O  362   2.673   4.007  14.920  0.0157 -0.1392  0.2413
   23TMC2     H  363   2.616   4.382  14.857  2.7368 -0.9594 -0.9221
   23TMC2    H1  364   2.515   3.990  14.689  2.1987 -0.6673  0.7673
   23TMC2    H2  365   2.341   4.345  14.548 -0.1182 -0.0680  0.3678
   23TMC2    C7  366   2.317   4.083  14.552  0.4790 -0.1165  0.3991
   23TMC2    C8  367   2.481   4.516  14.693  0.0295  0.4690  0.4498
   23TMC2    O1  368   2.357   3.992  14.476  0.0301 -0.2694 -0.1016
   23TMC2    O2  369   2.394   4.582  14.643 -0.4300  0.3470  0.4430
   23TMC2    O5  370   2.614   4.532  14.676  0.2298 -0.3948 -0.0922
   23TMC2    H5  371   2.660   4.445  14.675  0.0302 -0.5143  1.2366
   24MPD2     C  372   3.146   4.173  15.076  0.0704 -0.5489 -1.2283
   24MPD2    C1  373   3.047   4.082  15.107  0.5815  0.0257  0.3806
   24MPD2    C2  374   2.938   4.074  15.034  0.0543 -0.2401 -0.3773
   24MPD2    C3  375   2.915   4.166  14.930  0.3452  0.7603 -0.0167
   24MPD2    C4  376   3.011   4.268  14.910  0.3457  0.4721  0.1501
   24MPD2    C5  377   3.132   4.255  14.968 -0.3033 -0.4986  0.0629
   24MPD2     H  378   2.863   4.001  15.057  0.8199 -0.2888  1.9371
   24MPD2    H1  379   2.995   4.350  14.840 -3.0423 -0.1805  0.1744
   24MPD2    H2  380   3.237   4.178  15.135 -1.0134  2.1863  0.2279
   24MPD2    H3  381   3.214   4.324  14.950 -1.2517 -0.3581 -3.6754
   24MPD2     N  382   2.802   4.185  14.849  0.0636  0.4327  0.0420
   24MPD2    H5  383   2.799   4.258  14.778  0.2084  0.3746 -0.0236
   24MPD2    N1  384   3.066   3.994  15.219  0.2890 -0.5458  0.0034
   24MPD2    H7  385   3.152   4.015  15.269 -0.5437 -1.3717  1.7822
   25TMC2    C1  386   1.303   2.294  12.042  0.1827 -0.1075 -0.5670
   25TMC2    C2  387   1.371   2.379  12.132  0.0180  0.3435 -0.8390
   25TMC2    C3  388   1.323   2.398  12.263  0.9002  0.4299 -0.0821
   25TMC2    C4  389   1.189   2.238  12.082 -0.0780 -0.3505  0.3746
   25TMC2    C5  390   1.140   2.258  12.209  0.1512 -0.4880 -0.2924
   25TMC2    C6  391   1.209   2.340  12.301 -1.2235  0.2840 -1.1054
   25TMC2     C  392   1.391   2.178  12.026  0.1269  0.4713 -0.2630
   25TMC2     O  393   1.473   2.185  12.116 -0.4053  0.6320  0.1516
   25TMC2     H  394   1.462   2.425  12.094  0.6970  0.0382  0.4163
   25TMC2    H1  395   1.134   2.162  12.027 -1.5652  1.3784 -0.5221
   25TMC2    H2  396   1.167   2.332  12.400  1.4103  0.0702 -0.0140
   25TMC2    C7  397   1.092   2.132  12.273 -0.8087  0.6675 -0.6825
   25TMC2    C8  398   1.426   2.409  12.361  0.4934 -0.2917 -0.4644
   25TMC2    O1  399   1.173   2.070  12.342  0.2838  0.2547  0.6220
   25TMC2    O2  400   1.403   2.455  12.470  0.5521  0.9989 -1.2779
   25TMC2    O5  401   1.521   2.314  12.333 -0.1167 -0.0082  0.5123
   25TMC2    H5  402   1.512   2.269  12.246 -0.9253 -0.0144  0.6057
   26MPD2     C  403   1.489   1.689  11.889 -0.1385 -0.0462  1.1162
   26MPD2    C1  404   1.378   1.737  11.821 -0.3112  0.8407 -0.2398
   26MPD2    C2  405   1.332   1.869  11.840  0.7746 -0.2057  0.2113
   26MPD2    C3  406   1.401   1.954  11.927  0.1731 -0.7825 -0.3775
   26MPD2    C4  407   1.512   1.912  11.993 -0.5592  0.1438 -0.1363
   26MPD2    C5  408   1.554   1.778  11.974  0.7808  0.0275  0.1696
   26MPD2     H  409   1.241   1.909  11.797  0.4231 -1.8200 -0.5693
   26MPD2    H1  410   1.566   1.979  12.059 -1.0486 -0.3719  0.7871
   26MPD2    H2  411   1.517   1.585  11.877  1.1598  0.4819 -0.5613
   26MPD2    H3  412   1.641   1.747  12.030  1.6109  0.1995 -1.0216
   26MPD2     N  413   1.354   2.084  11.938 -0.1639  0.0567 -0.8061
   26MPD2    H5  414   1.276   2.109  11.877 -0.9770  0.8992  0.5751
   26MPD2    N1  415   1.313   1.647  11.736 -0.0938 -0.0896 -0.6223
   26MPD2    H7  416   1.343   1.550  11.726 -1.7236 -0.6066 -0.5723
   27TMC2    C1  417   0.148   3.712  12.046  0.4601  0.4085  0.3396
   27TMC2    C2  418   0.137   3.834  11.984  0.8999  0.0258 -0.4998
   27TMC2    C3  419   0.175   3.948  12.054 -0.0008 -0.2811 -0.0079
   27TMC2    C4  420   0.215   3.701  12.165 -0.5172 -0.2119 -0.4508
   27TMC2    C5  421   0.249   3.816  12.233 -0.2897  0.4256  0.4608
   27TMC2    C6  422   0.226   3.944  12.180 -0.2734 -0.0144  0.1861
   27TMC2     C  423   0.085   3.603  11.993 -0.6073  0.5532  0.4251
   27TMC2     O  424   0.068   3.604  11.872  0.6900  0.0352  0.2400
   27TMC2     H  425   0.095   3.833  11.884  0.2070 -0.5954 -0.2062
   27TMC2    H1  426   0.231   3.604  12.212  0.6844  1.0524  1.7979
   27TMC2    H2  427   0.249   4.037  12.231 -1.4672  0.1035  0.5203
   27TMC2    C7  428   0.273   3.797  12.379  0.0909 -0.4960  0.3791
   27TMC2    C8  429   0.203   4.062  11.965  0.1053 -0.2054 -0.9155
   27TMC2    O1  430   0.280   3.689  12.428  0.2719 -0.0448  0.9285
   27TMC2    O2  431   0.260   4.052  11.860  0.2439  0.0165 -0.0432
   27TMC2    O5  432   0.168   4.177  12.033 -0.3132 -0.0433  0.8883
   27TMC2    H5  433   0.137   4.157  12.123 -0.3759 -0.2469  0.8225
   28MPD2     C  434   4.404   3.305  12.022  0.2130  0.3767 -0.4466
   28MPD2    C1  435   4.444   3.353  12.148  0.1903 -0.4985 -0.0127
   28MPD2    C2  436   4.569   3.410  12.167 -0.6688 -0.1295 -0.4830
   28MPD2    C3  437   4.651   3.443  12.063  0.9240 -0.0758  0.8263
   28MPD2    C4  438   4.609   3.393  11.938  0.6444  0.2911 -0.5767
   28MPD2    C5  439   4.491   3.325  11.923 -0.0640 -0.0195  0.1301
   28MPD2     H  440   4.591   3.432  12.271 -0.0746  0.5446 -0.7498
   28MPD2    H1  441   4.658   3.430  11.848  1.4872  0.4825 -0.0322
   28MPD2    H2  442   4.307   3.261  12.003 -0.5883  0.7860  2.6626
   28MPD2    H3  443   4.456   3.295  11.825 -1.6780  1.6001  0.2258
   28MPD2     N  444   0.026   3.522  12.086 -0.7811 -0.5184 -0.1877
   28MPD2    H5  445   0.062   3.544  12.178  0.7515  0.3972 -0.9950
   28MPD2    N1  446   4.354   3.329  12.253 -0.0260  0.3239 -0.2327
   28MPD2    H7  447   4.269   3.290  12.213 -0.7652  1.5475  0.1573
   29TMC2    C1  448   4.621   1.120  14.076 -0.3797 -0.9078  0.2061
   29TMC2    C2  449   4.504   1.130  14.143  0.0878 -0.4504  0.5316
   29TMC2    C3  450   4.487   1.243  14.225  0.1731 -0.6921 -0.9620
   29TMC2    C4  451   4.718   1.213  14.088 -0.4207 -0.1631 -0.1895
   29TMC2    C5  452   4.700   1.323  14.172  0.3199 -0.0334  0.3373
   29TMC2    C6  453   4.582   1.338  14.233 -0.4562 -0.4468  0.8668
   29TMC2     C  454   4.639   1.019  13.976 -0.9108  0.4837  0.2153
   29TMC2     O  455   0.024   0.990  13.968 -0.8908 -0.3384  0.4757
   29TMC2     H  456   4.422   1.063  14.122  0.6933 -0.5587 -1.4589
   29TMC2    H1  457   0.080   1.199  14.045 -1.2394 -0.9807 -1.7933
   29TMC2    H2  458   4.567   1.429  14.290 -1.6982 -0.9428  1.3266
   29TMC2    C7  459   0.065   1.428  14.170 -0.0491 -0.0524 -0.2233
   29TMC2    C8  460   4.352   1.272  14.261  0.6948 -0.4359 -0.3741
   29TMC2    O1  461   0.155   1.416  14.090  0.0815 -0.0770  1.0438
   29TMC2    O2  462   4.299   1.376  14.284  0.4589 -0.7637  0.5783
   29TMC2    O5  463   4.305   1.155  14.306 -0.0471  0.4642 -0.0319
   29TMC2    H5  464   4.356   1.074  14.284  0.2760  0.5690  0.3327
   30MPD2     C  465   4.464   0.619  13.721  0.6408  0.0717 -0.2183
   30MPD2    C1  466   4.579   0.639  13.795  0.5088  0.6087 -0.3147
   30MPD2    C2  467   4.600   0.755  13.859 -0.1673  0.0545  0.4155
   30MPD2    C3  468   4.500   0.853  13.850  0.0812  0.1891 -0.8349
   30MPD2    C4  469   4.391   0.836  13.772 -0.4843 -0.2008 -0.1873
   30MPD2    C5  470   4.367   0.714  13.703  0.1550  0.7889  0.3377
   30MPD2     H  471   4.689   0.766  13.920  2.5719 -0.7364 -3.3708
   30MPD2    H1  472   4.318   0.913  13.751 -0.3153 -0.7243 -2.6719
   30MPD2    H2  473   4.457   0.522  13.674  0.8984  1.0481 -2.2886
   30MPD2    H3  474   4.279   0.703  13.641 -0.1432 -0.6597  1.0158
   30MPD2     N  475   4.520   0.973  13.918 -0.0659  0.4578 -0.1497
   30MPD2    H5  476   4.445   1.040  13.909  0.4781  1.1784  0.6343
   30MPD2    N1  477   4.677   0.539  13.814  0.4888 -0.6929 -0.7240
   30MPD2    H7  478   0.003   0.558  13.891 -1.9874  1.0557  0.8412
   31TMC2    C1  479   2.570   4.091  15.245 -0.0492  0.0009 -0.3822
   31TMC2    C2  480   2.517   3.990  15.173 -0.1268  0.6637 -0.2502
   31TMC2    C3  481   2.539   3.869  15.218 -0.2588  0.4733  0.5313
   31TMC2    C4  482   2.631   4.073  15.365  0.6564  0.0429  0.0342
   31TMC2    C5  483   2.635   3.941  15.409  1.1708 -0.3705 -0.6334
   31TMC2    C6  484   2.594   3.837  15.337 -0.0717  0.1887 -0.3370
   31TMC2     C  485   2.586   4.219  15.183 -0.5037  0.0161 -0.2120
   31TMC2     O  486   2.512   4.248  15.091  0.2616 -0.0878 -0.4060
   31TMC2     H  487   2.475   4.016  15.077 -0.5508 -1.5024 -0.6453
   31TMC2    H1  488   2.674   4.149  15.428 -0.1866 -0.2374  0.9575
   31TMC2    H2  489   2.609   3.734  15.369  1.6457  0.1748 -1.1970
   31TMC2    C7  490   2.637   3.919  15.554  0.3990  0.2654 -0.0615
   31TMC2    C8  491   2.478   3.760  15.145 -0.6698  0.1456  0.1123
   31TMC2    O1  492   2.681   3.815  15.596  0.3915 -0.2316  0.1801
   31TMC2    O2  493   2.455   3.652  15.196 -0.6694  0.0540 -0.1755
   31TMC2    O5  494   2.507   3.792  15.015 -0.5207 -0.4461 -0.4581
   31TMC2    H5  495   2.554   3.877  15.004 -2.1689  0.2765 -2.0208
   32MPD2     C  496   2.900   4.637  15.146 -0.5066  0.0562 -0.6415
   32MPD2    C1  497   2.775   4.612  15.088  0.7589 -0.1965 -0.3621
   32MPD2    C2  498   2.716   4.488  15.107 -0.1527 -0.2261 -0.1690
   32MPD2    C3  499   2.768   4.397  15.196 -0.2035 -0.6782 -0.0778
   32MPD2    C4  500   2.876   4.433  15.265 -0.1181 -0.4668 -0.3489
   32MPD2    C5  501   2.943   4.549  15.241 -0.0414 -0.0065  0.2511
   32MPD2     H  502   2.623   4.477  15.052  1.0219 -0.1884 -2.1524
   32MPD2    H1  503   2.913   4.371  15.346  0.1887  1.0935  0.6968
   32MPD2    H2  504   2.971   4.718  15.134 -2.0381  1.8343  2.2907
   32MPD2    H3  505   3.034   4.569  15.296 -1.6827  3.7400  1.5791
   32MPD2     N  506   2.705   4.270  15.223  0.2017  0.6908  0.7013
   32MPD2    H5  507   2.757   4.208  15.284  1.0134  2.2675  1.6216
   32MPD2    N1  508   2.732   4.706  14.991  0.0785  0.1905  0.0292
   32MPD2    H7  509   2.791   0.051  14.979  0.9470 -0.7420 -2.0596
   33TMC2    C1  510   2.179   3.079  10.082  0.2407  0.4821 -0.1547
   33TMC2    C2  511   2.048   3.114  10.115  0.0981 -0.1670  0.3279
   33TMC2    C3  512   1.995   3.221  10.044 -0.0189 -0.3491  0.5257
   33TMC2    C4  513   2.252   3.147   9.992  0.3566  0.0590  0.0192
   33TMC2    C5  514   2.196   3.253   9.925  0.2107  0.2853  0.4497
   33TMC2    C6  515   2.062   3.293   9.948  0.2180 -0.1690  0.4397
   33TMC2     C  516   2.247   2.981  10.162 -0.4432 -0.7912 -0.5299
   33TMC2     O  517   2.178   2.898  10.218 -0.2128 -0.7784 -0.0843
   33TMC2     H  518   2.007   3.068  10.204  0.5278  0.6840  0.9648
   33TMC2    H1  519   2.354   3.121   9.965 -0.1632 -0.2084 -1.7262
   33TMC2    H2  520   2.010   3.374   9.899  0.5203  0.5506  1.3099
   33TMC2    C7  521   2.288   3.339   9.851 -0.5843  0.0977  0.4519
   33TMC2    C8  522   1.877   3.278  10.109 -0.6526 -0.4563  0.3119
   33TMC2    O1  523   2.403   3.349   9.896 -0.1351 -0.2382 -0.4268
   33TMC2    O2  524   1.851   3.398  10.102  0.4404 -0.6911 -0.0773
   33TMC2    O5  525   1.799   3.176  10.151 -0.1628 -0.3729 -0.6814
   33TMC2    H5  526   1.839   3.091  10.125 -0.9875 -0.5763 -1.2987
   34MPD2     C  527   2.641   2.889  10.481 -0.6344  0.6398 -0.4674
   34MPD2    C1  528   2.511   2.841  10.479  0.4252  0.5390 -0.1848
   34MPD2    C2  529   2.422   2.887  10.383  0.5637  0.3639  0.1396
   34MPD2    C3  530   2.460   2.977  10.290  0.0196  0.4456  0.8215
   34MPD2    C4  531   2.580   3.038  10.309  0.2307  0.3120 -0.3637
   34MPD2    C5  532   2.672   2.996  10.398  0.3851 -0.0957 -0.2123
   34MPD2     H  533   2.321   2.851  10.369  1.4871 -2.1994  0.1020
   34MPD2    H1  534   2.613   3.121  10.247 -1.4932  0.3976 -1.1671
   34MPD2    H2  535   2.713   2.844  10.548  0.7390  0.9488 -1.7410
   34MPD2    H3  536   2.769   3.046  10.403 -0.2377  0.9729  1.2740
   34MPD2     N  537   2.377   3.030  10.187  0.1891  0.2888  0.1715
   34MPD2    H5  538   2.404   3.123  10.157 -0.8242 -0.0553 -1.8170
   34MPD2    N1  539   2.488   2.742  10.574  0.0765  0.6181 -0.2541
   34MPD2    H7  540   2.565   2.732  10.639 -0.3981 -1.5617 -0.0216
   35TMC2    C1  541   3.572   3.984  11.152  0.0846 -0.7397  0.5947
   35TMC2    C2  542   3.520   3.977  11.025  0.1604 -0.2007 -0.0887
   35TMC2    C3  543   3.392   3.932  11.009  0.3401 -0.8373  0.1192
   35TMC2    C4  544   3.492   3.955  11.265  0.1070 -0.4117  0.4082
   35TMC2    C5  545   3.360   3.918  11.243  0.1257 -0.0811  1.1261
   35TMC2    C6  546   3.311   3.901  11.113  0.2624 -0.5508  0.1539
   35TMC2     C  547   3.719   3.979  11.160 -0.5733  0.2406 -0.1582
   35TMC2     O  548   3.775   4.014  11.059  0.1280  0.0499 -0.1203
   35TMC2     H  549   3.582   4.002  10.939  0.4841 -0.1344  0.1681
   35TMC2    H1  550   3.537   3.961  11.363  0.4555 -0.3591  0.2471
   35TMC2    H2  551   3.211   3.861  11.101 -0.1735  0.7133 -0.4842
   35TMC2    C7  552   3.286   3.876  11.362  0.1929  0.3309 -0.3176
   35TMC2    C8  553   3.326   3.941  10.881 -0.6826  0.1065 -0.3659
   35TMC2    O1  554   3.340   3.865  11.473 -0.8809 -0.3437  0.0723
   35TMC2    O2  555   3.389   3.953  10.776  0.1003  0.0973 -0.4461
   35TMC2    O5  556   3.204   3.993  10.903 -0.5038 -0.2766  0.2154
   35TMC2    H5  557   3.173   3.984  10.995 -0.0475 -2.2888  0.1737
   36MPD2     C  558   4.174   3.888  11.364  0.1790  0.5743  0.4368
   36MPD2    C1  559   4.075   3.811  11.425  0.1939 -0.3378  0.1607
   36MPD2    C2  560   3.941   3.816  11.396  0.1857 -0.1827 -0.0526
   36MPD2    C3  561   3.903   3.893  11.290 -0.8170  0.0318  0.7104
   36MPD2    C4  562   4.005   3.966  11.219 -0.8173 -0.4848 -0.2317
   36MPD2    C5  563   4.136   3.967  11.256 -0.1861  0.5973  0.0616
   36MPD2     H  564   3.868   3.757  11.450  2.2083 -1.8612  0.8374
   36MPD2    H1  565   3.984   4.029  11.134 -1.2456  0.0856  0.2932
   36MPD2    H2  566   4.278   3.884  11.393  0.1656 -0.1671  0.3827
   36MPD2    H3  567   4.203   4.037  11.206  1.6697 -2.0538 -1.2030
   36MPD2     N  568   3.765   3.907  11.263  0.0832  0.2544 -0.0576
   36MPD2    H5  569   3.702   3.876  11.336 -0.3553 -0.3877 -0.6983
   36MPD2    N1  570   4.117   3.727  11.529  0.6457 -0.0452 -0.2225
   36MPD2    H7  571   4.216   3.732  11.554  0.4480  0.5842  0.4510
   37TMC2    C1  572   0.616   4.434  11.667 -0.3939 -0.0570  0.5736
   37TMC2    C2  573   0.524   4.478  11.578  0.5012 -0.0484  0.2945
   37TMC2    C3  574   0.565   4.500  11.450  0.2848  0.1440 -0.2043
   37TMC2    C4  575   0.744   4.407  11.631  0.6491 -0.1343 -0.2171
   37TMC2    C5  576   0.778   4.426  11.497 -0.4338  0.7437 -0.1609
   37TMC2    C6  577   0.692   4.467  11.399 -0.2150 -0.3333  0.3216
   37TMC2     C  578   0.571   4.412  11.806 -0.4784  0.0289  0.6366
   37TMC2     O  579   0.450   4.426  11.825 -0.2047  0.2942  0.0485
   37TMC2     H  580   0.423   4.499  11.611  1.0590 -0.7193  2.4884
   37TMC2    H1  581   0.820   4.400  11.709  0.9866  0.6077 -0.4831
   37TMC2    H2  582   0.716   4.470  11.294 -1.7751  0.6647 -0.0153
   37TMC2    C7  583   0.909   4.375  11.465 -0.4968 -0.5130  0.0239
   37TMC2    C8  584   0.464   4.552  11.361  0.2126 -0.2073 -0.1002
   37TMC2    O1  585   0.961   4.298  11.544 -0.0036  0.0311  0.1664
   37TMC2    O2  586   0.460   4.524  11.242 -0.0259 -0.2540 -0.7681
   37TMC2    O5  587   0.415   4.662  11.410 -0.2142  0.3244 -0.0939
   37TMC2    H5  588   0.427   4.671  11.507 -0.3907  4.8628 -0.5167
   38MPD2     C  589   0.595   4.179  12.262  1.1648 -0.7659  0.0229
   38MPD2    C1  590   0.720   4.167  12.199  0.5420 -0.3321 -0.0005
   38MPD2    C2  591   0.735   4.221  12.071 -0.2930  0.5558 -0.1579
   38MPD2    C3  592   0.631   4.294  12.008  1.2011 -0.3026 -0.1774
   38MPD2    C4  593   0.514   4.309  12.080  0.1900  0.3442  0.2624
   38MPD2    C5  594   0.493   4.250  12.196  0.6846 -0.5875 -0.0353
   38MPD2     H  595   0.830   4.211  12.018  1.6385  0.8256  3.2845
   38MPD2    H1  596   0.426   4.353  12.034  0.0775  1.0623  1.1633
   38MPD2    H2  597   0.559   4.133  12.354 -0.6863 -0.0994 -0.3685
   38MPD2    H3  598   0.394   4.255  12.240  1.0544 -0.0316  0.7315
   38MPD2     N  599   0.657   4.347  11.886  0.8615  0.0363 -0.1362
   38MPD2    H5  600   0.747   4.314  11.852  1.3731  1.2758 -0.0135
   38MPD2    N1  601   0.824   4.082  12.248 -0.1994 -1.2203  0.1608
   38MPD2    H7  602   0.911   4.080  12.196  0.1257 -0.1314  0.6765
   39TMC2    C1  603   0.035   0.730   1.711  0.3217 -0.5983 -0.4158
   39TMC2    C2  604   0.039   0.841   1.794 -1.3793  0.1192 -0.6002
   39TMC2    C3  605   0.157   0.886   1.836  0.0703  0.2701 -0.4859
   39TMC2    C4  606   0.150   0.664   1.681 -1.3443  0.0362  0.1813
   39TMC2    C5  607   0.263   0.708   1.736  0.2625 -0.2721 -0.1197
   39TMC2    C6  608   0.271   0.811   1.818  0.4515  0.0669 -0.4330
   39TMC2     C  609   4.644   0.679   1.659  0.1383 -0.3198 -0.4436
   39TMC2     O  610   4.563   0.767   1.634  0.8917 -0.3598 -0.2242
   39TMC2     H  611   4.682   0.892   1.814 -2.0073 -0.8934 -0.9693
   39TMC2    H1  612   0.151   0.577   1.617  0.8214 -1.0065  1.6325
   39TMC2    H2  613   0.366   0.842   1.860  0.6149 -1.5110  0.3438
   39TMC2    C7  614   0.390   0.646   1.687 -0.0206  1.0151  0.3588
   39TMC2    C8  615   0.149   0.982   1.943 -0.3688 -0.2619  0.0198
   39TMC2    O1  616   0.383   0.523   1.671 -0.6294 -0.2229 -0.2173
   39TMC2    O2  617   0.247   0.976   2.021 -0.1864  0.9221 -0.0798
   39TMC2    O5  618   0.097   1.101   1.903  0.0730 -0.3421 -0.2251
   39TMC2    H5  619   0.017   1.105   1.846 -0.2104  2.0421  0.3161
   40MPD2     C  620   4.543   0.337   1.570 -0.0655 -0.4697  0.2029
   40MPD2    C1  621   4.537   0.472   1.567  0.0313  1.1051  0.9077
   40MPD2    C2  622   4.422   0.536   1.520  0.5188 -0.6602  1.0598
   40MPD2    C3  623   4.318   0.464   1.470  0.1821  0.2880 -0.7718
   40MPD2    C4  624   4.329   0.327   1.462  0.4402  0.1425  0.3436
   40MPD2    C5  625   4.440   0.265   1.511  0.1424 -0.2463  0.2346
   40MPD2     H  626   4.409   0.643   1.506 -1.2740 -0.9798  0.3182
   40MPD2    H1  627   4.251   0.275   1.408  0.3632 -1.1954  1.7450
   40MPD2    H2  628   4.625   0.283   1.617  0.3630 -1.2614 -1.4812
   40MPD2    H3  629   4.442   0.157   1.506 -0.2083 -0.3323  2.0496
   40MPD2     N  630   4.206   0.517   1.406 -0.3820 -0.1907 -0.2546
   40MPD2    H5  631   4.142   0.452   1.362 -0.8755  1.6549 -2.2497
   40MPD2    N1  632   4.651   0.541   1.626  0.0691  0.5651 -0.4678
   40MPD2    H7  633   4.734   0.487   1.647 -0.3567 -0.0780 -0.4669
   41TMC2    C1  634   3.692   3.937  14.049 -0.0059  0.1197  0.0662
   41TMC2    C2  635   3.768   4.031  14.114 -0.6868 -0.0669  0.6434
   41TMC2    C3  636   3.817   4.140  14.050 -0.1044  0.5227 -0.7435
   41TMC2    C4  637   3.667   3.947  13.915  0.7449  0.7718 -0.5655
   41TMC2    C5  638   3.717   4.061  13.851  0.4951  0.1177  0.2831
   41TMC2    C6  639   3.787   4.162  13.917 -0.0600  0.7452 -0.4428
   41TMC2     C  640   3.661   3.812  14.111  0.8681 -0.1178  0.3394
   41TMC2     O  641   3.675   3.706  14.050  0.1241  0.3216 -0.5458
   41TMC2     H  642   3.799   4.021  14.217  1.1129  0.9406  0.2026
   41TMC2    H1  643   3.599   3.875  13.872 -1.5178  2.6192 -0.0910
   41TMC2    H2  644   3.848   4.236  13.867  1.2977  0.5866  0.9838
   41TMC2    C7  645   3.689   4.090  13.709  0.5446 -0.7918  0.0636
   41TMC2    C8  646   3.913   4.219  14.107 -0.5026  0.0237 -0.4308
   41TMC2    O1  647   3.724   4.202  13.661  0.0774  0.0939  0.1700
   41TMC2    O2  648   3.975   4.178  14.202 -0.1134  0.7336  0.0848
   41TMC2    O5  649   3.876   4.352  14.091 -0.1830 -0.1299  0.2439
   41TMC2    H5  650   3.790   4.357  14.044 -0.4513 -0.7397  0.6688
   42MPD2     C  651   3.611   3.577  14.293  0.0314  0.1141  0.1769
   42MPD2    C1  652   3.618   3.715  14.329  0.8736  0.0648  0.4382
   42MPD2    C2  653   3.599   3.746  14.466  0.5155 -0.6959 -0.7167
   42MPD2    C3  654   3.583   3.649  14.561 -0.2626  0.3259 -0.4966
   42MPD2    C4  655   3.589   3.518  14.514  0.0452 -0.2969  0.0072
   42MPD2    C5  656   3.603   3.482  14.387  0.1795 -0.7756 -0.8859
   42MPD2     H  657   3.607   3.849  14.496  0.7804 -0.6566 -0.9327
   42MPD2    H1  658   3.598   3.436  14.584  1.3728  0.5269  0.7987
   42MPD2    H2  659   3.628   3.537  14.194 -1.0970 -0.4023  0.1788
   42MPD2    H3  660   3.605   3.380  14.350 -0.0752 -1.3159  0.6049
   42MPD2     N  661   3.563   3.668  14.699  0.0150  0.8187  0.2035
   42MPD2    H5  662   3.557   3.582  14.753 -1.0469  1.6232  1.3654
   42MPD2    N1  663   3.632   3.829  14.244  0.7709  0.2111  0.1331
   42MPD2    H7  664   3.633   3.924  14.281 -0.2807  0.9695 -1.7314
   43TMC2    C1  665   4.661   1.751   0.675  0.9049 -0.2475  0.1169
   43TMC2    C2  666   4.532   1.723   0.703 -0.6807 -0.6016  0.7548
   43TMC2    C3  667   4.465   1.811   0.785  0.4221  0.1312 -0.0598
   43TMC2    C4  668   4.731   1.859   0.727  0.2200  0.0006  0.7055
   43TMC2    C5  669   4.655   1.945   0.805  0.7477 -0.1092 -0.2538
   43TMC2    C6  670   4.523   1.930   0.826 -0.9063 -0.3690 -0.0176
   43TMC2     C  671   4.732   1.662   0.578  0.5626 -0.3766 -0.6595
   43TMC2     O  672   0.112   1.691   0.558 -0.0421 -0.1298 -0.4121
   43TMC2     H  673   4.478   1.633   0.676 -0.5677 -0.5903  0.4913
   43TMC2    H1  674   0.100   1.875   0.713 -0.1487 -0.0524 -2.1441
   43TMC2    H2  675   4.468   2.008   0.878  1.8360  0.7123  1.2565
   43TMC2    C7  676   4.724   2.064   0.840 -0.3540 -0.2969  0.7273
   43TMC2    C8  677   4.341   1.772   0.860 -1.0122 -0.0508 -0.7329
   43TMC2    O1  678   0.085   2.093   0.767 -0.2014  0.5023 -0.3966
   43TMC2    O2  679   4.299   1.829   0.958 -0.2448 -0.4056  0.4184
   43TMC2    O5  680   4.257   1.750   0.756 -0.9859 -0.3948 -0.1294
   43TMC2    H5  681   4.301   1.702   0.682 -0.1314 -0.8598  0.6772
   44MPD2     C  682   0.021   1.360   0.173  0.7438 -0.2112  0.0206
   44MPD2    C1  683   0.117   1.373   0.268 -0.5784 -0.4615  0.1093
   44MPD2    C2  684   0.083   1.453   0.376 -0.3617 -0.1197  0.2477
   44MPD2    C3  685   4.692   1.510   0.391 -0.5296  0.6770  0.0221
   44MPD2    C4  686   4.598   1.474   0.302  0.4089 -0.0262 -0.3039
   44MPD2    C5  687   4.636   1.408   0.185 -0.9739 -0.0514 -0.2470
   44MPD2     H  688   0.162   1.468   0.449  1.3409 -1.8104 -1.2515
   44MPD2    H1  689   4.496   1.511   0.313  1.0500  1.7128 -0.2093
   44MPD2    H2  690   0.045   1.303   0.084  2.9869  2.0393 -0.7854
   44MPD2    H3  691   4.566   1.388   0.105 -1.4924  2.6609 -0.4810
   44MPD2     N  692   4.647   1.594   0.496 -0.1176 -0.6166 -0.1883
   44MPD2    H5  693   4.548   1.614   0.503 -0.3370 -2.2352  1.2760
   44MPD2    N1  694   0.247   1.317   0.257 -0.4934 -0.2557 -0.6652
   44MPD2    H7  695   0.308   1.342   0.335 -0.7573  1.2393 -0.9309
   45TMC2    C1  696   0.315   4.723  10.004 -0.3752 -1.1312  0.3640
   45TMC2    C2  697   0.380   4.611  10.066 -0.1129 -0.4948  0.3137
   45TMC2    C3  698   0.420   4.636  10.188  0.0459  0.6321  0.1140
   45TMC2    C4  699   0.312   0.112  10.062  1.1166  0.0036 -0.2428
   45TMC2    C5  700   0.367   0.125  10.193  0.0513 -0.2544 -0.3011
   45TMC2    C6  701   0.427   0.018  10.249 -0.5634 -0.2799  0.2861
   45TMC2     C  702   0.259   4.706   9.872 -0.4679  0.2429  0.6336
   45TMC2     O  703   0.314   4.625   9.794 -0.4515  0.3091 -0.1834
   45TMC2     H  704   0.384   4.515  10.017  0.2106 -0.4274  0.2063
   45TMC2    H1  705   0.280   0.203  10.013 -1.7182 -0.9189 -0.1402
   45TMC2    H2  706   0.457   0.032  10.352  1.9345 -2.9637 -0.0810
   45TMC2    C7  707   0.385   0.255  10.258 -0.0518  0.7309  0.8803
   45TMC2    C8  708   0.486   4.526  10.263  0.2174 -0.0824  0.6947
   45TMC2    O1  709   0.468   0.265  10.351 -0.0260  0.0447 -0.7938
   45TMC2    O2  710   0.462   4.409  10.233 -0.0799 -0.5017 -0.3794
   45TMC2    O5  711   0.580   4.571  10.339  0.0315 -0.5509  0.4020
   45TMC2    H5  712   0.609   4.663  10.321 -1.2816 -0.3369 -0.6535
   46MPD2     C  713   0.066   4.691   9.633 -0.3535 -0.7526  0.0989
   46MPD2    C1  714   0.046   0.026   9.748 -0.4436 -0.2666  0.0608
   46MPD2    C2  715   4.661   0.086   9.774  0.5582 -0.7105  0.6392
   46MPD2    C3  716   4.561   0.087   9.677 -0.0028 -1.0495 -0.7696
   46MPD2    C4  717   4.585   0.032   9.556  0.2980 -0.8743  0.2036
   46MPD2    C5  718   4.702   4.701   9.541 -0.2994 -0.3705  0.4884
   46MPD2     H  719   4.654   0.148   9.862  2.3792  0.9566 -0.3827
   46MPD2    H1  720   4.519   0.022   9.471 -0.2171 -1.5343  0.6819
   46MPD2    H2  721   0.151   4.625   9.617 -0.0864 -0.4917  0.4450
   46MPD2    H3  722   4.710   4.642   9.450 -1.7567 -2.5898  1.8065
   46MPD2     N  723   4.437   0.154   9.712  0.1357 -0.1625 -0.2407
   46MPD2    H5  724   4.438   0.212   9.795 -1.2319  0.3642 -0.5850
   46MPD2    N1  725   0.140   0.036   9.857  0.4577  0.2706  0.4710
   46MPD2    H7  726   0.102   0.083   9.939  0.8897  1.0707  0.2060
   47TMC2    C1  727   2.939   0.776   9.718 -0.2158  0.0352  0.4670
   47TMC2    C2  728   2.907   0.704   9.612  0.7062  0.0917 -0.4775
   47TMC2    C3  729   2.770   0.674   9.587 -0.4917  0.2585 -0.2120
   47TMC2    C4  730   2.840   0.823   9.799 -0.0509 -0.5531  0.1785
   47TMC2    C5  731   2.711   0.785   9.775  0.1187  0.4225  0.0629
   47TMC2    C6  732   2.669   0.695   9.677  0.4894 -0.0554  0.0293
   47TMC2     C  733   3.074   0.776   9.766  0.7804  0.2157 -0.5547
   47TMC2     O  734   3.102   0.853   9.856  0.0156  0.2794  0.2742
   47TMC2     H  735   2.987   0.688   9.540  2.2322  2.6265  0.6738
   47TMC2    H1  736   2.862   0.861   9.898 -1.7181 -1.4961  0.9139
   47TMC2    H2  737   2.563   0.677   9.664  0.3823  1.2263 -0.8555
   47TMC2    C7  738   2.614   0.846   9.859  0.1712  0.5221 -0.3095
   47TMC2    C8  739   2.727   0.602   9.471  0.0502 -0.2059  0.2676
   47TMC2    O1  740   2.642   0.956   9.908  1.0708 -0.1090  0.5223
   47TMC2    O2  741   2.608   0.582   9.445 -0.1097 -0.8344  0.3490
   47TMC2    O5  742   2.823   0.510   9.432  0.5574  0.0272 -0.0560
   47TMC2    H5  743   2.910   0.505   9.478 -0.2156  1.6456  1.5837
   48MPD2     C  744   3.354   0.712   9.826 -0.1988 -0.6452  0.0153
   48MPD2    C1  745   3.274   0.631   9.760  0.7123  0.0184  0.0083
   48MPD2    C2  746   3.322   0.508   9.732 -0.2223  0.1740  0.4050
   48MPD2    C3  747   3.449   0.463   9.763  0.4866 -0.2954  0.2397
   48MPD2    C4  748   3.530   0.547   9.831  0.0742  0.0499  0.0243
   48MPD2    C5  749   3.480   0.670   9.869  0.6166  0.1738  0.3927
   48MPD2     H  750   3.258   0.440   9.676  0.6295  0.0078 -0.3505
   48MPD2    H1  751   3.626   0.512   9.866 -0.3812 -1.8467 -0.5818
   48MPD2    H2  752   3.319   0.806   9.866 -0.8345 -1.2501  0.8854
   48MPD2    H3  753   3.543   0.721   9.940 -0.0222  0.6352  0.6224
   48MPD2     N  754   3.486   0.334   9.724 -0.2696  0.2470 -0.4905
   48MPD2    H5  755   3.424   0.280   9.665 -0.2936 -0.5008  0.2115
   48MPD2    N1  756   3.142   0.665   9.729 -0.4742  0.5660  0.2638
   48MPD2    H7  757   3.098   0.599   9.666 -0.8056 -0.6462  1.7573
   49TMC2    C1  758   1.499   1.513  10.746 -0.1974 -0.2294 -0.1612
   49TMC2    C2  759   1.504   1.390  10.802  0.5038 -0.1872  0.6661
   49TMC2    C3  760   1.511   1.387  10.937  0.2481  0.3612 -0.6931
   49TMC2    C4  761   1.528   1.627  10.817  0.1220  0.5173  0.5879
   49TMC2    C5  762   1.549   1.621  10.953  0.0964  0.9013 -0.1349
   49TMC2    C6  763   1.537   1.497  11.010 -0.0360  0.5106  0.2529
   49TMC2     C  764   1.444   1.544  10.612 -0.3891  0.0406 -0.0868
   49TMC2     O  765   1.445   1.449  10.531  0.8120 -0.0212 -0.4234
   49TMC2     H  766   1.454   1.311  10.749  1.0200  0.8544 -1.3554
   49TMC2    H1  767   1.543   1.723  10.769 -0.6049  1.5429  2.3906
   49TMC2    H2  768   1.532   1.491  11.118 -0.4613 -0.3118  0.1860
   49TMC2    C7  769   1.657   1.700  11.006  0.8769  0.6859  0.5584
   49TMC2    C8  770   1.492   1.258  10.999  0.1163 -0.0534 -0.2049
   49TMC2    O1  771   1.722   1.650  11.096 -0.0628  0.3504 -0.4915
   49TMC2    O2  772   1.476   1.258  11.124  0.1477  0.0514  0.0085
   49TMC2    O5  773   1.565   1.165  10.932  0.1228 -0.0310 -0.2334
   49TMC2    H5  774   1.581   1.172  10.836  0.0497 -3.4877 -0.5135
   50MPD2     C  775   1.244   1.637  10.406 -0.1394 -0.4810 -0.4305
   50MPD2    C1  776   1.287   1.715  10.515 -0.6708 -0.7837 -0.1929
   50MPD2    C2  777   1.223   1.839  10.527 -0.0340  0.8323 -0.2714
   50MPD2    C3  778   1.135   1.890  10.425 -0.7199  0.2055 -0.3140
   50MPD2    C4  779   1.121   1.815  10.309 -0.2053 -0.2962 -0.4554
   50MPD2    C5  780   1.167   1.686  10.303 -0.4172 -0.1049 -0.0909
   50MPD2     H  781   1.250   1.900  10.612 -0.1418  1.7723 -0.9136
   50MPD2    H1  782   1.065   1.859  10.227 -0.9261  0.6167  0.5216
   50MPD2    H2  783   1.277   1.534  10.399  0.2469 -0.2725 -1.5424
   50MPD2    H3  784   1.153   1.630  10.211  0.7084 -0.3909 -0.0873
   50MPD2     N  785   1.065   2.017  10.441  0.5478  0.5216  0.4177
   50MPD2    H5  786   1.017   2.049  10.357 -0.4790  1.0234  1.2072
   50MPD2    N1  787   1.373   1.667  10.612  0.4162  0.2382 -0.8549
   50MPD2    H7  788   1.393   1.725  10.693  0.7475 -0.4631 -0.4382
   51TMC2    C1  789   1.982   0.359   1.094 -0.5044 -0.0154  1.1409
   51TMC2    C2  790   1.885   0.307   1.168  0.8969 -0.0512  0.1769
   51TMC2    C3  791   1.765   0.372   1.185  0.2444  1.0960  0.2282
   51TMC2    C4  792   1.961   0.471   1.020  0.2556  0.5178 -0.1304
   51TMC2    C5  793   1.836   0.524   1.029 -0.4834  0.8207 -0.5678
   51TMC2    C6  794   1.736   0.478   1.113 -0.0412 -0.0892  0.0531
   51TMC2     C  795   2.124   0.328   1.125  0.0016  0.1041 -0.0526
   51TMC2     O  796   2.196   0.324   1.029  0.2241  0.4563  0.4050
   51TMC2     H  797   1.909   0.229   1.239 -0.8745 -0.7402  0.0224
   51TMC2    H1  798   2.037   0.505   0.951  2.1536 -0.9577  1.2270
   51TMC2    H2  799   1.637   0.518   1.098  0.2872  0.4748 -0.6474
   51TMC2    C7  800   1.830   0.662   0.980 -0.4163  0.3445  0.6367
   51TMC2    C8  801   1.659   0.278   1.229  0.6315  0.4439 -0.2158
   51TMC2    O1  802   1.942   0.719   0.991 -0.0341  0.1309  0.2710
   51TMC2    O2  803   1.672   0.162   1.202 -0.5759 -0.2442 -0.3324
   51TMC2    O5  804   1.542   0.349   1.249 -0.1738  0.2723  0.0035
   51TMC2    H5  805   1.568   0.439   1.278 -1.4620  0.2317  1.2736
   52MPD2     C  806   2.501   0.067   1.355 -0.4502  0.1233 -0.0090
   52MPD2    C1  807   2.481   0.109   1.224 -0.3690 -0.3369 -0.1100
   52MPD2    C2  808   2.373   0.185   1.189  0.0483  0.0006 -0.0402
   52MPD2    C3  809   2.271   0.213   1.281 -0.1434 -0.2317 -1.1945
   52MPD2    C4  810   2.292   0.165   1.413 -0.1232  0.0974 -1.0209
   52MPD2    C5  811   2.408   0.096   1.449  0.5538 -0.4129  0.1253
   52MPD2     H  812   2.369   0.223   1.087  0.3764  0.0433 -0.0361
   52MPD2    H1  813   2.217   0.168   1.491 -1.3639  1.9287 -2.2855
   52MPD2    H2  814   2.584   0.003   1.384 -1.1106  0.9309  3.6439
   52MPD2    H3  815   2.425   0.065   1.551  0.5333 -1.1020 -0.0802
   52MPD2     N  816   2.146   0.271   1.247  0.2655 -0.4660  0.1700
   52MPD2    H5  817   2.069   0.282   1.312  2.1555 -1.6616  2.6140
   52MPD2    N1  818   2.588   0.080   1.135  0.0511  0.0703  0.0920
   52MPD2    H7  819   2.652   0.006   1.163 -1.1283 -0.2865  1.8690
   53TMC2    C1  820   1.577   4.109  11.436 -0.4019 -0.7575  0.2845
   53TMC2    C2  821   1.714   4.081  11.428  0.1712  0.2397  0.3677
   53TMC2    C3  822   1.781   4.040  11.539  0.9310 -0.3354 -0.1150
   53TMC2    C4  823   1.523   4.116  11.564  0.8035 -0.6741  0.2754
   53TMC2    C5  824   1.595   4.070  11.672 -0.6010  1.0082  0.3826
   53TMC2    C6  825   1.721   4.017  11.656  0.3426  0.4054 -0.0770
   53TMC2     C  826   1.513   4.196  11.342  0.4133 -1.0609 -0.6652
   53TMC2     O  827   1.583   4.239  11.249  0.2745  0.2232 -0.3990
   53TMC2     H  828   1.769   4.097  11.336  0.1934 -2.4096 -0.0963
   53TMC2    H1  829   1.433   4.171  11.586 -0.0174 -1.9996  0.2297
   53TMC2    H2  830   1.789   3.995  11.738  0.7722 -0.3446 -0.6372
   53TMC2    C7  831   1.541   4.085  11.811  0.0684 -0.3114  0.3807
   53TMC2    C8  832   1.924   4.009  11.528  0.1255  0.2792  0.3099
   53TMC2    O1  833   1.452   4.170  11.823  0.2116  0.0414 -0.3130
   53TMC2    O2  834   1.997   4.037  11.621  0.0289  0.3527 -0.3118
   53TMC2    O5  835   1.961   3.959  11.408  0.0703 -0.7773 -0.4914
   53TMC2    H5  836   1.888   3.927  11.352 -1.1963  0.8557  0.2364
   54MPD2     C  837   1.337   4.396  11.196 -0.5270 -0.4141 -0.5762
   54MPD2    C1  838   1.304   4.323  11.310  0.3767  0.0391 -0.2340
   54MPD2    C2  839   1.178   4.335  11.363  0.5524  0.0135 -0.8717
   54MPD2    C3  840   1.086   4.421  11.304 -0.3414 -0.3854 -0.2917
   54MPD2    C4  841   1.122   4.503  11.198  0.6743  0.1126 -1.0538
   54MPD2    C5  842   1.247   4.492  11.149  0.0174  0.3902  0.4484
   54MPD2     H  843   1.163   4.288  11.459 -2.0696  2.2057 -0.2132
   54MPD2    H1  844   1.061   4.583  11.156 -0.8482  0.8966  2.6427
   54MPD2    H2  845   1.421   4.373  11.132 -0.0161 -0.1954  0.0109
   54MPD2    H3  846   1.261   4.553  11.061 -0.8582  0.9866  0.7254
   54MPD2     N  847   0.954   4.431  11.350 -0.0487 -0.0541  0.1843
   54MPD2    H5  848   0.894   4.491  11.294 -1.2134  0.0892  1.6017
   54MPD2    N1  849   1.388   4.227  11.371 -0.0486 -0.2124  0.1257
   54MPD2    H7  850   1.355   4.174  11.451 -0.5887  0.1712  0.1546
   55TMC2    C1  851   2.970   1.866   0.602 -0.4658  0.9121 -0.1019
   55TMC2    C2  852   2.899   1.791   0.511  0.1744  0.4871  0.3790
   55TMC2    C3  853   2.815   1.692   0.557  0.3167 -0.2416  0.1751
   55TMC2    C4  854   2.974   1.827   0.731  1.1202  0.4201 -0.8403
   55TMC2    C5  855   2.901   1.718   0.766  0.0268 -0.6120  0.2367
   55TMC2    C6  856   2.809   1.665   0.685  0.0232  0.3845 -0.0066
   55TMC2     C  857   2.973   2.010   0.578 -0.2896  0.6213 -0.6136
   55TMC2     O  858   2.993   2.089   0.669  0.2551 -0.1544 -0.6925
   55TMC2     H  859   2.905   1.805   0.404 -2.0106 -0.9130  0.0866
   55TMC2    H1  860   3.002   1.905   0.801 -0.6808  0.1106  0.2067
   55TMC2    H2  861   2.714   1.637   0.728  0.5279  1.1637  1.6390
   55TMC2    C7  862   2.874   1.693   0.909  0.3641 -0.0599  0.0653
   55TMC2    C8  863   2.719   1.639   0.463  0.2127 -0.0063  0.0667
   55TMC2    O1  864   2.768   1.636   0.940 -0.2870 -0.5153  0.3984
   55TMC2    O2  865   2.686   1.696   0.363 -0.4610 -0.3409  0.6284
   55TMC2    O5  866   2.690   1.517   0.506 -0.3792 -0.2494  0.0422
   55TMC2    H5  867   2.756   1.484   0.571 -1.6155 -1.0169  0.9018
   56MPD2     C  868   2.964   2.177   0.243  0.0276 -0.9323 -0.0843
   56MPD2    C1  869   2.955   2.166   0.378  0.4370  0.7621 -0.0009
   56MPD2    C2  870   2.909   2.275   0.448 -0.3176  0.1440 -0.6446
   56MPD2    C3  871   2.853   2.387   0.390  0.2650 -0.0973  0.4006
   56MPD2    C4  872   2.860   2.393   0.252  0.0228  0.0809 -0.3619
   56MPD2    C5  873   2.930   2.298   0.189  0.2028  1.2142 -0.1732
   56MPD2     H  874   2.904   2.276   0.556 -2.1075  1.8761 -0.7428
   56MPD2    H1  875   2.829   2.480   0.195 -3.8280 -0.6623  0.5994
   56MPD2    H2  876   3.010   2.098   0.186  0.3788 -1.6865  1.2461
   56MPD2    H3  877   2.942   2.304   0.082  1.2826 -1.0546 -0.2027
   56MPD2     N  878   2.790   2.487   0.472  0.4025  0.5473  0.3958
   56MPD2    H5  879   2.762   2.443   0.559 -0.5433  1.1319  0.3952
   56MPD2    N1  880   2.980   2.034   0.442 -0.1373 -0.1116  0.6027
   56MPD2    H7  881   2.992   1.955   0.379  0.7459  0.0708  0.5409
   57TMC2    C1  882   1.773   3.094  13.334 -0.3134 -0.3452 -0.0159
   57TMC2    C2  883   1.709   3.179  13.245  1.0008 -0.8312  0.9504
   57TMC2    C3  884   1.766   3.208  13.126  0.2695  0.5683  0.6851
   57TMC2    C4  885   1.899   3.040  13.302  0.2924 -0.0611  0.0435
   57TMC2    C5  886   1.948   3.073  13.178 -0.7898 -0.0137 -0.4806
   57TMC2    C6  887   1.889   3.157  13.092 -1.0260  0.3630 -0.6122
   57TMC2     C  888   1.693   3.041  13.440 -0.0393 -0.2536 -0.0328
   57TMC2     O  889   1.597   3.104  13.477  0.0522  0.1320  0.7798
   57TMC2     H  890   1.603   3.202  13.252  1.4328  1.6394 -0.8589
   57TMC2    H1  891   1.953   2.990  13.382 -0.0325  0.0132  0.3109
   57TMC2    H2  892   1.920   3.151  12.989 -1.3773 -0.9421 -0.6441
   57TMC2    C7  893   2.086   3.052  13.147 -0.3765  0.6562 -0.3123
   57TMC2    C8  894   1.675   3.216  13.013  0.3277 -0.1402  0.9443
   57TMC2    O1  895   2.139   3.135  13.074  0.1153 -0.1902  0.0580
   57TMC2    O2  896   1.583   3.135  13.010 -0.2207 -0.2782  0.5609
   57TMC2    O5  897   1.734   3.268  12.909  0.2864  0.1806  0.1394
   57TMC2    H5  898   1.804   3.320  12.955 -0.7481 -1.1115  3.2155
   58MPD2     C  899   1.548   2.713  13.794 -0.3857  0.0707 -0.0132
   58MPD2    C1  900   1.534   2.849  13.794  0.2827  0.2738 -0.5105
   58MPD2    C2  901   1.587   2.925  13.691  0.1205  0.2653  0.4498
   58MPD2    C3  902   1.663   2.857  13.596  0.2177  0.1208  0.5931
   58MPD2    C4  903   1.693   2.721  13.609 -0.1155 -0.1443 -0.3411
   58MPD2    C5  904   1.630   2.651  13.708  0.2598 -1.1336  0.1086
   58MPD2     H  905   1.585   3.033  13.702  0.6653  0.3715 -0.5059
   58MPD2    H1  906   1.748   2.664  13.535  1.6115  1.5975 -0.3666
   58MPD2    H2  907   1.506   2.654  13.875  1.5263  1.2231  1.8197
   58MPD2    H3  908   1.643   2.544  13.720  1.0950 -1.1740 -1.2119
   58MPD2     N  909   1.731   2.919  13.489 -0.2204 -0.6169 -0.3540
   58MPD2    H5  910   1.805   2.870  13.440 -0.5931 -0.2325 -1.3076
   58MPD2    N1  911   1.444   2.912  13.892 -0.3842  0.1129  0.3353
   58MPD2    H7  912   1.434   3.012  13.878  0.7148  0.5113  2.3088
   59TMC2    C1  913   4.154   2.839  12.648  0.0648  0.5374  0.4940
   59TMC2    C2  914   4.164   2.719  12.705 -0.3452 -0.7638  0.7761
   59TMC2    C3  915   4.122   2.614  12.633  0.1461  0.3714  0.0692
   59TMC2    C4  916   4.107   2.867  12.523  1.2757  0.0686 -0.1826
   59TMC2    C5  917   4.055   2.758  12.456  0.0167  0.1703 -0.2744
   59TMC2    C6  918   4.064   2.631  12.512  0.4170 -0.2235  0.0237
   59TMC2     C  919   4.186   2.959  12.725 -0.2094  0.4098  0.5684
   59TMC2     O  920   4.127   3.064  12.694  0.0801 -0.2189  0.1518
   59TMC2     H  921   4.216   2.704  12.799  2.4832  2.2688 -0.3059
   59TMC2    H1  922   4.097   2.968  12.487  1.9822  0.0824 -0.3397
   59TMC2    H2  923   4.034   2.542  12.458  0.8594  0.2541 -0.9928
   59TMC2    C7  924   4.012   2.771  12.318  0.3995 -0.0099 -0.4971
   59TMC2    C8  925   4.100   2.492  12.705  0.6104 -0.7230  0.2761
   59TMC2    O1  926   3.958   2.679  12.262  0.0590  0.0367 -0.0742
   59TMC2    O2  927   4.121   2.382  12.662 -0.5794  0.2581  0.2050
   59TMC2    O5  928   3.997   2.525  12.782 -0.2008  0.0116  0.3077
   59TMC2    H5  929   3.971   2.619  12.776 -0.8386 -0.3531 -2.2459
   60MPD2     C  930   4.316   3.149  12.899 -0.1021  0.5144 -0.1561
   60MPD2    C1  931   4.361   3.023  12.890  0.0424  0.1631 -0.2314
   60MPD2    C2  932   4.460   2.979  12.972 -0.5195 -0.6378 -0.1968
   60MPD2    C3  933   4.520   3.072  13.059  0.3254  0.7072  0.1341
   60MPD2    C4  934   4.471   3.200  13.073 -0.5686  0.8348  0.1271
   60MPD2    C5  935   4.369   3.244  12.988 -1.2040 -1.0370 -0.0904
   60MPD2     H  936   4.491   2.876  12.956  1.1282 -0.2339  0.3097
   60MPD2    H1  937   4.508   3.266  13.150  0.7063 -0.4549  0.6167
   60MPD2    H2  938   4.239   3.186  12.832 -1.2759 -2.6958 -0.6036
   60MPD2    H3  939   4.340   3.348  12.982  0.0797 -0.4973  3.3247
   60MPD2     N  940   4.620   3.045  13.144  0.8621  0.2486 -0.8832
   60MPD2    H5  941   4.645   3.115  13.213 -0.3148  1.1117 -1.3339
   60MPD2    N1  942   4.291   2.929  12.811 -0.1789  0.4070  0.0038
   60MPD2    H7  943   4.329   2.834  12.811  0.6295  0.7276 -0.0866
   61TMC2    C1  944   3.810   4.358  15.402 -0.2486 -0.8668  0.4188
   61TMC2    C2  945   3.741   4.311  15.512 -0.4784 -0.1053 -0.1359
   61TMC2    C3  946   3.669   4.404  15.581  0.0518 -0.0834 -0.0205
   61TMC2    C4  947   3.812   4.483  15.359  0.5944 -0.1522  0.4511
   61TMC2    C5  948   3.735   4.571  15.430  0.2922  0.2599 -0.3224
   61TMC2    C6  949   3.661   4.539  15.542 -0.1622  0.9647  0.0037
   61TMC2     C  950   3.843   4.261  15.297  0.2264 -0.4200 -0.8833
   61TMC2     O  951   3.786   4.155  15.317  0.3141  0.5020 -0.5075
   61TMC2     H  952   3.746   4.208  15.545 -2.3490  0.1106  0.8009
   61TMC2    H1  953   3.853   4.511  15.262  1.9663 -1.4747  0.6607
   61TMC2    H2  954   3.606   4.613  15.598 -0.3539  2.7865 -2.5955
   61TMC2    C7  955   3.755   4.711  15.395  0.1519  0.0660  0.0714
   61TMC2    C8  956   3.592   4.363  15.694 -0.2785 -0.1501  0.4470
   61TMC2    O1  957   3.831   4.720  15.302 -0.2735  0.1970  0.1192
   61TMC2    O2  958   3.575   4.439  15.794  0.2872  0.2517 -0.1923
   61TMC2    O5  959   3.482   4.301  15.651  0.1797 -0.2162  0.5846
   61TMC2    H5  960   3.494   4.232  15.581 -0.7444  0.9754 -0.7407
   62MPD2     C  961   3.883   4.113  15.050 -0.1596 -0.4870 -0.3843
   62MPD2    C1  962   3.928   4.243  15.066 -0.6246  0.0151 -0.6092
   62MPD2    C2  963   3.977   4.322  14.965 -0.3190 -0.1449 -0.3770
   62MPD2    C3  964   3.980   4.274  14.833  0.6713  0.0040  0.4512
   62MPD2    C4  965   3.929   4.144  14.806 -0.3634  0.2736 -0.1594
   62MPD2    C5  966   3.883   4.063  14.917  0.3637  0.6812 -0.8105
   62MPD2     H  967   3.998   4.424  14.995  0.4864 -0.4373  0.0262
   62MPD2    H1  968   3.915   4.106  14.705 -0.2058 -0.6710  0.1755
   62MPD2    H2  969   3.845   4.043  15.123  3.3167 -0.1193  1.7957
   62MPD2    H3  970   3.839   3.966  14.897  0.4029  0.3790  0.6364
   62MPD2     N  971   4.022   4.342  14.713 -0.4691  1.0566 -0.2334
   62MPD2    H5  972   4.025   4.279  14.634 -0.0003  2.1565 -1.1068
   62MPD2    N1  973   3.910   4.312  15.188 -0.3057  0.2172 -1.1526
   62MPD2    H7  974   3.956   4.400  15.207 -1.2572  0.4261  0.2025
   63TMC2    C1  975   3.192   4.595  11.029 -0.4974 -0.3067  1.0414
   63TMC2    C2  976   3.296   4.599  11.114 -0.0034  0.3259  0.0331
   63TMC2    C3  977   3.415   4.651  11.070  0.5479  0.2013 -0.4723
   63TMC2    C4  978   3.198   4.638  10.904  0.2288  0.1659  0.5225
   63TMC2    C5  979   3.322   4.691  10.859 -0.0882  0.6780 -0.2838
   63TMC2    C6  980   3.434   4.692  10.940 -0.1468  0.1104  0.1609
   63TMC2     C  981   3.078   4.514  11.074  0.0534 -0.4315  0.3621
   63TMC2     O  982   3.075   4.497  11.193  0.4505  0.2666 -1.1714
   63TMC2     H  983   3.285   4.550  11.211 -1.3931  1.2551  0.3380
   63TMC2    H1  984   3.112   4.633  10.838  1.5717 -0.1519 -1.1852
   63TMC2    H2  985   3.528   0.006  10.920  0.7678 -0.4492  3.0522
   63TMC2    C7  986   3.327   4.731  10.723  0.1483  0.0629 -0.2423
   63TMC2    C8  987   3.524   4.663  11.164  0.0111  0.5075  0.0592
   63TMC2    O1  988   3.227   4.723  10.656 -0.2460  0.8934  0.0203
   63TMC2    O2  989   3.630   4.693  11.114  0.5787  0.1352  0.0715
   63TMC2    O5  990   3.478   4.686  11.287  0.2693  0.2782  0.3105
   63TMC2    H5  991   3.387   4.656  11.310  0.7082 -1.5620 -0.3164
   64MPD2     C  992   2.734   4.150  10.982  0.7916  0.1558  0.3612
   64MPD2    C1  993   2.802   4.177  10.867  0.7003  0.1532 -0.1168
   64MPD2    C2  994   2.889   4.280  10.860  0.4155 -0.1854 -0.5963
   64MPD2    C3  995   2.914   4.357  10.969  0.2953  0.0021  0.1067
   64MPD2    C4  996   2.846   4.338  11.088  0.1712  0.3464  0.2283
   64MPD2    C5  997   2.758   4.232  11.090 -0.8225 -0.4924  0.5239
   64MPD2     H  998   2.941   4.308  10.769 -0.1633  0.9042 -0.5897
   64MPD2    H1  999   2.872   4.398  11.175 -0.1557  2.4850 -1.1585
   64MPD2    H2 1000   2.666   4.066  10.984 -0.3295  1.0529 -0.3252
   64MPD2    H3 1001   2.689   4.221  11.173 -2.9217 -0.5793 -1.2094
   64MPD2     N 1002   3.019   4.453  10.963  0.0803 -0.6247  0.2177
   64MPD2    H5 1003   3.063   4.471  10.874  0.5623  2.0185  0.9949
   64MPD2    N1 1004   2.794   4.095  10.752 -0.2427  0.4085  1.0072
   64MPD2    H7 1005   2.845   4.128  10.670  1.7258 -1.5473  1.4528
   65TMC2    C1 1006   4.080   3.806  15.512  0.1455 -0.5185 -0.2430
   65TMC2    C2 1007   4.151   3.745  15.410 -0.2419 -0.6608  0.3937
   65TMC2    C3 1008   4.200   3.819  15.303  0.1594 -0.8859 -0.1606
   65TMC2    C4 1009   4.076   3.947  15.514  0.3894 -0.3500 -0.3543
   65TMC2    C5 1010   4.132   4.014  15.410  0.4370  0.4840 -0.2500
   65TMC2    C6 1011   4.192   3.957  15.305  0.4963  0.0420  0.5122
   65TMC2     C 1012   4.079   3.738  15.640 -0.0729 -0.3583 -0.3112
   65TMC2     O 1013   4.101   3.816  15.730  0.5049  0.1784  0.0357
   65TMC2     H 1014   4.183   3.642  15.402  0.0827 -0.4269 -1.2586
   65TMC2    H1 1015   4.016   3.994  15.591 -0.3523 -1.1754 -0.4222
   65TMC2    H2 1016   4.213   4.021  15.220  0.8643 -0.6847  0.0533
   65TMC2    C7 1017   4.146   4.158  15.415 -0.7021  0.1922  0.1079
   65TMC2    C8 1018   4.280   3.748  15.208  0.0068  0.9461  0.2413
   65TMC2    O1 1019   4.184   4.209  15.311  0.0851  0.0312 -0.7639
   65TMC2    O2 1020   4.396   3.771  15.177  0.3158 -0.6394  0.0870
   65TMC2    O5 1021   4.190   3.668  15.140  0.0437  1.0975  0.0962
   65TMC2    H5 1022   4.100   3.661  15.178  0.7217  0.6037  1.5834
   66MPD2     C 1023   4.097   3.560  15.869 -0.3625  0.5130  0.5702
   66MPD2    C1 1024   4.068   3.512  15.736 -0.1947 -0.1064  0.2328
   66MPD2    C2 1025   4.045   3.376  15.711  0.1078 -0.2008 -0.2247
   66MPD2    C3 1026   4.047   3.289  15.823 -0.2379  0.0901  0.3979
   66MPD2    C4 1027   4.069   3.340  15.950  1.0059  0.3585  0.4306
   66MPD2    C5 1028   4.096   3.471  15.978  0.5191 -0.3730  0.0584
   66MPD2     H 1029   4.025   3.347  15.609  0.1269 -0.6821 -0.0901
   66MPD2    H1 1030   4.072   3.271  16.034  0.3239  2.3754  2.0853
   66MPD2    H2 1031   4.124   3.664  15.887 -0.4405 -0.0514  3.9532
   66MPD2    H3 1032   4.120   3.516  16.073  0.2526 -0.8467  0.3463
   66MPD2     N 1033   4.031   3.151  15.813  0.2970 -0.1769  0.0641
   66MPD2    H5 1034   4.040   3.099  15.900 -2.5452 -1.8938 -0.6512
   66MPD2    N1 1035   4.055   3.603  15.630 -1.2045 -0.0705  0.4930
   66MPD2    H7 1036   4.036   3.577  15.534 -1.9348  1.9242  0.1041
   67TMC2    C1 1037   4.440   3.284  14.450  1.3699 -0.6573  0.5806
   67TMC2    C2 1038   4.382   3.402  14.407 -1.2171  0.3297  0.6674
   67TMC2    C3 1039   4.390   3.514  14.488 -0.3137 -1.2021  0.6098
   67TMC2    C4 1040   4.514   3.275  14.563 -0.3571 -0.1493  0.3742
   67TMC2    C5 1041   4.518   3.390  14.642  0.1131  0.2284 -0.7651
   67TMC2    C6 1042   4.446   3.503  14.611  0.9436  0.5254  0.2707
   67TMC2     C 1043   4.433   3.179  14.353 -0.1814  0.6537 -0.1022
   67TMC2     O 1044   4.538   3.114  14.349  0.1687  0.0556 -0.6689
   67TMC2     H 1045   4.309   3.403  14.328 -0.4722 -2.0874 -0.0511
   67TMC2    H1 1046   4.557   3.180  14.591  3.0457  1.6230  1.1770
   67TMC2    H2 1047   4.446   3.586  14.681  2.3243  0.8084 -0.0598
   67TMC2    C7 1048   4.555   3.378  14.787  0.1851  0.2487 -0.7663
   67TMC2    C8 1049   4.319   3.630  14.454  0.8852 -0.6643 -0.0217
   67TMC2    O1 1050   4.520   3.451  14.877 -0.4817 -0.0569  0.1500
   67TMC2    O2 1051   4.254   3.699  14.531 -0.5804  0.2809  0.5473
   67TMC2    O5 1052   4.322   3.643  14.316 -0.2400  0.3067  0.0613
   67TMC2    H5 1053   4.375   3.572  14.275 -0.2038  1.0328 -1.1452
   68MPD2     C 1054   4.398   2.999  14.111  0.4697  0.4516  0.4884
   68MPD2    C1 1055   4.298   3.062  14.179  0.2304  0.1120 -0.2044
   68MPD2    C2 1056   4.167   3.035  14.149  0.0534 -0.3177  0.1539
   68MPD2    C3 1057   4.136   2.939  14.054 -0.5179  0.0281  0.0599
   68MPD2    C4 1058   4.232   2.882  13.975 -0.0379  0.6120  0.3369
   68MPD2    C5 1059   4.362   2.921  14.005 -0.3324  0.0105 -0.0367
   68MPD2     H 1060   4.094   3.085  14.212 -0.3216  0.2689 -0.7419
   68MPD2    H1 1061   4.214   2.819  13.889  1.0478 -0.8316  1.1754
   68MPD2    H2 1062   4.503   3.022  14.123  1.0537 -1.2144 -1.3710
   68MPD2    H3 1063   4.434   2.883  13.933 -1.1300  1.0587 -1.3889
   68MPD2     N 1064   4.006   2.927  14.011 -0.3917 -0.3016 -0.4896
   68MPD2    H5 1065   3.985   2.885  13.921  0.8534 -1.1365 -0.3846
   68MPD2    N1 1066   4.315   3.158  14.281 -0.1828 -0.4181 -0.2157
   68MPD2    H7 1067   4.239   3.211  14.322 -0.8795 -0.8320 -0.9559
   69TMC2    C1 1068   1.709   4.335  12.251 -0.5643  0.0366 -0.3503
   69TMC2    C2 1069   1.584   4.384  12.226  1.0896 -0.4996  0.3338
   69TMC2    C3 1070   1.554   4.423  12.099  0.2652  1.1973 -0.8808
   69TMC2    C4 1071   1.805   4.318  12.153  0.1828 -0.2981  0.3470
   69TMC2    C5 1072   1.767   4.346  12.029 -0.5289 -0.6295 -0.4657
   69TMC2    C6 1073   1.641   4.387  11.997 -0.6114 -0.3749  0.4139
   69TMC2     C 1074   1.732   4.287  12.389  0.3460 -0.8742  0.1562
   69TMC2     O 1075   1.670   4.332  12.483  0.0268  0.3242  0.1335
   69TMC2     H 1076   1.509   4.391  12.304  2.2706 -0.4734  1.4576
   69TMC2    H1 1077   1.901   4.274  12.174 -0.2497 -1.1209  0.6047
   69TMC2    H2 1078   1.619   4.422  11.897  1.9040 -0.8331 -0.2994
   69TMC2    C7 1079   1.871   4.344  11.929  0.3088 -0.3714 -0.0114
   69TMC2    C8 1080   1.419   4.426  12.058 -0.0043  0.0163 -0.0387
   69TMC2    O1 1081   1.990   4.335  11.957  0.5347  0.4084 -0.1881
   69TMC2    O2 1082   1.329   4.362  12.103  0.4213  0.2783 -0.6326
   69TMC2    O5 1083   1.417   4.537  11.976  0.1526  0.0677  0.4304
   69TMC2    H5 1084   1.498   4.592  11.986  1.2099 -1.3872 -0.1887
   70MPD2     C 1085   1.969   4.018  12.500 -0.5405 -0.1723 -0.4803
   70MPD2    C1 1086   1.859   4.103  12.510 -0.8000  0.6063  0.1670
   70MPD2    C2 1087   1.794   4.113  12.632 -0.6886 -0.0070 -0.2628
   70MPD2    C3 1088   1.839   4.040  12.739 -0.2196 -0.1485  0.9960
   70MPD2    C4 1089   1.952   3.961  12.723  0.2898 -0.6355 -0.2373
   70MPD2    C5 1090   2.020   3.961  12.606 -1.1427  0.3857 -0.3250
   70MPD2     H 1091   1.708   4.178  12.642 -0.2653  0.3587  1.0635
   70MPD2    H1 1092   1.984   3.902  12.808  2.4533  1.7266  0.5896
   70MPD2    H2 1093   2.026   4.008  12.408  0.7111 -4.0290  0.7035
   70MPD2    H3 1094   2.112   3.908  12.586 -0.9623  1.5340 -2.5531
   70MPD2     N 1095   1.767   4.037  12.861 -0.5634  0.2944 -1.0151
   70MPD2    H5 1096   1.804   3.979  12.936 -2.8973  0.1353  0.0382
   70MPD2    N1 1097   1.830   4.193  12.398  0.7529  0.2646  0.7531
   70MPD2    H7 1098   1.883   4.181  12.312 -0.6586 -0.9978  0.0523
   71TMC2    C1 1099   3.614   0.750   1.518  0.3667 -0.3722  0.0103
   71TMC2    C2 1100   3.718   0.793   1.601 -0.2941 -0.7694 -0.3623
   71TMC2    C3 1101   3.701   0.913   1.669  0.2302  0.2726  0.8137
   71TMC2    C4 1102   3.496   0.813   1.526 -0.3481  0.9613 -0.3105
   71TMC2    C5 1103   3.478   0.933   1.592 -0.4346 -0.1667 -0.1044
   71TMC2    C6 1104   3.584   0.984   1.665  0.4630 -0.2436  0.0815
   71TMC2     C 1105   3.634   0.627   1.444 -1.3094 -0.4930  0.4875
   71TMC2     O 1106   3.712   0.548   1.490  0.4376  1.3185  0.6168
   71TMC2     H 1107   3.812   0.739   1.594  0.8400  1.2188 -0.3950
   71TMC2    H1 1108   3.420   0.769   1.462 -2.4425  0.9461  2.1845
   71TMC2    H2 1109   3.581   1.083   1.709  0.4920 -1.1230  2.0298
   71TMC2    C7 1110   3.358   1.012   1.577  0.0721  0.1970 -0.4227
   71TMC2    C8 1111   3.823   0.964   1.727 -0.6057  0.3662 -0.4421
   71TMC2    O1 1112   3.328   1.094   1.658 -0.1338 -0.0127  0.2669
   71TMC2    O2 1113   3.929   0.953   1.671 -0.2296 -0.3343 -0.0654
   71TMC2    O5 1114   3.792   1.055   1.820  0.2634  0.6366 -0.4318
   71TMC2    H5 1115   3.709   1.024   1.863  0.9066  2.1170  1.9413
   72MPD2     C 1116   3.482   0.261   1.122 -0.3442 -0.0979  0.0870
   72MPD2    C1 1117   3.608   0.281   1.180  0.2512  0.2907 -0.5501
   72MPD2    C2 1118   3.622   0.396   1.251  0.2829 -0.3955  0.2593
   72MPD2    C3 1119   3.524   0.495   1.268  0.3426 -0.0495 -0.5590
   72MPD2    C4 1120   3.404   0.474   1.205  0.7509 -0.6791  0.8943
   72MPD2    C5 1121   3.381   0.354   1.139 -0.6540 -0.3136 -0.0414
   72MPD2     H 1122   3.721   0.414   1.293  0.8967  0.1010 -1.4173
   72MPD2    H1 1123   3.327   0.550   1.192 -0.8407 -2.3629  0.5737
   72MPD2    H2 1124   3.461   0.160   1.089 -1.6276  0.2033  0.0128
   72MPD2    H3 1125   3.283   0.328   1.102 -0.4493 -1.1299 -0.0114
   72MPD2     N 1126   3.539   0.610   1.348  0.7458  0.2922 -0.1313
   72MPD2    H5 1127   3.468   0.682   1.342 -0.2508 -0.6545  0.3296
   72MPD2    N1 1128   3.712   0.189   1.184  0.2351  0.1666 -0.8801
   72MPD2    H7 1129   3.801   0.227   1.216 -0.2313 -1.4412  2.2251
   73TMC2    C1 1130   3.636   2.165  13.952 -0.1185 -0.2946  0.0160
   73TMC2    C2 1131   3.546   2.251  14.011  0.4388 -0.9473  0.5166
   73TMC2    C3 1132   3.575   2.293  14.139 -0.5663  0.7576  0.0513
   73TMC2    C4 1133   3.732   2.100  14.024  0.3725 -0.2436  0.4447
   73TMC2    C5 1134   3.757   2.142  14.151 -0.2826  0.5172  0.3023
   73TMC2    C6 1135   3.678   2.235  14.211  0.3565 -0.1280 -0.3796
   73TMC2     C 1136   3.691   2.196  13.823  0.5058  0.6534  0.7722
   73TMC2     O 1137   3.812   2.195  13.824 -0.1157 -0.4226 -0.2855
   73TMC2     H 1138   3.487   2.321  13.953 -0.5065 -1.5379  0.7627
   73TMC2    H1 1139   3.789   2.021  13.977  0.6343  0.5325 -0.5271
   73TMC2    H2 1140   3.715   2.279  14.303 -1.5044  0.9239 -0.1343
   73TMC2    C7 1141   3.899   2.157  14.187 -0.2293 -0.9547 -0.0092
   73TMC2    C8 1142   3.497   2.395  14.192 -0.1234 -0.1512 -0.1176
   73TMC2    O1 1143   3.931   2.176  14.304  0.2357  0.2331 -0.3936
   73TMC2    O2 1144   3.434   2.476  14.127 -0.1755  0.0947  0.1056
   73TMC2    O5 1145   3.521   2.397  14.324  0.1236  0.6022 -0.1344
   73TMC2    H5 1146   3.554   2.312  14.360  0.0947  1.5938  2.2775
   74MPD2     C 1147   3.706   2.519  13.423 -0.4108 -0.3228  0.0749
   74MPD2    C1 1148   3.804   2.475  13.504  0.0908  0.2857 -0.5518
   74MPD2    C2 1149   3.772   2.384  13.608 -0.0359 -0.4158  0.2133
   74MPD2    C3 1150   3.646   2.341  13.628 -0.2640 -0.1775 -0.9750
   74MPD2    C4 1151   3.550   2.384  13.545  0.5634 -0.3866 -0.0917
   74MPD2    C5 1152   3.583   2.470  13.446 -0.7363  0.6128 -1.0646
   74MPD2     H 1153   3.846   2.353  13.681  0.5703 -1.0960 -0.6913
   74MPD2    H1 1154   3.445   2.370  13.568  0.1347  1.2226 -1.0445
   74MPD2    H2 1155   3.725   2.591  13.344  0.4124 -0.0922  0.4842
   74MPD2    H3 1156   3.502   2.514  13.389 -2.4303 -1.1471 -0.0083
   74MPD2     N 1157   3.611   2.266  13.742  0.3247 -0.5625 -0.2502
   74MPD2    H5 1158   3.512   2.263  13.763  0.2198  0.1574 -0.6737
   74MPD2    N1 1159   3.938   2.518  13.489  0.3363 -0.1197  0.2006
   74MPD2    H7 1160   3.962   2.587  13.419 -2.3855 -0.6170 -1.2330
   75TMC2    C1 1161   3.766   2.964  14.024 -0.0296 -0.1082 -0.5772
   75TMC2    C2 1162   3.662   2.982  14.121 -0.1815 -0.6620  0.7550
   75TMC2    C3 1163   3.563   3.077  14.086  0.1055 -0.0114  0.4201
   75TMC2    C4 1164   3.768   3.043  13.906  0.7541 -0.6889 -0.2469
   75TMC2    C5 1165   3.659   3.120  13.880 -0.3540  0.0220 -0.4164
   75TMC2    C6 1166   3.554   3.130  13.961 -0.5633  0.0316  0.0389
   75TMC2     C 1167   3.898   2.947  14.089  0.5630  0.0967 -0.0452
   75TMC2     O 1168   3.897   2.958  14.210 -0.5071  0.0975  0.1394
   75TMC2     H 1169   3.675   2.940  14.220  2.1079  0.3532  0.9012
   75TMC2    H1 1170   3.839   3.007  13.832 -0.6537 -0.3559 -1.7708
   75TMC2    H2 1171   3.470   3.196  13.940  0.7493  1.4284 -0.8607
   75TMC2    C7 1172   3.648   3.158  13.745 -0.1659  0.5908  0.0254
   75TMC2    C8 1173   3.470   3.126  14.185  0.0208 -0.2533  0.5314
   75TMC2    O1 1174   3.685   3.076  13.662  0.3277 -0.4163  0.4273
   75TMC2    O2 1175   3.371   3.194  14.165 -0.3255 -0.2070 -0.3030
   75TMC2    O5 1176   3.486   3.047  14.287 -0.3901 -0.2351 -0.1300
   75TMC2    H5 1177   3.528   2.967  14.249 -0.0654 -0.5054  0.7833
   76TMC2    C1 1178   2.849   3.762  12.109  0.0638 -0.3398 -0.3552
   76TMC2    C2 1179   2.750   3.767  12.205  0.9266  0.1998  0.0579
   76TMC2    C3 1180   2.777   3.694  12.320  0.4349  0.3934 -0.0150
   76TMC2    C4 1181   2.963   3.689  12.123  0.1588  0.0089 -0.2877
   76TMC2    C5 1182   2.987   3.624  12.239  0.5654 -0.2506 -0.3296
   76TMC2    C6 1183   2.898   3.624  12.343  1.0144  0.0223  0.0538
   76TMC2     C 1184   2.827   3.861  12.009 -0.0538  0.0557  0.0755
   76TMC2     O 1185   2.715   3.902  11.986 -0.1071 -0.4841  0.2799
   76TMC2     H 1186   2.659   3.825  12.197  0.0819 -1.1135  0.1145
   76TMC2    H1 1187   3.037   3.687  12.045 -1.6890 -1.0444 -2.0206
   76TMC2    H2 1188   2.913   3.558  12.427 -0.6564 -2.2224 -1.3957
   76TMC2    C7 1189   3.119   3.568  12.260  0.1867 -0.0662  0.7878
   76TMC2    C8 1190   2.672   3.684  12.419 -0.5352 -0.3579  0.7418
   76TMC2    O1 1191   3.193   3.547  12.165 -0.3634 -0.1039  0.8382
   76TMC2    O2 1192   2.550   3.691  12.405  0.1983  0.0058  0.2260
   76TMC2    O5 1193   2.741   3.692  12.536 -0.0867  0.2007 -1.3009
   76TMC2    H5 1194   2.837   3.705  12.519  0.4170 -0.4311  1.0134
   77MPD2     C 1195   2.986   4.129  11.595 -0.2107 -0.8276 -0.9976
   77MPD2    C1 1196   2.859   4.114  11.643 -0.3698  0.1984 -0.3029
   77MPD2    C2 1197   2.838   4.031  11.752  0.4818 -0.4765 -0.5435
   77MPD2    C3 1198   2.943   3.959  11.815  0.0225 -0.0222 -0.6485
   77MPD2    C4 1199   3.071   3.981  11.763  0.2684 -0.2346 -0.0215
   77MPD2    C5 1200   3.087   4.067  11.654  0.3456  0.8081 -0.6352
   77MPD2     H 1201   2.738   4.022  11.794 -0.2085  0.0391 -2.0613
   77MPD2    H1 1202   3.152   3.923  11.806  0.2255  0.8575  1.5074
   77MPD2    H2 1203   3.005   4.176  11.498  0.9659  1.0572  0.1243
   77MPD2    H3 1204   3.183   4.057  11.604  1.1689  0.7463  0.9669
   77MPD2     N 1205   2.938   3.883  11.936  0.5133  0.0000 -0.5462
   77MPD2    H5 1206   3.023   3.849  11.979 -1.4387 -1.4375  2.1621
   77MPD2    N1 1207   2.751   4.187  11.593  0.2346  0.6728  0.0289
   77MPD2    H7 1208   2.663   4.167  11.639  1.2061  1.6570  2.2943
   78TMC2    C1 1209   4.175   0.557   1.828  0.5299 -0.3907 -0.1046
   78TMC2    C2 1210   4.181   0.696   1.805  0.1845  0.0258  0.2453
   78TMC2    C3 1211   4.299   0.762   1.837  0.0884 -0.2489 -0.8858
   78TMC2    C4 1212   4.271   0.490   1.893  0.5054  0.5232  0.2921
   78TMC2    C5 1213   4.384   0.561   1.927 -0.0186 -0.4905  0.2111
   78TMC2    C6 1214   4.401   0.693   1.895  0.5766 -0.1192 -0.1444
   78TMC2     C 1215   4.044   0.496   1.811  0.2725  0.5111 -0.5830
   78TMC2     O 1216   4.043   0.385   1.755  0.3159 -0.3392 -0.3981
   78TMC2     H 1217   4.097   0.760   1.778 -0.6188 -1.2775 -0.3624
   78TMC2    H1 1218   4.270   0.381   1.894 -0.0483  0.4755 -3.2416
   78TMC2    H2 1219   4.498   0.741   1.903  1.2188 -1.5229  0.5809
   78TMC2    C7 1220   4.500   0.475   1.942  0.2132 -0.2784  0.1890
   78TMC2    C8 1221   4.325   0.888   1.795 -0.5261  0.3606  1.7433
   78TMC2    O1 1222   4.504   0.370   1.878  1.0923  0.1517  0.0948
   78TMC2    O2 1223   4.390   0.976   1.862  0.4483  0.0229 -0.4251
   78TMC2    O5 1224   4.282   0.908   1.665 -0.4167 -0.1817  0.1831
   78TMC2    H5 1225   4.245   0.830   1.620 -0.8044  0.8752 -1.3383
   79MPD1     C 1226   3.526   0.508   1.881  0.3389 -1.0059 -0.4424
   79MPD1    C1 1227   3.601   0.415   1.806  0.6742  0.1106 -0.3543
   79MPD1    C2 1228   3.740   0.441   1.801 -0.4105 -0.0708 -0.3363
   79MPD1    C3 1229   3.802   0.547   1.863  0.8224 -0.1173  0.1250
   79MPD1    C4 1230   3.723   0.639   1.931 -0.3298  0.0507 -0.6518
   79MPD1    C5 1231   3.588   0.625   1.927  0.3438  0.6322 -0.0142
   79MPD1     H 1232   3.805   0.370   1.754  1.7318  1.0198  0.9844
   79MPD1    H1 1233   3.761   0.729   1.977  0.1034  0.6462 -2.1604
   79MPD1    H2 1234   3.419   0.508   1.895  0.1947  1.2316 -1.5636
   79MPD1    H3 1235   3.521   0.693   1.977 -1.2224 -0.3300 -0.8054
   79MPD1     N 1236   3.940   0.573   1.858  0.1838 -0.3972 -0.2031
   79MPD1    H5 1237   3.970   0.658   1.906 -0.1019 -0.7946  0.6650
   79MPD1    N1 1238   3.543   0.304   1.748  0.6514  0.4351  0.4461
   79MPD1    H6 1239   3.604   0.250   1.686  1.6632  1.0883  0.8603
   79MPD1    H7 1240   3.457   0.322   1.698  0.3355  0.3048  0.9508
   80TMC2    C1 1241   1.199   3.034  11.935 -0.0817  0.2986 -0.8622
   80TMC2    C2 1242   1.233   2.923  11.858 -0.2484  0.4222  0.4565
   80TMC2    C3 1243   1.181   2.804  11.899 -0.1229 -0.1392  0.5551
   80TMC2    C4 1244   1.113   3.031  12.043 -0.8644  0.0192 -0.3750
   80TMC2    C5 1245   1.068   2.906  12.076  0.3955  0.2216 -0.3149
   80TMC2    C6 1246   1.104   2.792  12.008  0.8515 -0.0727 -0.1936
   80TMC2     C 1247   1.237   3.165  11.877  0.6502 -1.0464 -0.3934
   80TMC2     O 1248   1.273   3.172  11.760  0.7643 -0.0816 -0.1285
   80TMC2     H 1249   1.299   2.927  11.772  0.8923  2.8046  1.4273
   80TMC2    H1 1250   1.082   3.119  12.099 -0.7822 -0.1567 -0.0527
   80TMC2    H2 1251   1.062   2.696  12.034  2.9491 -0.9803 -0.2362
   80TMC2    C7 1252   1.001   2.890  12.200  0.3367 -0.2781  0.2608
   80TMC2    C8 1253   1.232   2.676  11.849  0.0190  0.4415 -0.2548
   80TMC2    O1 1254   0.966   2.773  12.224  0.0641 -0.8581 -0.1843
   80TMC2    O2 1255   1.178   2.626  11.750  0.0661 -0.4161 -0.5983
   80TMC2    O5 1256   1.269   2.616  11.961  0.7663 -0.2420 -0.3361
   80TMC2    H5 1257   1.281   2.675  12.038  1.9344 -1.9520  0.8141
   81MPD2     C 1258   1.310   3.462  11.845 -0.5348 -0.1047  0.5489
   81MPD2    C1 1259   1.260   3.404  11.959  0.0360 -0.4283 -0.2545
   81MPD2    C2 1260   1.257   3.483  12.070 -0.1491  0.6847 -0.2843
   81MPD2    C3 1261   1.297   3.614  12.071  0.3641 -0.4002  0.0255
   81MPD2    C4 1262   1.326   3.671  11.945  0.8088  0.3586  0.0234
   81MPD2    C5 1263   1.345   3.590  11.838  0.8905 -0.4267 -0.2580
   81MPD2     H 1264   1.236   3.434  12.165 -2.9189 -1.2633 -1.9102
   81MPD2    H1 1265   1.358   3.773  11.929 -1.2831  1.0451  0.2318
   81MPD2    H2 1266   1.322   3.409  11.751 -3.3820  0.0220  0.1124
   81MPD2    H3 1267   1.382   3.632  11.745  1.4251 -1.0249 -0.3182
   81MPD2     N 1268   1.259   3.686  12.184 -0.0576 -0.3088  0.1703
   81MPD2    H5 1269   1.250   3.630  12.268  1.1391 -2.1554 -0.9254
   81MPD2    N1 1270   1.226   3.264  11.971 -0.2093 -0.4253 -0.0502
   81MPD2    H7 1271   1.208   3.237  12.066 -0.9446 -3.6512 -1.1244
   82TMC2    C1 1272   4.284   3.079  11.207 -0.7263 -0.4767  0.4445
   82TMC2    C2 1273   4.291   3.166  11.305  0.0578  0.3086  0.4638
   82TMC2    C3 1274   4.235   3.129  11.429 -0.5832 -0.9191  0.0883
   82TMC2    C4 1275   4.240   2.954  11.222  0.1372 -0.3277  0.2738
   82TMC2    C5 1276   4.190   2.914  11.344  0.3986  0.3901 -0.1843
   82TMC2    C6 1277   4.194   2.998  11.448 -0.5391 -0.4088 -0.3906
   82TMC2     C 1278   4.301   3.130  11.074  0.4214  1.2807  0.4084
   82TMC2     O 1279   4.238   3.072  10.985  0.7467  0.6148  0.2890
   82TMC2     H 1280   4.299   3.271  11.277 -0.3414  0.5808  1.3586
   82TMC2    H1 1281   4.244   2.889  11.134  1.5984  1.2052 -0.7867
   82TMC2    H2 1282   4.145   2.976  11.542 -1.7945  1.3335 -0.6303
   82TMC2    C7 1283   4.193   2.777  11.373 -0.5981 -0.0355  0.2580
   82TMC2    C8 1284   4.171   3.233  11.507  0.2201 -0.5262 -0.3833
   82TMC2    O1 1285   4.239   2.741  11.482 -0.4980  0.1782 -0.4636
   82TMC2    O2 1286   4.117   3.330  11.458  0.5019  0.4161 -0.4241
   82TMC2    O5 1287   4.215   3.229  11.635  0.0389  0.5394  0.2062
   82TMC2    H5 1288   4.294   3.173  11.652 -0.0524 -0.0947 -1.5194
   83MPD2     C 1289   4.563   3.421  10.735 -0.3154 -0.5214  0.0992
   83MPD2    C1 1290   4.476   3.310  10.713  0.5003  0.2179  0.6488
   83MPD2    C2 1291   4.424   3.242  10.822  0.1164 -0.1606  0.6430
   83MPD2    C3 1292   4.452   3.288  10.949  0.0316  0.3089 -0.0917
   83MPD2    C4 1293   4.544   3.390  10.971  0.4183  0.3321  0.0299
   83MPD2    C5 1294   4.606   3.453  10.865  0.5047 -0.2524 -0.3869
   83MPD2     H 1295   4.359   3.155  10.814  1.6249 -0.9486 -3.0337
   83MPD2    H1 1296   4.569   3.429  11.069 -2.1940 -0.0926  0.8674
   83MPD2    H2 1297   4.603   3.479  10.652 -2.9054  5.1356  2.8026
   83MPD2    H3 1298   4.669   3.539  10.883  1.2987 -0.9544  0.1917
   83MPD2     N 1299   4.392   3.229  11.068  0.1718 -0.4285 -0.1783
   83MPD2    H5 1300   4.421   3.265  11.158 -1.7261  0.4182  0.0803
   83MPD2    N1 1301   4.428   3.288  10.581  0.5240 -0.5079 -0.4606
   83MPD2    H7 1302   4.442   3.360  10.511  1.0167 -1.3942 -1.2782
   84TMC2    C1 1303   0.885   2.374  10.687  0.1921 -0.5536  0.7871
   84TMC2    C2 1304   0.903   2.464  10.584  0.6991  1.0772 -1.1335
   84TMC2    C3 1305   0.943   2.414  10.465 -0.9998  0.5472  0.3890
   84TMC2    C4 1306   0.912   2.239  10.679  0.6421  0.0381 -0.0338
   84TMC2    C5 1307   0.953   2.192  10.555 -0.2037  0.1010  0.2606
   84TMC2    C6 1308   0.977   2.283  10.447  0.1643 -0.0331 -0.0513
   84TMC2     C 1309   0.848   2.431  10.812 -0.2733 -0.4958 -0.0218
   84TMC2     O 1310   0.846   2.554  10.826  0.0955 -0.5651 -0.2700
   84TMC2     H 1311   0.880   2.569  10.603 -0.2271  0.5825  0.4974
   84TMC2    H1 1312   0.904   2.168  10.760  1.1576  0.4825  0.4029
   84TMC2    H2 1313   1.016   2.243  10.355  0.7070  1.2867 -0.3934
   84TMC2    C7 1314   1.028   2.069  10.563 -0.3371 -0.4058 -0.6804
   84TMC2    C8 1315   0.941   2.489  10.347  0.9081 -0.0365 -0.3246
   84TMC2    O1 1316   1.071   2.026  10.672  0.2392 -0.0490 -0.5915
   84TMC2    O2 1317   0.895   2.440  10.245  0.5327 -0.5753 -0.7598
   84TMC2    O5 1318   0.958   2.614  10.371  0.1866 -0.2534  0.1537
   84TMC2    H5 1319   1.016   2.636  10.447  0.7100 -2.7418  0.4865
   85TMC2    C1 1320   2.097   0.279  15.864 -0.2762  0.0175 -0.0848
   85TMC2    C2 1321   2.076   0.407  15.826 -0.4655 -0.3350  0.2060
   85TMC2    C3 1322   2.115   0.437  15.698 -0.1903  0.6800  0.0725
   85TMC2    C4 1323   2.173   0.185  15.804  0.5348  0.2101 -0.0201
   85TMC2    C5 1324   2.206   0.220  15.677 -0.9868  0.2802 -1.0996
   85TMC2    C6 1325   2.180   0.342  15.618 -0.5514  0.0591 -0.5780
   85TMC2     C 1326   2.053   0.249  15.999 -0.3046 -1.2230 -0.3026
   85TMC2     O 1327   2.046   0.349  16.071  0.0121  0.0092 -0.6486
   85TMC2     H 1328   2.023   0.477  15.890 -0.0390  0.8139 -0.7046
   85TMC2    H1 1329   2.191   0.091  15.853 -0.1287 -1.2500 -2.5820
   85TMC2    H2 1330   2.219   0.373  15.521 -0.0527 -1.3999 -0.8479
   85TMC2    C7 1331   2.250   0.106  15.600  0.3947 -0.6027 -0.1450
   85TMC2    C8 1332   2.125   0.575  15.654 -0.3519  0.6844  0.5525
   85TMC2    O1 1333   2.267   4.732  15.655  0.8025 -0.2220 -0.0632
   85TMC2    O2 1334   2.220   0.611  15.587 -0.1660 -0.3287 -0.2067
   85TMC2    O5 1335   2.031   0.647  15.719 -0.3993 -0.0117  0.4510
   85TMC2    H5 1336   1.962   0.588  15.756 -0.5575  0.6802  1.2553
   86MPD2     C 1337   1.835   4.667  16.338 -0.3531  0.5643  0.0984
   86MPD2    C1 1338   1.835   4.616  16.211  0.4486  0.1347  0.4558
   86MPD2    C2 1339   1.884   4.689  16.104  0.6378 -0.2573  0.1362
   86MPD2    C3 1340   1.936   0.078  16.116  0.8260 -0.6647  0.4458
   86MPD2    C4 1341   1.917   0.139  16.237  0.1744  0.0282  0.1423
   86MPD2    C5 1342   1.862   0.064  16.345 -0.1837  0.4419  0.1672
   86MPD2     H 1343   1.898   4.637  16.010 -0.9400 -0.0613 -0.2058
   86MPD2    H1 1344   1.946   0.242  16.250  0.8325 -0.1263 -0.0838
   86MPD2    H2 1345   1.796   4.610  16.421 -1.2641  1.1389  0.0654
   86MPD2    H3 1346   1.841   0.121  16.435  0.6884 -0.9306  1.2433
   86MPD2     N 1347   1.995   0.127  16.004 -0.4594  0.1517 -0.3383
   86MPD2    H5 1348   1.998   0.069  15.921 -1.0638 -0.5437  0.1345
   86MPD2    N1 1349   1.774   4.489  16.185  1.1836  0.5310 -0.0072
   86MPD2    H7 1350   1.741   4.471  16.091 -1.7528  0.4504  1.0393
   87TMC2    C1 1351   4.670   2.909   0.861 -0.3866 -0.2722  0.3405
   87TMC2    C2 1352   0.055   2.956   0.889 -0.2042 -0.6530  0.2450
   87TMC2    C3 1353   0.063   3.023   1.008  0.1760  0.1290 -0.1526
   87TMC2    C4 1354   4.558   2.922   0.946 -0.2848 -0.0729 -0.3750
   87TMC2    C5 1355   4.571   2.984   1.061  0.5910  0.5387 -0.4553
   87TMC2    C6 1356   4.694   3.046   1.095 -0.1395  0.3737  0.1923
   87TMC2     C 1357   4.653   2.862   0.731  0.4201 -0.1496 -0.1330
   87TMC2     O 1358   0.017   2.817   0.677  0.2787 -0.6199  0.6786
   87TMC2     H 1359   0.143   2.940   0.828  0.0713  1.2235  0.1233
   87TMC2    H1 1360   4.463   2.882   0.913  0.2709 -1.4459 -0.3130
   87TMC2    H2 1361   4.712   3.081   1.196  0.2648 -0.5479  0.4350
   87TMC2    C7 1362   4.463   3.032   1.135  0.6049  0.4891  0.0580
   87TMC2    C8 1363   0.195   3.069   1.052  0.2464  0.0985  0.1316
   87TMC2    O1 1364   4.481   3.119   1.218  0.5119  0.0549 -0.3685
   87TMC2    O2 1365   0.297   3.056   0.987  0.2430  0.2238 -0.0401
   87TMC2    O5 1366   0.176   3.176   1.134 -0.9570 -0.2972  0.0094
   87TMC2    H5 1367   0.090   3.218   1.114 -0.2275  1.1833 -0.0785
   88MPD2     C 1368   4.110   2.933   1.146  0.4696  0.0595  0.2122
   88MPD2    C1 1369   4.214   3.020   1.153  0.0976  0.5212  1.3035
   88MPD2    C2 1370   4.193   3.148   1.204 -0.2178 -0.5574 -0.2567
   88MPD2    C3 1371   4.072   3.185   1.250 -0.5297 -0.9564 -0.2454
   88MPD2    C4 1372   3.966   3.095   1.240 -0.2123 -0.4370  0.0240
   88MPD2    C5 1373   3.987   2.971   1.198 -0.7527 -0.0947  0.2773
   88MPD2     H 1374   4.278   3.216   1.212 -0.2976 -0.7291  2.1574
   88MPD2    H1 1375   3.869   3.132   1.275  0.6102  0.3596  1.4778
   88MPD2    H2 1376   4.109   2.834   1.102  2.8334  0.8160 -1.5326
   88MPD2    H3 1377   3.904   2.901   1.194 -1.5282  0.8368  0.0356
   88MPD2     N 1378   4.043   3.321   1.290  0.3789  0.1827 -0.1498
   88MPD2    H5 1379   3.948   3.346   1.318  0.3465 -0.3611  0.2286
   88MPD2    N1 1380   4.338   2.971   1.112 -0.4579 -0.5846  0.0072
   88MPD2    H7 1381   4.340   2.888   1.053  1.8702  0.1483 -0.9123
   89TMC2    C1 1382   0.952   1.042   1.270  0.2638  0.0612 -0.1874
   89TMC2    C2 1383   1.053   1.079   1.187 -0.4185  0.2160 -0.4959
   89TMC2    C3 1384   1.035   1.184   1.105 -1.3278  0.5634  0.0411
   89TMC2    C4 1385   0.828   1.103   1.260 -0.1864  0.0247 -0.2837
   89TMC2    C5 1386   0.820   1.218   1.185  0.2668 -0.0577  0.5513
   89TMC2    C6 1387   0.920   1.263   1.103 -0.3019  0.3118 -0.1929
   89TMC2     C 1388   0.960   0.918   1.345 -0.2357 -0.1229  0.5617
   89TMC2     O 1389   1.037   0.830   1.305  0.2809  0.1043  0.0869
   89TMC2     H 1390   1.151   1.036   1.203  0.1267  1.6341 -0.0630
   89TMC2    H1 1391   0.746   1.079   1.326 -0.2965 -0.4046 -0.5789
   89TMC2    H2 1392   0.900   1.338   1.028  0.8128 -0.2031 -1.0295
   89TMC2    C7 1393   0.691   1.283   1.185 -0.1412  0.3971  0.6088
   89TMC2    C8 1394   1.127   1.182   0.996  0.4879 -0.4387  0.0488
   89TMC2    O1 1395   0.600   1.212   1.214 -0.0655 -0.2082 -0.0883
   89TMC2    O2 1396   1.226   1.112   1.010  0.2515 -0.1845 -0.0135
   89TMC2    O5 1397   1.124   1.311   0.943 -0.0605  0.3143  0.3790
   89TMC2    H5 1398   1.053   1.372   0.974 -0.3476 -1.5164  3.2819
   90MPD2     C 1399   0.660   0.586   1.590  0.2417 -0.1690 -0.2978
   90MPD2    C1 1400   0.614   0.713   1.608  0.0494  1.0228 -0.5291
   90MPD2    C2 1401   0.688   0.817   1.560 -1.1385  0.0737 -0.4597
   90MPD2    C3 1402   0.803   0.797   1.491  0.0495 -0.1405 -0.0876
   90MPD2    C4 1403   0.854   0.673   1.473 -0.2545  0.3848 -0.6976
   90MPD2    C5 1404   0.776   0.570   1.526  0.3495  0.0202  0.4763
   90MPD2     H 1405   0.642   0.913   1.581  1.4928  0.5499  2.9858
   90MPD2    H1 1406   0.950   0.646   1.432  0.8055  1.9860  0.7731
   90MPD2    H2 1407   0.606   0.499   1.624  0.4125 -0.8708 -1.8233
   90MPD2    H3 1408   0.817   0.470   1.524  0.0991 -0.0745  0.0533
   90MPD2     N 1409   0.858   0.915   1.432  0.0585  0.3639 -0.0125
   90MPD2    H5 1410   0.810   1.003   1.442 -0.5337  0.0672 -0.2525
   90MPD2    N1 1411   0.488   0.742   1.666  0.1701  0.6629 -0.3549
   90MPD2    H7 1412   0.471   0.842   1.672 -1.5382  0.3727 -0.4823
   91TMC2    C1 1413   1.941   1.367  16.470 -0.1483  0.2652  0.1391
   91TMC2    C2 1414   1.985   1.421  16.590  0.1903 -0.3187  0.4085
   91TMC2    C3 1415   1.903   1.397  16.700  0.4596  0.4901 -0.3519
   91TMC2    C4 1416   1.828   1.296  16.454  0.0990  0.1301 -0.3819
   91TMC2    C5 1417   1.757   1.265  16.567  0.3668 -0.6584  0.1201
   91TMC2    C6 1418   1.788   1.324  16.689  0.2173  0.1246 -0.2098
   91TMC2     C 1419   2.032   1.356  16.361  1.0351  0.4385  0.3736
   91TMC2     O 1420   1.988   1.374  16.246 -0.0728  0.0303  0.3191
   91TMC2     H 1421   2.072   1.485  16.594 -1.2244  1.6425 -0.5164
   91TMC2    H1 1422   1.818   1.236  16.365 -1.2390 -2.0672  1.2305
   91TMC2    H2 1423   1.742   1.291  16.781  1.4349 -0.6152  0.1301
   91TMC2    C7 1424   1.654   1.164  16.561  1.1864  0.3140 -0.0258
   91TMC2    C8 1425   1.957   1.426  16.832  0.1258  0.4260 -0.1522
   91TMC2    O1 1426   1.621   1.114  16.664  0.4369 -0.0435  0.3768
   91TMC2    O2 1427   1.967   1.348  16.925 -0.2360  0.0097 -0.0704
   91TMC2    O5 1428   2.010   1.550  16.828  0.2969  0.2269 -0.0720
   91TMC2    H5 1429   1.979   1.604  16.752 -0.5744  0.3917  0.4038
   92MPD2     C 1430   2.266   1.327  16.176 -0.3554 -0.0691 -0.2733
   92MPD2    C1 1431   2.273   1.326  16.309  0.2095 -0.0248  0.5444
   92MPD2    C2 1432   2.403   1.320  16.369  0.2518 -0.1040 -0.3163
   92MPD2    C3 1433   2.517   1.285  16.298 -0.5200 -0.2068 -0.6333
   92MPD2    C4 1434   2.504   1.281  16.163  0.1174 -0.4596 -0.6551
   92MPD2    C5 1435   2.382   1.305  16.103 -0.5139  0.0041  0.2775
   92MPD2     H 1436   2.423   1.340  16.474 -0.4353 -1.0502 -0.0109
   92MPD2    H1 1437   2.584   1.263  16.092 -0.2868  0.9515 -1.4486
   92MPD2    H2 1438   2.169   1.325  16.127  0.3862 -2.2353 -1.6338
   92MPD2    H3 1439   2.380   1.308  15.995 -1.5551 -0.2492  0.2920
   92MPD2     N 1440   2.635   1.253  16.369  0.0233 -0.1417  0.5007
   92MPD2    H5 1441   2.641   1.261  16.470 -1.2002 -1.5074  0.6742
   92MPD2    N1 1442   2.164   1.344  16.397 -0.0537  0.4717 -0.4801
   92MPD2    H7 1443   2.177   1.331  16.496  1.2958 -1.8323 -0.9655
   93TMC2    C1 1444   3.939   1.052  13.966 -0.9092  0.1523  0.1918
   93TMC2    C2 1445   3.853   1.136  14.039 -0.8925  0.0850  0.0084
   93TMC2    C3 1446   3.904   1.253  14.086  0.0984  0.1562 -1.0203
   93TMC2    C4 1447   4.067   1.091  13.948  0.2703 -1.1069  0.8156
   93TMC2    C5 1448   4.113   1.209  13.998  0.3024 -0.1174  0.5932
   93TMC2    C6 1449   4.036   1.297  14.069 -0.6789  0.5766 -0.1732
   93TMC2     C 1450   3.881   0.955  13.874  0.4154 -0.5851 -0.2958
   93TMC2     O 1451   3.957   0.866  13.843  0.1430  0.0749  0.0253
   93TMC2     H 1452   3.750   1.110  14.063 -1.3935  1.2664 -0.8560
   93TMC2    H1 1453   4.126   1.029  13.883  0.6565  0.2794 -0.1649
   93TMC2    H2 1454   4.064   1.394  14.110 -0.9944 -0.2386  1.9314
   93TMC2    C7 1455   4.239   1.258  13.943 -0.6833  0.1900  0.4478
   93TMC2    C8 1456   3.824   1.351  14.155 -0.3379 -0.2504  0.0033
   93TMC2    O1 1457   4.304   1.169  13.889  0.6308 -0.0561  0.4223
   93TMC2    O2 1458   3.858   1.427  14.243  0.1519 -0.4006 -0.3480
   93TMC2    O5 1459   3.733   1.388  14.063  0.3660  0.1660 -0.9920
   93TMC2    H5 1460   3.735   1.317  13.995  0.2632 -0.8479  0.0640
   94MPD2     C 1461   3.699   0.760  13.749 -0.1646  0.3190  0.2305
   94MPD2    C1 1462   3.653   0.875  13.799 -0.1310 -0.0884  0.3181
   94MPD2    C2 1463   3.521   0.898  13.802  0.2004  0.2931  0.5476
   94MPD2    C3 1464   3.430   0.799  13.766 -0.2040  0.3269 -0.0771
   94MPD2    C4 1465   3.477   0.682  13.704  0.1428 -0.3162 -0.1172
   94MPD2    C5 1466   3.613   0.659  13.709  0.2722 -0.2645  0.6337
   94MPD2     H 1467   3.475   0.992  13.830  2.4214  1.8157 -0.9750
   94MPD2    H1 1468   3.424   0.608  13.646 -0.5541 -1.9185  2.5701
   94MPD2    H2 1469   3.805   0.740  13.742 -0.3242 -1.1074  1.8655
   94MPD2    H3 1470   3.664   0.572  13.669  0.6573 -0.6732  2.0265
   94MPD2     N 1471   3.286   0.821  13.761  0.2677 -0.6381 -0.8216
   94MPD2    H5 1472   3.230   0.755  13.708 -1.8308  1.1912 -0.8441
   94MPD2    N1 1473   3.743   0.969  13.853  0.0910 -0.4361 -0.2785
   94MPD2    H7 1474   3.693   1.048  13.892  3.0173  1.8674 -1.2523
   95TMC2    C1 1475   3.794   2.688  16.677  0.0942  0.0498 -0.4521
   95TMC2    C2 1476   3.764   2.587  16.766 -0.0724 -0.2046  0.5587
   95TMC2    C3 1477   3.726   2.620  16.890 -0.1193 -0.9739  0.0777
   95TMC2    C4 1478   3.789   2.825  16.706  0.3430  0.1945  0.5099
   95TMC2    C5 1479   3.734   2.849  16.830  0.3228  0.1930 -0.2837
   95TMC2    C6 1480   3.701   2.749  16.920  0.6476 -0.2150  0.5572
   95TMC2     C 1481   3.816   2.663  16.536  0.2553  0.4298 -0.5891
   95TMC2     O 1482   3.865   2.756  16.476  0.3877 -0.4025  0.1627
   95TMC2     H 1483   3.766   2.481  16.744  0.2069  0.1420 -1.0961
   95TMC2    H1 1484   3.801   2.907  16.636  1.3304  0.3919  0.9168
   95TMC2    H2 1485   3.650   2.779  17.010  0.9981  0.5300  0.5065
   95TMC2    C7 1486   3.732   2.986  16.878 -0.1839 -0.2928 -0.1194
   95TMC2    C8 1487   3.658   2.516  16.976 -1.0429 -1.5247  0.1793
   95TMC2    O1 1488   3.675   3.008  16.983 -0.2148 -0.4906  0.9066
   95TMC2    O2 1489   3.599   2.418  16.934  0.0302  0.1665 -1.1558
   95TMC2    O5 1490   3.734   2.521  17.089 -0.6049 -0.3110 -0.2292
   95TMC2    H5 1491   3.790   2.601  17.096 -1.0107  0.0843 -1.4637
   96MPD2     C 1492   3.822   2.376  16.121  0.6019 -0.5623 -0.0366
   96MPD2    C1 1493   3.854   2.510  16.133  0.4800 -0.0707 -0.3397
   96MPD2    C2 1494   3.850   2.562  16.259  0.5514 -0.3163  0.2602
   96MPD2    C3 1495   3.806   2.489  16.366  0.2499  0.0267  0.3031
   96MPD2    C4 1496   3.786   2.353  16.350  0.9267 -0.1108  0.4225
   96MPD2    C5 1497   3.788   2.295  16.222  0.8348 -0.1900 -0.5040
   96MPD2     H 1498   3.884   2.665  16.270 -0.3073 -0.1551  1.4257
   96MPD2    H1 1499   3.770   2.293  16.439 -1.1796 -0.3064 -0.0867
   96MPD2    H2 1500   3.820   2.334  16.022 -0.3976  1.3583 -0.8259
   96MPD2    H3 1501   3.763   2.191  16.202  0.3625  0.0019 -0.9104
   96MPD2     N 1502   3.789   2.535  16.500  0.5354 -0.3375  0.6298
   96MPD2    H5 1503   3.751   2.470  16.569 -0.3375 -0.0465  0.4123
   96MPD2    N1 1504   3.891   2.583  16.020  0.6875 -0.4812  0.2886
   96MPD2    H7 1505   3.878   2.536  15.931 -3.2928  0.7692  0.1990
   97TMC2    C1 1506   1.517   0.650   0.414 -0.6540  0.0786 -0.3271
   97TMC2    C2 1507   1.424   0.690   0.320 -0.3472  0.1171  1.0542
   97TMC2    C3 1508   1.423   0.827   0.295 -0.7027 -0.4393  0.4927
   97TMC2    C4 1509   1.612   0.731   0.462  0.2467  0.0186 -0.0353
   97TMC2    C5 1510   1.622   0.860   0.417 -0.2729 -0.2969  0.8508
   97TMC2    C6 1511   1.524   0.913   0.338  0.8803 -0.1566 -0.0232
   97TMC2     C 1512   1.483   0.543   0.504  0.4433  0.0769 -0.8476
   97TMC2     O 1513   1.509   0.558   0.627 -0.1075 -0.3990 -0.2510
   97TMC2     H 1514   1.342   0.630   0.283 -0.2220  0.5326  0.1007
   97TMC2    H1 1515   1.684   0.691   0.533 -0.1576 -0.5146  0.0672
   97TMC2    H2 1516   1.521   1.020   0.317  0.4807 -0.4432 -1.3734
   97TMC2    C7 1517   1.726   0.952   0.445 -0.0575  0.3685  0.0533
   97TMC2    C8 1518   1.317   0.863   0.204 -0.2346  0.3934  0.2179
   97TMC2    O1 1519   1.747   1.040   0.364  0.2220 -0.0000  0.5238
   97TMC2    O2 1520   1.269   0.793   0.114 -0.2914  0.0185  0.0772
   97TMC2    O5 1521   1.264   0.970   0.258 -0.2942 -0.3488 -0.1477
   97TMC2    H5 1522   1.312   1.008   0.335 -4.4982  0.3761  2.1215
   98MPD2     C 1523   1.417   0.031   0.563 -0.2980 -0.0548 -0.0604
   98MPD2    C1 1524   1.428   0.132   0.654  0.6707 -0.1797  0.3852
   98MPD2    C2 1525   1.427   0.264   0.616  0.1388 -0.0121  0.7039
   98MPD2    C3 1526   1.427   0.297   0.482 -0.4724 -0.5806  1.4236
   98MPD2    C4 1527   1.410   0.194   0.387  0.5715  0.3352  0.5681
   98MPD2    C5 1528   1.396   0.069   0.431  0.4114 -0.5344  0.0922
   98MPD2     H 1529   1.425   0.340   0.694 -1.5444  1.2109 -0.5229
   98MPD2    H1 1530   1.404   0.214   0.281 -0.6089  1.4482  0.8420
   98MPD2    H2 1531   1.406   4.663   0.593  1.1431 -0.0201  0.6084
   98MPD2    H3 1532   1.381   4.724   0.361  1.3319  0.1291 -0.8862
   98MPD2     N 1533   1.435   0.433   0.431 -0.6077 -0.7657  0.7065
   98MPD2    H5 1534   1.412   0.450   0.334  0.5475 -1.1301  0.3727
   98MPD2    N1 1535   1.425   0.089   0.785 -0.1902 -0.1050 -0.1560
   98MPD2    H7 1536   1.413   4.727   0.807 -0.1742  0.6188  3.1815
   99TMC2    C1 1537   4.706   2.427   1.605 -0.2411 -0.3422 -0.3220
   99TMC2    C2 1538   0.037   2.438   1.728  0.1994  0.8074  0.8672
   99TMC2    C3 1539   4.699   2.458   1.842 -0.3510  0.6626  0.5769
   99TMC2    C4 1540   4.572   2.440   1.592 -0.2552 -0.0413  0.3764
   99TMC2    C5 1541   4.502   2.464   1.713  0.3051 -0.0652  0.1147
   99TMC2    C6 1542   4.560   2.473   1.838  0.4753  0.4847  0.2222
   99TMC2     C 1543   0.050   2.424   1.480  0.2144  0.1651 -0.7049
   99TMC2     O 1544   0.161   2.476   1.488 -0.2492 -0.0710  0.0388
   99TMC2     H 1545   0.146   2.438   1.731  0.1581  2.2708  2.4823
   99TMC2    H1 1546   4.512   2.439   1.502  1.2837 -2.8839 -0.6406
   99TMC2    H2 1547   4.509   2.524   1.919 -0.6145  1.6540 -1.1879
   99TMC2    C7 1548   4.358   2.431   1.719 -0.4843 -0.0535  0.4430
   99TMC2    C8 1549   0.044   2.485   1.953 -0.1138 -0.1630  0.1236
   99TMC2    O1 1550   4.295   2.486   1.805 -0.5975  0.3962  0.8596
   99TMC2    O2 1551   0.154   2.535   1.942 -0.1715 -0.3611 -0.2495
   99TMC2    O5 1552   4.705   2.468   2.062 -0.5256 -0.0826 -0.4679
   99TMC2    H5 1553   4.647   2.388   2.062  0.0112 -0.4997  2.9828
  100MPD2     C 1554   0.172   2.372   1.212  0.4342 -0.4642 -0.7070
  100MPD2    C1 1555   0.037   2.338   1.244 -0.2639 -0.1878 -0.2534
  100MPD2    C2 1556   4.700   2.254   1.160  0.2464 -0.4324 -0.3748
  100MPD2    C3 1557   0.026   2.197   1.050  0.5467  0.6045  0.3024
  100MPD2    C4 1558   0.154   2.238   1.013 -0.6311  0.6302  0.0738
  100MPD2    C5 1559   0.223   2.321   1.096  0.1028 -0.4273  0.9239
  100MPD2     H 1560   4.597   2.236   1.186  0.3395 -0.3339  0.0491
  100MPD2    H1 1561   0.201   2.202   0.922  0.8341  1.3681  0.5422
  100MPD2    H2 1562   0.238   2.430   1.276 -1.6638 -0.2259  1.2171
  100MPD2    H3 1563   0.325   2.343   1.065  0.3721 -2.6856  0.2008
  100MPD2     N 1564   4.691   2.105   0.970  0.1100  0.2000  0.3222
  100MPD2    H5 1565   4.606   2.064   1.009  1.2770 -1.0624  1.5284
  100MPD2    N1 1566   4.719   2.361   1.376  0.1214 -0.1771  0.3564
  100MPD2    H7 1567   4.633   2.316   1.406  0.7540 -0.6965  1.3648
  101TMC2    C1 1568   0.699   3.637  13.313 -0.0556  0.2573  0.5107
  101TMC2    C2 1569   0.639   3.686  13.423  0.9755  1.0481 -0.2029
  101TMC2    C3 1570   0.603   3.818  13.416  0.4908 -0.2357 -0.2303
  101TMC2    C4 1571   0.732   3.721  13.208 -0.2046 -0.0731 -0.1437
  101TMC2    C5 1572   0.696   3.852  13.216 -0.3498  0.8854 -0.0700
  101TMC2    C6 1573   0.621   3.904  13.314  0.2816 -0.4986 -0.5248
  101TMC2     C 1574   0.714   3.491  13.328 -0.6160  0.3812 -0.2868
  101TMC2     O 1575   0.669   3.435  13.429 -0.3634  0.2465 -0.0829
  101TMC2     H 1576   0.605   3.627  13.507  0.5371  1.4029 -0.1314
  101TMC2    H1 1577   0.772   3.681  13.115  1.4588 -1.3052  1.1240
  101TMC2    H2 1578   0.600   4.010  13.329 -1.8139 -0.9991  0.0729
  101TMC2    C7 1579   0.734   3.937  13.103  0.1729  0.3074  0.0911
  101TMC2    C8 1580   0.517   3.866  13.523 -0.3076 -0.6483  0.2466
  101TMC2    O1 1581   0.824   3.899  13.031 -0.3001  0.6987  0.2227
  101TMC2    O2 1582   0.439   3.959  13.512 -0.1653  0.6027  0.5273
  101TMC2    O5 1583   0.564   3.828  13.641  0.3514 -0.2989 -0.4197
  101TMC2    H5 1584   0.648   3.779  13.628  0.1831  0.3917 -3.9652
  102MPD2     C 1585   0.740   3.265  13.035  0.3060 -0.2030 -0.2012
  102MPD2    C1 1586   0.697   3.312  13.154  0.1932 -0.3278 -0.0841
  102MPD2    C2 1587   0.610   3.237  13.225  0.4141 -0.4241 -0.2711
  102MPD2    C3 1588   0.564   3.117  13.176  0.4127 -0.4808  0.0318
  102MPD2    C4 1589   0.604   3.076  13.048 -0.1729  0.2974  0.3688
  102MPD2    C5 1590   0.692   3.152  12.983 -0.4257 -0.0491  0.5804
  102MPD2     H 1591   0.576   3.262  13.325  0.7335 -2.0957  0.2598
  102MPD2    H1 1592   0.578   2.984  12.995  0.5279 -0.0367  0.6118
  102MPD2    H2 1593   0.824   3.313  12.987 -0.3384  1.2130  0.0852
  102MPD2    H3 1594   0.733   3.121  12.887  1.1256 -1.0998  1.5690
  102MPD2     N 1595   0.464   3.051  13.247  0.1446  0.2731 -0.0061
  102MPD2    H5 1596   0.428   3.097  13.330  0.1226 -3.5892  2.0951
  102MPD2    N1 1597   0.744   3.435  13.201 -0.0704 -0.9370 -0.1042
  102MPD2    H7 1598   0.784   3.490  13.126  1.9811 -1.3471  0.6820
  103TMC2    C1 1599   3.493   3.428  12.976 -0.0957  0.8740  0.5936
  103TMC2    C2 1600   3.578   3.324  12.986  0.2301  0.6597  0.2290
  103TMC2    C3 1601   3.653   3.311  13.097 -0.5435 -0.4148 -0.0941
  103TMC2    C4 1602   3.502   3.530  13.070 -0.0631 -0.1387 -0.9166
  103TMC2    C5 1603   3.590   3.514  13.177  0.1787 -0.0295 -0.6797
  103TMC2    C6 1604   3.659   3.400  13.197  0.1424  0.8217 -0.1413
  103TMC2     C 1605   3.408   3.450  12.867 -0.1609 -0.3886 -0.4655
  103TMC2     O 1606   3.326   3.539  12.881 -0.0223  0.0025  0.6479
  103TMC2     H 1607   3.573   3.247  12.910 -2.0599  1.1673 -0.1310
  103TMC2    H1 1608   3.432   3.612  13.072  0.3315  0.1336  1.4634
  103TMC2    H2 1609   3.744   3.395  13.265 -0.6053 -0.3235  0.7194
  103TMC2    C7 1610   3.628   3.626  13.262  0.4957  0.0382  0.6419
  103TMC2    C8 1611   3.705   3.176  13.114  0.6833 -0.0178  0.1691
  103TMC2    O1 1612   3.716   3.598  13.339  0.5973  0.7376 -0.5098
  103TMC2    O2 1613   3.693   3.093  13.025 -0.2512  0.0830  0.2973
  103TMC2    O5 1614   3.703   3.141  13.242  0.7945  0.0085 -0.0983
  103TMC2    H5 1615   3.735   3.207  13.307  0.1190 -1.4464  1.7016
  104MPD2     C 1616   3.458   3.305  12.540 -0.2123  0.7503 -0.7915
  104MPD2    C1 1617   3.390   3.381  12.626  0.7421  0.3289  0.8048
  104MPD2    C2 1618   3.288   3.467  12.574 -0.0864  0.6649  0.2138
  104MPD2    C3 1619   3.245   3.465  12.443  0.1397 -0.3999 -0.7376
  104MPD2    C4 1620   3.308   3.372  12.359 -0.2189  0.0950 -0.5427
  104MPD2    C5 1621   3.406   3.295  12.411  0.0552 -0.1044  0.0976
  104MPD2     H 1622   3.241   3.538  12.642 -1.2386  0.4044 -0.3077
  104MPD2    H1 1623   3.269   3.366  12.258 -0.6345 -1.8215 -0.2636
  104MPD2    H2 1624   3.535   3.236  12.572 -0.7023  0.4764 -0.1881
  104MPD2    H3 1625   3.462   3.219  12.358  0.4595 -0.3914  0.9233
  104MPD2     N 1626   3.144   3.546  12.393 -0.5004 -0.0221 -0.2712
  104MPD2    H5 1627   3.085   3.575  12.471  2.9528 -0.9504  2.7141
  104MPD2    N1 1628   3.441   3.372  12.759  1.1268  0.3457  0.6177
  104MPD2    H7 1629   3.523   3.313  12.761  2.0169  1.5779  0.6608
  105TMC2    C1 1630   4.708   2.241   0.072  0.0930 -0.4941  0.4146
  105TMC2    C2 1631   4.656   2.120   0.041  0.6303 -0.3189 -0.3103
  105TMC2    C3 1632   4.538   2.089   0.103  0.2531  0.4634  0.1893
  105TMC2    C4 1633   4.657   2.323   0.175 -0.3472 -0.3652  0.6279
  105TMC2    C5 1634   4.545   2.290   0.236 -0.4717  0.5875  0.0536
  105TMC2    C6 1635   4.476   2.185   0.177  0.4071  0.2073 -0.2733
  105TMC2     C 1636   0.117   2.244   0.057 -0.2520 -0.5917 -0.1106
  105TMC2     O 1637   0.181   2.138   0.073  0.2381  0.6738  0.3380
  105TMC2     H 1638   4.712   2.044  17.732  2.6423  0.9777 -0.0325
  105TMC2    H1 1639   4.716   2.407   0.208  1.7747 -1.5350 -0.2057
  105TMC2    H2 1640   4.382   2.152   0.219  0.3878  0.6698  0.0576
  105TMC2    C7 1641   4.463   2.404   0.278 -0.4669  0.4746  0.8624
  105TMC2    C8 1642   4.445   1.998   0.049  0.0513  0.1301 -0.8691
  105TMC2    O1 1643   4.352   2.392   0.230 -0.8204  0.0440  0.1412
  105TMC2    O2 1644   4.335   2.026   0.002  0.0147  0.0082 -0.1358
  105TMC2    O5 1645   4.515   1.898  17.737  0.5729  0.1497  0.0319
  105TMC2    H5 1646   4.595   1.871   0.042 -0.2832  1.4783  2.1384
  106MPD2     C 1647   0.542   2.465  17.641  0.2692 -0.1079 -1.0441
  106MPD2    C1 1648   0.440   2.558  17.625  0.0784  0.3409  0.5447
  106MPD2    C2 1649   0.316   2.530  17.686 -0.2315  0.3140  0.4897
  106MPD2    C3 1650   0.291   2.406  17.743  0.2198 -0.6837  0.2109
  106MPD2    C4 1651   0.402   2.323   0.018 -0.1457 -0.5281  0.0610
  106MPD2    C5 1652   0.534   2.360  17.725  0.5411 -0.0000 -0.1035
  106MPD2     H 1653   0.229   2.596  17.687  1.0505  2.0387 -1.4093
  106MPD2    H1 1654   0.390   2.226   0.065 -1.5230 -1.0772 -1.4345
  106MPD2    H2 1655   0.645   2.484  17.611  0.9686 -1.1278  0.7565
  106MPD2    H3 1656   0.619   2.296   0.002  1.5951  1.0815 -1.0616
  106MPD2     N 1657   0.157   2.372   0.032 -0.4627  0.0567 -0.4506
  106MPD2    H5 1658   0.081   2.434   0.006  0.0900  0.2476 -1.5883
  106MPD2    N1 1659   0.447   2.684  17.559  0.3750 -0.2233 -0.1935
  106MPD2    H7 1660   0.372   2.749  17.578  0.3738 -0.5243  0.8628
  107TMC2    C1 1661   0.610   2.997  11.500 -0.1954  0.1776 -0.1731
  107TMC2    C2 1662   0.677   3.111  11.476  0.5743  0.7647  0.2119
  107TMC2    C3 1663   0.760   3.107  11.370  0.4002 -0.0163 -0.8618
  107TMC2    C4 1664   0.629   2.882  11.429 -0.0713  0.5584 -0.4583
  107TMC2    C5 1665   0.714   2.886  11.322 -0.2487 -0.5459  0.2956
  107TMC2    C6 1666   0.783   3.001  11.287 -0.8229 -0.1392 -0.1053
  107TMC2     C 1667   0.498   3.006  11.597 -0.8397  0.3073  0.1364
  107TMC2     O 1668   0.438   2.905  11.617 -0.8177  0.1548 -0.3325
  107TMC2     H 1669   0.682   3.201  11.536  2.7141  2.1033 -1.9814
  107TMC2    H1 1670   0.553   2.805  11.438  1.1263 -0.4121  1.5366
  107TMC2    H2 1671   0.856   2.997  11.208  0.5360  2.2308  1.0392
  107TMC2    C7 1672   0.741   2.771  11.231 -0.0131 -0.5458 -0.0411
  107TMC2    C8 1673   0.850   3.221  11.365  0.3473  0.6708  0.1930
  107TMC2    O1 1674   0.796   2.797  11.122 -0.2331  0.1039 -0.1812
  107TMC2    O2 1675   0.879   3.296  11.458 -0.2393  0.0236 -0.4890
  107TMC2    O5 1676   0.900   3.227  11.241  0.4358 -0.0536 -0.2840
  107TMC2    H5 1677   0.864   3.155  11.184  0.3348 -0.3413  0.1418
  108MPD2     C 1678   0.360   3.281  11.788  0.1002 -0.2553  0.1028
  108MPD2    C1 1679   0.384   3.151  11.745 -0.2701  0.4844  0.8438
  108MPD2    C2 1680   0.347   3.053  11.840  0.1654 -0.0039  0.1315
  108MPD2    C3 1681   0.262   3.080  11.949  0.0641 -0.3650  0.4120
  108MPD2    C4 1682   0.225   3.208  11.971 -0.0470  0.0103 -0.4798
  108MPD2    C5 1683   0.278   3.304  11.898  0.2160  0.0064  0.3576
  108MPD2     H 1684   0.368   2.947  11.825 -0.0551  0.0537 -0.6025
  108MPD2    H1 1685   0.157   3.247  12.046  1.2598  1.6346 -0.1600
  108MPD2    H2 1686   0.399   3.360  11.725 -1.0472 -0.1334 -0.4482
  108MPD2    H3 1687   0.257   3.407  11.925  0.6714 -0.0619  0.9777
  108MPD2     N 1688   0.194   2.986  12.033  0.2847  0.2662  0.0498
  108MPD2    H5 1689   0.151   3.028  12.114 -0.6787 -2.3753  0.9090
  108MPD2    N1 1690   0.483   3.125  11.652 -0.1814 -0.6747  0.1875
  108MPD2    H7 1691   0.535   3.206  11.618  3.1660 -1.6747  2.9186
  109TMC2    C1 1692   0.844   0.358   0.686 -0.3306  0.1436  0.0040
  109TMC2    C2 1693   0.938   0.433   0.613 -0.2354 -0.0972 -0.1418
  109TMC2    C3 1694   1.031   0.362   0.538  0.4995  0.5155 -0.1772
  109TMC2    C4 1695   0.843   0.220   0.675  0.0571 -0.2898  0.1434
  109TMC2    C5 1696   0.931   0.155   0.586  0.5069 -0.1529 -0.1688
  109TMC2    C6 1697   1.033   0.224   0.524 -0.2994 -0.1548  0.4556
  109TMC2     C 1698   0.738   0.430   0.758  0.6007  0.2207  0.4179
  109TMC2     O 1699   0.733   0.547   0.731 -0.0925 -0.0917 -0.1557
  109TMC2     H 1700   0.932   0.541   0.613  0.0940 -0.0778 -0.2473
  109TMC2    H1 1701   0.762   0.164   0.721  1.1744  0.2687  2.7920
  109TMC2    H2 1702   1.093   0.183   0.443 -1.3207 -1.1785  0.2106
  109TMC2    C7 1703   0.946   0.010   0.620 -0.1869  0.0532 -1.0104
  109TMC2    C8 1704   1.081   0.434   0.419  0.4977 -0.6954 -0.3502
  109TMC2    O1 1705   0.889   4.714   0.723 -0.3839 -0.3611  0.5171
  109TMC2    O2 1706   1.045   0.410   0.304  0.1054  0.4500 -0.3486
  109TMC2    O5 1707   1.121   0.549   0.468 -0.9182  0.5555 -0.4874
  109TMC2    H5 1708   1.156   0.538   0.558 -3.2913 -1.7106  0.1658
  110MPD2     C 1709   0.329   0.452   1.061  0.8599  0.0578 -0.0814
  110MPD2    C1 1710   0.405   0.339   1.095  0.1539 -0.5535 -0.6594
  110MPD2    C2 1711   0.525   0.313   1.029  0.7174 -0.3664  0.9062
  110MPD2    C3 1712   0.569   0.401   0.927  0.2158  0.2776 -0.3951
  110MPD2    C4 1713   0.491   0.510   0.894  0.8048 -0.7521  0.6190
  110MPD2    C5 1714   0.372   0.525   0.960 -0.4194 -0.6069  0.0930
  110MPD2     H 1715   0.591   0.235   1.065  1.3087 -1.8774 -3.5317
  110MPD2    H1 1716   0.518   0.585   0.820  0.0865 -0.4039  0.7088
  110MPD2    H2 1717   0.231   0.473   1.101 -0.1761  0.0366 -2.5678
  110MPD2    H3 1718   0.309   0.610   0.936  1.6586  1.4798  2.0083
  110MPD2     N 1719   0.680   0.353   0.853  1.3604 -0.1514  0.2561
  110MPD2    H5 1720   0.727   0.268   0.883  0.1023 -0.0406  2.5344
  110MPD2    N1 1721   0.362   0.269   1.205  0.4200 -0.3709  0.1275
  110MPD2    H7 1722   0.291   0.319   1.258 -0.3097 -1.9454  0.6515
  111TMC2    C1 1723   0.264   0.003  11.894  0.4776 -0.1970 -1.1692
  111TMC2    C2 1724   0.183   0.066  11.993  0.2273  0.4477 -1.1134
  111TMC2    C3 1725   0.243   0.106  12.108  0.7497 -0.1724  0.1215
  111TMC2    C4 1726   0.400   0.000  11.917  0.4639  0.0925  0.1298
  111TMC2    C5 1727   0.450   0.032  12.041 -0.1228 -1.3303 -0.7943
  111TMC2    C6 1728   0.371   0.085  12.139  0.7721 -0.2889  0.1062
  111TMC2     C 1729   0.214   4.688  11.772  0.2037 -0.0316  0.1068
  111TMC2     O 1730   0.301   4.690  11.681 -0.2857 -0.1046 -0.8457
  111TMC2     H 1731   0.075   0.062  11.993  0.2107  0.9918  2.2121
  111TMC2    H1 1732   0.454   4.677  11.844 -0.4251  0.0224 -0.4725
  111TMC2    H2 1733   0.405   0.090  12.242  1.0810 -0.5778  0.0190
  111TMC2    C7 1734   0.583   4.724  12.078 -1.1816  0.5175  0.3499
  111TMC2    C8 1735   0.156   0.095  12.225  0.0799 -0.5331 -0.4295
  111TMC2    O1 1736   0.600   4.697  12.199  0.0293  0.4412 -0.2333
  111TMC2    O2 1737   0.192   0.065  12.337 -0.2637 -0.2651  0.2004
  111TMC2    O5 1738   0.057   0.187  12.211  0.3367  0.4519  0.1930
  111TMC2    H5 1739   0.082   0.248  12.138  2.7523 -1.2181 -0.3581
  112MPD2     C 1740   4.608   4.542  11.399  0.4985  0.6961  0.6573
  112MPD2    C1 1741   0.004   4.590  11.397 -0.2365  0.8749 -0.8709
  112MPD2    C2 1742   0.070   4.621  11.509  0.2267  0.5381 -0.6091
  112MPD2    C3 1743   0.014   4.620  11.633  0.4297 -0.3150  0.4309
  112MPD2    C4 1744   4.623   4.569  11.637 -0.6049  0.2120 -0.6850
  112MPD2    C5 1745   4.550   4.530  11.523 -0.2593  0.1594  0.0820
  112MPD2     H 1746   0.168   4.661  11.486  0.6906  0.7754  1.8186
  112MPD2    H1 1747   4.574   4.556  11.733 -1.5760 -0.6002 -1.2859
  112MPD2    H2 1748   4.549   4.519  11.311  0.5556  2.2492  0.2170
  112MPD2    H3 1749   4.445   4.508  11.540  0.1617  0.6538  3.3229
  112MPD2     N 1750   0.081   4.657  11.757 -0.0322 -0.6401 -0.0988
  112MPD2    H5 1751   0.015   4.667  11.833  0.1943 -0.9706  0.1421
  112MPD2    N1 1752   0.068   4.626  11.279  0.6683  0.4835  0.2857
  112MPD2    H7 1753   0.160   4.664  11.295  1.4022 -1.3072  0.2749
  113TMC2    C1 1754   3.510   2.188   0.629 -0.4724 -1.2387 -0.4888
  113TMC2    C2 1755   3.415   2.286   0.597  0.5952  0.7299  0.2631
  113TMC2    C3 1756   3.321   2.250   0.498 -0.0725  0.0597 -0.1600
  113TMC2    C4 1757   3.506   2.059   0.570 -0.2291 -0.0829  0.4699
  113TMC2    C5 1758   3.413   2.033   0.469 -0.0178  0.0604  0.0526
  113TMC2    C6 1759   3.318   2.128   0.434 -0.1593  0.4990 -0.1595
  113TMC2     C 1760   3.620   2.229   0.715  0.0255 -0.2419  0.1852
  113TMC2     O 1761   3.609   2.327   0.787  0.0908 -0.3054  0.3138
  113TMC2     H 1762   3.434   2.391   0.619  2.5205  0.5677 -0.5963
  113TMC2    H1 1763   3.577   1.981   0.596  0.1579  0.0792 -0.1154
  113TMC2    H2 1764   3.243   2.112   0.358  0.4115  0.1901 -0.6518
  113TMC2    C7 1765   3.346   1.904   0.460  0.2808  0.2484  0.3054
  113TMC2    C8 1766   3.297   2.357   0.405  0.2993  0.4447  0.1578
  113TMC2    O1 1767   3.268   1.885   0.369  0.0198  0.5091 -0.1105
  113TMC2    O2 1768   3.295   2.334   0.283  0.8081  0.5074  0.1626
  113TMC2    O5 1769   3.272   2.481   0.462 -0.2910 -0.0069  0.5384
  113TMC2    H5 1770   3.257   2.473   0.559  1.2048  4.0117  1.0863
  114MPD2     C 1771   4.093   2.135   0.896  0.1362  0.8036  0.1867
  114MPD2    C1 1772   4.003   2.232   0.938  1.0024  0.0372  0.3521
  114MPD2    C2 1773   3.882   2.238   0.870 -0.2113 -0.2831 -0.0355
  114MPD2    C3 1774   3.840   2.144   0.777  0.2870 -0.0068  0.4060
  114MPD2    C4 1775   3.933   2.048   0.738 -0.3477 -0.3723 -0.1779
  114MPD2    C5 1776   4.059   2.049   0.795  0.5256 -0.2237 -0.4345
  114MPD2     H 1777   3.812   2.312   0.907  0.4239  0.4297 -0.2554
  114MPD2    H1 1778   3.905   1.977   0.660  0.0501  0.3289 -0.9577
  114MPD2    H2 1779   4.195   2.126   0.932  0.7833 -0.4421 -1.9724
  114MPD2    H3 1780   4.129   1.971   0.770 -0.4346 -0.4063 -2.5803
  114MPD2     N 1781   3.721   2.139   0.705  0.4259  0.5609  0.5053
  114MPD2    H5 1782   3.716   2.063   0.638  0.0990  1.1001 -0.0767
  114MPD2    N1 1783   4.029   2.333   1.035 -0.4295  0.3508  0.2942
  114MPD2    H7 1784   3.959   2.404   1.056 -1.2790  0.2677 -2.2357
  115TMC2    C1 1785   4.721   0.091   0.271  0.5164  0.6419 -0.2856
  115TMC2    C2 1786   0.099   0.024   0.251 -0.1079 -0.3467  0.4416
  115TMC2    C3 1787   0.217   0.093   0.254  0.1401 -0.0547  1.4570
  115TMC2    C4 1788   4.729   0.230   0.289  0.4806  0.3775 -0.5152
  115TMC2    C5 1789   0.107   0.300   0.291 -0.3018 -0.2701 -0.1877
  115TMC2    C6 1790   0.228   0.235   0.271 -0.0656 -0.1885 -0.3349
  115TMC2     C 1791   4.592   0.024   0.237 -0.3289  0.3725  0.4005
  115TMC2     O 1792   4.592   4.636   0.234 -0.0424 -0.3038  0.2805
  115TMC2     H 1793   0.103   4.654   0.228  0.8652 -0.4050  0.8950
  115TMC2    H1 1794   4.637   0.280   0.319 -0.1351  0.3948 -2.4338
  115TMC2    H2 1795   0.323   0.284   0.287 -0.4565  0.5209 -0.2023
  115TMC2    C7 1796   0.095   0.444   0.281 -0.6718  0.0105  0.0668
  115TMC2    C8 1797   0.328   0.016   0.294 -0.1353  0.2133  0.5334
  115TMC2    O1 1798   4.726   0.495   0.311 -0.0993 -0.5649 -0.1937
  115TMC2    O2 1799   0.421   4.735   0.213 -0.3110 -0.8581 -0.2424
  115TMC2    O5 1800   0.316   4.695   0.416  0.1840  0.1401 -0.0444
  115TMC2    H5 1801   0.236   4.717   0.468 -0.8981  1.0156 -2.1176
  116MPD2     C 1802   4.128   0.022   0.015  0.1017  0.1595  0.5711
  116MPD2    C1 1803   4.197   4.653   0.063  0.2456  0.5598 -0.3117
  116MPD2    C2 1804   4.328   4.673   0.114 -0.5574 -0.3216  0.1131
  116MPD2    C3 1805   4.384   0.066   0.115  0.4170  0.0744  0.3194
  116MPD2    C4 1806   4.309   0.166   0.060  0.1005  0.5504 -1.1145
  116MPD2    C5 1807   4.180   0.144   0.013 -0.5290 -0.2383  0.2990
  116MPD2     H 1808   4.377   4.593   0.168 -1.1679 -0.7490  0.0358
  116MPD2    H1 1809   4.339   0.269   0.048 -2.0510  1.2246 -0.7059
  116MPD2    H2 1810   4.027   0.006  17.723  0.1984  0.3445  0.2264
  116MPD2    H3 1811   4.130   0.231  17.717  2.9028  1.1198 -1.0074
  116MPD2     N 1812   4.501   0.109   0.181 -0.2956  0.3294  0.8265
  116MPD2    H5 1813   4.524   0.208   0.186  2.2652 -0.2989  1.3191
  116MPD2    N1 1814   4.136   4.524   0.047 -0.1257  0.1739  0.0474
  116MPD2    H7 1815   4.046   4.520  17.743 -0.5868  0.8212  0.8369
  117TMC2    C1 1816   2.803   1.777  13.872 -0.3477  0.3927  0.2293
  117TMC2    C2 1817   2.895   1.709  13.797  0.1861  0.3526 -0.4598
  117TMC2    C3 1818   3.007   1.770  13.768 -0.1568 -0.8132 -0.1919
  117TMC2    C4 1819   2.828   1.907  13.893 -0.7576 -1.0961 -0.4803
  117TMC2    C5 1820   2.955   1.963  13.865  0.0510 -0.1615 -0.1256
  117TMC2    C6 1821   3.055   1.893  13.813  0.6358  0.1358  0.0569
  117TMC2     C 1822   2.668   1.735  13.836  0.2268  0.0706 -0.6800
  117TMC2     O 1823   2.644   1.622  13.795 -0.7352  0.3267  0.4551
  117TMC2     H 1824   2.876   1.608  13.762  0.5162  1.2323 -3.1501
  117TMC2    H1 1825   2.763   1.961  13.960  3.6436  2.1748  1.1827
  117TMC2    H2 1826   3.152   1.936  13.791  1.1097 -1.1952 -0.4957
  117TMC2    C7 1827   2.971   2.112  13.858  0.3196  0.5572 -0.0540
  117TMC2    C8 1828   3.089   1.697  13.680 -0.4649  0.2904 -0.1538
  117TMC2    O1 1829   3.084   2.143  13.815  0.3004 -0.1782 -0.2310
  117TMC2    O2 1830   3.055   1.610  13.604 -0.1080 -0.2032 -0.1975
  117TMC2    O5 1831   3.202   1.690  13.747  0.2814 -0.2502 -0.3078
  117TMC2    H5 1832   3.199   1.724  13.839  1.4770  2.5085 -1.2817
  118MPD2     C 1833   2.710   2.362  13.839 -0.5227  0.4480  0.0913
  118MPD2    C1 1834   2.834   2.316  13.845 -0.1306 -0.3428  0.4425
  118MPD2    C2 1835   2.944   2.403  13.840  0.3385  0.1016 -0.0866
  118MPD2    C3 1836   2.919   2.535  13.821  0.0286 -0.1364 -0.0651
  118MPD2    C4 1837   2.789   2.584  13.819  0.2010 -1.1140  0.7159
  118MPD2    C5 1838   2.687   2.491  13.823  0.5765 -0.0163 -0.2534
  118MPD2     H 1839   3.045   2.365  13.843  0.4341  0.2491 -1.5950
  118MPD2    H1 1840   2.761   2.688  13.807 -0.4405 -1.3219  0.4072
  118MPD2    H2 1841   2.620   2.302  13.830 -1.0291  1.0078  1.5509
  118MPD2    H3 1842   2.586   2.529  13.823  0.2326 -0.9607  0.4519
  118MPD2     N 1843   3.032   2.618  13.790 -0.2836  0.3625 -0.4053
  118MPD2    H5 1844   3.024   2.718  13.774  1.2998  0.4796 -0.4575
  118MPD2    N1 1845   2.858   2.179  13.863  0.5304  0.6409  0.4653
  118MPD2    H7 1846   2.780   2.117  13.879  1.0937  0.0721  0.9952
  119TMC2    C1 1847   1.019   3.249  13.684  0.0456  0.3110  0.4367
  119TMC2    C2 1848   1.037   3.302  13.562 -0.5080  0.2382  0.1519
  119TMC2    C3 1849   0.964   3.258  13.461  0.2457  0.5875 -0.0646
  119TMC2    C4 1850   0.918   3.167  13.717  0.0535  0.6321 -0.7580
  119TMC2    C5 1851   0.834   3.139  13.615 -0.6551 -0.0254 -0.4300
  119TMC2    C6 1852   0.856   3.173  13.486  0.1485 -0.5084 -0.1204
  119TMC2     C 1853   1.130   3.258  13.777 -0.0260  0.1562 -0.6343
  119TMC2     O 1854   1.093   3.232  13.890  0.2141 -0.0295  0.2488
  119TMC2     H 1855   1.117   3.371  13.540 -2.8961  2.6501 -0.9225
  119TMC2    H1 1856   0.909   3.114  13.811  0.5941  0.3829 -0.8506
  119TMC2    H2 1857   0.786   3.132  13.414 -0.3842  0.9393 -0.4350
  119TMC2    C7 1858   0.711   3.061  13.635 -0.5338 -0.4487 -0.1297
  119TMC2    C8 1859   1.017   3.269  13.329  0.1481  0.8738  0.1556
  119TMC2    O1 1860   0.615   3.091  13.567 -0.4392  0.1743 -0.5352
  119TMC2    O2 1861   1.097   3.359  13.302 -0.2200 -0.2382  0.1225
  119TMC2    O5 1862   1.002   3.157  13.265  0.0105 -0.0000 -0.0951
  119TMC2    H5 1863   0.959   3.080  13.309  2.6606 -0.1804  2.1802
  120MPD2     C 1864   1.602   3.298  13.947 -0.6717 -0.3714  0.6211
  120MPD2    C1 1865   1.480   3.294  14.012 -0.5941  0.0768  0.0119
  120MPD2    C2 1866   1.368   3.292  13.932  0.1197 -0.5915 -0.1928
  120MPD2    C3 1867   1.377   3.284  13.799  0.0729  0.8053 -0.2323
  120MPD2    C4 1868   1.498   3.284  13.736 -0.1845 -0.0169 -0.1890
  120MPD2    C5 1869   1.610   3.296  13.812  0.2343  0.6159 -0.1601
  120MPD2     H 1870   1.272   3.301  13.981  0.7899 -1.4479  1.3003
  120MPD2    H1 1871   1.508   3.282  13.628 -2.1291 -0.3975 -0.3717
  120MPD2    H2 1872   1.689   3.305  14.011  0.9662  2.5373 -1.9267
  120MPD2    H3 1873   1.705   3.311  13.761 -0.6561  1.8762 -1.4433
  120MPD2     N 1874   1.258   3.283  13.720  0.7072  0.1724 -0.1258
  120MPD2    H5 1875   1.270   3.295  13.620  2.1056 -1.5376 -0.1506
  120MPD2    N1 1876   1.478   3.301  14.155 -0.2980  0.0970 -0.2451
  120MPD2    H7 1877   1.550   3.358  14.198  1.1736 -3.1148  1.5667
  121TMC2    C1 1878   2.837   4.549  14.229 -0.4113  0.3870  0.4525
  121TMC2    C2 1879   2.823   4.673  14.288 -0.2938 -0.0346 -0.0800
  121TMC2    C3 1880   2.708   4.700  14.358  0.4085  0.2802  1.0487
  121TMC2    C4 1881   2.759   4.447  14.255 -0.3336 -0.2411  0.5607
  121TMC2    C5 1882   2.647   4.470  14.321  0.6302  0.1726 -0.1582
  121TMC2    C6 1883   2.620   4.593  14.375 -0.1091 -0.9352 -0.1294
  121TMC2     C 1884   2.959   4.516  14.157 -0.1396  0.5273  0.1275
  121TMC2     O 1885   2.998   4.400  14.161  0.2567 -0.2285  0.2957
  121TMC2     H 1886   2.881   0.022  14.255  1.4261 -0.9924  0.4346
  121TMC2    H1 1887   2.778   4.346  14.220 -1.3856 -1.3140  3.0842
  121TMC2    H2 1888   2.530   4.609  14.433 -0.5465  1.2244 -1.4223
  121TMC2    C7 1889   2.534   4.396  14.280  0.4910 -0.0760 -0.3571
  121TMC2    C8 1890   2.715   0.068  14.451  0.2501 -0.5244 -0.2594
  121TMC2    O1 1891   2.529   4.277  14.300  0.0321  0.9489 -0.2672
  121TMC2    O2 1892   2.803   0.147  14.461 -0.5937  0.4705 -0.0922
  121TMC2    O5 1893   2.593   0.106  14.487 -0.0646 -0.0353  0.6909
  121TMC2    H5 1894   2.517   0.049  14.464 -0.6144  0.3508  1.5837
  122MPD2     C 1895   3.209   4.521  14.002 -0.2626 -0.0604 -0.2515
  122MPD2    C1 1896   3.116   4.621  13.994 -0.1013  0.2455 -0.0666
  122MPD2    C2 1897   3.129   4.723  13.903 -0.1591  0.8082 -0.3670
  122MPD2    C3 1898   3.233   4.716  13.809  0.0891 -0.1386  0.5878
  122MPD2    C4 1899   3.325   4.606  13.817  0.5265 -0.7825  0.4949
  122MPD2    C5 1900   3.320   4.510  13.912  0.0252 -0.0557  0.1228
  122MPD2     H 1901   3.050   0.060  13.894  1.0408  1.9074 -1.9862
  122MPD2    H1 1902   3.413   4.618  13.756  1.1236  0.4468  1.5983
  122MPD2    H2 1903   3.193   4.451  14.083 -0.5832 -1.0302 -1.1574
  122MPD2    H3 1904   3.406   4.447  13.925 -0.0783 -1.0268 -3.8080
  122MPD2     N 1905   3.259   0.074  13.706  0.4045  0.4580 -0.0064
  122MPD2    H5 1906   3.330   0.047  13.639  0.5668 -0.4568  0.5334
  122MPD2    N1 1907   2.999   4.615  14.073  1.0492  0.5763  0.3117
  122MPD2    H7 1908   2.937   4.695  14.061  0.0773 -0.1598  0.4932
  123TMC2    C1 1909   0.813   3.561  10.946 -1.0351  0.2289  0.1686
  123TMC2    C2 1910   0.834   3.687  10.909 -0.1963 -0.7178  0.2318
  123TMC2    C3 1911   0.891   3.701  10.784  0.0103 -0.8102 -0.7249
  123TMC2    C4 1912   0.834   3.452  10.864 -0.9005 -0.4468  0.3966
  123TMC2    C5 1913   0.900   3.483  10.743 -0.4373  0.3778 -0.4307
  123TMC2    C6 1914   0.918   3.607  10.701 -0.2344 -0.6970  0.3819
  123TMC2     C 1915   0.730   3.539  11.065  0.4297  0.5513 -0.3699
  123TMC2     O 1916   0.697   3.638  11.130  0.0068 -0.1193  0.1608
  123TMC2     H 1917   0.814   3.757  10.989  1.0918  1.5968 -1.4448
  123TMC2    H1 1918   0.829   3.347  10.894 -0.4932 -0.5854 -0.0317
  123TMC2    H2 1919   0.931   3.630  10.596 -0.1211  0.4731  0.6535
  123TMC2    C7 1920   0.920   3.368  10.654  0.1096  0.2200 -0.0491
  123TMC2    C8 1921   0.943   3.831  10.749 -0.1999  0.3463 -0.2985
  123TMC2    O1 1922   0.880   3.260  10.702 -0.5458 -0.1798  0.5225
  123TMC2    O2 1923   1.024   3.842  10.660 -0.2128  0.1771 -0.0179
  123TMC2    O5 1924   0.935   3.910  10.859 -0.0055  0.2779 -0.0207
  123TMC2    H5 1925   0.851   3.921  10.909 -0.1391 -0.8855 -0.0058
  124MPD2     C 1926   0.382   3.254  11.323 -0.1696 -0.0252  0.2982
  124MPD2    C1 1927   0.432   3.180  11.215  0.1571 -0.2854  0.0080
  124MPD2    C2 1928   0.531   3.234  11.137  0.6152  0.5858 -0.3731
  124MPD2    C3 1929   0.582   3.363  11.168  0.4290  0.2639  0.3018
  124MPD2    C4 1930   0.517   3.435  11.264  0.3517  0.0514  0.1279
  124MPD2    C5 1931   0.431   3.377  11.348 -0.1198  0.0389  0.6714
  124MPD2     H 1932   0.578   3.171  11.063 -0.6361 -0.5276 -0.2216
  124MPD2    H1 1933   0.561   3.530  11.291  0.9248  0.4865 -2.2958
  124MPD2    H2 1934   0.306   3.221  11.393  0.5105 -1.2071  0.4679
  124MPD2    H3 1935   0.399   3.428  11.438 -0.6757  1.2411 -0.2090
  124MPD2     N 1936   0.688   3.406  11.081 -0.2127  0.1151 -0.1819
  124MPD2    H5 1937   0.713   3.347  11.003  0.0702 -0.8948  0.6744
  124MPD2    N1 1938   0.371   3.050  11.190 -0.2608  0.0552 -0.1729
  124MPD2    H7 1939   0.284   3.033  11.240 -0.8784  1.9434 -0.5824
  125TMC2    C1 1940   1.917   1.468  10.023  0.2550 -0.3044 -0.0558
  125TMC2    C2 1941   1.997   1.527   9.926 -0.6930 -0.3881  0.0970
  125TMC2    C3 1942   2.123   1.469   9.914 -0.0616  0.0255  0.5598
  125TMC2    C4 1943   1.953   1.355  10.093  0.2331  0.5771  0.3442
  125TMC2    C5 1944   2.079   1.298  10.064  0.1592  0.0190  0.4088
  125TMC2    C6 1945   2.169   1.364   9.984 -0.3807  0.1618  0.4765
  125TMC2     C 1946   1.806   1.538  10.084 -0.8289 -0.2620 -0.4895
  125TMC2     O 1947   1.731   1.481  10.158  0.1105 -0.4684  0.1311
  125TMC2     H 1948   1.976   1.630   9.898  1.3162  0.1886  0.7394
  125TMC2    H1 1949   1.889   1.317  10.172 -0.9036  1.4609 -0.1551
  125TMC2    H2 1950   2.270   1.329   9.968  0.1017  1.5890  0.3691
  125TMC2    C7 1951   2.101   1.155  10.102 -0.6967 -0.3542  0.0827
  125TMC2    C8 1952   2.216   1.548   9.844  0.9778  0.5593  0.2723
  125TMC2    O1 1953   2.022   1.108  10.182 -0.3005  0.3476 -1.0414
  125TMC2    O2 1954   2.187   1.603   9.738  0.0363 -0.1556  0.2308
  125TMC2    O5 1955   2.260   1.621   9.944 -0.2139  0.3106  0.1689
  125TMC2    H5 1956   2.246   1.578  10.031  0.6038  2.2946  1.2856
  126MPD1     C 1957   1.517   1.968  10.143 -0.3597 -0.3503 -0.6090
  126MPD1    C1 1958   1.620   1.990  10.056 -0.3145  0.3354  0.4169
  126MPD1    C2 1959   1.695   1.884  10.006  0.2722  0.5843  1.1096
  126MPD1    C3 1960   1.691   1.763  10.072  0.1716  0.3855 -0.5391
  126MPD1    C4 1961   1.588   1.742  10.161  0.1956 -0.4034 -0.1891
  126MPD1    C5 1962   1.497   1.841  10.189 -0.1563  0.1817 -0.2071
  126MPD1     H 1963   1.762   1.903   9.923 -0.6818  1.7488  0.6058
  126MPD1    H1 1964   1.568   1.649  10.212  2.9083 -1.1095 -0.4272
  126MPD1    H2 1965   1.437   2.040  10.157 -0.7827 -1.0681  0.6440
  126MPD1    H3 1966   1.412   1.819  10.253  0.2577 -0.4696  0.1244
  126MPD1     N 1967   1.795   1.666  10.041 -0.1047 -0.5384  0.0785
  126MPD1    H5 1968   1.869   1.700   9.979  0.0973 -2.9785 -1.0146
  126MPD1    N1 1969   1.632   2.116  10.001  0.5238 -0.0102 -0.2116
  126MPD1    H6 1970   1.590   2.186  10.061  0.9910 -1.6365  1.9961
  126MPD1    H7 1971   1.729   2.139   9.980 -0.4296  2.3714 -2.0298
  127TMC2    C1 1972   2.973   3.961   9.650 -0.4985 -0.4215 -0.1040
  127TMC2    C2 1973   3.000   3.918   9.768  0.1219  0.6298 -0.5852
  127TMC2    C3 1974   2.911   3.840   9.830 -0.2080  0.0186 -0.1057
  127TMC2    C4 1975   2.856   3.933   9.584  0.3813  0.2777  0.8963
  127TMC2    C5 1976   2.773   3.841   9.643 -0.1711 -0.3510 -0.1354
  127TMC2    C6 1977   2.794   3.795   9.777  0.7498 -0.3594 -0.3364
  127TMC2     C 1978   3.066   4.068   9.606  0.9790 -0.3868  0.7117
  127TMC2     O 1979   3.148   4.107   9.690 -0.7340  0.4439  0.1883
  127TMC2     H 1980   3.093   3.948   9.815  1.0857 -0.5851 -1.6869
  127TMC2    H1 1981   2.826   3.990   9.497 -1.3800 -2.0360 -0.0179
  127TMC2    H2 1982   2.746   3.709   9.822  1.6519 -0.2399  0.8578
  127TMC2    C7 1983   2.662   3.794   9.566 -0.3383  0.7755 -0.5542
  127TMC2    C8 1984   2.949   3.807   9.968  0.2758 -0.3453 -0.2234
  127TMC2    O1 1985   2.666   3.816   9.445 -0.1237  0.0583  0.0960
  127TMC2    O2 1986   3.056   3.835  10.015 -0.1381 -0.4839  0.1174
  127TMC2    O5 1987   2.858   3.721  10.025  0.7503  0.4493 -0.5993
  127TMC2    H5 1988   2.778   3.712   9.969  0.6892 -0.6543 -0.3322
  128MPD2     C 1989   3.031   4.294   9.334 -0.8049  0.0077 -0.1701
  128MPD2    C1 1990   3.088   4.249   9.442  0.2784 -0.1285 -0.0268
  128MPD2    C2 1991   3.183   4.322   9.508 -0.2142 -0.3508  0.6770
  128MPD2    C3 1992   3.218   4.450   9.473  0.2300 -0.5305  0.0858
  128MPD2    C4 1993   3.161   4.499   9.353 -0.5463 -0.1500 -0.2302
  128MPD2    C5 1994   3.071   4.420   9.286  0.4984  0.6875  0.1776
  128MPD2     H 1995   3.238   4.278   9.591  1.2959 -1.9465 -1.1789
  128MPD2    H1 1996   3.190   4.595   9.311 -1.3035 -0.7077 -2.0539
  128MPD2    H2 1997   2.956   4.242   9.275  1.0729 -2.1115 -0.7079
  128MPD2    H3 1998   3.025   4.465   9.199  0.8203  1.8542  0.6083
  128MPD2     N 1999   3.328   4.511   9.538 -0.3976 -0.6768 -0.3542
  128MPD2    H5 2000   3.370   4.452   9.609  0.0828  0.6059  0.4421
  128MPD2    N1 2001   3.032   4.125   9.482 -0.1726 -0.2680 -0.5773
  128MPD2    H7 2002   2.966   4.071   9.428 -0.0097  0.5701 -1.6054
  129TMC2    C1 2003   2.284   3.936   1.269  0.1404  0.5103  0.5817
  129TMC2    C2 2004   2.234   4.055   1.310 -0.5224  0.2115  0.1319
  129TMC2    C3 2005   2.122   4.050   1.389 -0.2383  0.0200 -0.4966
  129TMC2    C4 2006   2.225   3.815   1.295 -0.6005  0.0334  0.0089
  129TMC2    C5 2007   2.103   3.820   1.357 -0.3280 -0.1105  1.0726
  129TMC2    C6 2008   2.054   3.935   1.413  0.5912  0.3819 -0.3834
  129TMC2     C 2009   2.401   3.937   1.180  0.5177 -0.0026  0.2046
  129TMC2     O 2010   2.446   3.826   1.147 -0.0846  0.1001  1.1833
  129TMC2     H 2011   2.299   4.139   1.326 -1.0521  0.6215  0.1314
  129TMC2    H1 2012   2.255   3.726   1.241 -0.4652  0.5179 -0.7208
  129TMC2    H2 2013   1.957   3.934   1.461  0.3229  0.3379 -0.9218
  129TMC2    C7 2014   2.013   3.705   1.383  0.4983 -0.3864 -0.4561
  129TMC2    C8 2015   2.082   4.163   1.473  0.7413 -0.3686 -0.1630
  129TMC2    O1 2016   1.892   3.722   1.376  0.2959  0.0504 -0.0627
  129TMC2    O2 2017   1.983   4.148   1.543 -0.3771 -0.0938  0.2002
  129TMC2    O5 2018   2.126   4.284   1.428  0.2142 -0.6038 -0.6324
  129TMC2    H5 2019   2.163   4.274   1.337 -2.4736  0.0225 -1.7870
  130MPD2     C 2020   2.630   4.012   0.996  0.2790  0.2131 -0.2534
  130MPD2    C1 2021   2.541   4.105   1.053 -0.2281  0.2113  0.1134
  130MPD2    C2 2022   2.562   4.236   1.020 -0.5514 -0.1603  0.1639
  130MPD2    C3 2023   2.660   4.278   0.925 -0.7091  1.2143 -0.6403
  130MPD2    C4 2024   2.728   4.185   0.854  0.0309  0.2977  0.0412
  130MPD2    C5 2025   2.720   4.056   0.896 -0.5104  0.1363  0.2466
  130MPD2     H 2026   2.503   4.314   1.068  1.4247  0.6761  1.2622
  130MPD2    H1 2027   2.791   4.204   0.768 -0.9398 -0.3380 -0.8123
  130MPD2    H2 2028   2.635   3.912   1.037 -4.7256  0.5467  1.0928
  130MPD2    H3 2029   2.777   3.980   0.842 -0.5940 -0.8279  1.5072
  130MPD2     N 2030   2.654   4.415   0.885 -0.0144  0.2936  0.5362
  130MPD2    H5 2031   2.588   4.475   0.933 -0.8017  0.7805 -1.1575
  130MPD2    N1 2032   2.439   4.065   1.141 -0.1668 -0.5682  0.0879
  130MPD2    H7 2033   2.377   4.137   1.177  0.5551 -0.8894  1.9877
  131TMC2    C1 2034   0.478   3.271  10.237  0.5528 -0.9991  0.8790
  131TMC2    C2 2035   0.523   3.377  10.310  0.0484  0.6170 -0.4145
  131TMC2    C3 2036   0.629   3.445  10.262 -0.4976  0.3064 -0.0651
  131TMC2    C4 2037   0.532   3.230  10.121 -0.2364 -0.9645 -0.1238
  131TMC2    C5 2038   0.619   3.309  10.070  0.0458  0.4330  0.6526
  131TMC2    C6 2039   0.678   3.417  10.139  0.0196  0.4138  0.6380
  131TMC2     C 2040   0.414   3.173  10.323  0.0252 -0.8589  0.3450
  131TMC2     O 2041   0.428   3.187  10.445 -0.1150  0.4130 -0.1410
  131TMC2     H 2042   0.474   3.398  10.405  0.1415  1.5901 -0.5837
  131TMC2    H1 2043   0.512   3.136  10.070 -0.6088 -0.8811 -0.1307
  131TMC2    H2 2044   0.768   3.467  10.103  0.0708 -0.3779 -0.3351
  131TMC2    C7 2045   0.681   3.279   9.941 -0.1564  0.1065 -0.5104
  131TMC2    C8 2046   0.677   3.566  10.315 -0.2480  0.5941 -0.4436
  131TMC2    O1 2047   0.680   3.167   9.892  0.2222  0.0596  0.5961
  131TMC2    O2 2048   0.736   3.651  10.247 -0.2149  0.5978  0.5313
  131TMC2    O5 2049   0.686   3.559  10.451  0.1492 -0.4103  0.4139
  131TMC2    H5 2050   0.658   3.473  10.489 -1.3143 -1.6292 -3.4614
  132MPD2     C 2051   0.222   2.866  10.237 -0.1732 -0.9948  0.1787
  132MPD2    C1 2052   0.277   2.962  10.316  0.1159 -0.4115  0.2040
  132MPD2    C2 2053   0.291   2.928  10.451 -0.6587 -0.2254 -0.2985
  132MPD2    C3 2054   0.226   2.816  10.505 -0.3096  0.2891  0.3158
  132MPD2    C4 2055   0.149   2.732  10.430 -0.0592 -0.4854 -0.3866
  132MPD2    C5 2056   0.154   2.758  10.295 -0.1602  0.1073 -0.8498
  132MPD2     H 2057   0.347   2.991  10.519  0.7099 -1.1411 -0.5697
  132MPD2    H1 2058   0.120   2.631  10.453 -0.0845 -0.2909  0.4295
  132MPD2    H2 2059   0.222   2.876  10.129 -0.3215  0.5371  0.3123
  132MPD2    H3 2060   0.106   2.682  10.234 -1.4811 -1.5663  2.2625
  132MPD2     N 2061   0.246   2.796  10.649  0.5998  0.0802  0.4206
  132MPD2    H5 2062   0.330   2.837  10.690 -0.8011  0.2510  3.0977
  132MPD2    N1 2063   0.346   3.077  10.252 -0.9285 -0.7153 -1.0051
  132MPD2    H7 2064   0.340   3.085  10.151  1.7326  1.5755 -0.9770
  133TMC2    C1 2065   3.458   4.601   9.141  0.1733 -0.1183 -0.7283
  133TMC2    C2 2066   3.392   4.656   9.033  0.5078 -0.3541 -0.6554
  133TMC2    C3 2067   3.314   4.581   8.953 -0.0118 -0.4564 -0.1970
  133TMC2    C4 2068   3.455   4.459   9.158 -0.4605 -0.3427 -0.2706
  133TMC2    C5 2069   3.374   4.384   9.075 -0.6152  0.1926 -0.3647
  133TMC2    C6 2070   3.304   4.444   8.973  0.2459 -0.1384 -0.5179
  133TMC2     C 2071   3.526   4.682   9.243  0.4259 -0.1260  0.1207
  133TMC2     O 2072   3.626   4.630   9.293  0.4485  0.9824 -0.2888
  133TMC2     H 2073   3.410   0.023   9.006 -1.8053  0.2224  0.0042
  133TMC2    H1 2074   3.506   4.421   9.246 -2.5848 -2.4403  0.0597
  133TMC2    H2 2075   3.235   4.389   8.909 -0.4609  1.2915 -0.9681
  133TMC2    C7 2076   3.334   4.255   9.116 -0.0960  0.1078  0.3954
  133TMC2    C8 2077   3.253   4.645   8.831 -0.4221 -0.3697 -0.1412
  133TMC2    O1 2078   3.219   4.227   9.079 -0.1428  0.0255 -0.2293
  133TMC2    O2 2079   3.237   0.034   8.825 -0.2706 -0.2481 -0.6380
  133TMC2    O5 2080   3.256   4.555   8.729 -0.0044  0.2697  0.2298
  133TMC2    H5 2081   3.290   4.471   8.766 -2.6026 -0.9050 -0.0888
  134MPD2     C 2082   3.461   0.306   9.279 -0.8806 -0.3541  0.2798
  134MPD2    C1 2083   3.528   0.193   9.308  0.4841 -0.6792  0.1272
  134MPD2    C2 2084   3.639   0.197   9.386 -0.4801 -0.4202 -0.1067
  134MPD2    C3 2085   3.683   0.320   9.441  0.4969  0.0380  0.0679
  134MPD2    C4 2086   3.611   0.428   9.412 -0.4065 -0.5251  0.5253
  134MPD2    C5 2087   3.499   0.423   9.331  0.1820 -0.0869  0.6995
  134MPD2     H 2088   3.676   0.098   9.411 -0.6520  0.0609  2.0339
  134MPD2    H1 2089   3.652   0.522   9.449 -1.5453  0.4022 -0.5701
  134MPD2    H2 2090   3.379   0.311   9.209 -1.3085 -1.4278  0.7105
  134MPD2    H3 2091   3.449   0.517   9.311  1.3391  0.1217 -1.2524
  134MPD2     N 2092   3.797   0.341   9.523  0.1495  0.0590  0.2286
  134MPD2    H5 2093   3.826   0.432   9.556 -0.6620  0.7967 -1.1333
  134MPD2    N1 2094   3.476   0.078   9.243 -0.5614 -0.4233  0.1173
  134MPD2    H7 2095   3.384   0.090   9.203  0.9511  1.1552 -2.8706
  135TMC2    C1 2096   2.355   0.875  10.461 -0.0742  0.8478  1.0154
  135TMC2    C2 2097   2.444   0.783  10.406 -0.0453 -0.1616  0.4441
  135TMC2    C3 2098   2.408   0.648  10.405  0.1473 -0.2961  0.0749
  135TMC2    C4 2099   2.235   0.832  10.501 -0.5257 -0.7187 -1.0424
  135TMC2    C5 2100   2.208   0.698  10.510 -0.1032  0.6752  0.2966
  135TMC2    C6 2101   2.289   0.603  10.457 -0.8178 -0.0529  0.2083
  135TMC2     C 2102   2.363   1.020  10.433  0.3969  0.1686  0.0044
  135TMC2     O 2103   2.295   1.101  10.498 -0.6359 -0.1150 -0.7079
  135TMC2     H 2104   2.547   0.811  10.385  0.4720 -2.1502  0.3651
  135TMC2    H1 2105   2.166   0.907  10.539  0.9217  0.5231 -0.8785
  135TMC2    H2 2106   2.274   0.496  10.469 -0.0735 -0.2986 -1.0034
  135TMC2    C7 2107   2.084   0.661  10.567  0.7672 -0.0622 -0.0737
  135TMC2    C8 2108   2.502   0.560  10.350  0.2180 -0.4791  0.1618
  135TMC2    O1 2109   2.036   0.733  10.657 -0.5045  0.3386  0.1092
  135TMC2    O2 2110   2.473   0.442  10.346 -0.2868 -0.1728 -0.2650
  135TMC2    O5 2111   2.581   0.606  10.252 -0.4686  0.5280 -0.0550
  135TMC2    H5 2112   2.593   0.703  10.250  0.6363  0.4264  1.5006
  136MPD2     C 2113   2.439   1.294  10.322 -0.7639 -0.1197  0.2409
  136MPD2    C1 2114   2.473   1.175  10.268 -0.3156  0.5812  0.0847
  136MPD2    C2 2115   2.531   1.169  10.143  0.5999  0.1399  0.0091
  136MPD2    C3 2116   2.546   1.286  10.069 -0.0297 -0.2966  0.0781
  136MPD2    C4 2117   2.514   1.406  10.125  0.5723 -0.0456  0.4502
  136MPD2    C5 2118   2.464   1.414  10.256  1.3047 -0.4510  0.4735
  136MPD2     H 2119   2.568   1.075  10.103 -1.6767 -0.4868 -0.6694
  136MPD2    H1 2120   2.537   1.504  10.084  4.5867 -0.7000  1.0937
  136MPD2    H2 2121   2.416   1.300  10.428  1.8259 -1.4194  0.8772
  136MPD2    H3 2122   2.457   1.511  10.302  1.4197  0.9295 -2.3953
  136MPD2     N 2123   2.599   1.263   9.941  0.1666  0.1347 -0.3083
  136MPD2    H5 2124   2.634   1.170   9.925 -2.4461 -0.7861 -0.5818
  136MPD2    N1 2125   2.449   1.047  10.328 -0.8066 -0.3552 -0.7915
  136MPD2    H7 2126   2.482   0.968  10.274 -0.1237  0.0072 -0.9116
  137TMC2    C1 2127   1.935   4.320   9.015  0.1143 -0.3352 -1.0185
  137TMC2    C2 2128   1.972   4.440   8.961 -0.5559 -0.3905  0.1333
  137TMC2    C3 2129   1.900   4.482   8.857  0.2358  0.6856 -0.1085
  137TMC2    C4 2130   1.822   4.252   8.972 -0.3718  0.5843 -0.7833
  137TMC2    C5 2131   1.743   4.307   8.877 -0.1375  0.0751 -0.4149
  137TMC2    C6 2132   1.784   4.423   8.818 -0.3182 -0.1453 -0.2116
  137TMC2     C 2133   1.995   4.283   9.139 -0.1105  0.6044 -0.5296
  137TMC2     O 2134   2.046   4.374   9.203  0.3735 -0.4477  0.3211
  137TMC2     H 2135   2.058   4.496   8.995 -0.9802  0.6805 -0.5424
  137TMC2    H1 2136   1.797   4.152   9.006  1.1172  0.0752 -1.1342
  137TMC2    H2 2137   1.716   4.473   8.750  1.5591  0.2507 -1.7855
  137TMC2    C7 2138   1.613   4.249   8.860 -0.9522  0.7404 -0.5041
  137TMC2    C8 2139   1.960   4.594   8.779 -0.5473  1.0114  0.4068
  137TMC2    O1 2140   1.586   4.236   8.742  0.2998  0.1009 -0.2192
  137TMC2    O2 2141   2.050   4.659   8.829  0.3375  0.4787  0.1667
  137TMC2    O5 2142   1.958   4.547   8.655  0.8782 -0.3127 -0.3073
  137TMC2    H5 2143   1.908   4.467   8.631 -0.9204  1.2400 -1.7378
  138MPD2     C 2144   2.032   3.957   9.310 -0.1071 -0.1821  0.2717
  138MPD2    C1 2145   2.050   4.095   9.292 -0.5229  1.0584 -0.3141
  138MPD2    C2 2146   2.116   4.166   9.388 -0.1211  0.2061 -0.0661
  138MPD2    C3 2147   2.185   4.100   9.489  0.1620 -0.6842  0.1134
  138MPD2    C4 2148   2.182   3.960   9.500 -0.2543 -0.1769  0.1455
  138MPD2    C5 2149   2.100   3.891   9.409 -0.1282 -0.1674  0.1185
  138MPD2     H 2150   2.129   4.273   9.389 -2.0576  0.4465  0.8685
  138MPD2    H1 2151   2.233   3.894   9.570  0.6047  1.9682  1.5311
  138MPD2    H2 2152   1.976   3.881   9.258  1.2457 -0.8288 -0.2377
  138MPD2    H3 2153   2.096   3.783   9.405 -2.6486  0.0133 -2.3685
  138MPD2     N 2154   2.264   4.176   9.582  0.3474  0.0055 -0.1519
  138MPD2    H5 2155   2.255   4.277   9.579 -0.0153 -0.0642 -1.4510
  138MPD2    N1 2156   1.979   4.154   9.180 -0.5938  0.1711  0.8924
  138MPD2    H7 2157   1.941   4.092   9.109 -1.6326  0.6258  1.0587
  139TMC2    C1 2158   2.697   2.883  13.497 -1.0397  0.0242 -0.0132
  139TMC2    C2 2159   2.800   2.960  13.438 -0.4155 -0.1938 -0.7307
  139TMC2    C3 2160   2.771   3.094  13.412  0.3114  0.4108  0.5884
  139TMC2    C4 2161   2.579   2.941  13.550  0.3034  0.3859  0.0759
  139TMC2    C5 2162   2.562   3.071  13.521 -0.4474  0.8305  0.8722
  139TMC2    C6 2163   2.653   3.147  13.446 -0.3811  0.0569 -0.2583
  139TMC2     C 2164   2.713   2.741  13.505  0.2707  0.4561 -0.3750
  139TMC2     O 2165   2.827   2.702  13.476  0.1627 -0.3713  0.1340
  139TMC2     H 2166   2.887   2.908  13.402  0.2035 -0.2226  0.7896
  139TMC2    H1 2167   2.520   2.887  13.623 -1.3386  0.9169 -0.8664
  139TMC2    H2 2168   2.638   3.251  13.420 -1.9645  0.1795  1.1363
  139TMC2    C7 2169   2.456   3.153  13.587  0.3582  0.2186 -0.5837
  139TMC2    C8 2170   2.856   3.167  13.320 -0.4174 -0.2012 -0.4458
  139TMC2    O1 2171   2.478   3.274  13.589 -0.3166 -0.0923  0.2612
  139TMC2    O2 2172   2.814   3.260  13.256  0.1480 -0.0864  0.0589
  139TMC2    O5 2173   2.985   3.153  13.367 -0.2240 -0.4923 -0.4705
  139TMC2    H5 2174   3.005   3.079  13.429 -0.1147  0.8121  1.0597
  140MPD2     C 2175   2.445   2.493  13.531 -0.3891  0.1584  0.0167
  140MPD2    C1 2176   2.573   2.534  13.522  0.6639  0.1178  0.2805
  140MPD2    C2 2177   2.671   2.442  13.510 -0.2927  0.5833  0.1012
  140MPD2    C3 2178   2.645   2.307  13.511  0.0853  0.4256  0.0749
  140MPD2    C4 2179   2.513   2.263  13.528  0.4678 -0.2068  0.2683
  140MPD2    C5 2180   2.416   2.359  13.541 -0.2236  0.8624  0.1079
  140MPD2     H 2181   2.774   2.474  13.497 -0.0454 -0.3024 -0.0813
  140MPD2    H1 2182   2.480   2.160  13.534  0.2226 -0.2176 -1.3240
  140MPD2    H2 2183   2.372   2.572  13.537  0.3797  0.8617  0.1064
  140MPD2    H3 2184   2.315   2.320  13.549 -0.7461  1.7496 -2.1132
  140MPD2     N 2185   2.758   2.214  13.503 -0.0701 -0.1076  0.2706
  140MPD2    H5 2186   2.847   2.257  13.479 -0.8295  0.2813 -1.7624
  140MPD2    N1 2187   2.590   2.679  13.510  0.3005 -0.3109  0.5138
  140MPD2    H7 2188   2.507   2.735  13.526  0.3456 -0.5707  1.6942
  141TMC2    C1 2189   3.513   3.791  14.899 -0.4774 -0.1283  0.1933
  141TMC2    C2 2190   3.428   3.691  14.930  0.2038  0.2881  0.1729
  141TMC2    C3 2191   3.368   3.697  15.048 -0.1810  1.1496  0.2699
  141TMC2    C4 2192   3.539   3.901  14.980  0.2665  0.2052  0.2189
  141TMC2    C5 2193   3.458   3.905  15.096  0.1882 -0.1537 -0.3133
  141TMC2    C6 2194   3.382   3.802  15.140  0.5286  0.0208 -0.3551
  141TMC2     C 2195   3.560   3.794  14.758  0.0964  0.0610 -0.2896
  141TMC2     O 2196   3.591   3.897  14.702  0.4042 -0.0219 -0.2503
  141TMC2     H 2197   3.395   3.617  14.858  0.9902  0.1297 -0.0294
  141TMC2    H1 2198   3.606   3.979  14.948 -0.1184  1.1855  1.8105
  141TMC2    H2 2199   3.331   3.800  15.235  2.0394 -1.3805  0.4360
  141TMC2    C7 2200   3.449   4.025  15.176  0.7348  0.0694  0.7969
  141TMC2    C8 2201   3.266   3.599  15.080 -0.8322 -0.5847  0.7033
  141TMC2    O1 2202   3.354   4.040  15.253 -0.6556 -0.4158 -0.3790
  141TMC2    O2 2203   3.283   3.500  15.156  0.3812  0.2538  0.0704
  141TMC2    O5 2204   3.167   3.687  15.097  0.2855  0.2463  0.1499
  141TMC2    H5 2205   3.178   3.762  15.035 -0.1975  0.3616  0.2033
  142TMC2    C1 2206   0.532   2.642  10.413 -0.1313  0.0142  0.1962
  142TMC2    C2 2207   0.489   2.636  10.284 -0.7190  0.2202  0.2089
  142TMC2    C3 2208   0.548   2.713  10.199  0.5026  0.1128  1.0250
  142TMC2    C4 2209   0.636   2.721  10.446 -0.3431 -0.5552 -0.0708
  142TMC2    C5 2210   0.701   2.797  10.353  1.3718  0.2212  0.4687
  142TMC2    C6 2211   0.655   2.787  10.227 -0.2748 -0.8633 -0.0134
  142TMC2     C 2212   0.488   2.536  10.502  0.5028 -0.0042 -0.6741
  142TMC2     O 2213   0.456   2.442  10.431 -0.2509 -0.1509 -0.2472
  142TMC2     H 2214   0.410   2.570  10.251  0.1922 -1.7848  2.0741
  142TMC2    H1 2215   0.670   2.722  10.549 -2.1344 -2.9262  0.5304
  142TMC2    H2 2216   0.681   2.855  10.147  0.0823 -0.7473  0.2056
  142TMC2    C7 2217   0.761   2.927  10.392 -0.5850 -0.3520 -0.1127
  142TMC2    C8 2218   0.504   2.728  10.058 -0.0095 -0.5093  0.0956
  142TMC2    O1 2219   0.753   2.955  10.508  0.6143 -0.6842 -0.4327
  142TMC2    O2 2220   0.486   2.840  10.013 -0.5779 -0.1825 -0.1713
  142TMC2    O5 2221   0.590   2.639  10.006 -0.5601  0.5380  0.0370
  142TMC2    H5 2222   0.605   2.574  10.078 -2.4997 -0.6213 -0.6015
  143MPD2     C 2223   0.403   2.346  10.972 -0.0809  0.6336  0.0502
  143MPD2    C1 2224   0.379   2.295  10.851  0.7489  0.5946 -0.6665
  143MPD2    C2 2225   0.405   2.369  10.738 -0.5830 -0.1452 -0.4819
  143MPD2    C3 2226   0.462   2.490  10.750 -0.6387  0.1971  0.3324
  143MPD2    C4 2227   0.482   2.545  10.870  0.7635  0.0281 -0.4503
  143MPD2    C5 2228   0.448   2.476  10.981  0.8925  0.0740 -0.8210
  143MPD2     H 2229   0.371   2.330  10.643 -1.4747  0.4035 -0.3856
  143MPD2    H1 2230   0.536   2.638  10.883 -0.0264  0.8674 -3.2031
  143MPD2    H2 2231   0.374   2.291  11.061  0.2637 -2.5544 -1.8497
  143MPD2    H3 2232   0.472   2.529  11.073  0.3140  0.3392 -0.8233
  143MPD2     N 2233   0.489   2.570  10.635 -0.5455 -0.0617  0.1125
  143MPD2    H5 2234   0.528   2.660  10.663  2.5768 -1.1904 -0.5958
  143MPD2    N1 2235   0.316   2.175  10.851  0.6249  0.1516  0.1000
  143MPD2    H7 2236   0.308   2.140  10.946  0.6436 -1.0409 -0.3366
  144TMC2    C1 2237   4.184   0.968   0.458 -0.0568  0.4491  0.0828
  144TMC2    C2 2238   4.283   0.889   0.407 -0.3316  0.2181  0.3596
  144TMC2    C3 2239   4.393   0.863   0.485  0.2680 -0.1521  0.4329
  144TMC2    C4 2240   4.188   1.022   0.588  0.0052  0.1565  0.3995
  144TMC2    C5 2241   4.301   0.992   0.656 -0.0075  0.3880 -0.1198
  144TMC2    C6 2242   4.401   0.915   0.614 -0.0408 -0.5411  0.0907
  144TMC2     C 2243   4.056   0.961   0.391 -0.6656 -0.1402  0.3343
  144TMC2     O 2244   4.067   0.926   0.274 -0.2764 -0.4710 -0.5261
  144TMC2     H 2245   4.288   0.838   0.312 -0.1142 -0.5916  0.8039
  144TMC2    H1 2246   4.106   1.073   0.637  0.0967 -0.7590  1.5198
  144TMC2    H2 2247   4.490   0.899   0.673 -0.6101  0.1981  1.1315
  144TMC2    C7 2248   4.316   1.042   0.791 -0.4249 -0.1260  0.3156
  144TMC2    C8 2249   4.489   0.758   0.442 -0.0601  0.7495  0.3239
  144TMC2    O1 2250   4.389   0.992   0.874 -0.0547  0.0721  0.1402
  144TMC2    O2 2251   4.505   0.664   0.518  0.2466 -0.5823 -0.3608
  144TMC2    O5 2252   4.589   0.824   0.382  0.8929 -0.2186 -0.2597
  144TMC2    H5 2253   4.562   0.916   0.359  1.9045 -0.0313 -0.7064
  145MPD2     C 2254   3.560   1.056   0.369  0.6665 -0.0810  0.0462
  145MPD2    C1 2255   3.649   1.026   0.268  0.4585 -0.2944  0.1336
  145MPD2    C2 2256   3.777   1.013   0.310 -0.2024 -1.1817 -0.8807
  145MPD2    C3 2257   3.818   1.013   0.440  0.8622  0.1586  0.6667
  145MPD2    C4 2258   3.725   1.030   0.536  0.4171  0.3388  0.0242
  145MPD2    C5 2259   3.592   1.059   0.501 -0.6049  0.4811  0.3422
  145MPD2     H 2260   3.848   1.006   0.228 -1.5817  1.1807 -2.2527
  145MPD2    H1 2261   3.751   1.034   0.641 -1.6503 -1.8877  0.6396
  145MPD2    H2 2262   3.456   1.073   0.346  1.0296  1.5211 -0.3830
  145MPD2    H3 2263   3.509   1.058   0.571  0.7862 -1.1426  1.9810
  145MPD2     N 2264   3.952   0.988   0.476  0.7498  1.0779 -0.8943
  145MPD2    H5 2265   3.971   0.991   0.576  0.2179 -0.0744 -0.7581
  145MPD2    N1 2266   3.623   1.017   0.129 -0.2687  0.0853  0.3467
  145MPD2    H7 2267   3.701   0.997   0.067 -1.2594 -1.0561 -0.5258
  146TMC2    C1 2268   0.765   0.329  12.166  0.0922  0.6294 -0.6664
  146TMC2    C2 2269   0.721   0.342  12.039 -0.0850 -0.3143 -0.0910
  146TMC2    C3 2270   0.797   0.305  11.934  0.0508 -0.4404 -0.4103
  146TMC2    C4 2271   0.876   0.261  12.193 -0.5417 -0.0537 -0.2414
  146TMC2    C5 2272   0.946   0.216  12.084  0.1698 -0.0458  0.3777
  146TMC2    C6 2273   0.915   0.244  11.954  0.5152  0.1500  0.2009
  146TMC2     C 2274   0.663   0.348  12.265 -0.0352  0.7828 -0.7312
  146TMC2     O 2275   0.562   0.401  12.224 -0.7341  0.3431  0.4567
  146TMC2     H 2276   0.623   0.381  12.016 -1.2978 -0.8971  3.9880
  146TMC2    H1 2277   0.908   0.242  12.295  0.4339  0.8230 -0.3794
  146TMC2    H2 2278   0.979   0.208  11.874  0.1413  0.4974 -0.2526
  146TMC2    C7 2279   1.066   0.127  12.104 -0.1082  0.5183  0.5500
  146TMC2    C8 2280   0.730   0.292  11.809  0.0817 -0.6302 -0.0057
  146TMC2    O1 2281   1.151   0.111  12.016 -0.1158  0.0250 -0.9673
  146TMC2    O2 2282   0.634   0.217  11.795 -0.5703  0.2641 -0.2533
  146TMC2    O5 2283   0.836   0.294  11.719  0.0838 -0.5142  0.0830
  146TMC2    H5 2284   0.900   0.356  11.760 -2.9790  1.5696  1.6300
  147MPD2     C 2285   1.368   4.580  12.420  0.6806 -0.1091 -0.6290
  147MPD2    C1 2286   1.254   4.603  12.494 -0.1497 -0.2716  0.0005
  147MPD2    C2 2287   1.156   4.681  12.428 -0.5639  0.5837  0.0381
  147MPD2    C3 2288   1.172   4.730  12.299  0.2969  0.2139  0.0883
  147MPD2    C4 2289   1.293   4.721  12.237 -0.0781  0.5413  0.4924
  147MPD2    C5 2290   1.389   4.644  12.298  0.2682  0.0116  0.6456
  147MPD2     H 2291   1.061   4.692  12.479 -1.5858  0.4244 -1.7947
  147MPD2    H1 2292   1.319   0.045  12.151 -1.7714 -1.2700 -1.2746
  147MPD2    H2 2293   1.447   4.517  12.459  0.1034 -1.9027 -2.3618
  147MPD2    H3 2294   1.485   4.636  12.249 -0.8170  0.5405 -1.5516
  147MPD2     N 2295   1.073   0.075  12.234 -0.0559  0.1314  0.5409
  147MPD2    H5 2296   0.988   0.084  12.290 -0.3304  2.3199 -0.2518
  147MPD2    N1 2297   1.246   4.549  12.627 -0.5503 -0.4246 -0.6031
  147MPD2    H7 2298   1.324   4.491  12.654 -0.8999 -0.0016  1.2881
  148TMC2    C1 2299   0.260   4.077  10.135  0.2427  0.4506  0.2343
  148TMC2    C2 2300   0.379   4.137  10.130  0.2008  0.1725 -0.4781
  148TMC2    C3 2301   0.480   4.090  10.218  0.0243  0.3197 -0.1367
  148TMC2    C4 2302   0.238   3.982  10.231  0.6684 -0.3463  0.2346
  148TMC2    C5 2303   0.343   3.932  10.300 -0.3333  0.4178 -0.0688
  148TMC2    C6 2304   0.468   3.982  10.300  0.0977  0.0957 -0.2651
  148TMC2     C 2305   0.148   4.141  10.066  0.7179 -0.4315  0.0251
  148TMC2     O 2306   0.146   4.262  10.055  0.0599  0.1776  0.2308
  148TMC2     H 2307   0.401   4.201  10.046 -0.6230 -2.0303 -2.3763
  148TMC2    H1 2308   0.148   3.923  10.232 -0.2387  1.0507  0.9379
  148TMC2    H2 2309   0.550   3.930  10.346 -0.7391 -1.7357 -0.8549
  148TMC2    C7 2310   0.311   3.823  10.396  0.2232 -0.5423 -0.2221
  148TMC2    C8 2311   0.626   4.112  10.189 -0.4899  0.4628  0.5428
  148TMC2    O1 2312   0.220   3.746  10.373 -0.0279  0.0019  0.0798
  148TMC2    O2 2313   0.722   4.045  10.228 -0.3905 -0.2161  0.1566
  148TMC2    O5 2314   0.635   4.237  10.139  0.4625  0.3048  0.4169
  148TMC2    H5 2315   0.553   4.287  10.159  0.9632  1.0253  0.6834
  149MPD2     C 2316   4.604   4.198  10.005  0.3889  0.7008 -0.9856
  149MPD2    C1 2317   4.659   4.074   9.982 -0.6888 -0.2357  0.2373
  149MPD2    C2 2318   4.570   3.975   9.937 -0.1754 -0.1873  0.6347
  149MPD2    C3 2319   4.432   4.003   9.916  0.0718  0.2920 -0.6625
  149MPD2    C4 2320   4.390   4.136   9.936 -0.3686  0.0049  0.0281
  149MPD2    C5 2321   4.473   4.231   9.979 -0.5188 -0.2313 -0.2893
  149MPD2     H 2322   4.610   3.875   9.936 -0.9679 -0.4824 -1.2425
  149MPD2    H1 2323   4.286   4.161   9.921  0.7253  1.6872 -4.5881
  149MPD2    H2 2324   4.651   4.275  10.066  3.2151 -1.3829 -0.5695
  149MPD2    H3 2325   4.426   4.319  10.021  0.5032  0.8808 -1.4858
  149MPD2     N 2326   4.328   3.907   9.900  0.3110  0.5961 -0.2198
  149MPD2    H5 2327   4.232   3.938   9.911 -0.2527 -0.3966 -2.2893
  149MPD2    N1 2328   0.053   4.044  10.032 -0.0811  0.0260 -0.3330
  149MPD2    H7 2329   0.071   3.944  10.031  0.5645  0.1423 -0.3502
  150TMC2    C1 2330   2.366   3.076  12.405 -0.6667 -0.6224 -0.2656
  150TMC2    C2 2331   2.308   3.194  12.364  0.4354  0.5332 -0.0086
  150TMC2    C3 2332   2.385   3.302  12.368 -0.0325 -0.3401  0.4398
  150TMC2    C4 2333   2.497   3.077  12.450  0.1839  0.8689 -0.5888
  150TMC2    C5 2334   2.569   3.195  12.446 -0.0162 -0.0626 -0.3662
  150TMC2    C6 2335   2.511   3.313  12.413  1.0757  0.3390 -0.1270
  150TMC2     C 2336   2.313   2.948  12.359 -0.1587  0.0373 -0.1755
  150TMC2     O 2337   2.378   2.847  12.390 -0.5717 -0.8131 -0.5529
  150TMC2     H 2338   2.202   3.206  12.345  0.7632 -0.2429 -2.2881
  150TMC2    H1 2339   2.540   2.986  12.492 -0.2221  1.7830  1.8331
  150TMC2    H2 2340   2.564   3.407  12.404  0.8495  0.2910 -2.1479
  150TMC2    C7 2341   2.710   3.194  12.445 -0.0635  0.5151 -0.1864
  150TMC2    C8 2342   2.320   3.424  12.321 -0.1558 -0.3079  0.6332
  150TMC2    O1 2343   2.763   3.290  12.388  0.3541 -0.3487 -0.3011
  150TMC2    O2 2344   2.253   3.423  12.219 -0.4928 -0.1899  0.6025
  150TMC2    O5 2345   2.279   3.486  12.436  0.5103  0.3560 -0.5241
  150TMC2    H5 2346   2.314   3.433  12.511 -1.5575  1.6764  1.3754
  151MPD2     C 2347   2.071   2.686  11.992 -0.6709 -0.1863 -0.6693
  151MPD2    C1 2348   1.992   2.799  12.024  0.1785  0.7371  0.0165
  151MPD2    C2 2349   2.042   2.885  12.116  0.8261 -0.1862  0.0377
  151MPD2    C3 2350   2.167   2.863  12.178  0.7000  0.0148  1.1188
  151MPD2    C4 2351   2.234   2.747  12.150  0.7994  0.1549 -0.2116
  151MPD2    C5 2352   2.187   2.662  12.055  0.5364 -0.0559  1.1253
  151MPD2     H 2353   1.986   2.969  12.154  2.0276  1.2725 -1.4357
  151MPD2    H1 2354   2.327   2.720  12.200 -0.2118  1.2863  2.2867
  151MPD2    H2 2355   2.046   2.619  11.910  0.2000 -1.8743  0.4429
  151MPD2    H3 2356   2.236   2.567  12.036 -0.1614 -0.5370  1.7526
  151MPD2     N 2357   2.213   2.958  12.268 -0.4719  0.2189  0.1352
  151MPD2    H5 2358   2.156   3.042  12.274 -1.9700 -0.9297  1.8077
  151MPD2    N1 2359   1.882   2.841  11.948  0.2324 -0.4183  0.5911
  151MPD2    H7 2360   1.855   2.769  11.882 -0.8062 -1.5131  2.2180
  152TMC2    C1 2361   2.069   2.755  12.901  0.6791 -0.3213  0.6523
  152TMC2    C2 2362   2.118   2.631  12.903 -0.0871  0.1541 -0.3101
  152TMC2    C3 2363   2.248   2.610  12.873 -0.5097 -0.1676 -0.3923
  152TMC2    C4 2364   2.146   2.853  12.852 -0.3013  0.2881 -0.2761
  152TMC2    C5 2365   2.279   2.826  12.821  0.2572 -0.0856 -1.0700
  152TMC2    C6 2366   2.337   2.701  12.835 -0.4888  0.1478 -0.5193
  152TMC2     C 2367   1.928   2.773  12.925 -0.1283  0.3286 -0.5495
  152TMC2     O 2368   1.879   2.877  12.886 -0.2142  0.2445  0.0316
  152TMC2     H 2369   2.056   2.548  12.935 -0.2171  1.2514  2.3434
  152TMC2    H1 2370   2.103   2.953  12.844  1.3957  1.0645  0.2350
  152TMC2    H2 2371   2.437   2.671  12.807 -0.8470 -1.0376 -0.5266
  152TMC2    C7 2372   2.361   2.945  12.790 -0.6280 -0.5804 -0.1757
  152TMC2    C8 2373   2.293   2.473  12.866  0.5855  0.4934  0.0902
  152TMC2    O1 2374   2.303   3.043  12.742  0.0670  0.4143 -0.2371
  152TMC2    O2 2375   2.260   2.393  12.956  0.3146 -0.1649 -0.2752
  152TMC2    O5 2376   2.291   2.431  12.740 -0.1252  0.1612 -0.4826
  152TMC2    H5 2377   2.294   2.516  12.691  1.7592  0.1831 -0.3529
  153MPD2     C 2378   1.739   2.642  13.224  0.7478  0.0516  0.3553
  153MPD2    C1 2379   1.762   2.713  13.107 -0.1833 -0.1592  0.0173
  153MPD2    C2 2380   1.670   2.822  13.080  0.1675 -0.5175 -0.2504
  153MPD2    C3 2381   1.552   2.829  13.156  0.4333  0.0266 -0.1093
  153MPD2    C4 2382   1.528   2.747  13.264 -0.5132 -0.4643 -0.2208
  153MPD2    C5 2383   1.620   2.656  13.301 -0.2168  1.0315 -0.9019
  153MPD2     H 2384   1.666   2.886  12.992 -1.9864  0.8314  0.8275
  153MPD2    H1 2385   1.436   2.757  13.320  0.8688  0.7697  1.8212
  153MPD2    H2 2386   1.813   2.568  13.253 -1.2307 -1.7941  0.6636
  153MPD2    H3 2387   1.613   2.592  13.388 -1.2170  2.4208  0.0274
  153MPD2     N 2388   1.460   2.929  13.128  0.1050 -0.0488 -0.3958
  153MPD2    H5 2389   1.502   3.002  13.071  0.1903  0.5889  0.4956
  153MPD2    N1 2390   1.882   2.693  13.029 -0.5034 -0.8260  0.6787
  153MPD2    H7 2391   1.946   2.622  13.064  0.4208  0.4042  1.4799
  154TMC2    C1 2392   4.137   2.475   0.732 -0.9527 -0.8587  0.1775
  154TMC2    C2 2393   4.207   2.551   0.818  0.8189 -0.4460 -0.1309
  154TMC2    C3 2394   4.330   2.515   0.859  0.2316  0.4972 -0.2267
  154TMC2    C4 2395   4.189   2.353   0.680  0.0505 -0.3318  0.6273
  154TMC2    C5 2396   4.324   2.329   0.715 -0.2382 -0.1875 -0.4683
  154TMC2    C6 2397   4.394   2.411   0.792  0.8532  0.4164 -0.4514
  154TMC2     C 2398   4.004   2.522   0.695 -0.2849  0.6976 -0.2657
  154TMC2     O 2399   3.955   2.613   0.760 -0.3882  0.5998  0.0001
  154TMC2     H 2400   4.151   2.636   0.856 -0.1435 -1.4584  0.7374
  154TMC2    H1 2401   4.135   2.286   0.614  1.0536 -1.9598  1.4448
  154TMC2    H2 2402   4.498   2.388   0.810  1.2317  0.8675 -2.0320
  154TMC2    C7 2403   4.403   2.232   0.638 -0.2628 -0.6838  0.3525
  154TMC2    C8 2404   4.394   2.604   0.957 -0.4281 -0.0690  1.2073
  154TMC2    O1 2405   4.523   2.251   0.629  0.0868  0.7772  0.0629
  154TMC2    O2 2406   4.328   2.690   1.014 -0.0673  0.0443  0.0977
  154TMC2    O5 2407   4.506   2.551   1.002  0.3841 -0.2046 -0.0120
  154TMC2    H5 2408   4.563   2.502   0.939 -0.7743 -2.2908  0.5387
  155MPD2     C 2409   3.809   2.460   0.378 -0.6518 -0.4436  0.5424
  155MPD2    C1 2410   3.836   2.508   0.510  0.1899  0.5019 -0.4623
  155MPD2    C2 2411   3.736   2.584   0.571  0.0160 -1.3195 -0.4346
  155MPD2    C3 2412   3.619   2.619   0.503  0.0614  0.5541 -0.0792
  155MPD2    C4 2413   3.598   2.575   0.378  0.4587  0.0999 -0.0092
  155MPD2    C5 2414   3.692   2.495   0.317 -0.7141  0.0209 -0.0200
  155MPD2     H 2415   3.740   2.615   0.675  0.2211 -0.7045 -0.6320
  155MPD2    H1 2416   3.506   2.591   0.324  1.4863 -1.5366 -2.2477
  155MPD2    H2 2417   3.886   2.397   0.334  0.5267  0.1779  1.7266
  155MPD2    H3 2418   3.683   2.460   0.215 -0.0828  3.6704 -1.3476
  155MPD2     N 2419   3.522   2.697   0.570 -0.9579 -0.5091  0.5108
  155MPD2    H5 2420   3.538   2.717   0.668 -0.6823 -0.0738  0.3795
  155MPD2    N1 2421   3.961   2.471   0.574 -0.3299 -0.4016 -0.5486
  155MPD2    H7 2422   4.025   2.407   0.529 -0.8505 -1.4249  0.1558
  156TMC2    C1 2423   2.191   0.483  12.170  0.2898 -0.1949 -0.5516
  156TMC2    C2 2424   2.109   0.381  12.129 -0.3891 -1.1921  0.2211
  156TMC2    C3 2425   1.982   0.417  12.087  0.5644 -0.1585 -0.3093
  156TMC2    C4 2426   2.148   0.618  12.167  0.0431  0.2411 -0.3045
  156TMC2    C5 2427   2.018   0.644  12.129 -0.2468  0.0964 -0.0321
  156TMC2    C6 2428   1.933   0.541  12.092 -0.0310 -0.7976  0.1589
  156TMC2     C 2429   2.330   0.460  12.189 -0.2096 -0.0661  0.0936
  156TMC2     O 2430   2.391   0.565  12.209  0.2088 -0.1887  0.0047
  156TMC2     H 2431   2.143   0.278  12.125 -0.1644 -1.1497  1.0135
  156TMC2    H1 2432   2.213   0.694  12.209  0.9123  0.1654 -1.5322
  156TMC2    H2 2433   1.826   0.550  12.077  0.4592 -0.3874 -3.0608
  156TMC2    C7 2434   1.996   0.787  12.074 -0.2780  1.0047 -0.5714
  156TMC2    C8 2435   1.903   0.322  12.032 -0.5512  0.1521  0.2282
  156TMC2    O1 2436   2.098   0.857  12.075  0.2771  0.4390 -0.2958
  156TMC2    O2 2437   1.782   0.330  12.043 -0.3974 -1.0989 -0.6394
  156TMC2    O5 2438   1.961   0.282  11.914  0.6986  0.4631 -0.3280
  156TMC2    H5 2439   2.057   0.298  11.908  1.0668 -2.1471 -1.2888
  157MPD2     C 2440   2.562   0.171  12.143  0.3605  0.0846  0.7055
  157MPD2    C1 2441   2.519   0.304  12.171  0.6481 -0.0452 -0.0503
  157MPD2    C2 2442   2.606   0.390  12.225  0.2932 -0.2112  0.4684
  157MPD2    C3 2443   2.735   0.355  12.240 -0.0928  0.1478 -0.6312
  157MPD2    C4 2444   2.788   0.231  12.193  0.2402  0.3213  0.3629
  157MPD2    C5 2445   2.696   0.138  12.150 -0.0127 -0.5810  0.0295
  157MPD2     H 2446   2.580   0.486  12.268 -2.4671 -1.2455  1.1031
  157MPD2    H1 2447   2.895   0.215  12.185  0.4583  0.9339  2.0146
  157MPD2    H2 2448   2.504   0.086  12.110 -0.0053  0.6733 -0.1777
  157MPD2    H3 2449   2.721   0.037  12.119  0.6163 -0.3319 -0.2771
  157MPD2     N 2450   2.818   0.448  12.309  0.0250 -0.3600  0.3424
  157MPD2    H5 2451   2.780   0.530  12.356 -2.6208 -2.5365  2.0177
  157MPD2    N1 2452   2.380   0.334  12.158  0.0180 -0.3080  0.8521
  157MPD2    H7 2453   2.319   0.262  12.120  1.4347 -0.6331 -0.8133
  158TMC2    C1 2454   3.202   4.172  13.778 -0.5552  0.1191  0.0991
  158TMC2    C2 2455   3.267   4.214  13.665  0.1041  0.0648 -0.4467
  158TMC2    C3 2456   3.224   4.330  13.617 -0.4716 -0.6895 -0.2917
  158TMC2    C4 2457   3.079   4.212  13.826 -0.3875 -1.2347 -1.1450
  158TMC2    C5 2458   3.038   4.328  13.760 -0.3004 -0.4906  0.1300
  158TMC2    C6 2459   3.108   4.389  13.657 -0.2594  0.2063 -0.1698
  158TMC2     C 2460   3.254   4.046  13.821 -0.3671  0.2537 -0.2921
  158TMC2     O 2461   3.333   3.984  13.746  0.2688 -0.1456  0.3782
  158TMC2     H 2462   3.360   4.171  13.629  0.9841  1.4941  0.1026
  158TMC2    H1 2463   3.029   4.167  13.911 -0.6189  1.1116 -0.0340
  158TMC2    H2 2464   3.058   4.473  13.612 -1.8828 -0.0525  1.1679
  158TMC2    C7 2465   2.904   4.381  13.788 -0.7800  0.7463 -0.1619
  158TMC2    C8 2466   3.330   4.408  13.547  0.0767 -0.6436  0.2159
  158TMC2    O1 2467   2.869   4.480  13.727 -0.0440  0.2843  0.1880
  158TMC2    O2 2468   3.447   4.404  13.579 -0.2613  0.3462  0.2854
  158TMC2    O5 2469   3.263   4.515  13.510  0.2098 -0.3877  0.2177
  158TMC2    H5 2470   3.169   4.505  13.482 -0.0445  1.6269  0.3537
  159MPD2     C 2471   3.301   3.652  14.141 -0.2756 -0.5303  0.3871
  159MPD2    C1 2472   3.269   3.758  14.217 -0.0397 -0.2070  0.7083
  159MPD2    C2 2473   3.240   3.877  14.149  0.3121 -0.4422  0.0869
  159MPD2    C3 2474   3.261   3.889  14.008  0.9691  0.6108  0.3033
  159MPD2    C4 2475   3.305   3.774  13.945 -0.5677 -0.0302  0.1916
  159MPD2    C5 2476   3.331   3.662  14.012 -0.3030  0.4669 -0.4811
  159MPD2     H 2477   3.189   3.961  14.195  1.9693 -0.1224  1.3583
  159MPD2    H1 2478   3.332   3.768  13.840 -2.5742  3.3214 -0.5232
  159MPD2    H2 2479   3.332   3.558  14.184  1.5061 -0.5457 -0.8957
  159MPD2    H3 2480   3.374   3.574  13.965 -0.9458 -0.7262  1.1705
  159MPD2     N 2481   3.217   4.008  13.944 -1.2639  0.2194 -0.6081
  159MPD2    H5 2482   3.173   4.074  14.007  2.9110  0.3869  2.1725
  159MPD2    N1 2483   3.246   3.729  14.353 -0.3269 -0.1179 -0.0191
  159MPD2    H7 2484   3.269   3.634  14.380  1.6692  1.2841  3.1313
  160TMC2    C1 2485   2.712   2.160   2.138 -0.2202  0.1731 -0.1348
  160TMC2    C2 2486   2.739   2.086   2.255 -0.2519  0.0551 -0.6783
  160TMC2    C3 2487   2.860   2.092   2.319 -0.1584 -0.7164 -1.2587
  160TMC2    C4 2488   2.819   2.231   2.085 -0.5070 -0.2010 -0.1250
  160TMC2    C5 2489   2.938   2.219   2.152 -0.9624  0.0531 -0.3359
  160TMC2    C6 2490   2.963   2.159   2.275  0.1550 -0.0432 -0.3118
  160TMC2     C 2491   2.585   2.123   2.062  0.7491  0.2716  0.1486
  160TMC2     O 2492   2.528   2.022   2.095 -0.1994 -0.3288 -0.5460
  160TMC2     H 2493   2.656   2.031   2.298  0.4977 -1.7243 -1.5429
  160TMC2    H1 2494   2.820   2.283   1.990  2.9340  1.4606  0.8249
  160TMC2    H2 2495   3.063   2.145   2.315 -0.1284 -0.7819  0.1375
  160TMC2    C7 2496   3.042   2.315   2.117  0.6901  0.8349 -0.8053
  160TMC2    C8 2497   2.866   1.999   2.429  0.0977  0.3813 -0.7691
  160TMC2    O1 2498   3.121   2.339   2.206 -0.1714  0.4675 -0.5487
  160TMC2    O2 2499   2.784   1.914   2.447 -0.6653  0.5330  0.8159
  160TMC2    O5 2500   2.935   2.071   2.528  0.4269  0.2404  0.2932
  160TMC2    H5 2501   2.967   2.162   2.512  1.4663 -0.0898  0.5153
  161MPD2     C 2502   2.366   2.066   1.876 -0.2195  0.5039  0.4045
  161MPD2    C1 2503   2.445   2.183   1.870  0.2148 -0.5516  0.4205
  161MPD2    C2 2504   2.416   2.274   1.765 -0.8991 -0.3019  0.3486
  161MPD2    C3 2505   2.314   2.244   1.670 -0.1059 -0.0222  0.1269
  161MPD2    C4 2506   2.241   2.129   1.691  0.4436  0.4114  0.0539
  161MPD2    C5 2507   2.259   2.045   1.795 -0.0286  0.2909  0.2739
  161MPD2     H 2508   2.475   2.364   1.753  0.0281 -1.1318 -1.3122
  161MPD2    H1 2509   2.154   2.104   1.631 -0.1534  1.4366  0.4910
  161MPD2    H2 2510   2.393   1.983   1.940 -1.7551 -0.1890  0.1419
  161MPD2    H3 2511   2.199   1.955   1.801 -0.0225  0.3246  0.8441
  161MPD2     N 2512   2.277   2.335   1.569 -0.3244 -0.2995  0.2370
  161MPD2    H5 2513   2.203   2.304   1.507 -0.6489  0.9888 -0.0077
  161MPD2    N1 2514   2.556   2.206   1.959  0.2945 -0.0697 -0.9910
  161MPD2    H7 2515   2.618   2.284   1.939  1.7113 -0.7553  0.7254
  162TMC2    C1 2516   0.755   3.958   1.273  0.1519 -0.2958  0.0592
  162TMC2    C2 2517   0.633   4.002   1.314 -0.0701 -0.2731 -0.1348
  162TMC2    C3 2518   0.626   4.040   1.442  0.0663  0.0618 -0.2912
  162TMC2    C4 2519   0.862   3.939   1.358 -0.4113  0.6514 -0.7445
  162TMC2    C5 2520   0.841   3.961   1.494 -0.1014  0.3968 -0.8589
  162TMC2    C6 2521   0.726   4.027   1.537  0.6436  0.2196  0.2310
  162TMC2     C 2522   0.783   3.937   1.131 -0.4710  0.1680 -0.5705
  162TMC2     O 2523   0.873   3.859   1.106 -0.4713  0.0021  0.4051
  162TMC2     H 2524   0.547   3.998   1.248 -0.3913  0.9320  0.2096
  162TMC2    H1 2525   0.944   3.879   1.321  0.3842  1.9253 -1.0453
  162TMC2    H2 2526   0.714   4.048   1.643  0.0079  2.1834 -0.2389
  162TMC2    C7 2527   0.931   3.912   1.597  0.9502  0.1441  0.3743
  162TMC2    C8 2528   0.503   4.092   1.495  0.0185 -0.2724  0.1712
  162TMC2    O1 2529   0.926   3.959   1.711  0.5441 -0.0507  0.0175
  162TMC2    O2 2530   0.505   4.157   1.600 -0.1355 -0.5398 -0.2293
  162TMC2    O5 2531   0.397   4.031   1.442  0.1466 -0.3660  0.5981
  162TMC2    H5 2532   0.421   3.963   1.377  1.1272 -1.9346  2.5954
  163MPD2     C 2533   0.707   4.022   0.640 -0.0878 -1.3597 -0.2137
  163MPD2    C1 2534   0.773   3.917   0.696 -0.7667  0.3960 -0.7488
  163MPD2    C2 2535   0.783   3.914   0.837 -0.0561 -0.2927 -0.2898
  163MPD2    C3 2536   0.715   4.012   0.909  0.2236 -0.2194  0.1065
  163MPD2    C4 2537   0.654   4.120   0.845  0.1117  0.4545 -0.0297
  163MPD2    C5 2538   0.650   4.122   0.714 -0.3415 -0.1286  0.1817
  163MPD2     H 2539   0.822   3.828   0.890 -2.9425 -1.3226  0.1322
  163MPD2    H1 2540   0.618   4.203   0.905  0.7080 -0.1705  1.1878
  163MPD2    H2 2541   0.692   4.022   0.532 -0.3377 -0.0683 -0.1875
  163MPD2    H3 2542   0.595   4.198   0.659  0.0870  0.7713  0.9977
  163MPD2     N 2543   0.709   4.018   1.052  0.4009  1.0991  0.4009
  163MPD2    H5 2544   0.642   4.082   1.093 -0.1844  0.4488  0.4472
  163MPD2    N1 2545   0.834   3.829   0.604 -0.0370  0.0611  0.5392
  163MPD2    H7 2546   0.812   3.842   0.506 -1.9923 -0.1334  0.9430
  164TMC2    C1 2547   1.072   3.871  11.125  0.4800  0.2077 -0.0994
  164TMC2    C2 2548   1.162   3.955  11.063 -0.0038  0.6012 -0.0656
  164TMC2    C3 2549   1.133   4.091  11.047 -0.9845 -0.3667  0.0385
  164TMC2    C4 2550   0.968   3.925  11.185 -0.2224 -0.0723  0.6051
  164TMC2    C5 2551   0.957   4.058  11.191  0.1488  0.7303 -0.6227
  164TMC2    C6 2552   1.030   4.143  11.115 -0.0182 -0.2666 -0.4937
  164TMC2     C 2553   1.082   3.727  11.121  0.1442  0.1113 -0.6096
  164TMC2     O 2554   1.009   3.663  11.198  0.0251 -0.5221 -0.1248
  164TMC2     H 2555   1.261   3.928  11.026 -0.1388 -2.6959  2.0547
  164TMC2    H1 2556   0.889   3.857  11.217  0.3013 -0.9496  0.0479
  164TMC2    H2 2557   0.995   4.246  11.120 -0.2139 -0.2269 -3.1781
  164TMC2    C7 2558   0.827   4.111  11.232  0.3174  0.3689 -0.5180
  164TMC2    C8 2559   1.229   4.178  10.990 -0.3631  0.1036  0.0321
  164TMC2    O1 2560   0.772   4.192  11.159 -0.1953 -0.0243  0.2163
  164TMC2    O2 2561   1.347   4.143  10.977  0.4875  0.0441  0.3271
  164TMC2    O5 2562   1.156   4.246  10.900 -0.2728  0.6356 -0.1240
  164TMC2    H5 2563   1.062   4.223  10.890  0.1411 -0.7066 -0.9766
  165TMC2    C1 2564   1.948   1.320   1.017 -0.3249  0.4649  0.8015
  165TMC2    C2 2565   1.852   1.401   1.073 -0.1199  0.2304 -0.3986
  165TMC2    C3 2566   1.893   1.498   1.160  0.2529  0.2123 -0.3525
  165TMC2    C4 2567   2.078   1.330   1.053  0.0863 -0.3464  0.1886
  165TMC2    C5 2568   2.111   1.426   1.143  0.2558  0.2072 -0.1283
  165TMC2    C6 2569   2.023   1.512   1.199 -0.1329 -0.0761 -0.3958
  165TMC2     C 2570   1.913   1.186   0.983  0.2006 -0.1245 -0.3985
  165TMC2     O 2571   1.984   1.091   1.010 -0.3159  0.4215  0.3279
  165TMC2     H 2572   1.747   1.405   1.047 -1.1043 -0.7204  3.4993
  165TMC2    H1 2573   2.154   1.260   1.019 -1.6459 -0.9787 -2.2917
  165TMC2    H2 2574   2.059   1.604   1.243  2.0630 -1.4347  0.6482
  165TMC2    C7 2575   2.242   1.415   1.200  0.7043  0.8245  0.0325
  165TMC2    C8 2576   1.816   1.617   1.179  0.4763 -0.1794  0.0809
  165TMC2    O1 2577   2.322   1.347   1.140  0.0724 -0.0656 -0.0642
  165TMC2    O2 2578   1.711   1.635   1.128  0.1907  0.0212  0.3908
  165TMC2    O5 2579   1.844   1.655   1.310 -0.0060 -0.0118  0.3010
  165TMC2    H5 2580   1.911   1.600   1.356 -0.3470  0.2319  1.0993
  166MPD2     C 2581   1.568   0.855   0.813 -0.3080 -0.7540  0.2068
  166MPD2    C1 2582   1.688   0.832   0.872  0.8639  0.0308 -0.8328
  166MPD2    C2 2583   1.770   0.935   0.900  0.7335 -0.4611  0.2860
  166MPD2    C3 2584   1.722   1.069   0.882  0.3577 -0.4802 -0.2534
  166MPD2    C4 2585   1.604   1.091   0.819 -0.4978 -0.2482 -0.0919
  166MPD2    C5 2586   1.526   0.980   0.790 -0.3297  0.4077 -0.3539
  166MPD2     H 2587   1.864   0.915   0.951  0.0211 -1.4796  1.2097
  166MPD2    H1 2588   1.557   1.188   0.801 -2.5060 -0.9081  1.5065
  166MPD2    H2 2589   1.503   0.770   0.794 -0.1337 -0.9953  0.6813
  166MPD2    H3 2590   1.429   0.993   0.744 -0.0454  2.4974 -0.3564
  166MPD2     N 2591   1.794   1.182   0.916  0.0710 -0.3070  0.6065
  166MPD2    H5 2592   1.745   1.267   0.887 -0.0016 -0.5328  0.0596
  166MPD2    N1 2593   1.715   0.696   0.921  0.0710 -0.2360  1.1121
  166MPD2    H7 2594   1.640   0.628   0.921 -0.7709  0.6615 -2.7276
  167TMC2    C1 2595   0.341   3.714  13.139  0.0707 -0.0656 -0.1124
  167TMC2    C2 2596   0.297   3.736  13.268  0.1607  0.3517 -0.2472
  167TMC2    C3 2597   0.283   3.633  13.354 -0.1088 -0.6695 -0.6059
  167TMC2    C4 2598   0.378   3.589  13.100  0.1843  0.1260 -0.3967
  167TMC2    C5 2599   0.354   3.483  13.183  0.4737 -0.0271 -0.5681
  167TMC2    C6 2600   0.307   3.502  13.313 -0.1092  0.0177 -0.9568
  167TMC2     C 2601   0.351   3.825  13.042 -0.2431 -0.0022 -0.3879
  167TMC2     O 2602   0.379   3.935  13.093  0.2270 -0.4558 -0.6369
  167TMC2     H 2603   0.278   3.838  13.298 -0.4146  0.7356 -1.9060
  167TMC2    H1 2604   0.393   3.577  12.994  0.3352  2.9540 -0.6776
  167TMC2    H2 2605   0.286   3.420  13.380  0.5901 -1.4411 -2.5413
  167TMC2    C7 2606   0.325   3.351  13.124 -0.2133 -0.1259 -0.0633
  167TMC2    C8 2607   0.234   3.659  13.485  0.0760  0.4505 -0.7863
  167TMC2    O1 2608   0.252   3.280  13.192 -0.1419  0.2208  0.3660
  167TMC2    O2 2609   0.166   3.757  13.521  0.2418 -0.3118  0.6247
  167TMC2    O5 2610   0.319   3.586  13.566  0.4774  0.3453  0.1758
  167TMC2    H5 2611   0.365   3.514  13.518  1.1402  1.5587 -0.9838
  168MPD2     C 2612   0.292   4.024  12.837  0.2540  0.1432 -0.4990
  168MPD2    C1 2613   0.301   3.893  12.808  0.9657  0.5433 -0.0939
  168MPD2    C2 2614   0.292   3.846  12.673 -0.3372  1.0093  0.5829
  168MPD2    C3 2615   0.257   3.938  12.580  0.3996  0.0116 -0.9014
  168MPD2    C4 2616   0.240   4.068  12.608  0.9345  0.5431 -0.2613
  168MPD2    C5 2617   0.261   4.113  12.736 -0.5419 -0.1748  0.7615
  168MPD2     H 2618   0.310   3.741  12.651  0.5716  1.3017 -0.0731
  168MPD2    H1 2619   0.219   4.131  12.521 -2.6717  1.2151  1.0858
  168MPD2    H2 2620   0.303   4.070  12.935  0.8334 -0.2429 -0.3850
  168MPD2    H3 2621   0.260   4.220  12.753 -0.2802 -0.1172  0.4022
  168MPD2     N 2622   0.256   3.916  12.445 -0.5239  0.2528 -0.4741
  168MPD2    H5 2623   0.223   3.997  12.393 -0.5721 -0.9156 -2.2874
  168MPD2    N1 2624   0.329   3.798  12.909  0.6735 -0.3098 -0.1809
  168MPD2    H7 2625   0.314   3.700  12.886  1.8089 -0.7487  0.9842
  169MPD1     C 2626   1.836   3.513   8.812  0.4888  0.7354 -0.2329
  169MPD1    C1 2627   1.822   3.378   8.851 -0.7100 -0.5488  0.4348
  169MPD1    C2 2628   1.930   3.342   8.936  0.1763  0.0975 -0.8119
  169MPD1    C3 2629   2.046   3.414   8.956  0.2509 -0.4734 -0.0997
  169MPD1    C4 2630   2.059   3.529   8.888 -0.2743 -0.2081 -0.6240
  169MPD1    C5 2631   1.954   3.584   8.822  0.7423  0.5655  0.2244
  169MPD1     H 2632   1.916   3.249   8.990  0.5470  1.2670  1.2908
  169MPD1    H1 2633   2.146   3.591   8.905  0.4440 -1.0034 -1.3303
  169MPD1    H2 2634   1.761   3.557   8.747  0.2297  0.4317 -0.1415
  169MPD1    H3 2635   1.961   3.679   8.770 -2.5540  0.1813 -0.8984
  169MPD1     N 2636   2.140   3.371   9.054 -0.2559  0.2395  0.2796
  169MPD1    H5 2637   2.111   3.282   9.094 -1.5688  0.7490  0.4665
  169MPD1    N1 2638   1.698   3.327   8.850  0.0935 -0.5047 -0.0061
  169MPD1    H6 2639   1.638   3.365   8.777  1.2109  1.0805 -0.1028
  169MPD1    H7 2640   1.698   3.225   8.847  3.0154 -0.4727 -0.8919
  170MPD1     C 2641   1.792   0.810  13.123 -1.2727 -0.4290 -0.0521
  170MPD1    C1 2642   1.824   0.872  13.240  0.0367 -0.1053  0.3861
  170MPD1    C2 2643   1.724   0.945  13.305  1.0588 -0.1636 -0.5531
  170MPD1    C3 2644   1.591   0.939  13.274 -0.5157  0.0504 -0.1994
  170MPD1    C4 2645   1.565   0.873  13.157 -0.0908  0.1331 -0.7931
  170MPD1    C5 2646   1.660   0.802  13.085  0.1399  0.5914 -0.2914
  170MPD1     H 2647   1.752   1.003  13.392 -0.8954  2.7344 -1.8760
  170MPD1    H1 2648   1.464   0.856  13.121  0.0230  0.6631 -1.3562
  170MPD1    H2 2649   1.865   0.751  13.069  0.5026  0.5735  1.2469
  170MPD1    H3 2650   1.641   0.729  13.008 -1.2508  1.7233 -1.0267
  170MPD1     N 2651   1.501   1.017  13.344  0.5411  0.8176  0.1128
  170MPD1    H5 2652   1.527   1.050  13.436  0.9327  1.0348 -0.0777
  170MPD1    N1 2653   1.961   0.893  13.277 -0.0994  0.4589 -0.0750
  170MPD1    H6 2654   1.959   0.937  13.369  0.5672  0.7512 -0.2006
  170MPD1    H7 2655   2.015   0.807  13.272 -2.1136 -0.7666 -1.0534
  171MPD1     C 2656   4.096   2.141  15.776 -0.9717 -0.0222  0.0018
  171MPD1    C1 2657   4.092   2.011  15.727 -0.4658 -0.0978  0.1309
  171MPD1    C2 2658   4.212   1.937  15.732 -0.1069 -0.2451  0.5784
  171MPD1    C3 2659   4.324   1.977  15.814  0.2272  0.0245 -0.7797
  171MPD1    C4 2660   4.317   2.107  15.862 -0.1880  0.0268 -0.2562
  171MPD1    C5 2661   4.209   2.185  15.836  0.9791 -0.4037 -0.2149
  171MPD1     H 2662   4.216   1.840  15.683  0.9588 -0.2138  0.5938
  171MPD1    H1 2663   4.401   2.142  15.921 -0.1834 -1.3759  0.5582
  171MPD1    H2 2664   4.018   2.215  15.759 -0.3837  0.2997 -1.3548
  171MPD1    H3 2665   4.212   2.289  15.869  1.3714 -0.2634 -0.6875
  171MPD1     N 2666   4.441   1.899  15.840  0.0144 -0.5734 -0.3817
  171MPD1    H5 2667   4.510   1.948  15.896 -0.1251  1.8335 -2.3422
  171MPD1    N1 2668   3.977   1.963  15.670  0.0068 -0.1907 -0.7138
  171MPD1    H6 2669   3.954   1.866  15.688  1.4333 -0.1665  1.2872
  171MPD1    H7 2670   3.892   2.017  15.681 -0.2053 -1.0040  1.6991
  172MPD1     C 2671   3.757   1.259  17.554 -0.0799 -0.0894 -0.4680
  172MPD1    C1 2672   3.666   1.330  17.623  0.1725  0.1204  0.1967
  172MPD1    C2 2673   3.692   1.354   0.017 -0.1679 -0.0270  0.6135
  172MPD1    C3 2674   3.803   1.295   0.078  0.1780 -0.2294  0.3065
  172MPD1    C4 2675   3.881   1.212   0.004 -0.1065  0.3113  0.0249
  172MPD1    C5 2676   3.863   1.197  17.617  0.1721  0.2617  0.4570
  172MPD1     H 2677   3.622   1.423   0.064 -0.2196 -1.3533  2.4719
  172MPD1    H1 2678   3.964   1.152   0.040 -0.3021  0.3266  0.5028
  172MPD1    H2 2679   3.751   1.245  17.447 -1.1118 -0.0445 -0.4079
  172MPD1    H3 2680   3.934   1.141  17.556 -0.2610 -1.7332  1.8046
  172MPD1     N 2681   3.851   1.328   0.208 -0.0685 -0.4892  0.0407
  172MPD1    H5 2682   3.939   1.285   0.234  1.3839  1.7815 -1.0125
  172MPD1    N1 2683   3.569   1.399  17.550 -0.1747  0.1489  0.4705
  172MPD1    H6 2684   3.489   1.422  17.610 -0.5992 -1.8728  0.7019
  172MPD1    H7 2685   3.543   1.341  17.471  0.2046  1.8500 -0.8915
  173MPD1     C 2686   0.628   1.564  13.685 -0.7546 -0.2607  0.5097
  173MPD1    C1 2687   0.533   1.584  13.773  0.0529  0.2468 -0.3609
  173MPD1    C2 2688   0.549   1.541  13.901 -0.7939 -0.6485 -0.4895
  173MPD1    C3 2689   0.651   1.450  13.932 -0.2186 -0.7063  0.3107
  173MPD1    C4 2690   0.745   1.424  13.831  0.6187 -0.9230  0.0645
  173MPD1    C5 2691   0.736   1.482  13.709 -0.1107 -0.2557  1.1021
  173MPD1     H 2692   0.469   1.551  13.974  0.7979  1.5225  0.9386
  173MPD1    H1 2693   0.825   1.352  13.848  1.1038 -0.1135  1.1813
  173MPD1    H2 2694   0.628   1.602  13.584 -0.3978 -1.2672  0.1260
  173MPD1    H3 2695   0.800   1.454  13.626 -0.7159  0.3296  0.4474
  173MPD1     N 2696   0.673   1.402  14.068  0.1399  0.3199 -0.0559
  173MPD1    H5 2697   0.621   1.442  14.145  2.1804  2.3688  0.2596
  173MPD1    N1 2698   0.420   1.660  13.747 -0.4290 -0.3379  0.3885
  173MPD1    H6 2699   0.402   1.669  13.647 -0.5593  1.1442  0.5457
  173MPD1    H7 2700   0.338   1.633  13.802 -1.5832 -4.9928 -3.6949
  174MPD1     C 2701   1.328   0.978  14.697 -0.5152 -0.1407  0.5188
  174MPD1    C1 2702   1.206   0.919  14.723 -0.0129 -0.3150  0.4089
  174MPD1    C2 2703   1.097   0.951  14.646 -0.1519  0.6159 -0.1725
  174MPD1    C3 2704   1.111   1.046  14.552 -0.3272 -0.2997 -0.1151
  174MPD1    C4 2705   1.231   1.116  14.532  0.0292  0.3138 -0.2537
  174MPD1    C5 2706   1.345   1.075  14.602 -0.1555  0.5831 -0.4257
  174MPD1     H 2707   1.002   0.902  14.664 -0.8155  2.0155  0.1586
  174MPD1    H1 2708   1.242   1.193  14.456 -2.0369  0.2103 -0.6518
  174MPD1    H2 2709   1.424   0.961  14.746 -0.6795 -2.1036  0.1875
  174MPD1    H3 2710   1.440   1.119  14.574  0.4851 -0.9378 -0.6692
  174MPD1     N 2711   1.001   1.085  14.470  0.3337 -0.9177  0.2328
  174MPD1    H5 2712   1.021   1.146  14.392  0.7151  0.8316  1.6965
  174MPD1    N1 2713   1.196   0.805  14.813 -0.1486 -0.0415  0.4543
  174MPD1    H6 2714   1.273   0.802  14.879 -0.5712 -0.2782  0.9307
  174MPD1    H7 2715   1.109   0.824  14.862  0.3793 -2.7138  2.3818
  175MPD1     C 2716   3.624   1.736  15.421 -0.1430  0.0318 -0.1890
  175MPD1    C1 2717   3.503   1.685  15.467  0.4756  0.3390  0.4041
  175MPD1    C2 2718   3.477   1.682  15.602 -0.1891 -0.1089 -0.0303
  175MPD1    C3 2719   3.569   1.734  15.693 -0.5453 -0.5197  0.7355
  175MPD1    C4 2720   3.684   1.791  15.642  0.8046 -0.5348  0.0610
  175MPD1    C5 2721   3.710   1.792  15.512  0.1140  0.1368 -1.1341
  175MPD1     H 2722   3.386   1.631  15.631 -0.2857  1.3005  2.1957
  175MPD1    H1 2723   3.754   1.835  15.712  0.8161 -1.8582  0.8767
  175MPD1    H2 2724   3.647   1.745  15.316  2.0189 -1.4127  0.1700
  175MPD1    H3 2725   3.787   1.859  15.475  0.0232  1.2963  0.7713
  175MPD1     N 2726   3.542   1.752  15.832 -0.2612  0.0363 -1.0176
  175MPD1    H5 2727   3.607   1.800  15.894 -0.2954 -0.9736 -0.2051
  175MPD1    N1 2728   3.402   1.652  15.378 -0.2971 -0.0305 -0.1407
  175MPD1    H6 2729   3.440   1.615  15.291  0.6766 -0.0071  0.2645
  175MPD1    H7 2730   3.346   1.579  15.422 -0.3205  0.5308  0.7520
  176MPD1     C 2731   4.683   4.131   0.601 -0.7221  0.5191 -0.0217
  176MPD1    C1 2732   4.673   4.144   0.466 -0.8048 -0.1448  0.1569
  176MPD1    C2 2733   0.047   4.206   0.407 -0.3614  0.2450  0.2678
  176MPD1    C3 2734   0.166   4.247   0.471 -0.0769  1.1128  0.6278
  176MPD1    C4 2735   0.170   4.215   0.604  0.0526  0.2949 -0.1438
  176MPD1    C5 2736   0.065   4.158   0.666  0.9558 -0.2836  0.7128
  176MPD1     H 2737   0.041   4.214   0.299  0.0604 -0.0982  0.2149
  176MPD1    H1 2738   0.261   4.233   0.659  0.6396  0.2484 -1.0989
  176MPD1    H2 2739   4.618   4.055   0.643 -3.5969  2.6494 -0.6947
  176MPD1    H3 2740   0.076   4.124   0.769 -2.9231  3.3145  2.3283
  176MPD1     N 2741   0.273   4.310   0.398  0.0663  0.2181  0.2898
  176MPD1    H5 2742   0.256   4.325   0.299 -1.0579 -0.9984  0.3019
  176MPD1    N1 2743   4.579   4.070   0.390 -0.1206 -0.4795  0.4972
  176MPD1    H6 2744   4.557   4.103   0.296  0.6042 -0.5463  0.3037
  176MPD1    H7 2745   4.498   4.043   0.446  0.1849  2.3106  2.2829
  177MPD1     C 2746   3.949   4.332  10.250 -0.4758  0.7321 -0.1109
  177MPD1    C1 2747   4.015   4.420  10.172 -0.4250 -0.8588 -0.4772
  177MPD1    C2 2748   3.947   4.502  10.079 -1.1355  0.3830 -1.2122
  177MPD1    C3 2749   3.805   4.486  10.068 -0.5561 -1.0030 -0.2009
  177MPD1    C4 2750   3.748   4.381  10.133  0.0270  0.6265 -0.0512
  177MPD1    C5 2751   3.814   4.304  10.222  0.1477  0.0934  0.3780
  177MPD1     H 2752   4.007   4.576  10.027  0.0221  0.7231  0.5991
  177MPD1    H1 2753   3.642   4.360  10.121 -0.0159  0.6952  0.2099
  177MPD1    H2 2754   3.999   4.270  10.323 -0.5429  1.3718  0.4790
  177MPD1    H3 2755   3.754   4.238  10.284 -2.0651  2.3847  0.6789
  177MPD1     N 2756   3.740   4.573   9.985 -0.1152 -0.5352 -0.3695
  177MPD1    H5 2757   3.793   4.647   9.941 -2.0677 -0.6235 -2.8781
  177MPD1    N1 2758   4.144   4.448  10.210  0.0993 -0.1069  0.1212
  177MPD1    H6 2759   4.200   4.495  10.139  0.3468 -2.7206 -1.3895
  177MPD1    H7 2760   4.198   4.366  10.238  0.7492 -0.1078 -1.1275
  178MPD1     C 2761   1.700   4.706   0.257  0.1083 -0.5645  0.0855
  178MPD1    C1 2762   1.637   4.624   0.167 -0.1426 -0.7715  0.6330
  178MPD1    C2 2763   1.662   4.651   0.033  0.1627  0.0239  0.1610
  178MPD1    C3 2764   1.748   0.017  17.732 -0.4530 -0.5191  0.5372
  178MPD1    C4 2765   1.809   0.090   0.082  0.5601 -0.3088 -0.0605
  178MPD1    C5 2766   1.786   0.068   0.220  0.2093  0.5624 -0.3607
  178MPD1     H 2767   1.613   4.591  17.701  1.2298 -2.4097  1.3833
  178MPD1    H1 2768   1.882   0.167   0.061  2.1881 -1.9815 -0.4916
  178MPD1    H2 2769   1.681   4.699   0.363  2.1550  0.4015  0.5188
  178MPD1    H3 2770   1.825   0.138   0.292  1.3240  0.0772 -0.4954
  178MPD1     N 2771   1.765   0.056  17.596  0.0559  0.4516 -0.0987
  178MPD1    H5 2772   1.844   0.117  17.579 -1.2422  2.2149  0.2836
  178MPD1    N1 2773   1.531   4.539   0.209 -0.1373  0.3281 -0.1605
  178MPD1    H6 2774   1.543   4.508   0.305  0.1653  1.5858  0.2065
  178MPD1    H7 2775   1.510   4.463   0.144  1.0823 -0.9042  0.9071
  179MPD1     C 2776   1.272   2.451  15.532 -0.1015 -0.9750  1.2486
  179MPD1    C1 2777   1.143   2.480  15.501 -0.0984 -0.0282  0.2400
  179MPD1    C2 2778   1.064   2.552  15.585 -0.0082 -0.2023  0.1790
  179MPD1    C3 2779   1.115   2.586  15.715  0.2297  0.2033 -0.2690
  179MPD1    C4 2780   1.238   2.551  15.754 -0.6648 -0.3197  0.2298
  179MPD1    C5 2781   1.313   2.478  15.666  0.4744 -0.0451  0.0585
  179MPD1     H 2782   0.964   2.582  15.555  0.2972  1.1417  0.5086
  179MPD1    H1 2783   1.280   2.567  15.853  1.7203  2.8257 -1.2730
  179MPD1    H2 2784   1.336   2.389  15.469  0.3218  1.3441 -0.5844
  179MPD1    H3 2785   1.407   2.443  15.707 -1.4295 -0.6799  3.9165
  179MPD1     N 2786   1.037   2.657  15.810  0.1884 -0.6160  0.1203
  179MPD1    H5 2787   1.088   2.685  15.893  1.1534 -0.5639 -0.4986
  179MPD1    N1 2788   1.103   2.457  15.373 -1.1434  0.5959  0.3095
  179MPD1    H6 2789   1.151   2.378  15.329 -0.3166  1.3323 -0.1166
  179MPD1    H7 2790   1.005   2.452  15.349 -0.6205 -0.8031 -1.5672
  180MPD1     C 2791   0.233   4.224  15.496  0.1129  0.6637  0.2357
  180MPD1    C1 2792   0.275   4.334  15.428  0.1278  0.4153 -0.4650
  180MPD1    C2 2793   0.296   4.324  15.289 -0.1729  0.1626 -0.9339
  180MPD1    C3 2794   0.263   4.212  15.216  0.8809  0.8881  0.1873
  180MPD1    C4 2795   0.207   4.108  15.286 -0.0078 -0.0196  0.4036
  180MPD1    C5 2796   0.183   4.117  15.423  0.9602  0.2844  0.0227
  180MPD1     H 2797   0.352   4.406  15.247  1.4639 -1.3679 -1.7539
  180MPD1    H1 2798   0.185   4.021  15.225  0.1175  1.1445 -1.2789
  180MPD1    H2 2799   0.209   4.235  15.601  0.0390  1.9017  0.0916
  180MPD1    H3 2800   0.141   4.036  15.480 -1.0665  1.0821 -0.3422
  180MPD1     N 2801   0.289   4.208  15.078 -0.1058  0.2131  0.3832
  180MPD1    H5 2802   0.325   4.296  15.043  0.3967  0.0558  0.5077
  180MPD1    N1 2803   0.348   4.440  15.496 -0.0057 -0.2566 -0.3781
  180MPD1    H6 2804   0.302   4.460  15.584 -0.3498 -0.3573 -0.5337
  180MPD1    H7 2805   0.355   4.528  15.444 -2.1336  0.6613  0.9094
  181MPD1     C 2806   2.260   1.620  10.709  0.6675 -0.6516  0.4077
  181MPD1    C1 2807   2.287   1.744  10.767  0.5367 -0.5337  0.4073
  181MPD1    C2 2808   2.385   1.822  10.711 -1.0872  0.2064  0.0502
  181MPD1    C3 2809   2.452   1.775  10.598 -0.0804  0.3389 -0.4984
  181MPD1    C4 2810   2.429   1.652  10.548 -0.4375 -0.5081 -0.4422
  181MPD1    C5 2811   2.333   1.572  10.604 -0.8287  0.5240  0.4129
  181MPD1     H 2812   2.400   1.923  10.748 -0.5114 -0.4308  1.5130
  181MPD1    H1 2813   2.486   1.613  10.465 -1.0152 -0.0390 -1.0562
  181MPD1    H2 2814   2.172   1.567  10.742  0.0004  0.4575  0.3813
  181MPD1    H3 2815   2.317   1.474  10.561 -0.1151  0.4416  0.3433
  181MPD1     N 2816   2.556   1.851  10.543  0.2163  0.4831 -0.2852
  181MPD1    H5 2817   2.609   1.805  10.469  0.7359 -0.8580  0.9096
  181MPD1    N1 2818   2.206   1.786  10.871 -0.0208 -0.0451 -0.2323
  181MPD1    H6 2819   2.253   1.860  10.923 -2.5494  2.1322 -1.0182
  181MPD1    H7 2820   2.166   1.721  10.938  1.0995  0.8842  1.3327
  182MPD1     C 2821   4.073   0.730   0.795 -0.3119  0.2411 -0.1261
  182MPD1    C1 2822   3.939   0.746   0.762 -0.1383  0.2762 -1.1712
  182MPD1    C2 2823   3.897   0.709   0.637 -0.9696 -0.2082 -0.2900
  182MPD1    C3 2824   3.986   0.664   0.541 -0.0678  0.0312  0.1400
  182MPD1    C4 2825   4.117   0.654   0.577 -0.1022 -0.6097  0.4201
  182MPD1    C5 2826   4.159   0.675   0.703 -0.0903  0.2157 -0.6066
  182MPD1     H 2827   3.790   0.714   0.617 -1.3862  0.0909  2.0076
  182MPD1    H1 2828   4.177   0.613   0.496  1.0054 -1.1556  1.5291
  182MPD1    H2 2829   4.105   0.756   0.896  0.2845  0.5246 -0.3889
  182MPD1    H3 2830   4.264   0.665   0.727 -0.2985  0.0198  0.2246
  182MPD1     N 2831   3.948   0.639   0.407  0.4421 -0.0067  0.6504
  182MPD1    H5 2832   4.021   0.615   0.341 -1.1389 -2.1039 -0.3287
  182MPD1    N1 2833   3.851   0.801   0.855 -0.0947  0.3163  0.6817
  182MPD1    H6 2834   3.873   0.767   0.948  0.0935 -1.1112  0.1071
  182MPD1    H7 2835   3.761   0.760   0.830  0.6265 -1.5825  1.2801
  183MPD1     C 2836   3.857   0.841   9.994 -1.0075  0.8979 -0.1339
  183MPD1    C1 2837   3.983   0.885   9.966  0.5884  0.2635  0.2528
  183MPD1    C2 2838   4.005   1.020   9.971  0.4219  0.0289 -0.0499
  183MPD1    C3 2839   3.918   1.111  10.031 -0.0428  0.2627  0.3440
  183MPD1    C4 2840   3.799   1.061  10.083 -0.2373  0.4313 -0.2728
  183MPD1    C5 2841   3.766   0.929  10.052 -0.2307 -0.4812 -0.2024
  183MPD1     H 2842   4.096   1.060   9.926  0.0286  1.1205  0.1185
  183MPD1    H1 2843   3.724   1.122  10.133  0.8517  0.0319  1.8471
  183MPD1    H2 2844   3.833   0.739   9.965 -0.7839  0.3924  1.4958
  183MPD1    H3 2845   3.674   0.893  10.097  0.0256 -0.0206  0.7041
  183MPD1     N 2846   3.961   1.245  10.041 -0.2912  0.0815  0.9651
  183MPD1    H5 2847   4.058   1.266  10.018 -0.3066 -0.5119  0.3908
  183MPD1    N1 2848   4.074   0.802   9.909  0.2337 -0.0789 -0.0860
  183MPD1    H6 2849   4.165   0.834   9.942 -0.2802  1.4574 -0.1480
  183MPD1    H7 2850   4.050   0.711   9.948 -3.2031  1.3558  1.0989
  184MPD1     C 2851   2.723   4.045  10.194 -0.3393 -0.3150  0.2034
  184MPD1    C1 2852   2.641   4.024  10.088  0.1045 -0.8699  0.2522
  184MPD1    C2 2853   2.677   4.078   9.963 -0.3646 -0.3156 -0.1342
  184MPD1    C3 2854   2.801   4.129   9.955  0.2165 -0.1493  0.0050
  184MPD1    C4 2855   2.888   4.128  10.061  0.0351 -0.0418  0.5860
  184MPD1    C5 2856   2.848   4.078  10.176 -0.0231  0.2624  0.3474
  184MPD1     H 2857   2.616   4.071   9.874 -2.3684 -0.5426  1.2593
  184MPD1    H1 2858   2.985   4.173  10.048 -0.2891  0.0739 -1.4495
  184MPD1    H2 2859   2.706   4.010  10.295 -1.4165 -1.2904 -0.3183
  184MPD1    H3 2860   2.920   4.081  10.257  0.3863 -2.0061  0.0765
  184MPD1     N 2861   2.845   4.204   9.846 -0.6888  0.3976 -0.5374
  184MPD1    H5 2862   2.932   4.255   9.864  0.6699 -1.3554 -2.1186
  184MPD1    N1 2863   2.507   3.983  10.115 -0.3166  0.0336 -0.9974
  184MPD1    H6 2864   2.515   3.928  10.200 -2.8807  2.8915  1.0535
  184MPD1    H7 2865   2.457   3.921  10.050 -1.2642 -1.4088  1.1080
  185MPD1     C 2866   2.365   4.438   8.990  0.1840 -0.3701 -0.1172
  185MPD1    C1 2867   2.464   4.534   8.981  0.1947 -0.5682 -0.0542
  185MPD1    C2 2868   2.556   4.543   9.086  0.4556  0.7595  0.4735
  185MPD1    C3 2869   2.553   4.443   9.188 -0.7374  0.0738 -0.5782
  185MPD1    C4 2870   2.455   4.347   9.179 -0.4449  0.0293 -0.5361
  185MPD1    C5 2871   2.361   4.347   9.089  0.5651 -0.6525  0.3933
  185MPD1     H 2872   2.635   4.618   9.088  2.5960 -1.4729  0.6562
  185MPD1    H1 2873   2.457   4.274   9.259 -1.4907 -0.7217 -1.1974
  185MPD1    H2 2874   2.288   4.430   8.914 -0.3953  0.8819  0.3456
  185MPD1    H3 2875   2.290   4.266   9.081  0.3717 -0.4186 -0.2414
  185MPD1     N 2876   2.647   4.427   9.301 -0.5513 -0.4253  0.0086
  185MPD1    H5 2877   2.644   4.337   9.348 -0.6361  0.4786  1.7363
  185MPD1    N1 2878   2.458   4.628   8.875 -0.5020  0.9588  0.0220
  185MPD1    H6 2879   2.541   4.683   8.851  0.5345 -0.4720  0.3151
  185MPD1    H7 2880   2.412   4.594   8.791  1.3949  1.1842 -1.1096
  186MPD1     C 2881   1.553   2.698  15.984  0.5248 -0.2457 -0.1843
  186MPD1    C1 2882   1.537   2.802  15.894 -0.1918  0.1611 -0.3603
  186MPD1    C2 2883   1.518   2.933  15.933 -0.2685 -0.5416  0.1393
  186MPD1    C3 2884   1.504   2.958  16.067  0.1982  0.7919 -0.1761
  186MPD1    C4 2885   1.511   2.855  16.153 -0.3775  0.3739  0.2493
  186MPD1    C5 2886   1.536   2.727  16.109 -0.2072 -0.2779  0.4504
  186MPD1     H 2887   1.518   3.014  15.861  0.8900 -1.5669 -1.0036
  186MPD1    H1 2888   1.495   2.875  16.258 -2.2716 -1.2017  0.2704
  186MPD1    H2 2889   1.565   2.596  15.947 -1.1104 -0.7274  0.6254
  186MPD1    H3 2890   1.542   2.648  16.182  2.2011 -0.7818 -0.2892
  186MPD1     N 2891   1.483   3.084  16.131 -0.0307  0.3288 -0.2173
  186MPD1    H5 2892   1.457   3.075  16.228  1.1068 -1.7599 -0.0836
  186MPD1    N1 2893   1.567   2.782  15.755  0.2255  0.5408  0.1377
  186MPD1    H6 2894   1.509   2.844  15.699  0.2052 -1.2498 -1.8220
  186MPD1    H7 2895   1.535   2.692  15.719  1.6324  0.7982 -1.7923
  187MPD1     C 2896   1.354   0.102   0.009 -0.4903 -0.3021  0.3317
  187MPD1    C1 2897   1.263   0.001   0.021 -0.3930  0.1616  0.8444
  187MPD1    C2 2898   1.153   0.012  17.685 -0.5141  0.4757  0.3394
  187MPD1    C3 2899   1.129   0.107  17.584  0.0975 -0.1204 -0.1025
  187MPD1    C4 2900   1.226   0.204  17.576  0.7587 -0.5382  0.3872
  187MPD1    C5 2901   1.346   0.192  17.652  0.5236  0.1285  0.5466
  187MPD1     H 2902   1.081   4.668  17.692 -0.4696  0.2827 -1.2717
  187MPD1    H1 2903   1.219   0.288  17.507 -0.6750  0.2069  1.4576
  187MPD1    H2 2904   1.438   0.119   0.076 -0.3793 -0.0740  0.1313
  187MPD1    H3 2905   1.417   0.274  17.654  1.1493 -0.3700 -1.5606
  187MPD1     N 2906   1.021   0.114  17.497  0.6803 -0.5454 -0.2272
  187MPD1    H5 2907   1.026   0.189  17.429  1.1188  1.8564  2.4231
  187MPD1    N1 2908   1.267   4.645   0.128  0.4376  0.0176  0.8378
  187MPD1    H6 2909   1.235   4.552   0.103  0.9505  0.6755 -2.2259
  187MPD1    H7 2910   1.364   4.640   0.160  0.7006 -0.2078 -0.0014
  188MPD1     C 2911   0.043   4.697  10.386 -0.5492 -0.3666  0.6221
  188MPD1    C1 2912   4.681   0.016  10.304  0.3429  0.7372 -0.7244
  188MPD1    C2 2913   4.670   4.701  10.179  0.0534  0.1739 -0.4857
  188MPD1    C3 2914   0.001   4.583  10.148  0.4991 -0.0220  0.5982
  188MPD1    C4 2915   0.089   4.528  10.232 -0.5793 -0.5543 -0.3893
  188MPD1    C5 2916   0.112   4.587  10.351  0.3168  0.3641  0.1255
  188MPD1     H 2917   4.615   0.017  10.102  0.8951  0.8425 -0.6346
  188MPD1    H1 2918   0.161   4.449  10.210  1.2835  0.3899  2.3516
  188MPD1    H2 2919   0.070   0.010  10.479 -1.8777  2.9194 -0.7155
  188MPD1    H3 2920   0.194   4.538  10.402 -0.6443 -1.3966 -0.0045
  188MPD1     N 2921   4.726   4.518  10.022  0.2541  0.1912 -0.2285
  188MPD1    H5 2922   0.064   4.457   9.991 -1.9147 -1.2697 -2.5122
  188MPD1    N1 2923   4.609   0.135  10.334 -0.1657 -0.4268 -0.5015
  188MPD1    H6 2924   4.599   0.138  10.436  0.1724 -0.2726 -0.4708
  188MPD1    H7 2925   4.517   0.139  10.292  0.6627 -0.6042 -2.3510
  189MPD1     C 2926   2.637   2.105   0.824  0.4810  0.7341 -0.6703
  189MPD1    C1 2927   2.607   2.128   0.691 -0.0657 -0.7561 -0.0939
  189MPD1    C2 2928   2.536   2.027   0.628  0.7102  0.4199 -0.0627
  189MPD1    C3 2929   2.512   1.900   0.683 -0.9926  0.3036  0.3463
  189MPD1    C4 2930   2.562   1.870   0.808  0.2250 -0.4628 -0.2293
  189MPD1    C5 2931   2.618   1.973   0.877  0.0002 -0.6437  0.6823
  189MPD1     H 2932   2.514   2.047   0.523 -1.4569 -5.0705 -0.6881
  189MPD1    H1 2933   2.542   1.777   0.859 -2.0569  1.6970  2.8436
  189MPD1    H2 2934   2.680   2.178   0.892  0.0892  1.3564 -1.0976
  189MPD1    H3 2935   2.657   1.965   0.977  1.1600  0.0218  0.2834
  189MPD1     N 2936   2.434   1.815   0.603 -0.2508  0.7087 -0.2480
  189MPD1    H5 2937   2.403   1.854   0.515 -0.5218  0.0659 -0.4302
  189MPD1    N1 2938   2.625   2.254   0.627 -0.3601  0.5836 -0.2443
  189MPD1    H6 2939   2.715   2.287   0.662 -0.6233 -0.1271  1.1323
  189MPD1    H7 2940   2.623   2.239   0.526  2.6533 -2.6773  0.1615
  190MPD1     C 2941   0.848   4.586  15.245  0.4976 -0.1665 -0.3198
  190MPD1    C1 2942   0.965   4.641  15.215 -0.4932  0.0059 -0.0364
  190MPD1    C2 2943   1.063   4.625  15.305  0.3817 -0.5550 -0.3387
  190MPD1    C3 2944   1.060   4.542  15.413 -0.4431 -0.2915 -0.1949
  190MPD1    C4 2945   0.946   4.473  15.438 -0.4633 -0.8603  0.3239
  190MPD1    C5 2946   0.836   4.498  15.356  0.0046 -0.9007 -0.7287
  190MPD1     H 2947   1.157   4.672  15.278  0.2721 -0.8942 -1.3063
  190MPD1    H1 2948   0.926   4.405  15.521 -1.4423  0.8563  1.5039
  190MPD1    H2 2949   0.760   4.598  15.184  1.0377  0.6518 -0.9255
  190MPD1    H3 2950   0.742   4.451  15.384 -0.6662  2.3564  2.5153
  190MPD1     N 2951   1.178   4.535  15.493  0.2245 -0.0377  0.4238
  190MPD1    H5 2952   1.254   4.596  15.464 -0.4301 -0.9503 -3.2460
  190MPD1    N1 2953   0.974   4.733  15.108 -0.9335 -0.1301 -0.5473
  190MPD1    H6 2954   0.917   4.706  15.028  2.2963 -1.7878 -2.2394
  190MPD1    H7 2955   1.062   0.039  15.080 -0.3169  0.0086  1.5973
  191MPD1     C 2956   0.247   1.100  13.309  0.2661 -0.2901 -0.1776
  191MPD1    C1 2957   0.304   1.182  13.219 -0.0909 -0.4452  0.0739
  191MPD1    C2 2958   0.228   1.283  13.155 -0.0601  0.4070 -0.1758
  191MPD1    C3 2959   0.095   1.297  13.186 -0.4683 -0.2774  0.7399
  191MPD1    C4 2960   0.039   1.217  13.282 -0.4895 -0.2045  1.0730
  191MPD1    C5 2961   0.115   1.118  13.343  0.5820  0.5899  0.8134
  191MPD1     H 2962   0.273   1.350  13.082 -0.5344 -1.4986 -2.2311
  191MPD1    H1 2963   4.670   1.224  13.309 -0.6035 -0.8020  0.7722
  191MPD1    H2 2964   0.300   1.015  13.351 -0.5641 -0.6744  0.0871
  191MPD1    H3 2965   0.081   1.041  13.411  2.9703 -2.6866 -1.6420
  191MPD1     N 2966   0.020   1.392  13.117  0.0228  0.2974  0.1592
  191MPD1    H5 2967   0.076   1.441  13.048 -1.7077  0.4192 -1.1680
  191MPD1    N1 2968   0.426   1.139  13.161  0.4100  0.4479 -0.3432
  191MPD1    H6 2969   0.485   1.082  13.222 -0.1102 -0.1296 -0.3878
  191MPD1    H7 2970   0.488   1.215  13.132  1.0947 -0.5940 -1.6191
  192MPD1     C 2971   3.892   2.073  13.042  0.1951  0.4750 -0.2618
  192MPD1    C1 2972   3.907   1.951  13.097 -0.2610  0.2329  0.1826
  192MPD1    C2 2973   4.022   1.879  13.073  0.1239 -0.2442 -0.7082
  192MPD1    C3 2974   4.127   1.931  13.004 -0.0284  0.4292 -0.6304
  192MPD1    C4 2975   4.130   2.066  12.979 -0.0709  0.7718  0.6784
  192MPD1    C5 2976   4.005   2.134  12.984  0.1808 -0.6378  0.6671
  192MPD1     H 2977   4.019   1.780  13.119  0.3474 -0.2332 -0.6720
  192MPD1    H1 2978   4.214   2.112  12.929  2.3466 -1.8604  2.3540
  192MPD1    H2 2979   3.797   2.125  13.054  0.6087  1.1453  0.0860
  192MPD1    H3 2980   4.006   2.238  12.953 -1.7937 -0.4149  1.3664
  192MPD1     N 2981   4.249   1.865  12.977 -0.3838 -0.1398 -0.3438
  192MPD1    H5 2982   4.319   1.918  12.926 -0.5108  0.7966  0.4685
  192MPD1    N1 2983   3.792   1.877  13.142  0.1369 -0.6399 -0.5520
  192MPD1    H6 2984   3.823   1.803  13.205  3.0396 -0.3113 -1.6251
  192MPD1    H7 2985   3.719   1.937  13.181 -0.7769 -1.1803 -1.4213
  193MPD1     C 2986   4.530   1.495  16.275 -1.0083 -0.0404 -0.5249
  193MPD1    C1 2987   4.473   1.606  16.321  0.3956 -0.8274  0.5932
  193MPD1    C2 2988   4.543   1.700  16.397 -0.8052 -0.2446 -0.4430
  193MPD1    C3 2989   4.678   1.682  16.425  0.3678  0.6076  0.0432
  193MPD1    C4 2990   4.736   1.571  16.374  0.3246  0.0437  0.4609
  193MPD1    C5 2991   4.660   1.479  16.301  0.8344  0.9847 -0.4609
  193MPD1     H 2992   4.508   1.799  16.424  1.0233 -0.3374  2.3077
  193MPD1    H1 2993   0.104   1.545  16.393  0.4276 -0.3532 -0.6764
  193MPD1    H2 2994   4.473   1.424  16.216  0.5469 -1.1692 -0.6894
  193MPD1    H3 2995   4.705   1.391  16.258 -0.7668  1.4156 -2.9962
  193MPD1     N 2996   0.026   1.774  16.493 -0.0338 -0.4960 -0.6307
  193MPD1    H5 2997   0.123   1.746  16.503 -0.1632 -0.5003  0.5527
  193MPD1    N1 2998   4.339   1.633  16.282 -0.1462 -0.3581 -0.1057
  193MPD1    H6 2999   4.282   1.682  16.350 -0.0899  0.1936 -0.4549
  193MPD1    H7 3000   4.297   1.541  16.269  1.8713 -1.2037 -0.6081
  194MPD1     C 3001   2.100   4.307  16.934  0.8482  0.2029  0.0752
  194MPD1    C1 3002   2.209   4.275  16.848 -0.1303 -0.1511  1.0122
  194MPD1    C2 3003   2.279   4.156  16.867  0.7983 -0.6229  0.2524
  194MPD1    C3 3004   2.240   4.069  16.969  0.5322  0.9227  1.1385
  194MPD1    C4 3005   2.144   4.109  17.059 -0.3287  0.1780 -0.2294
  194MPD1    C5 3006   2.071   4.227  17.040  0.2553 -0.4087  0.7322
  194MPD1     H 3007   2.356   4.140  16.792 -0.4158  2.9108 -1.7550
  194MPD1    H1 3008   2.133   4.041  17.142 -0.9832  0.1587 -0.3366
  194MPD1    H2 3009   2.038   4.394  16.915 -1.9071 -1.4606  1.5118
  194MPD1    H3 3010   2.006   4.260  17.121  0.0743  0.0681  0.3916
  194MPD1     N 3011   2.307   3.949  16.999 -0.7991  0.0917 -0.0979
  194MPD1    H5 3012   2.285   3.899  17.084  1.6381 -0.4166  0.2520
  194MPD1    N1 3013   2.246   4.367  16.751 -0.4302 -0.2064 -0.1358
  194MPD1    H6 3014   2.273   4.328  16.661  0.0841 -0.1226 -0.0151
  194MPD1    H7 3015   2.173   4.435  16.732 -1.2341 -1.4397 -1.4669
  195MPD1     C 3016   0.096   1.306   0.703  0.4003 -0.2881 -0.4835
  195MPD1    C1 3017   4.729   1.233   0.760 -0.4068  0.1607 -0.0065
  195MPD1    C2 3018   4.723   1.102   0.737  0.3745 -0.0113 -0.1945
  195MPD1    C3 3019   0.088   1.035   0.671  0.2122  0.1253  0.0763
  195MPD1    C4 3020   0.189   1.104   0.605 -0.9060 -0.7642 -0.5381
  195MPD1    C5 3021   0.192   1.239   0.626 -0.0069  0.3592  0.1663
  195MPD1     H 3022   4.636   1.050   0.774 -0.0150  0.2816 -0.6990
  195MPD1    H1 3023   0.251   1.048   0.537  2.8512  1.8427  0.7632
  195MPD1    H2 3024   0.093   1.412   0.727 -1.2735 -0.1125 -1.4480
  195MPD1    H3 3025   0.261   1.292   0.561 -1.6184  0.3216 -1.5648
  195MPD1     N 3026   0.087   0.896   0.663 -0.1856 -0.0063  0.1015
  195MPD1    H5 3027   0.146   0.864   0.587  0.9904 -0.4171  1.1886
  195MPD1    N1 3028   4.609   1.295   0.815 -0.2744 -0.3208 -0.2502
  195MPD1    H6 3029   4.627   1.388   0.852  2.9729 -1.7938  1.8142
  195MPD1    H7 3030   4.541   1.242   0.870  0.0435  0.0281  0.4619
  196MPD1     C 3031   3.801   4.158   0.550  0.8463 -0.5313 -0.7037
  196MPD1    C1 3032   3.868   4.279   0.518 -0.0669  0.4245  0.2306
  196MPD1    C2 3033   3.898   4.370   0.623 -0.2288 -0.0970 -0.0301
  196MPD1    C3 3034   3.850   4.349   0.753 -0.3155  0.5754 -0.3716
  196MPD1    C4 3035   3.766   4.240   0.769 -0.3520  0.0843 -0.4125
  196MPD1    C5 3036   3.749   4.143   0.678  0.3315  0.0836 -0.0926
  196MPD1     H 3037   3.946   4.465   0.607 -1.2146  0.1730 -1.4786
  196MPD1    H1 3038   3.707   4.224   0.858  1.2570 -0.2764  0.5817
  196MPD1    H2 3039   3.763   4.078   0.487 -1.0147 -1.8407  2.1203
  196MPD1    H3 3040   3.694   4.052   0.701 -1.3757  1.2900  0.5242
  196MPD1     N 3041   3.873   4.436   0.860 -0.4636 -0.2084 -0.5332
  196MPD1    H5 3042   3.814   4.410   0.938  1.3022 -0.1165  0.8401
  196MPD1    N1 3043   3.926   4.305   0.389 -0.3492  0.6265 -0.5160
  196MPD1    H6 3044   3.933   4.406   0.375 -1.0816  0.5390 -1.5109
  196MPD1    H7 3045   3.853   4.284   0.321  0.9295  1.0553 -2.0090
  197MPD1     C 3046   3.317   2.913  17.091 -0.6220  0.1692  0.0520
  197MPD1    C1 3047   3.233   2.809  17.060  0.5410  0.4497 -0.2602
  197MPD1    C2 3048   3.269   2.676  17.088 -0.2535  0.6067  0.3579
  197MPD1    C3 3049   3.379   2.664  17.171 -0.1195 -0.7966  0.2774
  197MPD1    C4 3050   3.461   2.770  17.207 -0.3101 -0.8473  0.7603
  197MPD1    C5 3051   3.426   2.891  17.163 -0.2548 -0.0740 -0.4936
  197MPD1     H 3052   3.197   2.600  17.059 -0.0136  0.3732  0.3718
  197MPD1    H1 3053   3.553   2.756  17.262  0.3143 -1.5766 -0.4706
  197MPD1    H2 3054   3.312   3.011  17.046 -3.6384 -0.2951 -0.6428
  197MPD1    H3 3055   3.494   2.971  17.192 -2.3768  1.8499 -0.8061
  197MPD1     N 3056   3.438   2.540  17.205 -0.5341  0.3172 -0.2918
  197MPD1    H5 3057   3.526   2.536  17.256 -0.8938 -0.5542  0.2705
  197MPD1    N1 3058   3.121   2.838  16.984 -0.3578  0.3273 -0.3334
  197MPD1    H6 3059   3.048   2.772  17.006  1.6382 -2.3286 -1.7397
  197MPD1    H7 3060   3.087   2.933  16.999 -0.0379  0.5137 -0.7719
  198MPD1     C 3061   0.355   0.736  15.840  0.2621  0.2840  0.1424
  198MPD1    C1 3062   0.442   0.702  15.944 -0.3591  0.1126 -0.3459
  198MPD1    C2 3063   0.578   0.729  15.928  0.0682  0.3496  0.4021
  198MPD1    C3 3064   0.629   0.767  15.805 -0.1342 -0.0275  0.2685
  198MPD1    C4 3065   0.547   0.788  15.696 -0.7593  0.0533  0.1270
  198MPD1    C5 3066   0.409   0.778  15.722  0.3729  0.2960 -0.4489
  198MPD1     H 3067   0.648   0.716  16.009  0.5743 -0.0378 -0.0918
  198MPD1    H1 3068   0.587   0.827  15.604 -2.9250 -2.8268 -2.0188
  198MPD1    H2 3069   0.249   0.743  15.863 -0.1879  0.3931 -1.9049
  198MPD1    H3 3070   0.342   0.827  15.653 -0.1885 -0.7601 -0.6549
  198MPD1     N 3071   0.763   0.800  15.803 -0.0537 -0.3898 -0.2835
  198MPD1    H5 3072   0.819   0.761  15.878 -0.5670  0.4436  0.5468
  198MPD1    N1 3073   0.388   0.664  16.068 -0.0003  0.7964 -0.1182
  198MPD1    H6 3074   0.309   0.602  16.049  0.9935 -0.7145  0.7291
  198MPD1    H7 3075   0.455   0.620  16.131 -1.3660 -0.4158  0.5125
  199MPD1     C 3076   2.981   2.580  10.803  0.4957  0.3672 -1.0394
  199MPD1    C1 3077   2.994   2.677  10.710  0.0570 -0.5867  0.2670
  199MPD1    C2 3078   2.919   2.668  10.592 -1.6571  0.5775  0.4277
  199MPD1    C3 3079   2.842   2.559  10.564 -0.8664  0.2666 -0.2831
  199MPD1    C4 3080   2.834   2.468  10.665 -0.6187  0.4226 -0.3828
  199MPD1    C5 3081   2.899   2.478  10.782 -0.1343 -0.4530 -0.1741
  199MPD1     H 3082   2.927   2.754  10.527  3.7149  0.7729  1.2981
  199MPD1    H1 3083   2.789   2.369  10.659 -2.2402  1.0613  1.4326
  199MPD1    H2 3084   3.040   2.572  10.894 -0.0089 -0.4081 -0.7774
  199MPD1    H3 3085   2.879   2.408  10.863  3.2599 -1.8423 -0.5418
  199MPD1     N 3086   2.764   2.539  10.447  0.5194  0.5425  0.3475
  199MPD1    H5 3087   2.685   2.475  10.446  0.3579  0.7141  2.5184
  199MPD1    N1 3088   3.076   2.785  10.734 -0.2011  0.1761 -0.3496
  199MPD1    H6 3089   3.121   2.807  10.646 -0.6899 -0.4545 -0.7576
  199MPD1    H7 3090   3.158   2.751  10.783  0.2927 -0.2219 -1.4479
  200MPD1     C 3091   2.011   2.400  15.093 -0.0867 -0.2127  0.1799
  200MPD1    C1 3092   2.037   2.424  14.957 -0.6289 -0.6453  0.0356
  200MPD1    C2 3093   2.031   2.319  14.868  0.1185  0.2345 -0.0761
  200MPD1    C3 3094   2.005   2.191  14.911  0.3657  0.6836  0.8084
  200MPD1    C4 3095   1.980   2.167  15.047 -0.0406 -0.2346  0.2642
  200MPD1    C5 3096   1.995   2.270  15.136  0.2297  0.4036  0.0293
  200MPD1     H 3097   2.048   2.340  14.763 -0.5640 -0.8705 -0.4013
  200MPD1    H1 3098   1.964   2.067  15.083 -2.0830  1.2592  3.5435
  200MPD1    H2 3099   2.032   2.477  15.167 -0.0468  2.1532 -2.2889
  200MPD1    H3 3100   1.995   2.252  15.243  0.2651 -0.4911 -0.1237
  200MPD1     N 3101   2.001   2.091  14.813  0.3192 -0.5644  0.0376
  200MPD1    H5 3102   2.025   2.122  14.719  0.2665  0.2992  0.3015
  200MPD1    N1 3103   2.036   2.560  14.906  0.1110 -0.2366  0.4683
  200MPD1    H6 3104   2.067   2.585  14.812 -1.7077  0.0726 -0.0551
  200MPD1    H7 3105   2.059   2.634  14.971  1.3265 -1.1879  1.1126
  201MPD1     C 3106   3.760   1.058  13.407 -0.5798 -0.2612 -0.3910
  201MPD1    C1 3107   3.788   1.070  13.276  0.2644  0.2756  0.1649
  201MPD1    C2 3108   3.885   0.991  13.225  0.0249  0.3365  0.0816
  201MPD1    C3 3109   3.961   0.913  13.308 -0.5854 -0.5170  0.6154
  201MPD1    C4 3110   3.944   0.926  13.445 -0.2209  0.0212  0.4979
  201MPD1    C5 3111   3.841   0.994  13.488 -0.1643 -0.2144  0.1727
  201MPD1     H 3112   3.911   0.994  13.120  0.7390  0.6851  0.2725
  201MPD1    H1 3113   4.013   0.881  13.516  0.2242 -1.3369 -0.7762
  201MPD1    H2 3114   3.679   1.112  13.455 -1.7141 -1.7339 -0.6513
  201MPD1    H3 3115   3.831   0.998  13.596 -0.5650  1.1848  0.0731
  201MPD1     N 3116   4.062   0.832  13.263  0.0287 -0.2101 -0.2595
  201MPD1    H5 3117   4.088   0.844  13.165 -1.3607  2.6937 -0.2983
  201MPD1    N1 3118   3.685   1.117  13.190 -0.6228 -0.1474 -0.6129
  201MPD1    H6 3119   3.723   1.164  13.108 -1.1605  1.0081 -0.1980
  201MPD1    H7 3120   3.623   1.182  13.237 -1.7773 -1.4989 -0.2718
  202MPD1     C 3121   3.883   1.130  10.404 -0.5989  0.4581  0.1535
  202MPD1    C1 3122   3.876   1.258  10.450  1.6230  0.0054 -0.0935
  202MPD1    C2 3123   3.941   1.283  10.572  0.2729  0.6467  0.4586
  202MPD1    C3 3124   4.046   1.204  10.613 -0.0935  0.2697  0.1508
  202MPD1    C4 3125   4.066   1.084  10.546  0.1039  1.3026 -0.1041
  202MPD1    C5 3126   3.978   1.043  10.448 -0.7215 -0.7025  0.1143
  202MPD1     H 3127   3.916   1.371  10.630 -2.6969  1.2280 -1.6890
  202MPD1    H1 3128   4.145   1.017  10.580  0.1807  0.8784 -1.1412
  202MPD1    H2 3129   3.813   1.088  10.332 -0.0011  3.8057 -2.3913
  202MPD1    H3 3130   3.988   0.942  10.411 -0.2008 -0.0438 -1.5681
  202MPD1     N 3131   4.132   1.245  10.719 -0.0150 -0.2902 -0.3288
  202MPD1    H5 3132   4.203   1.179  10.751 -0.4706 -0.6283 -0.0115
  202MPD1    N1 3133   3.755   1.327  10.408 -0.1845 -0.2418  0.0451
  202MPD1    H6 3134   3.748   1.312  10.308 -1.1535  1.5875 -0.1696
  202MPD1    H7 3135   3.760   1.428  10.423  0.5117  0.0737 -2.2008
  203MPD1     C 3136   2.638   1.479  12.432  0.2652  0.4808  0.5254
  203MPD1    C1 3137   2.684   1.387  12.353  0.1712  0.5517 -0.0488
  203MPD1    C2 3138   2.777   1.305  12.403 -0.4387 -0.3414 -0.2607
  203MPD1    C3 3139   2.824   1.316  12.536  0.1790  0.3446 -0.5408
  203MPD1    C4 3140   2.768   1.409  12.617  0.5112  0.4596 -0.4100
  203MPD1    C5 3141   2.675   1.493  12.565 -0.7600 -0.2982 -0.3008
  203MPD1     H 3142   2.833   1.231  12.347  1.4562 -0.4779  1.8255
  203MPD1    H1 3143   2.791   1.410  12.723  1.7631  1.6057 -0.6871
  203MPD1    H2 3144   2.564   1.545  12.390 -0.4040  0.5273  1.7768
  203MPD1    H3 3145   2.635   1.565  12.635  0.8953  0.5487 -0.2061
  203MPD1     N 3146   2.932   1.233  12.577 -0.4264 -0.1941  0.6631
  203MPD1    H5 3147   2.931   1.144  12.528  1.6319  0.4057 -0.4683
  203MPD1    N1 3148   2.633   1.382  12.216  0.0599 -0.0776  0.2155
  203MPD1    H6 3149   2.627   1.292  12.171 -0.8904  0.7790 -1.3581
  203MPD1    H7 3150   2.542   1.424  12.198 -0.3970 -1.0164  0.3745
  204MPD1     C 3151   2.318   3.020  17.327 -0.3028  0.1240 -0.6367
  204MPD1    C1 3152   2.290   2.972  17.207 -0.3283 -0.4026  0.1584
  204MPD1    C2 3153   2.339   2.843  17.193  0.7608  0.6687 -0.0167
  204MPD1    C3 3154   2.399   2.765  17.283 -0.3600  0.3642  0.3811
  204MPD1    C4 3155   2.417   2.820  17.408  0.4458 -0.3769  0.3077
  204MPD1    C5 3156   2.376   2.947  17.428  0.2374  0.7022  0.0166
  204MPD1     H 3157   2.334   2.806  17.092  2.0073  2.1487 -0.6193
  204MPD1    H1 3158   2.455   2.767  17.495  1.6459 -0.5544 -0.3218
  204MPD1    H2 3159   2.301   3.126  17.345  0.0141  0.3911 -1.9399
  204MPD1    H3 3160   2.404   2.998  17.520 -0.8510  1.7650 -0.2411
  204MPD1     N 3161   2.443   2.637  17.253  0.4696 -0.4936 -0.3183
  204MPD1    H5 3162   2.428   2.607  17.157  0.0283 -1.7193  0.1318
  204MPD1    N1 3163   2.256   3.048  17.098 -0.0608 -0.2636  0.1739
  204MPD1    H6 3164   2.190   3.117  17.134  1.0028  1.5426 -1.3784
  204MPD1    H7 3165   2.208   2.995  17.025 -0.0845  0.0391 -0.0254
  205MPD1     C 3166   3.063   0.983  16.872  0.6756  0.6632 -0.3333
  205MPD1    C1 3167   2.951   1.022  16.806  0.3182  0.3336 -0.4255
  205MPD1    C2 3168   2.849   1.089  16.874 -0.3032  0.2408  0.1030
  205MPD1    C3 3169   2.854   1.114  17.012  0.2031  0.1219  0.4524
  205MPD1    C4 3170   2.973   1.094  17.074  0.6408 -0.7350  0.0152
  205MPD1    C5 3171   3.074   1.023  17.006 -0.3410 -0.4217  0.6033
  205MPD1     H 3172   2.755   1.109  16.823  0.7009  0.7721 -1.5403
  205MPD1    H1 3173   2.993   1.111  17.179 -0.5107  0.2824  0.0652
  205MPD1    H2 3174   3.146   0.931  16.827 -2.3478 -5.7845  1.5207
  205MPD1    H3 3175   3.166   0.999  17.060 -1.4612  0.7543  3.0146
  205MPD1     N 3176   2.747   1.148  17.094  0.0752 -0.0040  0.2292
  205MPD1    H5 3177   2.771   1.161  17.192  2.2704  1.3279 -0.4790
  205MPD1    N1 3178   2.947   0.991  16.669 -0.1498 -0.5758 -0.4820
  205MPD1    H6 3179   3.030   0.940  16.641 -1.7300 -2.8151 -1.0846
  205MPD1    H7 3180   2.868   0.935  16.638  0.2340 -0.1662 -2.2213
  206MPD1     C 3181   3.010   3.639  17.051  0.0069 -1.2391  0.5240
  206MPD1    C1 3182   2.951   3.757  17.012 -0.0671  0.5409  0.0074
  206MPD1    C2 3183   2.910   3.770  16.881 -0.0268  0.0594  0.1550
  206MPD1    C3 3184   2.921   3.659  16.799  0.4022  0.3916  0.0544
  206MPD1    C4 3185   2.965   3.539  16.845 -0.7622 -0.9022 -0.6070
  206MPD1    C5 3186   3.009   3.526  16.975  0.3286  0.2980  0.8634
  206MPD1     H 3187   2.885   3.868  16.841  0.5580  0.3205  0.4391
  206MPD1    H1 3188   2.958   3.450  16.783 -0.7326  0.0207 -1.9113
  206MPD1    H2 3189   3.052   3.630  17.151  2.4215  1.2526 -0.2633
  206MPD1    H3 3190   3.048   3.428  17.000 -2.9748 -1.3241 -0.2164
  206MPD1     N 3191   2.905   3.657  16.664 -0.2203  0.3836 -1.2029
  206MPD1    H5 3192   2.954   3.587  16.609 -0.6911 -1.2765  0.4901
  206MPD1    N1 3193   2.975   3.864  17.093 -0.0327 -0.1669 -0.3058
  206MPD1    H6 3194   2.985   3.834  17.190 -0.4796  0.3765 -0.0898
  206MPD1    H7 3195   2.890   3.919  17.086  0.0044  0.0715  1.0143
  207MPD1     C 3196   0.064   1.164  10.495 -0.3002  0.4716 -0.6786
  207MPD1    C1 3197   0.171   1.250  10.474 -0.7538  0.2045  0.3276
  207MPD1    C2 3198   0.163   1.386  10.502  0.7609  0.2033 -0.2182
  207MPD1    C3 3199   0.060   1.434  10.575  0.0785 -0.3053 -0.0216
  207MPD1    C4 3200   4.694   1.355  10.605 -0.6950 -0.4684 -0.0895
  207MPD1    C5 3201   4.697   1.223  10.565  0.1316 -0.0292 -0.0659
  207MPD1     H 3202   0.244   1.456  10.483  0.5178  0.2553 -1.0659
  207MPD1    H1 3203   4.605   1.392  10.656 -0.0722  0.1236  0.5885
  207MPD1    H2 3204   0.063   1.058  10.472 -3.5335 -0.0879  2.0101
  207MPD1    H3 3205   4.608   1.170  10.596 -0.5060  0.5105 -0.9849
  207MPD1     N 3206   0.070   1.560  10.640  0.3750  0.2431 -0.0992
  207MPD1    H5 3207   0.006   1.572  10.718  1.7575  0.6584  0.9746
  207MPD1    N1 3208   0.280   1.202  10.408  0.6013  0.2439 -0.2705
  207MPD1    H6 3209   0.301   1.113  10.453 -0.4078  0.2599  0.2275
  207MPD1    H7 3210   0.350   1.271  10.435  1.5877 -1.4547  1.5206
  208MPD1     C 3211   2.660   0.014  17.039  0.0469  0.7113  0.0124
  208MPD1    C1 3212   2.612   0.001  17.168 -0.2553  0.1244  0.0469
  208MPD1    C2 3213   2.683   0.067  17.267  0.1863  0.2612  0.1868
  208MPD1    C3 3214   2.811   0.121  17.241  0.3003 -0.2841 -0.1109
  208MPD1    C4 3215   2.856   0.124  17.111  0.8422  0.4611 -0.1577
  208MPD1    C5 3216   2.783   0.063  17.008 -0.3305 -0.0058  0.2137
  208MPD1     H 3217   2.640   0.082  17.365  1.0803 -1.0083  0.7752
  208MPD1    H1 3218   2.958   0.155  17.092  1.1690  0.3592  1.4601
  208MPD1    H2 3219   2.605   4.701  16.959 -1.4729 -1.8121  2.6283
  208MPD1    H3 3220   2.820   0.060  16.906 -2.4796 -0.0181 -0.5677
  208MPD1     N 3221   2.891   0.182  17.341 -0.3002 -0.6286 -1.0968
  208MPD1    H5 3222   2.848   0.193  17.433  0.3129  1.3204 -1.0376
  208MPD1    N1 3223   2.484   4.689  17.194  0.7232 -0.0659 -0.2262
  208MPD1    H6 3224   2.475   4.641  17.283 -1.3808 -0.5800 -0.7142
  208MPD1    H7 3225   2.442   4.630  17.122  1.7580  2.5353 -2.9557
  209MPD1     C 3226   1.219   1.517  12.187  0.3216  0.0912  0.4368
  209MPD1    C1 3227   1.222   1.647  12.146 -0.2082 -0.0207 -0.8779
  209MPD1    C2 3228   1.129   1.690  12.056 -0.0073  0.2070  0.4553
  209MPD1    C3 3229   1.032   1.599  12.010 -0.0720 -0.1193 -0.3648
  209MPD1    C4 3230   1.030   1.466  12.052  0.1751 -0.6830  0.1784
  209MPD1    C5 3231   1.130   1.426  12.128 -0.1041 -0.2512  0.0178
  209MPD1     H 3232   1.129   1.795  12.031 -2.3904  0.3218  0.9445
  209MPD1    H1 3233   0.954   1.396  12.020 -0.8373 -0.5617  2.3274
  209MPD1    H2 3234   1.295   1.476  12.252  0.3817 -1.3165 -0.5198
  209MPD1    H3 3235   1.124   1.326  12.170 -3.0954  0.5121  1.3937
  209MPD1     N 3236   0.921   1.657  11.940  0.7449 -0.3166 -0.5914
  209MPD1    H5 3237   0.914   1.758  11.937  0.7237 -0.2525  2.2151
  209MPD1    N1 3238   1.303   1.740  12.205 -0.1714  0.1338 -0.1832
  209MPD1    H6 3239   1.398   1.707  12.221  0.1661  1.1080 -0.1789
  209MPD1    H7 3240   1.309   1.821  12.144 -1.2782 -0.4203 -1.0262
  210MPD1     C 3241   0.805   2.489  12.013 -0.2971  0.1353 -0.2561
  210MPD1    C1 3242   0.669   2.457  11.993 -0.1734  0.4972  0.0218
  210MPD1    C2 3243   0.637   2.324  11.971 -0.1938  0.5243  0.1161
  210MPD1    C3 3244   0.736   2.226  11.947  0.7083 -0.5778 -0.2371
  210MPD1    C4 3245   0.868   2.270  11.956  0.3740  0.3024  0.6050
  210MPD1    C5 3246   0.902   2.400  11.988  0.0793 -0.3075 -0.1796
  210MPD1     H 3247   0.532   2.300  11.978 -0.1510 -0.4921 -2.5767
  210MPD1    H1 3248   0.953   2.210  11.924 -0.5352 -0.3605 -0.5317
  210MPD1    H2 3249   0.841   2.591  12.020  1.8528 -0.7358  1.1779
  210MPD1    H3 3250   1.007   2.425  11.984 -0.6053  2.6126  0.1768
  210MPD1     N 3251   0.711   2.092  11.913 -0.5924 -0.0733 -0.6465
  210MPD1    H5 3252   0.794   2.035  11.898 -0.6041 -0.6693  1.4881
  210MPD1    N1 3253   0.569   2.549  12.025 -0.0806  0.1543  0.8695
  210MPD1    H6 3254   0.490   2.551  11.961  0.2949 -1.5748  0.3629
  210MPD1    H7 3255   0.603   2.645  12.033 -0.4641  0.5169 -2.1429
  211MPD1     C 3256   3.508   1.006  15.975  0.1469  0.6948 -0.3724
  211MPD1    C1 3257   3.382   0.946  15.954  0.2832  0.4649 -0.9109
  211MPD1    C2 3258   3.277   0.975  16.037 -0.4271  0.2950 -0.2139
  211MPD1    C3 3259   3.306   1.039  16.162 -0.0853  0.0305  1.4658
  211MPD1    C4 3260   3.437   1.064  16.196 -0.6253  0.0931 -0.5951
  211MPD1    C5 3261   3.530   1.055  16.097  0.3395  0.1043  0.0719
  211MPD1     H 3262   3.180   0.929  16.021 -0.6232  0.8477 -0.6239
  211MPD1    H1 3263   3.470   1.110  16.289  1.7056  0.1543 -1.4662
  211MPD1    H2 3264   3.584   0.993  15.899  0.6814 -0.4105  0.3532
  211MPD1    H3 3265   3.634   1.079  16.118  0.2624 -0.8145  1.4592
  211MPD1     N 3266   3.194   1.060  16.250  0.2576 -0.3540 -0.4732
  211MPD1    H5 3267   3.102   1.047  16.209 -0.0151 -0.8447  0.2879
  211MPD1    N1 3268   3.353   0.890  15.831  0.2494 -0.0098 -0.1261
  211MPD1    H6 3269   3.426   0.834  15.787  0.4716  2.1061 -2.4486
  211MPD1    H7 3270   3.269   0.834  15.841  0.7010 -0.4154  1.2964
  212MPD1     C 3271   2.260   4.269  16.329  0.4490 -1.1287  0.1463
  212MPD1    C1 3272   2.146   4.313  16.389 -0.6839  0.2616  0.3589
  212MPD1    C2 3273   2.089   4.229  16.480 -0.2774 -0.5786  0.7090
  212MPD1    C3 3274   2.141   4.107  16.520  0.3906  0.0935  0.1416
  212MPD1    C4 3275   2.257   4.067  16.458  0.6081  0.2034  0.6203
  212MPD1    C5 3276   2.317   4.146  16.367 -0.3673  0.3712  0.3869
  212MPD1     H 3277   2.002   4.271  16.527 -1.0839 -0.2334 -1.0931
  212MPD1    H1 3278   2.294   3.967  16.475  0.2838 -0.3733 -2.0204
  212MPD1    H2 3279   2.311   4.329  16.255  1.2511 -1.2029  0.6379
  212MPD1    H3 3280   2.405   4.102  16.322 -0.1736  1.0026  0.1494
  212MPD1     N 3281   2.083   4.020  16.610  0.2389 -0.0417 -0.9428
  212MPD1    H5 3282   2.112   3.923  16.609  1.2923  0.2777 -1.6239
  212MPD1    N1 3283   2.104   4.448  16.387 -0.5341 -0.0406  0.4003
  212MPD1    H6 3284   2.010   4.459  16.423  0.0536 -0.2390  2.0038
  212MPD1    H7 3285   2.106   4.497  16.298  2.5314 -0.2465  0.3570
  213MPD1     C 3286   0.305   4.613  15.809  0.4805  0.5273 -0.6972
  213MPD1    C1 3287   0.192   4.538  15.789  0.0410  0.6878 -0.7820
  213MPD1    C2 3288   0.119   4.578  15.676  0.6621  0.5286  0.0523
  213MPD1    C3 3289   0.133   4.705  15.624  0.1652  1.0736  0.3326
  213MPD1    C4 3290   0.236   0.050  15.666 -0.3608  0.0611  0.2407
  213MPD1    C5 3291   0.317   0.000  15.760  0.1852 -0.0147  0.3991
  213MPD1     H 3292   0.055   4.504  15.630 -0.0143 -0.9077  3.3094
  213MPD1    H1 3293   0.249   0.152  15.633  0.8836 -0.0214  0.4899
  213MPD1    H2 3294   0.376   4.581  15.884  1.0542  0.7689 -1.1391
  213MPD1    H3 3295   0.400   0.062  15.793 -0.0621 -0.2197  1.3873
  213MPD1     N 3296   0.043   4.728  15.522  0.2906 -0.1381 -0.0901
  213MPD1    H5 3297   4.722   4.652  15.487  2.8854 -2.6574  1.1087
  213MPD1    N1 3298   0.201   4.396  15.812  0.5817 -0.4005 -0.5217
  213MPD1    H6 3299   0.110   4.351  15.798  1.4888 -2.1815 -0.8046
  213MPD1    H7 3300   0.243   4.358  15.897 -0.1246 -1.0592 -0.4621
  214MPD1     C 3301   4.339   4.288  14.822 -0.9933 -0.0597  0.1686
  214MPD1    C1 3302   4.308   4.288  14.958 -0.6846  0.0363 -0.1302
  214MPD1    C2 3303   4.334   4.402  15.037  0.0037  0.1936 -0.2199
  214MPD1    C3 3304   4.395   4.511  14.974  0.3076  0.2351  0.2921
  214MPD1    C4 3305   4.423   4.506  14.840 -0.0250 -0.6794  0.1476
  214MPD1    C5 3306   4.385   4.398  14.761 -0.5510 -0.1507 -0.8604
  214MPD1     H 3307   4.322   4.396  15.145  0.7276  0.7110 -0.1134
  214MPD1    H1 3308   4.487   4.580  14.793 -2.4971  0.5471 -1.2441
  214MPD1    H2 3309   4.317   4.203  14.758 -1.4410 -1.7134  2.5100
  214MPD1    H3 3310   4.416   4.398  14.657  0.1592 -1.7266 -0.6395
  214MPD1     N 3311   4.439   4.626  15.045  0.6916 -0.2120  0.4360
  214MPD1    H5 3312   4.485   4.701  14.994  0.4876 -1.4513 -1.5780
  214MPD1    N1 3313   4.244   4.176  15.015  0.1108 -0.5856 -0.0234
  214MPD1    H6 3314   4.188   4.121  14.951 -1.0106 -1.8596  2.0770
  214MPD1    H7 3315   4.203   4.198  15.105 -3.4462 -5.4294 -0.4855
  215MPD1     C 3316   4.624   0.843  11.401  0.2823  0.8490 -0.0527
  215MPD1    C1 3317   4.702   0.892  11.499 -0.2743  0.6321  0.4073
  215MPD1    C2 3318   4.708   1.026  11.510  0.3384 -0.1044  0.1751
  215MPD1    C3 3319   4.644   1.113  11.426  0.0143 -0.8568 -0.4527
  215MPD1    C4 3320   4.561   1.064  11.327  0.2758  0.3763 -0.4094
  215MPD1    C5 3321   4.546   0.926  11.328  0.1068 -0.8548 -0.2515
  215MPD1     H 3322   0.037   1.072  11.583  0.7306 -1.7880  0.8845
  215MPD1    H1 3323   4.503   1.125  11.260 -0.4894  0.2337  0.1243
  215MPD1    H2 3324   4.625   0.738  11.374  1.2905  0.9947 -0.6067
  215MPD1    H3 3325   4.481   0.876  11.257 -0.0741 -2.5873  1.1413
  215MPD1     N 3326   4.666   1.252  11.436 -0.0826  0.4575  0.4117
  215MPD1    H5 3327   4.695   1.291  11.525  1.6026  2.1515 -0.8724
  215MPD1    N1 3328   0.048   0.811  11.579  0.3547 -0.1545 -0.0704
  215MPD1    H6 3329   0.075   0.855  11.666 -0.4492  0.2172 -0.0072
  215MPD1    H7 3330   4.729   0.731  11.610  0.8953 -0.9713 -1.2087
  216MPD1     C 3331   2.083   3.961   0.100 -0.3869  0.2874 -0.3829
  216MPD1    C1 3332   2.021   3.865   0.176  0.5380  0.2095  0.1298
  216MPD1    C2 3333   1.990   3.744   0.115  0.1134  0.1815 -0.6713
  216MPD1    C3 3334   2.019   3.718  17.731 -0.4803  0.4512  0.1499
  216MPD1    C4 3335   2.073   3.813  17.658 -0.0204  0.5501  1.1277
  216MPD1    C5 3336   2.103   3.937  17.710  0.7629 -0.2074 -0.0596
  216MPD1     H 3337   1.953   3.661   0.174  1.8994  0.6070  1.0825
  216MPD1    H1 3338   2.100   3.798  17.554 -1.2632 -1.2075  1.0572
  216MPD1    H2 3339   2.103   4.063   0.129  1.3190  0.7581 -3.1579
  216MPD1    H3 3340   2.148   4.016  17.651  1.4519 -0.7933 -0.3084
  216MPD1     N 3341   2.006   3.586  17.678 -0.2155 -0.1583  0.5298
  216MPD1    H5 3342   1.978   3.516   0.002 -0.7279 -2.1099 -1.6487
  216MPD1    N1 3343   2.004   3.894   0.315 -0.4653 -0.1769 -0.2909
  216MPD1    H6 3344   2.017   3.994   0.332  1.7375 -0.3176 -1.1910
  216MPD1    H7 3345   1.913   3.865   0.351  1.0113 -2.9824  1.1812
  217MPD1     C 3346   2.755   1.984   9.269 -0.2172  0.0379 -0.0459
  217MPD1    C1 3347   2.769   1.869   9.189  0.1831  0.3371 -0.0952
  217MPD1    C2 3348   2.776   1.748   9.259 -0.0810  0.8625 -0.1709
  217MPD1    C3 3349   2.770   1.744   9.400  0.0730 -0.2979  0.1524
  217MPD1    C4 3350   2.765   1.862   9.472 -0.1354 -0.4840 -0.3214
  217MPD1    C5 3351   2.756   1.987   9.412  0.7342 -0.3842  0.5330
  217MPD1     H 3352   2.762   1.657   9.201  1.4087 -0.5581  1.7089
  217MPD1    H1 3353   2.765   1.857   9.581  2.3243  0.3663 -0.2737
  217MPD1    H2 3354   2.756   2.080   9.218  1.3760 -0.0841 -0.2354
  217MPD1    H3 3355   2.763   2.081   9.465 -1.2094  0.0436  0.0425
  217MPD1     N 3356   2.753   1.626   9.471  0.2244  0.1257  0.6114
  217MPD1    H5 3357   2.720   1.644   9.566  0.7704  1.2570  0.5805
  217MPD1    N1 3358   2.753   1.874   9.050  0.0106 -0.3195 -0.4743
  217MPD1    H6 3359   2.783   1.963   9.012 -1.8215  0.8479  0.8103
  217MPD1    H7 3360   2.803   1.801   9.000  1.4073 -0.6940  1.4750
  218MPD1     C 3361   4.173   1.253  13.548 -0.1649  0.5327 -0.0440
  218MPD1    C1 3362   4.198   1.327  13.432  0.6893  0.3668  0.3251
  218MPD1    C2 3363   4.265   1.264  13.328 -0.4880  0.5137  0.3963
  218MPD1    C3 3364   4.320   1.139  13.348 -0.2191  0.5151 -0.1046
  218MPD1    C4 3365   4.296   1.072  13.468 -0.0498  0.2359 -0.1258
  218MPD1    C5 3366   4.230   1.132  13.568 -1.1189  0.4227  0.4594
  218MPD1     H 3367   4.297   1.316  13.238  0.7657  0.8373  1.0256
  218MPD1    H1 3368   4.334   0.972  13.490  2.4594  1.0182 -0.8274
  218MPD1    H2 3369   4.113   1.290  13.630 -2.1857 -0.2791 -1.1543
  218MPD1    H3 3370   4.211   1.082  13.663 -1.7288  0.9549  0.6189
  218MPD1     N 3371   4.408   1.099  13.250 -0.1433 -0.4312  0.2509
  218MPD1    H5 3372   4.421   1.166  13.175 -1.6743  0.7340  1.0254
  218MPD1    N1 3373   4.140   1.448  13.406  0.1601  0.3006 -0.0102
  218MPD1    H6 3374   4.207   1.508  13.358 -0.1109 -0.4460 -1.3394
  218MPD1    H7 3375   4.121   1.501  13.491 -1.7996 -0.3935 -0.0170
  219MPD1     C 3376   0.010   1.419  12.407 -0.6230  0.1964  0.2406
  219MPD1    C1 3377   4.626   1.379  12.456 -0.3231 -0.0523 -0.8208
  219MPD1    C2 3378   4.618   1.317  12.579  0.3954 -0.6721  0.1004
  219MPD1    C3 3379   0.003   1.288  12.647  0.3668 -0.5351 -0.2038
  219MPD1    C4 3380   0.117   1.316  12.588 -0.0504 -0.0024  0.0142
  219MPD1    C5 3381   0.120   1.388  12.472 -0.2763  0.0984 -0.1129
  219MPD1     H 3382   4.518   1.288  12.607 -0.4856  2.4770  0.1244
  219MPD1    H1 3383   0.209   1.289  12.638  0.4233 -0.1624 -0.9286
  219MPD1    H2 3384   0.010   1.478  12.316 -1.9353 -0.9919 -0.5250
  219MPD1    H3 3385   0.212   1.410  12.419 -1.0855  2.2935 -0.6327
  219MPD1     N 3386   0.006   1.213  12.765 -0.0316 -0.4260  0.0119
  219MPD1    H5 3387   0.098   1.193  12.802  1.4923  0.4446 -3.2501
  219MPD1    N1 3388   4.522   1.392  12.365 -0.4259  0.7706 -0.0855
  219MPD1    H6 3389   4.430   1.397  12.408 -0.5419 -2.0266  0.0191
  219MPD1    H7 3390   4.533   1.468  12.298  0.0973 -0.2104 -1.1053
  220MPD1     C 3391   4.622   2.258   9.801  0.2083 -0.6290  0.4488
  220MPD1    C1 3392   4.699   2.222   9.912 -1.2780 -0.2352 -0.1091
  220MPD1    C2 3393   4.636   2.198  10.031  0.1949 -0.1118  0.0582
  220MPD1    C3 3394   4.502   2.174  10.029 -0.1741 -0.0095  0.0863
  220MPD1    C4 3395   4.425   2.196   9.916 -0.3323  0.1873  0.2865
  220MPD1    C5 3396   4.491   2.241   9.801  0.3033  0.2474 -0.4717
  220MPD1     H 3397   4.699   2.169  10.114  2.7352  0.5562 -1.6604
  220MPD1    H1 3398   4.320   2.172   9.914 -0.3066  0.2165 -1.2201
  220MPD1    H2 3399   4.665   2.289   9.706 -2.3587  0.3774 -0.4046
  220MPD1    H3 3400   4.434   2.253   9.710  1.3157 -1.2309 -1.2937
  220MPD1     N 3401   4.452   2.119  10.156  0.4794 -0.5482  0.4590
  220MPD1    H5 3402   4.528   2.097  10.220  2.6267  0.8105 -1.5890
  220MPD1    N1 3403   0.098   2.247   9.896  0.3497  0.2793 -0.0911
  220MPD1    H6 3404   0.123   2.235   9.799 -0.2591  0.9465 -0.3338
  220MPD1    H7 3405   0.156   2.183   9.950 -3.7134 -2.7495  0.6785
  221MPD1     C 3406   2.211   0.590  16.595  0.1844  0.9495 -0.8981
  221MPD1    C1 3407   2.306   0.564  16.692 -0.8152  0.2667 -0.0855
  221MPD1    C2 3408   2.434   0.543  16.644 -0.2251 -0.4327  0.0765
  221MPD1    C3 3409   2.460   0.511  16.517  0.3935  0.3605  0.0680
  221MPD1    C4 3410   2.369   0.522  16.421 -0.1220 -0.5878  0.2504
  221MPD1    C5 3411   2.246   0.565  16.465 -0.2821  0.3051 -0.4021
  221MPD1     H 3412   2.517   0.534  16.714 -1.2041 -2.4289  0.9854
  221MPD1    H1 3413   2.392   0.516  16.315 -2.3589 -0.0447 -0.2797
  221MPD1    H2 3414   2.105   0.602  16.612  0.1935  2.0419 -1.6684
  221MPD1    H3 3415   2.172   0.567  16.386 -1.7740 -2.9260  0.8812
  221MPD1     N 3416   2.580   0.466  16.470  0.1355 -0.3903 -0.1517
  221MPD1    H5 3417   2.584   0.430  16.375  3.4459 -1.8197  0.5252
  221MPD1    N1 3418   2.265   0.592  16.819  0.1886  0.1030  0.0351
  221MPD1    H6 3419   2.168   0.566  16.836  1.2582 -2.2488  2.6089
  221MPD1    H7 3420   2.330   0.556  16.889 -1.1604  0.8881  1.6794
  222MPD1     C 3421   1.645   3.481  17.474 -0.4028 -0.1111  0.1330
  222MPD1    C1 3422   1.641   3.589  17.385 -0.2362  0.8910 -0.6176
  222MPD1    C2 3423   1.671   3.714  17.437  0.5550 -0.4324  0.0452
  222MPD1    C3 3424   1.701   3.733  17.575  0.5011  0.3832  0.2746
  222MPD1    C4 3425   1.695   3.627  17.657 -0.0277 -0.4248 -0.4692
  222MPD1    C5 3426   1.667   3.500  17.606 -0.9813 -0.6931  0.6828
  222MPD1     H 3427   1.652   3.799  17.373 -3.0452 -1.6874 -0.5856
  222MPD1    H1 3428   1.719   3.629   0.018 -3.0617 -0.0181  0.2169
  222MPD1    H2 3429   1.634   3.379  17.440 -1.2370 -0.4021  1.2739
  222MPD1    H3 3430   1.681   3.410  17.666  0.3415 -0.6542  0.4389
  222MPD1     N 3431   1.740   3.858  17.633 -0.2452  0.1579  0.5071
  222MPD1    H5 3432   1.747   3.859  17.734 -0.9452 -0.2037  0.5555
  222MPD1    N1 3433   1.585   3.575  17.254  0.3198 -0.1157 -0.2436
  222MPD1    H6 3434   1.637   3.639  17.194  0.9304 -1.0159 -0.6816
  222MPD1    H7 3435   1.602   3.481  17.219  0.5271 -0.6491  1.2867
  223MPD1     C 3436   1.584   4.107   0.700 -0.4770 -0.2407  0.4074
  223MPD1    C1 3437   1.721   4.106   0.672 -0.2924 -0.1556 -0.5459
  223MPD1    C2 3438   1.768   4.156   0.546 -0.4716  0.1441  0.5076
  223MPD1    C3 3439   1.679   4.175   0.444 -0.2434 -0.3466  0.4754
  223MPD1    C4 3440   1.547   4.148   0.473  0.4138  0.1824  0.3889
  223MPD1    C5 3441   1.500   4.129   0.599  0.0489  0.5632 -0.3286
  223MPD1     H 3442   1.871   4.181   0.523  0.8740 -1.9535  4.1802
  223MPD1    H1 3443   1.461   4.160   0.408  1.3997 -1.8609 -1.2745
  223MPD1    H2 3444   1.542   4.086   0.798 -2.3197 -0.9832 -0.5446
  223MPD1    H3 3445   1.396   4.097   0.597  0.4575 -0.6514 -1.9764
  223MPD1     N 3446   1.722   4.220   0.316 -0.1141  0.4517  0.2880
  223MPD1    H5 3447   1.823   4.228   0.312 -0.0588 -0.0047  0.8381
  223MPD1    N1 3448   1.811   4.093   0.777 -0.7575  0.0350  0.2934
  223MPD1    H6 3449   1.901   4.052   0.753 -1.3069 -1.3585  0.6207
  223MPD1    H7 3450   1.775   4.047   0.860 -1.4293  0.6858  0.3642
  224MPD1     C 3451   3.705   2.600   9.799  0.6730  1.3096  0.2488
  224MPD1    C1 3452   3.572   2.594   9.762  0.1468 -0.4652 -0.2813
  224MPD1    C2 3453   3.518   2.477   9.720  0.0875  0.6941 -0.1707
  224MPD1    C3 3454   3.590   2.358   9.728 -0.1175 -0.0602 -0.1621
  224MPD1    C4 3455   3.723   2.363   9.772 -0.3012  0.2605  0.0485
  224MPD1    C5 3456   3.774   2.484   9.804 -0.1677  0.3941 -0.2429
  224MPD1     H 3457   3.417   2.485   9.680 -0.8936  1.0764  2.4137
  224MPD1    H1 3458   3.776   2.269   9.780 -2.3927 -0.8351  1.1101
  224MPD1    H2 3459   3.755   2.691   9.829  0.0035  0.6825  3.2991
  224MPD1    H3 3460   3.882   2.489   9.818 -0.3984  1.7051  0.9627
  224MPD1     N 3461   3.544   2.228   9.690  0.2683  0.3069 -0.5203
  224MPD1    H5 3462   3.600   2.150   9.721 -0.1948 -0.1841 -0.9195
  224MPD1    N1 3463   3.496   2.710   9.764  0.4591 -0.2654  0.3008
  224MPD1    H6 3464   3.527   2.774   9.837  2.1417 -1.1984  0.4297
  224MPD1    H7 3465   3.401   2.679   9.781 -0.4970  2.1676 -0.7226
  225MPD1     C 3466   0.017   2.313  12.657 -0.5612  0.0578 -0.2638
  225MPD1    C1 3467   4.730   2.183  12.636 -0.5853  0.1059  0.2769
  225MPD1    C2 3468   4.600   2.144  12.621 -0.5197 -0.0305 -0.4590
  225MPD1    C3 3469   4.500   2.235  12.637 -0.0103  0.6539  0.0437
  225MPD1    C4 3470   4.525   2.370  12.655 -0.4028  0.6853  0.8478
  225MPD1    C5 3471   4.654   2.403  12.672  0.3532  0.3340  0.1386
  225MPD1     H 3472   4.576   2.039  12.609 -1.4583  0.4613 -2.8218
  225MPD1    H1 3473   4.442   2.440  12.654 -0.0802  1.0535 -1.5773
  225MPD1    H2 3474   0.117   2.352  12.670  0.3862 -1.7042 -2.4230
  225MPD1    H3 3475   4.676   2.505  12.702  2.2220  0.1429 -0.5904
  225MPD1     N 3476   4.365   2.196  12.639  0.4200 -0.8735 -0.0600
  225MPD1    H5 3477   4.294   2.267  12.647 -0.4190 -1.2903 -3.7879
  225MPD1    N1 3478   0.102   2.090  12.626  0.4754  0.4283  0.2999
  225MPD1    H6 3479   0.075   2.010  12.569 -3.2665  2.3005 -0.6034
  225MPD1    H7 3480   0.188   2.139  12.602 -1.7588  3.8088 -0.8557
  226MPD1     C 3481   2.965   3.074   9.774 -0.1453 -0.1826 -0.3571
  226MPD1    C1 3482   2.899   2.959   9.810  0.0369  0.2208 -0.1657
  226MPD1    C2 3483   2.966   2.861   9.879 -0.0201  0.2301 -0.2584
  226MPD1    C3 3484   3.093   2.879   9.924  0.0406  0.0939 -0.2320
  226MPD1    C4 3485   3.154   3.001   9.898  0.4736 -0.3832  0.6722
  226MPD1    C5 3486   3.092   3.095   9.817  0.8676  0.1368  0.3036
  226MPD1     H 3487   2.913   2.771   9.909  2.6236 -1.3830 -0.4247
  226MPD1    H1 3488   3.258   3.021   9.922  0.5294  0.0698  0.0549
  226MPD1    H2 3489   2.920   3.146   9.706  0.4513 -0.3784 -0.9609
  226MPD1    H3 3490   3.145   3.187   9.796 -0.2053  0.7123  0.1262
  226MPD1     N 3491   3.167   2.777   9.984 -0.3549  0.8752  0.8816
  226MPD1    H5 3492   3.135   2.682   9.970  1.7065  0.4433 -0.7734
  226MPD1    N1 3493   2.768   2.940   9.758  0.4896 -0.7163 -0.2355
  226MPD1    H6 3494   2.712   2.888   9.826 -0.6052  0.0543 -0.5566
  226MPD1    H7 3495   2.721   3.024   9.726 -0.4594 -1.5418 -1.0085
  227MPD1     C 3496   4.193   2.577  10.241 -0.0979  0.4447 -0.5258
  227MPD1    C1 3497   4.149   2.478  10.157  0.1188 -0.2616  0.2793
  227MPD1    C2 3498   4.008   2.465  10.135 -0.1426 -0.0382 -0.3891
  227MPD1    C3 3499   3.923   2.541  10.209 -0.1510 -0.7559 -0.4260
  227MPD1    C4 3500   3.976   2.627  10.301 -0.2124 -0.5626  0.5968
  227MPD1    C5 3501   4.110   2.652  10.312  0.1504 -0.0277 -0.1992
  227MPD1     H 3502   3.967   2.398  10.061 -0.9670  2.1825 -1.9297
  227MPD1    H1 3503   3.907   2.694  10.351  1.3045  0.7366  0.9683
  227MPD1    H2 3504   4.300   2.585  10.251 -0.0020 -1.8003  0.1523
  227MPD1    H3 3505   4.144   2.723  10.385 -0.5593  0.4322 -0.3212
  227MPD1     N 3506   3.777   2.525  10.187  0.6732 -0.5108  0.8440
  227MPD1    H5 3507   3.758   2.440  10.135 -1.2221 -0.2267  1.1009
  227MPD1    N1 3508   4.243   2.397  10.087  0.1465 -0.3311 -0.2555
  227MPD1    H6 3509   4.335   2.402  10.130 -0.8528  0.6162  1.7577
  227MPD1    H7 3510   4.211   2.301  10.072  0.0389 -0.4893  0.9400
  228MPD1     C 3511   1.981   4.439  12.953  0.1877  0.3875 -0.2248
  228MPD1    C1 3512   1.915   4.441  12.832 -0.0076 -0.3552 -0.1295
  228MPD1    C2 3513   1.777   4.452  12.832 -0.4931 -0.9173 -0.5851
  228MPD1    C3 3514   1.702   4.453  12.947  0.1593 -0.6896 -0.1657
  228MPD1    C4 3515   1.765   4.473  13.068  0.4767  0.0960 -0.1412
  228MPD1    C5 3516   1.905   4.465  13.067 -0.9462  0.0431  0.0830
  228MPD1     H 3517   1.717   4.453  12.742 -0.6225 -1.8127 -0.5141
  228MPD1    H1 3518   1.708   4.479  13.160  0.7647  1.1119 -0.0251
  228MPD1    H2 3519   2.089   4.437  12.950  0.2301  0.4613  1.2674
  228MPD1    H3 3520   1.953   4.462  13.165 -2.7907 -2.6489  0.9272
  228MPD1     N 3521   1.561   4.458  12.928 -0.2238  0.6073 -0.0623
  228MPD1    H5 3522   1.522   4.465  12.835 -0.7561 -4.2376 -0.1819
  228MPD1    N1 3523   1.988   4.440  12.712 -0.3698  0.2907 -0.3711
  228MPD1    H6 3524   2.053   4.364  12.730  0.1237  1.0717  1.0802
  228MPD1    H7 3525   1.925   4.420  12.634  0.4798  3.3615 -1.8424
  229MPD1     C 3526   0.592   3.451  14.655  0.1050  0.8262  0.5117
  229MPD1    C1 3527   0.637   3.319  14.631 -0.2917  0.2496  0.4811
  229MPD1    C2 3528   0.666   3.234  14.739 -0.1433 -0.0633  0.1065
  229MPD1    C3 3529   0.684   3.289  14.867 -0.7444  0.1185 -0.1094
  229MPD1    C4 3530   0.653   3.420  14.886 -0.2927 -0.0692 -0.1254
  229MPD1    C5 3531   0.602   3.500  14.782 -0.2629  0.0289 -0.1230
  229MPD1     H 3532   0.678   3.127  14.722  2.3440  0.7492 -3.1894
  229MPD1    H1 3533   0.662   3.463  14.985  3.1849 -1.2290  0.0569
  229MPD1    H2 3534   0.569   3.518  14.573 -0.1472  0.2561  0.1153
  229MPD1    H3 3535   0.570   3.602  14.798  0.4507  0.3465 -0.7514
  229MPD1     N 3536   0.740   3.212  14.972 -0.5317  0.0614 -0.1491
  229MPD1    H5 3537   0.760   3.260  15.059 -0.3600  0.0158 -0.1622
  229MPD1    N1 3538   0.623   3.253  14.506 -0.1755 -0.0421 -0.2284
  229MPD1    H6 3539   0.701   3.193  14.478 -0.0056  0.1553 -0.1792
  229MPD1    H7 3540   0.629   3.325  14.435 -0.4102 -0.2747 -0.4870
  230MPD1     C 3541   0.967   3.220  15.938  0.2863 -0.0026 -0.1476
  230MPD1    C1 3542   1.033   3.112  15.892 -0.0728  0.1640 -0.1104
  230MPD1    C2 3543   1.007   3.057  15.768 -0.5012 -0.4613  0.3257
  230MPD1    C3 3544   0.905   3.107  15.688  0.4802 -0.0900  0.4759
  230MPD1    C4 3545   0.843   3.223  15.732  0.0340  0.3574 -0.0987
  230MPD1    C5 3546   0.870   3.276  15.859 -0.1641  0.8563  0.1706
  230MPD1     H 3547   1.068   2.974  15.736  0.6846  0.5250  0.0738
  230MPD1    H1 3548   0.770   3.278  15.674 -1.3298  0.3188  1.6077
  230MPD1    H2 3549   0.998   3.263  16.033  0.1172  1.4926 -0.7592
  230MPD1    H3 3550   0.820   3.368  15.888 -0.7964  0.4460  0.3764
  230MPD1     N 3551   0.890   3.054  15.554  0.0923 -0.3567  0.7419
  230MPD1    H5 3552   0.945   2.973  15.524 -0.3817 -1.2525  2.3244
  230MPD1    N1 3553   1.164   3.086  15.943 -1.0036  0.6719  0.1414
  230MPD1    H6 3554   1.200   2.991  15.941 -0.5287  0.7997  1.8638
  230MPD1    H7 3555   1.165   3.121  16.039 -0.9121  1.1486 -0.0331
  231MPD1     C 3556   4.459   0.280  15.598  0.3266 -0.3106  0.6980
  231MPD1    C1 3557   4.371   0.278  15.485 -0.2932  0.1477 -0.1086
  231MPD1    C2 3558   4.371   0.387  15.398 -0.0735  0.3161 -0.1626
  231MPD1    C3 3559   4.485   0.466  15.401 -0.2770  0.4012 -0.3802
  231MPD1    C4 3560   4.573   0.463  15.505  0.3298  0.4196 -1.2245
  231MPD1    C5 3561   4.556   0.380  15.606 -0.3933 -1.0588  0.2035
  231MPD1     H 3562   4.294   0.390  15.322  0.0126 -1.7223 -0.3363
  231MPD1    H1 3563   4.667   0.517  15.504  0.5699  0.0312  0.4391
  231MPD1    H2 3564   4.448   0.211  15.681 -0.6933 -0.9283  0.0514
  231MPD1    H3 3565   4.631   0.385  15.685 -0.1715  0.5197 -0.1109
  231MPD1     N 3566   4.505   0.561  15.303  0.1903  0.6714  0.3265
  231MPD1    H5 3567   4.434   0.581  15.233 -0.2841 -2.1774 -0.0125
  231MPD1    N1 3568   4.265   0.190  15.474 -0.0137  0.3987  0.1587
  231MPD1    H6 3569   4.271   0.114  15.542  1.8487 -2.2864 -2.9766
  231MPD1    H7 3570   4.220   0.165  15.386 -1.6841  1.0376  0.8316
  232MPD1     C 3571   1.363   1.622   0.737 -0.3777  0.6851 -0.0574
  232MPD1    C1 3572   1.301   1.739   0.698 -0.7346 -0.8932  0.3926
  232MPD1    C2 3573   1.231   1.740   0.582 -0.3815 -0.3064 -0.2721
  232MPD1    C3 3574   1.221   1.627   0.506 -0.2858 -0.3994  0.5243
  232MPD1    C4 3575   1.296   1.518   0.537  1.0473  0.6680 -0.3602
  232MPD1    C5 3576   1.361   1.519   0.655 -0.2044 -0.2311  0.2650
  232MPD1     H 3577   1.174   1.830   0.564 -0.0774  0.1203  0.8686
  232MPD1    H1 3578   1.298   1.426   0.481  4.2720  0.7858 -0.4414
  232MPD1    H2 3579   1.405   1.621   0.837 -0.1579 -1.9239 -0.1718
  232MPD1    H3 3580   1.410   1.425   0.680 -1.9390 -0.5821  2.3679
  232MPD1     N 3581   1.144   1.633   0.387 -0.0582  0.5924  1.0079
  232MPD1    H5 3582   1.116   1.721   0.345  4.0624  1.9816  1.2610
  232MPD1    N1 3583   1.299   1.856   0.775  0.1455 -0.0301  0.0702
  232MPD1    H6 3584   1.297   1.939   0.716  0.9103  0.3458  0.5669
  232MPD1    H7 3585   1.343   1.861   0.867 -0.1720 -0.6389  0.2563
  233MPD1     C 3586   2.783   1.704  17.267 -0.5134 -0.4383 -0.4089
  233MPD1    C1 3587   2.791   1.581  17.211 -0.2945  1.0667  0.1247
  233MPD1    C2 3588   2.802   1.476  17.297 -0.2580  0.1660 -0.1572
  233MPD1    C3 3589   2.817   1.490  17.435  0.0702 -0.3449 -0.4649
  233MPD1    C4 3590   2.805   1.618  17.493 -0.2052  0.5184  0.1699
  233MPD1    C5 3591   2.793   1.719  17.403  0.0967  0.7503 -0.6265
  233MPD1     H 3592   2.803   1.379  17.250 -1.7523 -0.6820  1.5633
  233MPD1    H1 3593   2.803   1.634  17.600  1.6314 -1.7283  0.5520
  233MPD1    H2 3594   2.788   1.790  17.201  0.7844 -0.4996 -0.3734
  233MPD1    H3 3595   2.789   1.820  17.444 -2.2099  0.5547 -0.3410
  233MPD1     N 3596   2.841   1.380  17.517 -0.1797 -0.2126 -0.2336
  233MPD1    H5 3597   2.871   1.401  17.611 -1.1853  0.6893 -0.1131
  233MPD1    N1 3598   2.781   1.564  17.070 -0.0481  0.6628 -0.0513
  233MPD1    H6 3599   2.826   1.477  17.041 -0.8069  0.2060  0.1532
  233MPD1    H7 3600   2.832   1.630  17.012 -0.4577  0.8716 -0.1744
  234MPD1     C 3601   4.328   0.512   9.447 -0.0790  0.0067  0.8735
  234MPD1    C1 3602   4.347   0.574   9.559 -0.2797  0.8848 -0.2020
  234MPD1    C2 3603   4.241   0.642   9.613  0.1764 -0.4216  0.6683
  234MPD1    C3 3604   4.121   0.644   9.558  0.1178  0.7179 -0.3169
  234MPD1    C4 3605   4.098   0.560   9.455  0.4470  0.5000  0.2036
  234MPD1    C5 3606   4.200   0.499   9.400 -0.7949  0.4524  0.1021
  234MPD1     H 3607   4.264   0.707   9.696 -0.0433  0.3405  0.1374
  234MPD1    H1 3608   3.999   0.540   9.415  0.7654 -1.3173  0.3404
  234MPD1    H2 3609   4.407   0.460   9.393  0.2456  0.5674  0.8030
  234MPD1    H3 3610   4.175   0.441   9.312  2.2906  0.3579 -0.7406
  234MPD1     N 3611   4.026   0.736   9.619  0.6085 -0.4298  0.3068
  234MPD1    H5 3612   4.058   0.780   9.705 -2.3957 -1.0627  1.7805
  234MPD1    N1 3613   4.480   0.600   9.601  0.8336  0.1117 -0.0478
  234MPD1    H6 3614   4.486   0.594   9.702  0.9372 -0.5865 -0.0917
  234MPD1    H7 3615   4.543   0.532   9.558 -2.4970 -2.3011 -1.1116
  235MPD1     C 3616   0.246   2.258  11.580  0.7908 -0.4109  0.3053
  235MPD1    C1 3617   0.296   2.386  11.607 -0.5135  0.5481 -0.5097
  235MPD1    C2 3618   0.306   2.479  11.507 -0.0406  0.0026 -0.1629
  235MPD1    C3 3619   0.234   2.461  11.390  0.1298 -0.3574  0.6795
  235MPD1    C4 3620   0.178   2.337  11.367  0.1689 -0.2808  0.8372
  235MPD1    C5 3621   0.189   2.231  11.459  0.1100  0.0296  0.5392
  235MPD1     H 3622   0.348   2.578  11.521  2.8322 -1.2169 -0.2865
  235MPD1    H1 3623   0.131   2.308  11.273  1.3089 -0.3297  0.2845
  235MPD1    H2 3624   0.236   2.187  11.662  0.4614 -0.4328  0.2442
  235MPD1    H3 3625   0.139   2.135  11.450  0.7987 -0.2444 -0.3378
  235MPD1     N 3626   0.226   2.572  11.298 -0.1368  0.1950  0.1735
  235MPD1    H5 3627   0.283   2.653  11.319  0.8829 -0.3162 -0.6172
  235MPD1    N1 3628   0.363   2.399  11.728  0.3600  0.6317  0.5466
  235MPD1    H6 3629   0.381   2.496  11.755 -0.7106  0.9145  0.2538
  235MPD1    H7 3630   0.315   2.353  11.805 -0.6677  0.4979 -0.1720
  236MPD1     C 3631   3.369   3.802   9.714 -0.8231 -0.5808 -0.5167
  236MPD1    C1 3632   3.446   3.895   9.782  0.3094  0.3018  0.3269
  236MPD1    C2 3633   3.576   3.860   9.817 -0.6251  0.2548 -0.3637
  236MPD1    C3 3634   3.625   3.733   9.788 -0.0733 -0.1531 -0.7303
  236MPD1    C4 3635   3.541   3.635   9.739  0.7664  0.5436 -0.3252
  236MPD1    C5 3636   3.416   3.677   9.696 -0.5423 -0.2218 -0.4910
  236MPD1     H 3637   3.640   3.925   9.875 -0.9808  2.1242 -2.0639
  236MPD1    H1 3638   3.574   3.533   9.725  0.7178  0.5974 -0.8308
  236MPD1    H2 3639   3.263   3.815   9.697 -0.7166  1.1020  0.0743
  236MPD1    H3 3640   3.337   3.609   9.667 -1.7866  1.4092 -0.9224
  236MPD1     N 3641   3.758   3.693   9.803 -0.6604 -0.0854  0.3289
  236MPD1    H5 3642   3.776   3.595   9.784 -2.6391 -0.3139 -0.3411
  236MPD1    N1 3643   3.397   4.015   9.843 -0.5626  0.7359 -0.4761
  236MPD1    H6 3644   3.324   4.059   9.787 -0.4884 -1.3375 -2.1801
  236MPD1    H7 3645   3.468   4.085   9.863 -0.2413  0.6325 -1.2674
  237MPD1     C 3646   4.573   2.241  15.624  0.2470 -0.5568  0.4633
  237MPD1    C1 3647   4.451   2.269  15.570 -0.4055 -0.1440 -0.2352
  237MPD1    C2 3648   4.379   2.165  15.510 -0.2595  0.0427 -0.5502
  237MPD1    C3 3649   4.438   2.039  15.504 -0.2644  0.2834  0.3713
  237MPD1    C4 3650   4.561   2.017  15.554 -0.8417  0.0562 -0.2053
  237MPD1    C5 3651   4.627   2.117  15.620 -0.5467  0.0430  0.0552
  237MPD1     H 3652   4.283   2.182  15.462 -1.1146  0.8705  1.4354
  237MPD1    H1 3653   4.599   1.916  15.568  0.6657  0.8497  1.3889
  237MPD1    H2 3654   4.628   2.313  15.684  3.3692 -2.7464  0.2103
  237MPD1    H3 3655   4.723   2.100  15.667 -0.3932 -0.0950 -0.3129
  237MPD1     N 3656   4.383   1.932  15.429  0.6015 -0.1229  0.3673
  237MPD1    H5 3657   4.445   1.853  15.417  1.5915  0.2854  2.7517
  237MPD1    N1 3658   4.408   2.402  15.547 -0.0521  0.5206  0.3139
  237MPD1    H6 3659   4.306   2.401  15.549 -0.0694  3.2507  1.7427
  237MPD1    H7 3660   4.442   2.476  15.608  0.0280 -0.6918  1.7246
  238MPD1     C 3661   1.181   0.104  15.861  0.3542  0.5496 -0.3340
  238MPD1    C1 3662   1.070   0.023  15.864 -0.1069  0.6970  0.1839
  238MPD1    C2 3663   0.981   0.034  15.755  0.5046  0.5500 -0.0859
  238MPD1    C3 3664   1.009   0.113  15.639 -0.3725 -0.5511 -0.4342
  238MPD1    C4 3665   1.133   0.170  15.629 -0.2779  0.4117 -0.5338
  238MPD1    C5 3666   1.222   0.162  15.736  0.3679  0.0317  0.0091
  238MPD1     H 3667   0.895   4.704  15.758 -1.0169  2.5016 -0.5620
  238MPD1    H1 3668   1.155   0.225  15.538  0.3308  0.2337 -0.4979
  238MPD1    H2 3669   1.254   0.097  15.941  1.5644 -0.2906 -1.5013
  238MPD1    H3 3670   1.321   0.208  15.732  1.2007 -1.7537 -0.0566
  238MPD1     N 3671   0.916   0.133  15.531  0.0125  0.5429  0.2968
  238MPD1    H5 3672   0.941   0.198  15.457 -0.1934  1.2425  0.8346
  238MPD1    N1 3673   1.034   4.707  15.987 -0.7577  0.1619 -0.2064
  238MPD1    H6 3674   0.981   4.621  15.976 -2.1770  0.9748  0.3701
  238MPD1    H7 3675   1.114   4.682  16.045 -0.5865  0.8177 -0.1655
  239MPD1     C 3676   1.801   1.172  15.125 -0.2193  0.2710  0.6282
  239MPD1    C1 3677   1.683   1.235  15.144  0.1009  0.1414 -0.3713
  239MPD1    C2 3678   1.611   1.283  15.036 -0.4403  0.4273 -0.6780
  239MPD1    C3 3679   1.650   1.263  14.909  0.0072  0.4316 -0.0952
  239MPD1    C4 3680   1.758   1.183  14.890 -0.2390 -0.1050  0.6323
  239MPD1    C5 3681   1.834   1.145  14.996  0.7296  0.4668 -0.1499
  239MPD1     H 3682   1.533   1.353  15.064  0.1798  0.2966  1.3845
  239MPD1    H1 3683   1.794   1.151  14.793 -0.7955  0.9860  0.0657
  239MPD1    H2 3684   1.862   1.138  15.208  1.0567 -0.4646 -0.6047
  239MPD1    H3 3685   1.919   1.079  14.986  0.3710 -0.3507  2.1668
  239MPD1     N 3686   1.590   1.314  14.794  0.7308 -0.1092 -0.6621
  239MPD1    H5 3687   1.629   1.282  14.705  2.1350  1.8387 -0.7461
  239MPD1    N1 3688   1.644   1.275  15.268 -0.2718  0.0735  0.3473
  239MPD1    H6 3689   1.542   1.274  15.271 -0.2341  0.9036  2.0438
  239MPD1    H7 3690   1.668   1.208  15.340  0.4457 -0.7853 -0.7017
  240MPD1     C 3691   1.330   0.725  14.024  0.1055 -0.3096  0.6641
  240MPD1    C1 3692   1.219   0.807  14.014 -0.3735 -0.1800  0.5896
  240MPD1    C2 3693   1.120   0.804  14.111  0.4048  0.0997 -0.8647
  240MPD1    C3 3694   1.140   0.717  14.216  0.0306  0.2716  0.2104
  240MPD1    C4 3695   1.256   0.645  14.231  0.1166 -0.5318 -0.0132
  240MPD1    C5 3696   1.353   0.652  14.136 -0.1695 -0.1475  0.8082
  240MPD1     H 3697   1.033   0.867  14.100  0.1056  0.1765  2.1259
  240MPD1    H1 3698   1.269   0.575  14.313  0.5724  0.7166  0.9687
  240MPD1    H2 3699   1.401   0.716  13.942 -1.6705  0.6368 -0.9664
  240MPD1    H3 3700   1.436   0.582  14.135  1.9063  2.3048  1.6420
  240MPD1     N 3701   1.031   0.710  14.308  0.0032  0.1194 -0.8743
  240MPD1    H5 3702   0.952   0.770  14.288  0.2612  0.0533 -2.0823
  240MPD1    N1 3703   1.199   0.886  13.898 -0.3188 -0.0909 -0.4879
  240MPD1    H6 3704   1.174   0.982  13.920 -1.6418 -0.4104 -0.6152
  240MPD1    H7 3705   1.293   0.892  13.858  0.2820 -1.2474  0.7329
  241MPD1     C 3706   0.698   0.664  15.354  0.1226  0.8181  0.2351
  241MPD1    C1 3707   0.779   0.749  15.287 -0.3973  0.2892 -0.3345
  241MPD1    C2 3708   0.796   0.730  15.154  0.2712  0.6240  0.0816
  241MPD1    C3 3709   0.709   0.654  15.080  0.3753  0.0748 -0.5050
  241MPD1    C4 3710   0.607   0.594  15.144  0.0205  0.7099  0.0338
  241MPD1    C5 3711   0.612   0.589  15.279 -0.2680  0.8179  0.8415
  241MPD1     H 3712   0.880   0.780  15.106 -0.9486 -0.4200 -3.1454
  241MPD1    H1 3713   0.529   0.535  15.097  1.0708  0.9186 -1.9822
  241MPD1    H2 3714   0.699   0.653  15.462 -0.3525  0.9946  0.2583
  241MPD1    H3 3715   0.555   0.512  15.329  2.1115 -0.0881  2.1422
  241MPD1     N 3716   0.724   0.628  14.938  0.2985  0.8533 -0.8376
  241MPD1    H5 3717   0.658   0.567  14.890  1.0988  1.6558 -2.9773
  241MPD1    N1 3718   0.874   0.814  15.368  0.1991  0.6892  0.0621
  241MPD1    H6 3719   0.835   0.839  15.458 -0.0853 -0.5084  0.2658
  241MPD1    H7 3720   0.904   0.896  15.314  0.5455  0.0100 -0.7724
  242MPD1     C 3721   0.059   3.534  15.474 -0.2241  0.6934  0.1002
  242MPD1    C1 3722   0.121   3.638  15.537  0.2264 -0.8005 -1.0013
  242MPD1    C2 3723   0.227   3.697  15.476  0.0343  0.8259  0.1903
  242MPD1    C3 3724   0.260   3.662  15.343 -0.4852 -0.1873 -0.3828
  242MPD1    C4 3725   0.192   3.566  15.275  0.2630 -1.4073  0.0741
  242MPD1    C5 3726   0.098   3.500  15.348  0.3955 -0.2382 -0.0353
  242MPD1     H 3727   0.277   3.770  15.539  3.3221 -1.4229  0.1932
  242MPD1    H1 3728   0.202   3.552  15.168 -3.1748  1.1440 -0.5727
  242MPD1    H2 3729   4.715   3.475  15.518  0.4654 -0.9245 -0.8271
  242MPD1    H3 3730   0.061   3.414  15.295 -0.8148 -0.9227  1.8965
  242MPD1     N 3731   0.371   3.718  15.277 -0.1645  0.3109  0.6184
  242MPD1    H5 3732   0.388   3.690  15.181 -0.5796  2.3319 -0.0340
  242MPD1    N1 3733   0.081   3.671  15.669  0.2745 -0.7509 -0.2836
  242MPD1    H6 3734   0.102   3.765  15.699  2.6630 -0.9493 -1.3613
  242MPD1    H7 3735   4.717   3.669  15.686  0.3066  0.8150  0.0805
  243MPD1     C 3736   1.911   2.862   0.364 -0.3187  0.1676  0.1219
  243MPD1    C1 3737   1.871   2.733   0.352 -0.0499  0.1766 -0.2331
  243MPD1    C2 3738   1.849   2.680   0.227 -0.0786  1.0486 -0.0868
  243MPD1    C3 3739   1.873   2.754   0.110  0.1047  0.4226 -0.1276
  243MPD1    C4 3740   1.901   2.886   0.131  0.1579  0.1383 -0.2878
  243MPD1    C5 3741   1.933   2.933   0.252 -0.0423 -0.1249  0.1484
  243MPD1     H 3742   1.800   2.583   0.219 -1.0515  1.4833  0.5936
  243MPD1    H1 3743   1.910   2.958   0.050 -1.2576  0.4442 -0.1631
  243MPD1    H2 3744   1.929   2.914   0.458  1.2100 -0.1674 -0.0012
  243MPD1    H3 3745   1.951   3.040   0.254 -3.5217  0.5058 -1.5120
  243MPD1     N 3746   1.830   2.696  17.732  0.4979  0.1948  0.2241
  243MPD1    H5 3747   1.803   2.598  17.735 -0.1354  0.4026  1.2551
  243MPD1    N1 3748   1.832   2.665   0.472 -0.3193 -0.2444  0.1661
  243MPD1    H6 3749   1.893   2.687   0.551 -0.2292 -0.5238  0.1761
  243MPD1    H7 3750   1.834   2.564   0.462  1.6544 -0.3033  1.1304
  244MPD1     C 3751   1.227   2.190  17.736  0.0724 -0.2764 -0.3031
  244MPD1    C1 3752   1.339   2.213   0.071 -0.2364  0.0511  0.6438
  244MPD1    C2 3753   1.438   2.288   0.006  0.7259  0.2168  0.3722
  244MPD1    C3 3754   1.444   2.310  17.616  0.1077  0.1057  0.3400
  244MPD1    C4 3755   1.327   2.284  17.543 -0.5744 -0.7139  0.4229
  244MPD1    C5 3756   1.222   2.227  17.600 -0.8206 -0.5993  0.5584
  244MPD1     H 3757   1.521   2.320   0.068  3.3174  0.0824 -3.0111
  244MPD1    H1 3758   1.315   2.304  17.437 -0.5609 -2.1307  0.1502
  244MPD1    H2 3759   1.136   2.139   0.023  1.9163 -2.0818  2.0950
  244MPD1    H3 3760   1.137   2.210  17.535  0.3372  0.5632 -1.2339
  244MPD1     N 3761   1.561   2.373  17.569  0.7303 -0.2370 -0.9492
  244MPD1    H5 3762   1.624   2.406  17.642 -1.5330  2.2777 -0.1161
  244MPD1    N1 3763   1.326   2.189   0.209  0.3450 -0.1914 -0.0331
  244MPD1    H6 3764   1.249   2.126   0.229  1.2933 -1.2772  0.1828
  244MPD1    H7 3765   1.408   2.161   0.262  0.1905  1.7836  1.2612
  245MPD1     C 3766   4.396   2.447  12.988 -0.0228 -0.1846  0.4913
  245MPD1    C1 3767   4.473   2.542  13.040 -0.3161  0.0616 -0.3058
  245MPD1    C2 3768   4.411   2.652  13.093  0.1491 -0.3183 -0.3288
  245MPD1    C3 3769   4.273   2.659  13.079  0.0322  0.3235 -0.2256
  245MPD1    C4 3770   4.195   2.557  13.032  0.1773  0.0819 -0.3108
  245MPD1    C5 3771   4.261   2.447  12.980 -0.2788 -0.0343  0.6731
  245MPD1     H 3772   4.473   2.727  13.142 -0.9620  0.7281 -0.5293
  245MPD1    H1 3773   4.087   2.564  13.034  0.0686 -1.3392 -1.1364
  245MPD1    H2 3774   4.440   2.351  12.963 -0.4983 -0.4124  0.5251
  245MPD1    H3 3775   4.200   2.364  12.947 -0.3616  0.4507 -0.3775
  245MPD1     N 3776   4.221   2.784  13.132 -0.5515  0.2373  0.3123
  245MPD1    H5 3777   4.281   2.836  13.194 -0.5152  0.6863 -0.1011
  245MPD1    N1 3778   4.599   2.503  13.075  0.1340  0.2263  0.1747
  245MPD1    H6 3779   4.637   2.454  12.994 -2.9024  0.4945 -1.4333
  245MPD1    H7 3780   4.662   2.577  13.105  0.0886  0.5231 -0.4519
  246MPD1     C 3781   3.358   3.828   9.402  0.2942  0.0333 -0.0556
  246MPD1    C1 3782   3.472   3.900   9.418  0.0711  0.5165 -0.5647
  246MPD1    C2 3783   3.486   4.020   9.354  0.1833  0.9390 -0.6451
  246MPD1    C3 3784   3.389   4.070   9.272  0.4775  0.3835  0.0845
  246MPD1    C4 3785   3.275   3.993   9.242 -0.2903  0.4567  0.2744
  246MPD1    C5 3786   3.263   3.879   9.314 -0.1537  0.4168 -0.8855
  246MPD1     H 3787   3.567   4.087   9.380  0.7832 -0.4528  1.0434
  246MPD1    H1 3788   3.195   4.036   9.182 -0.1211 -0.7134 -0.7783
  246MPD1    H2 3789   3.351   3.726   9.437 -0.0560 -0.5064 -1.6763
  246MPD1    H3 3790   3.176   3.817   9.298 -1.7486  1.3413  4.0787
  246MPD1     N 3791   3.412   4.197   9.203 -0.6395  0.2453  0.0698
  246MPD1    H5 3792   3.508   4.228   9.197 -0.4537 -0.3715 -0.1449
  246MPD1    N1 3793   3.583   3.847   9.485  0.3152  0.3350  0.1912
  246MPD1    H6 3794   3.562   3.783   9.560  1.4857 -0.8110 -0.4426
  246MPD1    H7 3795   3.629   3.926   9.530  0.2635  1.6800 -2.0741
  247MPD1     C 3796   3.900   3.466  16.897  0.6548 -0.2077 -0.4575
  247MPD1    C1 3797   3.839   3.389  16.993 -0.0492 -0.0090 -1.0193
  247MPD1    C2 3798   3.820   3.251  16.962 -0.7475  0.6389 -0.3188
  247MPD1    C3 3799   3.859   3.198  16.840 -0.0397 -0.0223 -0.5574
  247MPD1    C4 3800   3.925   3.282  16.748 -0.1923  0.0425 -0.8257
  247MPD1    C5 3801   3.956   3.410  16.785  0.2168  0.2310 -0.3289
  247MPD1     H 3802   3.773   3.199  17.044 -0.6180 -2.1156 -1.9588
  247MPD1    H1 3803   3.952   3.238  16.653 -0.2651 -0.5025 -0.5944
  247MPD1    H2 3804   3.916   3.573  16.910  1.2302 -0.4411  0.7701
  247MPD1    H3 3805   4.005   3.474  16.713  0.9461 -0.2409 -0.2542
  247MPD1     N 3806   3.825   3.065  16.810  0.1924 -0.3668  0.6284
  247MPD1    H5 3807   3.853   3.020  16.723  1.0032  0.2884  0.5495
  247MPD1    N1 3808   3.781   3.446  17.109  0.1902  0.8801  0.4978
  247MPD1    H6 3809   3.825   3.534  17.135 -0.4923  2.2445 -3.0539
  247MPD1    H7 3810   3.769   3.384  17.189 -3.7981 -0.5234 -1.1681
  248MPD1     C 3811   4.426   1.825   0.324  0.0992 -0.3092  0.7378
  248MPD1    C1 3812   4.292   1.855   0.347  0.1486  0.2647  0.2190
  248MPD1    C2 3813   4.263   1.946   0.445 -0.1168 -0.0205  0.0030
  248MPD1    C3 3814   4.358   2.025   0.499 -0.0703 -0.0390 -0.0442
  248MPD1    C4 3815   4.495   1.995   0.476  0.3729  0.2294 -0.0591
  248MPD1    C5 3816   4.525   1.894   0.389  0.1062  0.6007  0.0944
  248MPD1     H 3817   4.162   1.971   0.477 -0.2333  1.0822 -1.2064
  248MPD1    H1 3818   4.575   2.054   0.519  2.1600 -1.1531 -1.5317
  248MPD1    H2 3819   4.451   1.750   0.251  0.1256  1.9379 -1.5456
  248MPD1    H3 3820   4.630   1.869   0.377  0.2668  0.9266  0.8343
  248MPD1     N 3821   4.321   2.138   0.579 -0.2511 -0.5321 -0.1239
  248MPD1    H5 3822   4.222   2.151   0.601  0.1436  2.9001 -0.3695
  248MPD1    N1 3823   4.185   1.802   0.275  0.6326 -0.5475 -0.0569
  248MPD1    H6 3824   4.195   1.749   0.189  0.6416  1.5148 -1.3245
  248MPD1    H7 3825   4.097   1.786   0.324  1.3243  0.2108  1.4343
  249MPD1     C 3826   1.969   2.098  10.976 -0.2610 -0.4554  0.9322
  249MPD1    C1 3827   1.860   2.133  10.903  0.1741  0.1999  0.5690
  249MPD1    C2 3828   1.761   2.035  10.884 -0.1604 -0.1886 -0.4641
  249MPD1    C3 3829   1.769   1.914  10.957 -0.9728 -0.1718 -0.2132
  249MPD1    C4 3830   1.887   1.885  11.018 -0.0366 -0.0443 -0.6884
  249MPD1    C5 3831   1.978   1.978  11.039  0.0258  0.0235 -0.4892
  249MPD1     H 3832   1.678   2.067  10.823  2.3464  2.1420 -2.6462
  249MPD1    H1 3833   1.913   1.786  11.055  0.8354  0.4771  0.0822
  249MPD1    H2 3834   2.051   2.165  10.999  0.5093 -0.6629 -1.2586
  249MPD1    H3 3835   2.076   1.946  11.073  0.1293  1.6532  0.7337
  249MPD1     N 3836   1.666   1.823  10.939  0.7904  0.2003  0.5507
  249MPD1    H5 3837   1.587   1.853  10.884  0.0064 -1.5430  0.7333
  249MPD1    N1 3838   1.866   2.253  10.828 -0.3851  0.1805 -0.1603
  249MPD1    H6 3839   1.907   2.332  10.878 -1.9230  1.4528 -0.9436
  249MPD1    H7 3840   1.769   2.273  10.806  0.0709  0.8579 -1.5048
  250MPD2     C 3841   2.066   1.937  13.111 -0.0467 -0.7979 -0.2261
  250MPD2    C1 3842   2.192   1.928  13.060 -0.7592 -0.0053  0.1733
  250MPD2    C2 3843   2.220   1.823  12.970  0.6168  0.3355 -0.2807
  250MPD2    C3 3844   2.118   1.726  12.943 -0.3728 -0.5177 -0.1703
  250MPD2    C4 3845   1.993   1.734  13.009 -0.3825 -0.0228 -0.3204
  250MPD2    C5 3846   1.978   1.837  13.096  0.4923 -0.5351  0.3257
  250MPD2     H 3847   2.322   1.813  12.935  0.0144 -0.4528 -1.8029
  250MPD2    H1 3848   1.913   1.666  12.983 -0.7226 -0.1597  1.1275
  250MPD2    H2 3849   2.033   2.020  13.172 -3.4663 -3.3249  1.3372
  250MPD2    H3 3850   1.876   1.848  13.132  0.4708  3.5287 -1.0038
  250MPD2     N 3851   2.140   1.615  12.858  0.0885  0.3814 -0.0094
  250MPD2    H5 3852   2.061   1.554  12.842  0.0274  0.2876  0.6474
  250MPD2    N1 3853   2.276   2.037  13.088  0.3013 -0.2400 -0.0472
  250MPD2    H7 3854   2.248   2.114  13.149 -4.2643 -2.2584  0.3883
  251TMC3    C1 3855   2.480   2.129  13.134 -0.9259  0.2442  0.5836
  251TMC3    C2 3856   2.418   2.244  13.157 -0.5406  0.5480  0.6834
  251TMC3    C3 3857   2.490   2.360  13.170 -0.0393 -0.5954  0.7481
  251TMC3    C4 3858   2.615   2.128  13.126  0.1233  0.3336  0.7054
  251TMC3    C5 3859   2.689   2.241  13.146 -0.1821  0.0504 -0.8385
  251TMC3    C6 3860   2.625   2.361  13.178 -0.3544  0.0001 -0.0336
  251TMC3     C 3861   2.406   2.014  13.095  0.4139  0.3057  0.5005
  251TMC3     O 3862   2.475   1.915  13.062  0.0696 -0.3391  0.0760
  251TMC3     H 3863   2.311   2.248  13.174 -0.5136  0.2685  0.9177
  251TMC3    H1 3864   2.660   2.029  13.126 -0.3932  0.1006 -0.9223
  251TMC3    H2 3865   2.676   2.445  13.222  0.5791 -0.6523  0.1356
  251TMC3    C7 3866   2.832   2.228  13.157 -0.1197 -0.5366 -0.1463
  251TMC3    C8 3867   2.417   2.487  13.201 -0.0622 -0.4147 -0.2347
  251TMC3    O1 3868   2.881   2.117  13.177 -0.3727 -0.0076  0.2076
  251TMC3    O2 3869   2.308   2.471  13.254 -0.2132 -0.1383 -0.6569
  252TMC3    C1 3870   2.324   3.363   9.192  0.8470  0.3085  0.6866
  252TMC3    C2 3871   2.457   3.398   9.211  0.3964  0.0398 -0.3127
  252TMC3    C3 3872   2.523   3.354   9.323  0.0251  1.5103 -0.3357
  252TMC3    C4 3873   2.258   3.289   9.285 -0.7629  0.1077 -0.0111
  252TMC3    C5 3874   2.329   3.234   9.388  0.1135  0.2019 -0.0926
  252TMC3    C6 3875   2.459   3.270   9.409  0.1338  0.2364 -0.2696
  252TMC3     C 3876   2.265   3.418   9.074  0.3936  0.0869 -0.5413
  252TMC3     O 3877   2.328   3.497   8.999 -0.1342  0.0780  0.1516
  252TMC3     H 3878   2.514   3.441   9.129  1.0639  0.6742  0.4790
  252TMC3    H1 3879   2.156   3.257   9.267 -0.8861 -0.3578  1.4719
  252TMC3    H2 3880   2.520   3.231   9.489 -0.6463 -0.7315 -0.1525
  252TMC3    C7 3881   2.262   3.129   9.460  0.4902 -0.6121 -0.0552
  252TMC3    C8 3882   2.661   3.396   9.337  0.4830 -0.5908 -0.5741
  252TMC3    O1 3883   2.152   3.100   9.414 -0.1100  0.0012 -0.5038
  252TMC3    O2 3884   2.705   3.468   9.249 -0.2600  0.0365  0.0428
  253MPD2     C 3885   3.801   1.447  15.196  0.3437 -1.0109 -0.4355
  253MPD2    C1 3886   3.682   1.371  15.219 -0.1073 -0.0170  0.1237
  253MPD2    C2 3887   3.653   1.349  15.347 -0.6718 -0.0826 -0.0095
  253MPD2    C3 3888   3.730   1.402  15.447 -0.1641 -0.8369 -0.1535
  253MPD2    C4 3889   3.842   1.482  15.421 -0.5203 -0.2637  0.0785
  253MPD2    C5 3890   3.881   1.493  15.294 -0.3191 -0.5064 -0.1430
  253MPD2     H 3891   3.565   1.287  15.359 -0.3875 -0.5764 -0.4579
  253MPD2    H1 3892   3.912   1.522  15.493 -0.0543 -0.8628 -0.0397
  253MPD2    H2 3893   3.834   1.463  15.094  1.1138  0.7922  0.0935
  253MPD2    H3 3894   3.972   1.544  15.266 -0.2926 -1.0287 -0.9768
  253MPD2     N 3895   3.692   1.385  15.581 -0.1868 -0.0717  0.0479
  253MPD2    H5 3896   3.738   1.437  15.656  0.7657 -3.5646  1.8773
  253MPD2    N1 3897   3.603   1.313  15.115  0.2823  0.3095  0.0359
  253MPD2    H7 3898   3.523   1.256  15.142  0.5915 -0.6769 -1.1236
  254TMC3    C1 3899   3.556   1.322  15.759  0.2635 -0.9455  0.1959
  254TMC3    C2 3900   3.427   1.322  15.796  0.4785  0.2967 -0.1327
  254TMC3    C3 3901   3.395   1.361  15.922 -0.0114  0.2282 -0.4526
  254TMC3    C4 3902   3.658   1.352  15.842  0.3741 -0.5504 -0.3864
  254TMC3    C5 3903   3.626   1.386  15.969 -0.2659  0.0907  0.2674
  254TMC3    C6 3904   3.493   1.395  16.014  0.5394  0.4534 -0.4124
  254TMC3     C 3905   3.583   1.308  15.622 -0.3753  0.1895 -0.0325
  254TMC3     O 3906   3.512   1.223  15.564 -0.3021 -0.0918  0.1925
  254TMC3     H 3907   3.356   1.295  15.719 -0.3623  2.5376 -0.1495
  254TMC3    H1 3908   3.761   1.326  15.821 -0.4786 -3.6378 -0.8283
  254TMC3    H2 3909   3.471   1.440  16.110 -1.3161 -0.3686 -0.4627
  254TMC3    C7 3910   3.725   1.382  16.082  0.6349  0.1658  0.4842
  254TMC3    C8 3911   3.264   1.415  15.947 -0.4334  0.0963  1.2766
  254TMC3    O1 3912   3.688   1.376  16.197  0.0046 -0.2219  0.2504
  254TMC3    O2 3913   3.252   1.463  16.063 -0.5427 -0.1845  0.1393
  255MPD2     C 3914   2.100   4.159  10.505  0.7361 -0.1873  0.0575
  255MPD2    C1 3915   2.069   4.262  10.425 -0.1720  0.4778  0.7727
  255MPD2    C2 3916   2.146   4.293  10.319 -0.1862 -0.4300 -0.3516
  255MPD2    C3 3917   2.259   4.218  10.288 -0.7143 -0.0691 -0.6208
  255MPD2    C4 3918   2.292   4.116  10.373 -0.0412  0.0822  0.0190
  255MPD2    C5 3919   2.215   4.089  10.486  0.5949  0.4012  0.8316
  255MPD2     H 3920   2.110   4.366  10.247 -1.8026 -0.1997  0.6902
  255MPD2    H1 3921   2.387   4.066  10.361 -0.0897  0.1193 -0.5074
  255MPD2    H2 3922   2.048   4.120  10.591  0.1942 -2.2856 -1.2201
  255MPD2    H3 3923   2.229   4.009  10.558  1.0523  1.2749  1.7124
  255MPD2     N 3924   2.342   4.236  10.177  0.3540  0.3114  0.3672
  255MPD2    H5 3925   2.411   4.164  10.160 -1.7321 -1.2592 -1.5412
  255MPD2    N1 3926   1.950   4.331  10.459 -0.3788  0.2637  0.4804
  255MPD2    H7 3927   1.896   4.288  10.534 -1.5241  0.4025 -0.2746
  256TMC3    C1 3928   1.790   4.486  10.448  0.1791  0.0741  0.3789
  256TMC3    C2 3929   1.783   4.622  10.457 -0.0034  0.1709  0.1415
  256TMC3    C3 3930   1.656   4.675  10.442 -0.3999 -0.7146 -0.1302
  256TMC3    C4 3931   1.683   4.401  10.418 -0.6510  0.1220 -0.2992
  256TMC3    C5 3932   1.555   4.465  10.411 -0.5452 -0.5492  0.1930
  256TMC3    C6 3933   1.541   4.599  10.423 -0.4915  0.1068 -0.7163
  256TMC3     C 3934   1.913   4.446  10.401 -0.0201 -0.6641  0.6583
  256TMC3     O 3935   1.988   4.532  10.352  0.0078 -0.4747 -0.1869
  256TMC3     H 3936   1.869   4.686  10.472 -0.0899 -0.2024  2.2228
  256TMC3    H1 3937   1.697   4.294  10.410  0.1093  0.3700 -2.4676
  256TMC3    H2 3938   1.450   4.653  10.398  1.0415  2.6255 -0.8901
  256TMC3    C7 3939   1.449   4.391  10.347 -0.4515  0.0086  0.3072
  256TMC3    C8 3940   1.639   0.074  10.491  0.1509  0.4094  0.2544
  256TMC3    O1 3941   1.494   4.291  10.286 -0.4221  0.1832 -0.2686
  256TMC3    O2 3942   1.526   0.103  10.516  0.4844  0.3191 -0.1390
  257MPD2     C 3943   1.159   1.857  13.086 -0.3548 -0.1431  0.3799
  257MPD2    C1 3944   1.118   1.746  13.013 -0.2907 -0.4061 -0.6952
  257MPD2    C2 3945   1.129   1.619  13.073  0.5034  0.0380 -0.0435
  257MPD2    C3 3946   1.178   1.611  13.199  0.1864  0.3264  0.4436
  257MPD2    C4 3947   1.216   1.721  13.270  0.5455  0.6513 -0.3688
  257MPD2    C5 3948   1.202   1.845  13.211  0.1300 -0.7894  0.0159
  257MPD2     H 3949   1.078   1.532  13.032 -0.9947  0.2326  1.4122
  257MPD2    H1 3950   1.258   1.731  13.369  0.8837  0.3356 -0.4839
  257MPD2    H2 3951   1.151   1.953  13.037 -0.3958  0.2181  1.1044
  257MPD2    H3 3952   1.228   1.935  13.266 -0.3482  0.0507 -1.1473
  257MPD2     N 3953   1.180   1.483  13.258  0.0843 -0.3980 -0.5981
  257MPD2    H5 3954   1.164   1.406  13.195  0.3558 -0.3807 -0.6876
  257MPD2    N1 3955   1.044   1.771  12.898  0.3554 -0.3953  0.7325
  257MPD2    H7 3956   1.039   1.870  12.878  0.5749 -0.2745  1.2721
  258TMC3    C1 3957   1.177   1.327  13.434 -0.9432 -0.1098 -0.0263
  258TMC3    C2 3958   1.239   1.241  13.345 -0.0815 -0.3255 -0.2623
  258TMC3    C3 3959   1.321   1.147  13.398 -0.1076  0.3299 -0.5891
  258TMC3    C4 3960   1.192   1.306  13.568  1.2416 -0.6318 -0.0028
  258TMC3    C5 3961   1.279   1.208  13.617  0.1105  0.3300 -0.2008
  258TMC3    C6 3962   1.355   1.135  13.534  0.6383 -0.0190  0.8155
  258TMC3     C 3963   1.189   1.462  13.392  0.0057  0.0147  0.3952
  258TMC3     O 3964   1.217   1.532  13.489 -0.0285 -0.1623 -0.2840
  258TMC3     H 3965   1.236   1.253  13.237 -2.0815 -1.2436 -0.3148
  258TMC3    H1 3966   1.132   1.361  13.640  1.0289 -2.5260  1.2615
  258TMC3    H2 3967   1.424   1.055  13.562  1.5429  1.9382  4.1258
  258TMC3    C7 3968   1.286   1.197  13.759 -0.1832 -0.2015  0.3229
  258TMC3    C8 3969   1.380   1.056  13.303  0.2083 -0.2965 -0.5644
  258TMC3    O1 3970   1.207   1.262  13.829 -0.0175  0.0209  0.1342
  258TMC3    O2 3971   1.319   1.038  13.198  0.0984 -0.6784 -0.5275
  259MPD2     C 3972   0.615   3.105   0.510 -0.2370  0.8965  0.4091
  259MPD2    C1 3973   0.561   2.977   0.530 -0.1071 -0.0819  0.3270
  259MPD2    C2 3974   0.565   2.884   0.425 -0.5563  0.3674 -0.0848
  259MPD2    C3 3975   0.628   2.922   0.309 -0.5812  0.3757  0.1366
  259MPD2    C4 3976   0.683   3.048   0.291  0.6059  0.2134  0.2335
  259MPD2    C5 3977   0.668   3.141   0.392  0.0033 -0.1475 -0.4984
  259MPD2     H 3978   0.542   2.779   0.438  0.8225  0.3476  2.1083
  259MPD2    H1 3979   0.751   3.078   0.212 -0.0764  0.9472 -0.0783
  259MPD2    H2 3980   0.613   3.176   0.592 -1.4998  1.3810 -0.0433
  259MPD2    H3 3981   0.715   3.236   0.371  0.9032 -0.5634 -0.3758
  259MPD2     N 3982   0.642   2.812   0.212  0.2501 -0.0453  0.4850
  259MPD2    H5 3983   0.611   2.720   0.240 -0.0756  1.2292  4.2936
  259MPD2    N1 3984   0.511   2.940   0.653 -0.0339 -0.3746 -0.1699
  259MPD2    H7 3985   0.525   3.012   0.722 -1.3437  1.3737 -1.7349
  260TMC3    C1 3986   0.803   2.696   0.079  0.2424  0.7469 -0.5126
  260TMC3    C2 3987   0.864   2.669  17.704 -0.2916 -0.8103 -0.1439
  260TMC3    C3 3988   0.953   2.573  17.696  1.1624  0.4748  0.0233
  260TMC3    C4 3989   0.835   2.621   0.193 -0.7691 -0.2495  0.4847
  260TMC3    C5 3990   0.918   2.513   0.179 -0.5158 -0.3878  0.2810
  260TMC3    C6 3991   0.985   2.497   0.063 -0.2319 -0.1230 -0.0353
  260TMC3     C 3992   0.716   2.818   0.099  0.0176  0.4258  0.4615
  260TMC3     O 3993   0.730   2.906   0.016 -0.0432 -0.4569 -0.5176
  260TMC3     H 3994   0.831   2.720  17.615 -0.9245 -0.3603  0.3521
  260TMC3    H1 3995   0.778   2.643   0.282 -0.8947  1.9878 -0.1482
  260TMC3    H2 3996   1.059   2.420   0.045  0.1052  0.0950  0.4392
  260TMC3    C7 3997   0.872   2.389   0.227  0.0167  0.0143  0.0198
  260TMC3    C8 3998   0.924   2.482  17.589  0.5255 -0.0174 -0.4070
  260TMC3    O1 3999   0.920   2.291   0.170  0.5590  0.5456 -0.0772
  260TMC3    O2 4000   0.932   2.534  17.476  0.1961 -0.3837  0.0749
  261MPD2     C 4001   1.933   1.393  12.163 -0.0599  0.1911  0.2801
  261MPD2    C1 4002   1.966   1.501  12.247  0.2956  0.0641  0.3328
  261MPD2    C2 4003   1.948   1.628  12.192 -0.2300 -0.2634  0.0505
  261MPD2    C3 4004   1.906   1.647  12.061 -0.6666 -0.1329  0.9876
  261MPD2    C4 4005   1.856   1.537  11.998 -0.7374 -0.7632  0.0468
  261MPD2    C5 4006   1.862   1.413  12.051  0.6408 -0.4259 -0.7954
  261MPD2     H 4007   1.988   1.717  12.240 -1.8099  1.8177 -2.4896
  261MPD2    H1 4008   1.819   1.546  11.896  0.9236  0.3150 -0.4618
  261MPD2    H2 4009   1.960   1.290  12.183  0.7799  0.4228  0.3224
  261MPD2    H3 4010   1.837   1.328  11.988 -1.9992  0.6769 -1.2165
  261MPD2     N 4011   1.908   1.777  12.007  0.2700  0.1598  0.3575
  261MPD2    H5 4012   1.942   1.857  12.058 -4.2133  1.3295  1.5169
  261MPD2    N1 4013   2.041   1.497  12.362 -0.2823  0.6504 -0.5019
  261MPD2    H7 4014   2.070   1.587  12.400 -2.3642  0.4285  1.5699
  262TMC3    C1 4015   1.930   1.943  11.834  0.1300  0.1081  0.0423
  262TMC3    C2 4016   1.867   1.984  11.723 -0.3159  0.6200  0.2988
  262TMC3    C3 4017   1.929   2.087  11.659 -0.1689  0.4105  0.3065
  262TMC3    C4 4018   2.043   1.984  11.889  0.2040  0.0054  0.2835
  262TMC3    C5 4019   2.108   2.078  11.817 -1.1067  0.3521  0.2222
  262TMC3    C6 4020   2.051   2.123  11.698  0.5126  0.1587 -0.0834
  262TMC3     C 4021   1.877   1.807  11.870  1.3623  0.1621 -0.0861
  262TMC3     O 4022   1.831   1.747  11.774  0.9067  0.2280 -0.2040
  262TMC3     H 4023   1.769   1.943  11.699 -0.2795  0.6192  0.1532
  262TMC3    H1 4024   2.092   1.930  11.969 -0.8567 -1.2511  0.0881
  262TMC3    H2 4025   2.092   2.213  11.655 -0.5906  0.1361 -1.2021
  262TMC3    C7 4026   2.239   2.127  11.867  0.7050 -0.0889  0.3791
  262TMC3    C8 4027   1.840   2.203  11.668  0.1111  0.4001 -0.2560
  262TMC3    O1 4028   2.267   2.082  11.977 -0.2866 -0.2853 -0.1940
  262TMC3    O2 4029   1.892   2.303  11.708  0.0067  0.1285  0.8137
  263MPD2     C 4030   2.563   0.902  11.726 -0.2233  0.1582 -0.7871
  263MPD2    C1 4031   2.689   0.912  11.663  0.4071  0.1855 -0.7730
  263MPD2    C2 4032   2.713   1.027  11.583  0.0495 -0.3403 -0.4837
  263MPD2    C3 4033   2.621   1.137  11.561 -0.2629  0.1479 -0.7029
  263MPD2    C4 4034   2.504   1.119  11.632 -0.0807 -0.2797 -0.9982
  263MPD2    C5 4035   2.474   1.009  11.713  0.0080 -0.4064 -0.5455
  263MPD2     H 4036   2.815   1.046  11.550 -0.1463  0.7455 -0.4585
  263MPD2    H1 4037   2.425   1.193  11.642  1.2513  1.0702 -0.4804
  263MPD2    H2 4038   2.534   0.814  11.783  0.7981  0.8650  0.8303
  263MPD2    H3 4039   2.373   0.991  11.749  0.5307 -0.7950  0.6983
  263MPD2     N 4040   2.666   1.261  11.499 -0.5618  0.2227 -0.0821
  263MPD2    H5 4041   2.751   1.253  11.444 -0.0478  2.4531  0.3683
  263MPD2    N1 4042   2.793   0.829  11.702 -0.4346 -0.2065 -0.2784
  263MPD2    H7 4043   2.783   0.780  11.791 -3.6449  1.7283  0.4177
  264TMC3    C1 4044   2.632   1.481  11.416  0.1269 -0.2338 -0.0215
  264TMC3    C2 4045   2.641   1.604  11.480 -0.0234  0.1036  0.8383
  264TMC3    C3 4046   2.713   1.702  11.416 -0.6471  0.4996 -0.0716
  264TMC3    C4 4047   2.683   1.456  11.291  0.3524  0.7399  0.4926
  264TMC3    C5 4048   2.763   1.550  11.235  0.1263  0.8349 -0.5864
  264TMC3    C6 4049   2.776   1.675  11.294  0.8854  0.6148 -0.1607
  264TMC3     C 4050   2.587   1.375  11.496 -0.2671 -0.4207  0.0882
  264TMC3     O 4051   2.513   1.407  11.589 -0.4640 -0.2076 -0.4912
  264TMC3     H 4052   2.603   1.617  11.581 -2.5150 -0.5581 -0.0142
  264TMC3    H1 4053   2.671   1.353  11.260  2.3034  0.3328  1.0812
  264TMC3    H2 4054   2.819   1.758  11.240  1.0944  1.1174  0.7861
  264TMC3    C7 4055   2.851   1.526  11.121  0.2560  0.5187  0.6832
  264TMC3    C8 4056   2.787   1.800  11.493  0.5606  0.1126 -0.3049
  264TMC3    O1 4057   2.924   1.621  11.090 -0.0342 -0.0759  0.1973
  264TMC3    O2 4058   2.902   1.814  11.451  0.0351  0.7998  0.1486
  265MPD2     C 4059   0.103   1.149  15.663  0.7906 -0.0887 -0.1001
  265MPD2    C1 4060   0.121   1.261  15.588  0.4404 -0.2284 -0.4434
  265MPD2    C2 4061   0.193   1.248  15.468 -0.4331  0.0589  0.8046
  265MPD2    C3 4062   0.229   1.124  15.421 -0.4006  0.5185 -0.1191
  265MPD2    C4 4063   0.198   1.013  15.498 -0.0591  0.3670 -0.0020
  265MPD2    C5 4064   0.132   1.028  15.617 -0.5221  0.0230 -0.3749
  265MPD2     H 4065   0.219   1.333  15.407  0.0972 -0.3907  0.4069
  265MPD2    H1 4066   0.214   0.913  15.458 -2.2491  0.6064 -1.4796
  265MPD2    H2 4067   0.047   1.159  15.756  0.4419 -1.6388 -0.1430
  265MPD2    H3 4068   0.108   0.941  15.677  0.0285 -0.5831 -1.0294
  265MPD2     N 4069   0.297   1.100  15.293  0.2173 -0.0257  0.7492
  265MPD2    H5 4070   0.336   1.007  15.287  0.6095  0.2964 -1.5194
  265MPD2    N1 4071   0.089   1.393  15.639  0.2064 -0.3083  0.3871
  265MPD2    H7 4072   0.113   1.471  15.580 -1.0487 -1.3705 -1.5232
  266TMC3    C1 4073   0.026   1.554  15.804 -0.6977  0.2718 -0.3339
  266TMC3    C2 4074   0.070   1.577  15.931  0.5095  0.0217  0.2372
  266TMC3    C3 4075   0.015   1.682  16.000  0.9850  0.0125  0.4802
  266TMC3    C4 4076   4.650   1.621  15.756  0.0960 -0.1461  0.1492
  266TMC3    C5 4077   4.605   1.727  15.826 -0.8075 -0.2377 -0.6415
  266TMC3    C6 4078   4.655   1.768  15.951 -0.4313 -0.0651  0.3908
  266TMC3     C 4079   0.054   1.418  15.770  0.0348 -0.0350 -0.5804
  266TMC3     O 4080   0.041   1.350  15.873 -0.2851  0.1554 -0.4607
  266TMC3     H 4081   0.146   1.516  15.978  0.1289  1.8661  3.2485
  266TMC3    H1 4082   4.605   1.591  15.662  1.0299  0.1368 -0.3839
  266TMC3    H2 4083   4.610   1.852  16.003  1.5600  1.5599 -0.5112
  266TMC3    C7 4084   4.467   1.777  15.790 -0.0655  0.3233 -0.3398
  266TMC3    C8 4085   0.097   1.731  16.109 -0.5431 -0.2737 -0.1099
  266TMC3    O1 4086   4.394   1.701  15.730 -0.2761 -0.3168 -0.3380
  266TMC3    O2 4087   0.174   1.647  16.155 -0.2124 -0.2844  0.6709
  267MPD2     C 4088   2.447   2.695   0.089  0.0406  0.1444 -0.1047
  267MPD2    C1 4089   2.488   2.823   0.065 -0.0952  0.1795  0.3110
  267MPD2    C2 4090   2.390   2.914   0.035 -0.6467 -0.0535 -0.2109
  267MPD2    C3 4091   2.256   2.880   0.012 -0.0877  0.1767  0.1429
  267MPD2    C4 4092   2.224   2.752   0.032 -0.4946  0.6212  0.1174
  267MPD2    C5 4093   2.318   2.658   0.071  0.1629  0.1313 -0.4242
  267MPD2     H 4094   2.412   3.020   0.029  0.5698 -0.2360  1.1365
  267MPD2    H1 4095   2.126   2.715   0.003  0.5548 -1.1922 -1.1229
  267MPD2    H2 4096   2.513   2.618   0.127 -1.7880 -0.2665  2.1968
  267MPD2    H3 4097   2.286   2.555   0.076  1.8726 -0.3723  0.1309
  267MPD2     N 4098   2.160   2.978  17.711  0.0139 -0.2333  0.3153
  267MPD2    H5 4099   2.082   2.937  17.661  0.6025 -0.5798 -0.3136
  267MPD2    N1 4100   2.621   2.853   0.091  0.0601 -0.1781  0.3629
  267MPD2    H7 4101   2.679   2.784   0.137  0.2134 -1.3993 -1.6583
  268TMC3    C1 4102   2.822   2.987   0.097  0.4744  0.2455  1.2799
  268TMC3    C2 4103   2.864   3.101   0.036 -0.4524 -0.2144  0.0517
  268TMC3    C3 4104   2.947   3.175   0.112 -0.4825  0.4273  0.6513
  268TMC3    C4 4105   2.850   2.953   0.224 -0.0532  0.2156  0.6735
  268TMC3    C5 4106   2.927   3.034   0.303 -0.2969 -0.1751  0.6812
  268TMC3    C6 4107   2.985   3.146   0.246  0.5705 -0.8561 -0.8061
  268TMC3     C 4108   2.682   2.974   0.061  0.3715 -0.2629 -0.4382
  268TMC3     O 4109   2.643   3.058  17.726  0.3985  0.0134  0.5102
  268TMC3     H 4110   2.838   3.129  17.679 -1.0837 -0.6620  0.0936
  268TMC3    H1 4111   2.811   2.861   0.266 -0.7479 -0.1222 -0.7074
  268TMC3    H2 4112   3.043   3.219   0.301 -1.0933  2.5709 -3.6001
  268TMC3    C7 4113   2.934   3.011   0.444  0.0076 -0.5080  0.3278
  268TMC3    C8 4114   2.909   3.318   0.100  0.2228 -0.0085  0.7235
  268TMC3    O1 4115   2.896   2.908   0.494  0.6026  0.6890  0.6657
  268TMC3    O2 4116   2.909   3.392   0.198 -0.1933  0.1345  0.5830
  269MPD2     C 4117   3.318   2.008  15.683  0.0279 -0.5139 -0.8058
  269MPD2    C1 4118   3.181   2.015  15.687  0.1322 -0.3594  0.4117
  269MPD2    C2 4119   3.120   2.139  15.689 -0.6162  0.0745 -0.0950
  269MPD2    C3 4120   3.193   2.255  15.680 -0.2970 -0.3152 -0.4825
  269MPD2    C4 4121   3.329   2.244  15.687 -0.0607 -0.4381  0.1708
  269MPD2    C5 4122   3.383   2.118  15.677 -0.5428 -0.4734 -0.8984
  269MPD2     H 4123   3.014   2.155  15.707 -1.0417 -1.5592 -1.0766
  269MPD2    H1 4124   3.390   2.333  15.677  0.9511 -0.9391  1.9590
  269MPD2    H2 4125   3.382   1.921  15.692  1.0550 -0.0968 -4.1274
  269MPD2    H3 4126   3.492   2.118  15.681 -0.5293 -0.1864 -1.3102
  269MPD2     N 4127   3.118   2.374  15.691 -0.7254  0.0136 -0.6448
  269MPD2    H5 4128   3.017   2.370  15.691 -0.7511  0.5283  1.2875
  269MPD2    N1 4129   3.110   1.893  15.686 -0.0910 -0.0122 -0.4825
  269MPD2    H7 4130   3.169   1.810  15.683 -0.6791 -0.4703  0.3603
  270TMC3    C1 4131   2.944   1.742  15.605  0.3568 -0.1809  0.5617
  270TMC3    C2 4132   2.822   1.736  15.545 -0.5124 -0.4625 -0.5261
  270TMC3    C3 4133   2.794   1.627  15.470  0.7341 -0.5430  0.5737
  270TMC3    C4 4134   3.041   1.644  15.577 -0.1786  0.4447  0.1233
  270TMC3    C5 4135   3.014   1.547  15.488  0.0877  0.8876 -0.3485
  270TMC3    C6 4136   2.890   1.532  15.434  0.3773  0.2366  0.2412
  270TMC3     C 4137   2.977   1.877  15.660  0.0112 -0.1807  0.1551
  270TMC3     O 4138   2.897   1.969  15.647  0.4719  0.4268 -0.4730
  270TMC3     H 4139   2.748   1.804  15.585 -0.6800 -1.3188  0.6088
  270TMC3    H1 4140   3.135   1.641  15.631 -0.9490 -1.4247  1.3912
  270TMC3    H2 4141   2.866   1.436  15.388 -0.5895 -0.8142  2.9515
  270TMC3    C7 4142   3.120   1.452  15.459  0.3196  0.4642  0.4099
  270TMC3    C8 4143   2.653   1.611  15.425 -0.2851 -0.1289 -0.3175
  270TMC3    O1 4144   3.228   1.455  15.522  0.0405  0.0493  0.0878
  270TMC3    O2 4145   2.568   1.669  15.491 -0.5921 -0.4543 -0.2910
  271MPD2     C 4146   1.909   1.744  13.907  0.5191  0.7334  0.3742
  271MPD2    C1 4147   1.856   1.709  14.030 -0.0429  0.4211  0.4483
  271MPD2    C2 4148   1.725   1.738  14.071 -0.1066 -0.2201  0.0730
  271MPD2    C3 4149   1.643   1.800  13.973 -0.4297  0.2392  0.0550
  271MPD2    C4 4150   1.699   1.840  13.858 -0.6629  0.0931  0.1309
  271MPD2    C5 4151   1.831   1.821  13.830 -0.0130  0.6042  0.3510
  271MPD2     H 4152   1.689   1.692  14.162  0.8153 -4.1586 -1.5813
  271MPD2    H1 4153   1.652   1.905  13.786 -1.4388  1.5811  2.0035
  271MPD2    H2 4154   2.010   1.730  13.872  0.0407  0.2686 -0.8237
  271MPD2    H3 4155   1.879   1.845  13.735  0.3875 -1.6421 -0.0126
  271MPD2     N 4156   1.508   1.838  13.987  0.1795  0.3427 -0.6646
  271MPD2    H5 4157   1.462   1.877  13.905 -1.7556  0.6872  0.5793
  271MPD2    N1 4158   1.927   1.621  14.114  0.8251 -0.3530  0.9921
  271MPD2    H7 4159   1.876   1.586  14.194  0.2502 -0.4819  0.5716
  272TMC3    C1 4160   2.104   1.477  14.190 -0.3255  0.1960 -0.1901
  272TMC3    C2 4161   2.227   1.415  14.166 -0.2202 -0.4136 -0.3359
  272TMC3    C3 4162   2.289   1.331  14.250 -0.6879  0.1381  0.1644
  272TMC3    C4 4163   2.040   1.451  14.311  0.0738  0.6693 -0.9867
  272TMC3    C5 4164   2.097   1.367  14.395 -0.9446 -0.4010 -0.1689
  272TMC3    C6 4165   2.223   1.307  14.373 -0.6517 -0.1397  1.0365
  272TMC3     C 4166   2.050   1.564  14.085  0.1955 -0.8344  0.1794
  272TMC3     O 4167   2.128   1.582  13.992 -0.0083  0.1310 -0.6520
  272TMC3     H 4168   2.278   1.433  14.073 -2.4176  0.9057 -1.2759
  272TMC3    H1 4169   1.951   1.510  14.331  0.1476 -0.1510  1.8599
  272TMC3    H2 4170   2.260   1.248  14.455  1.1332 -0.3384  0.0832
  272TMC3    C7 4171   2.043   1.371  14.529 -0.6826 -0.1767  0.1278
  272TMC3    C8 4172   2.398   1.247  14.211 -0.9150 -0.3129 -0.2735
  272TMC3    O1 4173   1.994   1.274  14.585 -0.1713 -0.0661  0.4789
  272TMC3    O2 4174   2.425   1.256  14.092 -0.3905 -0.1290  0.0207
  273MPD2     C 4175   3.545   4.648  11.858 -0.3843 -0.1152 -0.8780
  273MPD2    C1 4176   3.601   0.035  11.862  0.1916  0.1714  0.4310
  273MPD2    C2 4177   3.601   0.108  11.747 -0.0152  0.6490 -0.0331
  273MPD2    C3 4178   3.547   0.062  11.628 -0.0220 -0.8271 -0.5027
  273MPD2    C4 4179   3.485   4.677  11.634 -0.5310  0.5046 -0.1538
  273MPD2    C5 4180   3.486   4.598  11.743 -0.3573  0.4155  0.3595
  273MPD2     H 4181   3.633   0.212  11.748  0.4144  0.5141  0.1344
  273MPD2    H1 4182   3.446   4.630  11.544 -1.9321  0.8750  0.2582
  273MPD2    H2 4183   3.555   4.581  11.943 -3.1849  2.6691  1.6364
  273MPD2    H3 4184   3.442   4.499  11.740  0.5540  0.0670 -1.4462
  273MPD2     N 4185   3.545   0.126  11.506  0.7041  0.2853  0.0371
  273MPD2    H5 4186   3.513   0.073  11.426  0.7772  0.8413 -0.3605
  273MPD2    N1 4187   3.677   0.076  11.976  0.3856 -0.5228  0.2280
  273MPD2    H7 4188   3.677   0.015  12.058 -2.9471  1.0697  1.4377
  274TMC3    C1 4189   3.580   0.296  11.346  0.3775 -0.0389  0.1949
  274TMC3    C2 4190   3.469   0.259  11.280 -0.5903 -0.3579  0.0131
  274TMC3    C3 4191   3.442   0.321  11.166 -0.6786 -0.0703 -0.6213
  274TMC3    C4 4192   3.653   0.406  11.310 -0.1869  0.2176  0.1563
  274TMC3    C5 4193   3.605   0.477  11.206 -0.3262  0.2690  1.3822
  274TMC3    C6 4194   3.504   0.437  11.126  0.6500 -0.4181 -0.2044
  274TMC3     C 4195   3.596   0.252  11.480  0.9421  0.3842  0.2668
  274TMC3     O 4196   3.654   0.328  11.553 -0.1053  0.0681 -0.4161
  274TMC3     H 4197   3.395   0.188  11.315  0.7364 -1.8540 -0.1663
  274TMC3    H1 4198   3.736   0.446  11.367  1.5849 -3.0178 -0.1174
  274TMC3    H2 4199   3.481   0.496  11.038  0.5437  1.3483  1.0162
  274TMC3    C7 4200   3.705   0.562  11.145  0.2772  0.1547  0.1010
  274TMC3    C8 4201   3.327   0.274  11.091  0.0197  0.2124  0.0658
  274TMC3    O1 4202   3.728   0.549  11.024  0.0780 -0.7518 -0.9276
  274TMC3    O2 4203   3.258   0.183  11.135 -0.1870 -0.2558  0.6397
  275MPD2     C 4204   3.311   2.822  14.489  0.0420 -0.1722 -0.2095
  275MPD2    C1 4205   3.277   2.694  14.508  0.5384 -0.1319 -0.6847
  275MPD2    C2 4206   3.181   2.636  14.427  0.4057 -0.5615 -0.4822
  275MPD2    C3 4207   3.112   2.707  14.327 -0.4667 -0.0113 -0.7014
  275MPD2    C4 4208   3.129   2.844  14.326  0.5832  0.6043  0.7530
  275MPD2    C5 4209   3.226   2.899  14.404  0.3014 -1.0786  0.5133
  275MPD2     H 4210   3.167   2.529  14.436  1.2450 -0.5707  0.7448
  275MPD2    H1 4211   3.079   2.911  14.257 -0.6552 -1.1535 -0.0456
  275MPD2    H2 4212   3.384   2.877  14.548  0.9407 -1.5054 -0.0749
  275MPD2    H3 4213   3.251   3.004  14.390 -0.7240 -1.2083 -2.1932
  275MPD2     N 4214   3.011   2.645  14.252 -0.1390 -1.0417 -0.7799
  275MPD2    H5 4215   2.966   2.705  14.183  1.6268  0.8997 -0.2642
  275MPD2    N1 4216   3.345   2.613  14.600 -0.4596 -0.2165 -0.0902
  275MPD2    H7 4217   3.328   2.513  14.603  1.0995 -0.4405  0.9565
  276TMC3    C1 4218   3.490   2.533  14.761 -0.0433 -0.0756 -0.3438
  276TMC3    C2 4219   3.526   2.434  14.683 -0.0434 -1.0619  0.4640
  276TMC3    C3 4220   3.587   2.323  14.734  0.2393  1.0877  0.2129
  276TMC3    C4 4221   3.535   2.544  14.889  0.5509  0.6066 -0.1171
  276TMC3    C5 4222   3.597   2.431  14.942 -0.6812 -0.6661 -0.9822
  276TMC3    C6 4223   3.627   2.320  14.867 -0.2587 -0.5796 -0.2667
  276TMC3     C 4224   3.418   2.649  14.710  0.3700 -0.2259 -0.0571
  276TMC3     O 4225   3.434   2.755  14.766 -0.6378  0.7992  0.0513
  276TMC3     H 4226   3.507   2.448  14.577 -0.5334  0.0234  0.6931
  276TMC3    H1 4227   3.514   2.632  14.948  1.3533  0.0019  1.0785
  276TMC3    H2 4228   3.683   2.231  14.892  0.8941  0.7874  2.0845
  276TMC3    C7 4229   3.678   2.455  15.061 -0.3796 -0.2639  0.0971
  276TMC3    C8 4230   3.609   2.218  14.639 -0.6301  0.4284 -0.1324
  276TMC3    O1 4231   3.637   2.544  15.138  0.2160 -0.4397  0.1138
  276TMC3    O2 4232   3.619   2.236  14.516 -0.5415 -0.6034 -0.2563
  277MPD2     C 4233   0.732   1.592  13.152 -0.0481 -0.2062  0.2065
  277MPD2    C1 4234   0.596   1.632  13.169 -0.3532 -0.5233 -0.0287
  277MPD2    C2 4235   0.515   1.557  13.246 -0.6869 -0.3258  0.1071
  277MPD2    C3 4236   0.572   1.469  13.322  0.1446  0.4266  0.2043
  277MPD2    C4 4237   0.710   1.434  13.324  0.2632 -0.8042  0.3209
  277MPD2    C5 4238   0.790   1.493  13.227  0.0999 -0.4562 -0.0440
  277MPD2     H 4239   0.409   1.575  13.253 -0.8762 -1.3627 -0.1466
  277MPD2    H1 4240   0.751   1.357  13.388  2.5647 -1.1089 -1.5321
  277MPD2    H2 4241   0.800   1.655  13.096 -0.8032  0.1799 -0.2646
  277MPD2    H3 4242   0.892   1.465  13.202 -0.0179  0.3491 -1.4338
  277MPD2     N 4243   0.481   1.414  13.413  0.1579 -0.3131 -0.2219
  277MPD2    H5 4244   0.393   1.464  13.425  0.4180 -0.4684  2.4801
  277MPD2    N1 4245   0.534   1.739  13.106  0.6023  0.6750 -0.2378
  277MPD2    H7 4246   0.438   1.756  13.136  0.6357  0.8108 -0.2077
  278TMC3    C1 4247   0.401   1.280  13.587 -0.5200 -1.4441  0.0234
  278TMC3    C2 4248   0.397   1.140  13.624  0.1443  0.1369  0.2523
  278TMC3    C3 4249   0.287   1.098  13.696  0.2328 -0.2676 -0.4192
  278TMC3    C4 4250   0.305   1.369  13.630  0.6410  0.2392 -0.0880
  278TMC3    C5 4251   0.202   1.316  13.702 -0.3215  0.0611  0.3154
  278TMC3    C6 4252   0.187   1.187  13.732  0.0123  0.4572  0.0136
  278TMC3     C 4253   0.510   1.309  13.496 -0.4442 -0.9352 -0.4220
  278TMC3     O 4254   0.602   1.227  13.501  0.1950  0.0531  0.3258
  278TMC3     H 4255   0.478   1.071  13.604 -0.0133  0.7077 -2.4083
  278TMC3    H1 4256   0.311   1.475  13.605  1.7988  0.4493  1.0683
  278TMC3    H2 4257   0.106   1.157  13.798 -0.1780  0.4649 -0.2201
  278TMC3    C7 4258   0.115   1.419  13.765  0.0050  0.1273  0.2791
  278TMC3    C8 4259   0.275   0.961  13.706 -0.0578 -0.0668  0.5276
  278TMC3    O1 4260   0.159   1.531  13.776 -0.7535 -0.0987  0.4094
  278TMC3    O2 4261   0.381   0.902  13.725  0.1157 -0.1865  0.0638
  279MPD2     C 4262   4.316   1.219   0.288  0.1392 -0.4265  0.5418
  279MPD2    C1 4263   4.251   1.341   0.310 -0.2323  0.2706  0.4024
  279MPD2    C2 4264   4.191   1.411   0.204  0.3036  0.2437 -0.1271
  279MPD2    C3 4265   4.192   1.358   0.079  0.6035 -0.0275  0.3723
  279MPD2    C4 4266   4.247   1.229   0.063  0.7006  0.2617  0.1198
  279MPD2    C5 4267   4.310   1.168   0.165  0.7482  0.0640  0.6149
  279MPD2     H 4268   4.172   1.515   0.227 -3.5757 -0.5122  0.0404
  279MPD2    H1 4269   4.260   1.189  17.707 -0.5801  1.4311 -0.5010
  279MPD2    H2 4270   4.368   1.159   0.362 -0.8003 -0.0565  1.5092
  279MPD2    H3 4271   4.357   1.074   0.136  0.4471 -0.0791  0.5891
  279MPD2     N 4272   4.176   1.431  17.704  0.4812  0.0031 -0.0403
  279MPD2    H5 4273   4.179   1.378  17.617 -2.2884 -0.1504 -0.0412
  279MPD2    N1 4274   4.263   1.395   0.437  0.3622  0.2072  0.9946
  279MPD2    H7 4275   4.339   1.356   0.492  3.3912  1.0810 -2.5538
  280TMC3    C1 4276   4.063   1.527   0.463 -0.2852 -1.1211  0.0627
  280TMC3    C2 4277   3.980   1.428   0.424 -0.3524  0.1191 -1.2068
  280TMC3    C3 4278   3.849   1.459   0.412 -0.1700 -0.2212  0.0086
  280TMC3    C4 4279   4.014   1.659   0.486 -0.2748  0.3323  0.1951
  280TMC3    C5 4280   3.886   1.678   0.468  0.5873  0.6190 -0.6951
  280TMC3    C6 4281   3.795   1.580   0.445 -0.1644  0.4917  0.3674
  280TMC3     C 4282   4.205   1.505   0.488 -0.4361 -0.2990  0.0883
  280TMC3     O 4283   4.262   1.586   0.553 -0.2757 -0.4275 -0.1545
  280TMC3     H 4284   4.001   1.322   0.417  1.8489  0.4576  0.2391
  280TMC3    H1 4285   4.074   1.734   0.538  2.7041 -2.3333  0.5986
  280TMC3    H2 4286   3.689   1.597   0.435 -0.2647  0.4912  1.4518
  280TMC3    C7 4287   3.860   1.814   0.433 -0.5368 -0.3597 -0.1360
  280TMC3    C8 4288   3.777   1.393   0.301  0.0968  0.3700  0.3080
  280TMC3    O1 4289   3.957   1.890   0.438  0.0540 -0.5824 -0.2957
  280TMC3    O2 4290   3.659   1.433   0.293  0.2753 -0.0914  0.5779
  281TMC3    C1 4291   2.876   2.014  13.466 -0.2821  0.5802  0.5458
  281TMC3    C2 4292   2.993   2.083  13.489 -0.1313  0.2630 -0.0751
  281TMC3    C3 4293   3.104   2.024  13.429  0.7223 -0.2237 -0.4296
  281TMC3    C4 4294   2.864   1.893  13.408  0.9671  0.5695  0.8471
  281TMC3    C5 4295   2.979   1.844  13.355  0.1724 -0.8956 -0.3618
  281TMC3    C6 4296   3.099   1.905  13.365  0.0437 -0.3378  0.0319
  281TMC3     C 4297   2.749   2.081  13.500  0.1777 -0.6186  0.2762
  281TMC3     O 4298   2.663   2.001  13.519 -0.3501  0.7508 -0.5226
  281TMC3     H 4299   2.998   2.174  13.548 -0.3440  0.1868  0.0628
  281TMC3    H1 4300   2.769   1.846  13.387  0.3540  1.9014  0.6278
  281TMC3    H2 4301   3.184   1.840  13.343  0.7043  0.7540 -0.6067
  281TMC3    C7 4302   2.974   1.723  13.278 -0.1837 -0.2055 -0.3877
  281TMC3    C8 4303   3.231   2.082  13.474  0.2091  0.6143  0.5507
  281TMC3    O1 4304   3.055   1.733  13.186  0.5087  0.2394 -0.0157
  281TMC3    O2 4305   3.319   2.003  13.494 -0.0707 -0.9400  0.3173
  282MPD2     C 4306   4.704   3.032  15.142 -0.4748  0.0170 -0.5867
  282MPD2    C1 4307   4.624   3.144  15.157 -0.7028 -0.1162  0.1050
  282MPD2    C2 4308   4.601   3.223  15.044 -0.1356 -0.0826 -0.1045
  282MPD2    C3 4309   4.657   3.191  14.920  0.3962 -0.1100 -0.3727
  282MPD2    C4 4310   4.730   3.078  14.914 -0.8812 -0.3052  0.2480
  282MPD2    C5 4311   0.022   2.999  15.022 -0.0235  0.6593 -0.6836
  282MPD2     H 4312   4.559   3.320  15.066  1.7802  0.7817 -0.2766
  282MPD2    H1 4313   0.021   3.039  14.816 -0.9880 -0.3310  0.2284
  282MPD2    H2 4314   0.004   2.984  15.231  0.5508 -2.2959 -2.2569
  282MPD2    H3 4315   0.085   2.911  15.018 -1.3246 -0.2868 -0.7741
  282MPD2     N 4316   4.638   3.268  14.804  0.2338 -0.5683  0.0815
  282MPD2    H5 4317   4.675   3.232  14.717  0.3732  1.2633 -0.6183
  282MPD2    N1 4318   4.571   3.180  15.279  0.3393 -0.3552 -0.1127
  282MPD2    H7 4319   4.536   3.275  15.288  1.3865  0.0148  0.0880
  283TMC3    C1 4320   4.489   3.146  15.495 -0.5161 -0.2722  0.7443
  283TMC3    C2 4321   4.469   3.285  15.511 -0.5711 -0.1409 -0.2116
  283TMC3    C3 4322   4.416   3.327  15.631  0.0770  0.3542 -0.7204
  283TMC3    C4 4323   4.464   3.054  15.595  0.1454 -0.0176 -0.0962
  283TMC3    C5 4324   4.413   3.107  15.710 -0.3389  0.2610  0.1418
  283TMC3    C6 4325   4.377   3.234  15.727  0.6537 -1.3986  0.1788
  283TMC3     C 4326   4.553   3.090  15.380  0.2046 -0.6129  0.7057
  283TMC3     O 4327   4.553   2.969  15.375 -0.7419 -0.5241 -0.8753
  283TMC3     H 4328   4.488   3.352  15.427 -2.5934 -1.0078 -1.3688
  283TMC3    H1 4329   4.477   2.948  15.578  1.4651  0.0133  0.7377
  283TMC3    H2 4330   4.362   3.268  15.829 -1.0777  1.5198 -1.0501
  283TMC3    C7 4331   4.370   3.021  15.817 -0.3574  0.1829  0.3126
  283TMC3    C8 4332   4.406   3.467  15.657  0.2528  0.2609 -0.0967
  283TMC3    O1 4333   4.318   3.073  15.916 -0.2758 -0.1707  0.0575
  283TMC3    O2 4334   4.376   3.499  15.773 -0.2432 -0.6380 -0.0339
  284MPD2     C 4335   2.800   3.028  12.120 -0.2072  0.5196 -0.0475
  284MPD2    C1 4336   2.934   2.996  12.140 -0.3256 -0.7414  0.5011
  284MPD2    C2 4337   2.970   2.866  12.179  0.7547  0.5890 -0.5200
  284MPD2    C3 4338   2.874   2.770  12.202 -0.1116  0.1057 -0.4963
  284MPD2    C4 4339   2.739   2.803  12.196 -0.5258  0.6860 -0.2509
  284MPD2    C5 4340   2.711   2.931  12.153  0.3662  0.8191 -0.0653
  284MPD2     H 4341   3.073   2.843  12.204  0.3970  0.5793  0.9454
  284MPD2    H1 4342   2.662   2.731  12.218  1.2899 -1.4053 -0.7006
  284MPD2    H2 4343   2.768   3.125  12.084 -1.0258  0.1578 -0.2881
  284MPD2    H3 4344   2.607   2.962  12.151 -0.2365 -1.1239  0.8341
  284MPD2     N 4345   2.922   2.648  12.248  0.4278 -0.4109 -0.5820
  284MPD2    H5 4346   3.021   2.630  12.237  0.9726  2.9042 -1.2680
  284MPD2    N1 4347   3.037   3.085  12.106  0.4725 -0.2181 -0.1630
  284MPD2    H7 4348   3.130   3.047  12.117  0.7041  0.4281  0.1453
  285TMC3    C1 4349   3.152   3.241  11.982  0.5251  0.1339 -0.1933
  285TMC3    C2 4350   3.229   3.132  11.947  0.8356 -1.0620  0.3432
  285TMC3    C3 4351   3.258   3.118  11.813  0.1642  0.6261 -0.4632
  285TMC3    C4 4352   3.130   3.346  11.894  0.8733 -0.4334  0.0581
  285TMC3    C5 4353   3.174   3.328  11.759 -0.3369 -0.3802 -0.5561
  285TMC3    C6 4354   3.229   3.217  11.718 -0.6102 -0.5385  0.6718
  285TMC3     C 4355   3.029   3.209  12.051  0.5715  0.3778 -0.5707
  285TMC3     O 4356   2.935   3.289  12.043  1.0017 -0.6089  0.5298
  285TMC3     H 4357   3.263   3.055  12.015 -0.5488 -0.6028  1.5556
  285TMC3    H1 4358   3.068   3.427  11.928 -0.1449 -0.5836 -1.4531
  285TMC3    H2 4359   3.268   3.218  11.617 -0.5017  1.9805  0.7444
  285TMC3    C7 4360   3.162   3.437  11.669  0.2697 -0.2087  0.5045
  285TMC3    C8 4361   3.303   2.992  11.758 -0.5932 -0.3554 -0.2668
  285TMC3    O1 4362   3.263   3.477  11.619 -0.1204 -0.4045 -0.3740
  285TMC3    O2 4363   3.290   2.895  11.829  0.6013  0.8644 -0.4557
  286MPD2     C 4364   3.619   1.363   1.495 -0.5353 -0.0685  0.6729
  286MPD2    C1 4365   3.561   1.286   1.396 -0.6305  0.6698 -0.0501
  286MPD2    C2 4366   3.629   1.177   1.343  0.2024  0.2377  0.4750
  286MPD2    C3 4367   3.753   1.140   1.403 -0.3362  0.5783 -0.8628
  286MPD2    C4 4368   3.812   1.225   1.499  0.2238 -0.2191 -0.1334
  286MPD2    C5 4369   3.746   1.335   1.537 -0.1180  0.0544  0.2715
  286MPD2     H 4370   3.589   1.115   1.263 -0.6156  0.5910  0.6067
  286MPD2    H1 4371   3.912   1.201   1.534  0.4651 -0.8146 -1.2458
  286MPD2    H2 4372   3.572   1.449   1.541  1.2576  1.1536  0.2419
  286MPD2    H3 4373   3.778   1.399   1.619 -1.2483 -1.0389  1.5631
  286MPD2     N 4374   3.822   1.015   1.371  0.3078  0.5027  0.6312
  286MPD2    H5 4375   3.914   1.003   1.413 -0.3066  0.3113  1.9386
  286MPD2    N1 4376   3.439   1.319   1.335 -0.0762  0.1207 -0.5352
  286MPD2    H7 4377   3.406   1.260   1.260 -0.5442 -1.6572  1.0718
  287TMC3    C1 4378   3.858   0.814   1.263  0.1023  0.1118  0.1381
  287TMC3    C2 4379   3.836   0.723   1.168 -0.9495  0.5172 -1.0612
  287TMC3    C3 4380   3.908   0.616   1.156  0.4036 -0.0976  0.1700
  287TMC3    C4 4381   3.962   0.784   1.355  0.4879 -0.0147  0.3538
  287TMC3    C5 4382   4.034   0.663   1.341 -0.1651 -0.5033 -0.7055
  287TMC3    C6 4383   4.001   0.577   1.243  0.2343 -0.0361  0.9403
  287TMC3     C 4384   3.778   0.928   1.269  0.0815  0.2238  0.1192
  287TMC3     O 4385   3.665   0.921   1.218 -0.0096 -1.2733 -0.1089
  287TMC3     H 4386   3.766   0.760   1.094 -1.9114  2.7918  0.9822
  287TMC3    H1 4387   3.988   0.849   1.437 -1.4928  0.6882  0.4296
  287TMC3    H2 4388   4.058   0.489   1.217  0.1718 -0.0287  0.7782
  287TMC3    C7 4389   4.150   0.641   1.417 -0.0688  0.3449  0.1015
  287TMC3    C8 4390   3.893   0.531   1.043  0.4772 -0.2667  0.1512
  287TMC3    O1 4391   4.178   0.728   1.496 -0.4212  0.6263 -0.4209
  287TMC3    O2 4392   3.790   0.530   0.987 -0.2044 -0.0518 -0.0756
  288TMC3    C1 4393   0.772   1.130  14.427 -0.2638 -0.1599  0.1848
  288TMC3    C2 4394   0.654   1.164  14.487 -0.1796  0.5244 -0.5898
  288TMC3    C3 4395   0.563   1.233  14.414  0.2926  0.3799 -0.2215
  288TMC3    C4 4396   0.808   1.167  14.298 -0.1015  0.0784 -0.0004
  288TMC3    C5 4397   0.702   1.231  14.227 -0.4781  0.2255 -0.9566
  288TMC3    C6 4398   0.590   1.279  14.294 -0.3447 -0.1837  0.0022
  288TMC3     C 4399   0.872   1.062  14.501  0.5667  0.6243 -0.6210
  288TMC3     O 4400   0.817   0.990  14.583 -0.3495 -0.3095  0.1424
  288TMC3     H 4401   0.632   1.154  14.592  3.3356  0.2045  0.0971
  288TMC3    H1 4402   0.899   1.132  14.250  0.3068  1.4466 -0.2058
  288TMC3    H2 4403   0.501   1.311  14.240  0.3549  2.3974  0.3883
  288TMC3    C7 4404   0.744   1.289  14.103 -0.6068 -0.3989 -0.3828
  288TMC3    C8 4405   0.449   1.291  14.483 -0.1367  0.4124  0.1380
  288TMC3    O1 4406   0.803   1.221  14.021  0.3253  0.5714 -0.4493
  288TMC3    O2 4407   0.418   1.406  14.452 -0.1794 -0.0730 -0.0972
  289MPD2     C 4408   0.345   0.332  14.619  0.1320 -0.4334  0.1298
  289MPD2    C1 4409   0.396   0.419  14.523 -0.4794 -0.7864  0.2071
  289MPD2    C2 4410   0.368   0.388  14.389  0.5634  0.1348 -0.2392
  289MPD2    C3 4411   0.284   0.277  14.360  0.5387 -0.1728 -0.1957
  289MPD2    C4 4412   0.250   0.191  14.459  0.2443 -0.4722  0.3907
  289MPD2    C5 4413   0.274   0.220  14.585  0.9253 -0.0266  0.8545
  289MPD2     H 4414   0.401   0.453  14.309  4.5219 -1.4996  0.0696
  289MPD2    H1 4415   0.206   0.095  14.435 -0.8825  0.3343 -0.7468
  289MPD2    H2 4416   0.365   0.347  14.725  3.3011 -1.2899 -0.3520
  289MPD2    H3 4417   0.250   0.146  14.660 -1.2805 -0.4080 -0.2420
  289MPD2     N 4418   0.243   0.248  14.231 -0.5887  0.3678  0.2281
  289MPD2    H5 4419   0.202   0.156  14.222  2.0852 -0.8975  1.2073
  289MPD2    N1 4420   0.483   0.523  14.557 -0.0082  0.5700  0.3636
  289MPD2    H7 4421   0.518   0.527  14.653 -0.0568 -3.3657  0.5152
  290TMC3    C1 4422   0.173   0.275  14.010 -0.8025  0.1057 -0.1197
  290TMC3    C2 4423   0.120   0.366  13.923 -0.4728 -0.2693  0.5557
  290TMC3    C3 4424   0.035   0.321  13.825 -0.2863  0.4439 -0.7769
  290TMC3    C4 4425   0.154   0.142  14.001  0.2840  0.8432 -0.1768
  290TMC3    C5 4426   0.058   0.105  13.905  0.4624  0.7092 -0.1873
  290TMC3    C6 4427   4.735   0.191  13.818 -0.3825  0.0352  0.4519
  290TMC3     C 4428   0.242   0.332  14.123 -0.1166  0.3686  0.6352
  290TMC3     O 4429   0.265   0.451  14.122  0.5864  0.6244  0.3644
  290TMC3     H 4430   0.142   0.472  13.935  1.4637 -0.6354  0.2056
  290TMC3    H1 4431   0.200   0.062  14.057 -0.3885 -0.2261 -1.1455
  290TMC3    H2 4432   4.668   0.158  13.739 -0.1664  1.8119 -0.4813
  290TMC3    C7 4433   0.041   4.699  13.872  0.3317 -0.2365  0.0682
  290TMC3    C8 4434   4.679   0.406  13.763  0.9393  0.8377  0.2885
  290TMC3    O1 4435   0.070   4.612  13.956  0.7498  0.2645 -0.5488
  290TMC3    O2 4436   4.616   0.356  13.666 -0.0601 -0.1956 -0.3865
  291MPD2     C 4437   4.235   0.168   0.401 -0.7102  1.0273 -0.2215
  291MPD2    C1 4438   4.335   0.108   0.474  0.2579  0.5704 -0.9843
  291MPD2    C2 4439   4.434   0.188   0.527  0.0579  0.6154  0.5003
  291MPD2    C3 4440   4.448   0.323   0.502  0.4442 -0.3842 -0.1850
  291MPD2    C4 4441   4.357   0.377   0.416 -0.5054  0.2050 -0.2093
  291MPD2    C5 4442   4.249   0.304   0.369  0.5094 -0.1465 -0.7801
  291MPD2     H 4443   4.497   0.144   0.602 -2.2609 -3.0440  0.2869
  291MPD2    H1 4444   4.364   0.480   0.383  0.6207 -0.0187 -0.6545
  291MPD2    H2 4445   4.160   0.105   0.354  1.8821  0.1974 -3.1815
  291MPD2    H3 4446   4.194   0.350   0.288 -0.3266  3.2158  1.6915
  291MPD2     N 4447   4.555   0.393   0.572 -0.1324  0.3596 -0.3736
  291MPD2    H5 4448   4.560   0.494   0.558 -0.6273  0.1922 -1.7307
  291MPD2    N1 4449   4.336   4.705   0.517 -1.4544 -0.1716  0.6828
  291MPD2    H7 4450   4.413   4.678   0.578  0.2535  3.9638  0.3860
  292TMC3    C1 4451   4.289   4.479   0.544  0.6492 -0.4786  0.4355
  292TMC3    C2 4452   4.325   4.492   0.679  0.1809  0.4900  0.0858
  292TMC3    C3 4453   4.346   4.379   0.743  0.4603  0.3750  0.1520
  292TMC3    C4 4454   4.259   4.363   0.482  1.1344  0.5705 -0.4923
  292TMC3    C5 4455   4.290   4.254   0.555  0.7221  0.2574 -0.6342
  292TMC3    C6 4456   4.328   4.255   0.684  1.2161 -0.1036 -0.1513
  292TMC3     C 4457   4.260   4.606   0.476  0.5390  0.0905  0.3822
  292TMC3     O 4458   4.182   4.608   0.380  0.2718  0.0251 -0.3302
  292TMC3     H 4459   4.322   4.585   0.733  1.1915  0.2887  0.4875
  292TMC3    H1 4460   4.225   4.371   0.380 -0.6655 -0.8662  0.0046
  292TMC3    H2 4461   4.343   4.162   0.739 -0.6446  0.4279  1.2588
  292TMC3    C7 4462   4.273   4.125   0.495  0.2211 -0.0408 -0.4375
  292TMC3    C8 4463   4.342   4.395   0.886 -0.3507  0.4233  0.2375
  292TMC3    O1 4464   4.351   4.034   0.524  0.2687 -0.1770 -0.4422
  292TMC3    O2 4465   4.375   4.506   0.935  0.3788  0.3000 -0.1315
  293MPD2     C 4466   1.493   1.624  12.652  0.2050 -0.6493  0.1427
  293MPD2    C1 4467   1.403   1.554  12.724 -0.4156 -0.3397 -0.8384
  293MPD2    C2 4468   1.418   1.550  12.860 -0.5236  0.5277 -0.8785
  293MPD2    C3 4469   1.522   1.608  12.926  0.0861  0.1691  0.2693
  293MPD2    C4 4470   1.620   1.673  12.843  0.1210 -0.0318  1.2459
  293MPD2    C5 4471   1.605   1.684  12.710  1.4766 -0.1590  0.3476
  293MPD2     H 4472   1.333   1.519  12.919  0.7544 -0.8538  0.2148
  293MPD2    H1 4473   1.710   1.716  12.884  1.6173  1.3520 -3.4815
  293MPD2    H2 4474   1.481   1.629  12.545  0.1172  0.0677  0.1852
  293MPD2    H3 4475   1.682   1.728  12.648 -0.4522 -0.1436 -2.0362
  293MPD2     N 4476   1.523   1.613  13.066  0.0121 -0.3227 -0.7711
  293MPD2    H5 4477   1.444   1.562  13.104  0.0082  0.1642 -0.1132
  293MPD2    N1 4478   1.294   1.499  12.654 -0.4329 -0.0010 -0.3617
  293MPD2    H7 4479   1.268   1.541  12.566 -1.8549  0.3348  0.2294
  294TMC3    C1 4480   1.125   1.344  12.609 -0.3900  0.0282 -0.5084
  294TMC3    C2 4481   1.095   1.207  12.590  0.7524  0.0475  0.0567
  294TMC3    C3 4482   1.001   1.182  12.496 -0.7765  0.2931  0.6446
  294TMC3    C4 4483   1.043   1.444  12.555 -0.2355 -0.4080 -0.0106
  294TMC3    C5 4484   0.945   1.404  12.467 -0.2885  0.5025 -0.2469
  294TMC3    C6 4485   0.928   1.276  12.435 -0.9218  0.2492  0.0865
  294TMC3     C 4486   1.232   1.384  12.700 -0.0370 -0.4115  0.1071
  294TMC3     O 4487   1.279   1.297  12.773 -0.1869  0.1421  0.4087
  294TMC3     H 4488   1.148   1.131  12.646  2.4017  2.2791  1.5582
  294TMC3    H1 4489   1.054   1.548  12.581  0.0027 -0.7712  1.3079
  294TMC3    H2 4490   0.856   1.253  12.357  0.1290 -1.9783 -0.2314
  294TMC3    C7 4491   0.880   1.509  12.389 -0.2597  0.3561 -0.3645
  294TMC3    C8 4492   0.929   1.056  12.512  0.3556  0.0231  0.2247
  294TMC3    O1 4493   0.782   1.473  12.328  0.1575 -0.1111  0.3015
  294TMC3    O2 4494   0.808   1.054  12.496  0.2421  0.5939 -0.3004
  295MPD2     C 4495   2.864   0.143   0.067 -0.2560 -0.5046  1.1253
  295MPD2    C1 4496   2.769   0.205   0.141 -0.8521  0.4711 -0.2011
  295MPD2    C2 4497   2.772   0.185   0.279 -0.7680 -0.1778 -0.1094
  295MPD2    C3 4498   2.861   0.107   0.344 -0.4448  0.5430  0.0131
  295MPD2    C4 4499   2.954   0.045   0.267  0.3035  0.0536 -0.4807
  295MPD2    C5 4500   2.957   0.068   0.131 -0.3258  0.3956  0.2276
  295MPD2     H 4501   2.693   0.229   0.341  0.4698 -3.0401  3.5275
  295MPD2    H1 4502   3.031   4.719   0.310  0.2995  0.5005  0.1882
  295MPD2    H2 4503   2.871   0.159  17.704 -0.0034  1.3089  1.4177
  295MPD2    H3 4504   3.041   0.018   0.083 -0.8306 -1.7883  1.6402
  295MPD2     N 4505   2.862   0.082   0.486  0.4069  0.7748  0.3078
  295MPD2    H5 4506   2.915   0.003   0.521  1.2887  1.9040  1.5353
  295MPD2    N1 4507   2.659   0.275   0.079 -0.2170  0.1793  0.6390
  295MPD2    H7 4508   2.598   0.314   0.150 -0.6041  0.8507 -0.0648
  296TMC3    C1 4509   2.774   0.080   0.700  0.1175 -0.3401  0.5039
  296TMC3    C2 4510   2.731   0.154   0.805  0.1053  0.0536  0.5594
  296TMC3    C3 4511   2.694   0.079   0.920 -0.0276  0.2271 -0.2602
  296TMC3    C4 4512   2.776   4.683   0.702 -0.3415 -0.4088 -0.2175
  296TMC3    C5 4513   2.729   4.618   0.811  0.3555  0.8742  0.5427
  296TMC3    C6 4514   2.696   4.679   0.926 -0.4264 -0.3323  0.0315
  296TMC3     C 4515   2.772   0.144   0.573  0.2448 -0.3465  0.4604
  296TMC3     O 4516   2.694   0.238   0.547 -0.0971  0.3578  0.1232
  296TMC3     H 4517   2.706   0.259   0.796  0.7969  0.1460 -0.2430
  296TMC3    H1 4518   2.806   4.611   0.627 -0.2014  1.0670 -1.5882
  296TMC3    H2 4519   2.660   4.631   1.017  0.0273  1.9999  1.4364
  296TMC3    C7 4520   2.755   4.475   0.812  0.6616  0.3507  0.1395
  296TMC3    C8 4521   2.615   0.151   1.020  0.4623 -0.6966 -0.2251
  296TMC3    O1 4522   2.858   4.427   0.776  0.2017  0.5757 -0.0262
  296TMC3    O2 4523   2.568   0.258   0.981  0.0864 -0.1377  0.2348
  297MPD2     C 4524   3.876   1.550  16.403 -0.2102 -0.2074 -0.2945
  297MPD2    C1 4525   3.845   1.678  16.363  0.2907 -0.3816  0.5983
  297MPD2    C2 4526   3.946   1.781  16.363  0.6536 -0.0362 -0.7077
  297MPD2    C3 4527   4.066   1.758  16.425  0.7522  0.1026  0.4636
  297MPD2    C4 4528   4.082   1.631  16.493 -0.4599  0.2010  0.2757
  297MPD2    C5 4529   3.985   1.533  16.488 -0.7981 -0.6588 -0.3772
  297MPD2     H 4530   3.915   1.882  16.342 -0.8256 -0.2909  0.2917
  297MPD2    H1 4531   4.177   1.614  16.541  0.0225 -2.5966 -1.6296
  297MPD2    H2 4532   3.808   1.467  16.393 -0.0357 -0.5668  1.3969
  297MPD2    H3 4533   4.007   1.431  16.516  3.0189  0.6333  1.2834
  297MPD2     N 4534   4.165   1.855  16.439  0.0992 -0.1636  0.2171
  297MPD2    H5 4535   4.232   1.840  16.514  2.6448  2.2004 -1.6293
  297MPD2    N1 4536   3.722   1.694  16.304 -0.2527 -0.5381  0.3664
  297MPD2    H7 4537   3.678   1.608  16.272  0.1511 -1.0098  1.0930
  298TMC3    C1 4538   3.522   1.800  16.227 -0.1689 -0.2779  0.2339
  298TMC3    C2 4539   3.532   1.745  16.100  0.0150 -0.2163 -0.2189
  298TMC3    C3 4540   3.428   1.789  16.024 -0.1219  0.4122  0.2021
  298TMC3    C4 4541   3.422   1.882  16.270 -0.2313  0.2601  0.3787
  298TMC3    C5 4542   3.317   1.915  16.187 -1.0530 -0.2811 -0.1490
  298TMC3    C6 4543   3.312   1.857  16.069  0.4648  0.5449 -0.0808
  298TMC3     C 4544   3.649   1.809  16.304 -0.6794 -0.0087  0.6914
  298TMC3     O 4545   3.649   1.895  16.389 -0.2280  0.1854 -0.5555
  298TMC3     H 4546   3.615   1.689  16.061  0.0714 -1.1552  1.2371
  298TMC3    H1 4547   3.430   1.933  16.365 -1.7899  1.2227 -0.0085
  298TMC3    H2 4548   3.227   1.868  16.003  2.0064  2.0467 -1.8178
  298TMC3    C7 4549   3.226   2.019  16.232 -0.3256 -0.9480  0.2937
  298TMC3    C8 4550   3.421   1.734  15.892  0.2754  0.7545  0.1975
  298TMC3    O1 4551   3.251   2.071  16.339 -0.3945 -0.0256 -0.2723
  298TMC3    O2 4552   3.311   1.710  15.838  0.1276 -0.1313  0.2158
  299MPD2     C 4553   4.347   2.362  10.763 -0.0436 -0.2202  0.3081
  299MPD2    C1 4554   4.286   2.292  10.871 -0.5820 -0.2239 -0.6746
  299MPD2    C2 4555   4.164   2.232  10.845 -0.2460  1.0548  0.7670
  299MPD2    C3 4556   4.111   2.230  10.714  0.5132  0.5340  0.0735
  299MPD2    C4 4557   4.185   2.286  10.618 -0.5024  0.0706  0.2692
  299MPD2    C5 4558   4.293   2.363  10.643  0.6884  0.0276  0.0401
  299MPD2     H 4559   4.101   2.193  10.923  0.4257  0.0764  0.8175
  299MPD2    H1 4560   4.163   2.279  10.512  0.0081  0.8784  0.1076
  299MPD2    H2 4561   4.436   2.422  10.777  0.1326 -0.4647  0.2366
  299MPD2    H3 4562   4.331   2.420  10.558  0.1286  0.4912  0.1011
  299MPD2     N 4563   3.992   2.164  10.680 -0.5114 -0.0432 -0.7486
  299MPD2    H5 4564   3.962   2.166  10.583  0.2835 -0.6744 -1.0025
  299MPD2    N1 4565   4.351   2.292  10.990  0.1810  0.0373  0.3995
  299MPD2    H7 4566   4.436   2.348  10.992  0.5607 -0.5446  0.3841
  300TMC3    C1 4567   3.769   2.094  10.710 -0.3373 -0.2965 -0.2255
  300TMC3    C2 4568   3.740   2.166  10.592  0.6505  0.2308  0.7509
  300TMC3    C3 4569   3.611   2.159  10.553 -0.0006  0.0884  0.1343
  300TMC3    C4 4570   3.671   2.038  10.790 -0.6109  0.0057 -0.5004
  300TMC3    C5 4571   3.542   2.047  10.750  0.6807 -0.2363  0.4423
  300TMC3    C6 4572   3.514   2.107  10.630  0.0394  0.2420 -0.3902
  300TMC3     C 4573   3.892   2.125  10.770  0.1749  0.0290  0.2798
  300TMC3     O 4574   3.899   2.115  10.890  0.2767 -0.0327 -0.0772
  300TMC3     H 4575   3.819   2.211  10.533  2.0721 -0.6269  2.0038
  300TMC3    H1 4576   3.701   1.994  10.885 -1.1030  1.4399  0.3149
  300TMC3    H2 4577   3.411   2.107  10.594 -0.2130  0.0338  0.3297
  300TMC3    C7 4578   3.441   1.977  10.826 -0.7741 -1.0842  0.2794
  300TMC3    C8 4579   3.571   2.274  10.476 -1.1523 -0.0293 -0.6855
  300TMC3    O1 4580   3.360   1.916  10.766  0.0966  0.0907  0.0962
  300TMC3    O2 4581   3.655   2.357  10.443 -0.2278 -0.2143  0.3565
  301MPD2     C 4582   2.403   3.308   1.239  0.3455  0.1647  0.5767
  301MPD2    C1 4583   2.305   3.233   1.176  0.2957  0.3475 -0.3341
  301MPD2    C2 4584   2.293   3.095   1.195  0.2782 -0.0518 -0.2142
  301MPD2    C3 4585   2.389   3.021   1.263 -0.4135 -0.3820 -0.1209
  301MPD2    C4 4586   2.493   3.097   1.314 -0.1301 -0.0345 -0.2043
  301MPD2    C5 4587   2.496   3.235   1.308 -0.7882  0.0593  0.1195
  301MPD2     H 4588   2.202   3.051   1.156 -1.2532  1.2881  1.8670
  301MPD2    H1 4589   2.574   3.044   1.363  0.6404 -0.5415 -2.0415
  301MPD2    H2 4590   2.404   3.416   1.223  1.5373 -0.1171 -1.2274
  301MPD2    H3 4591   2.584   3.285   1.348  0.5340 -2.4960  0.4466
  301MPD2     N 4592   2.398   2.878   1.278 -0.0836 -0.0817 -0.3153
  301MPD2    H5 4593   2.468   2.844   1.344  0.5180  2.5025  0.3763
  301MPD2    N1 4594   2.197   3.296   1.121  0.7788  0.1137  0.5614
  301MPD2    H7 4595   2.117   3.240   1.094  0.4425  0.2066  1.3442
  302TMC3    C1 4596   2.333   2.658   1.242 -0.0613  0.4430  0.3419
  302TMC3    C2 4597   2.352   2.623   1.371 -0.0830  0.0537 -0.4625
  302TMC3    C3 4598   2.314   2.497   1.406  0.0084  0.4546  0.1032
  302TMC3    C4 4599   2.285   2.573   1.150  1.0725  0.1208 -1.0053
  302TMC3    C5 4600   2.250   2.450   1.187  0.4111 -0.2518  0.4234
  302TMC3    C6 4601   2.264   2.403   1.314 -0.3235  0.3978 -0.1441
  302TMC3     C 4602   2.336   2.793   1.193  0.8869 -0.1063  0.1157
  302TMC3     O 4603   2.288   2.826   1.087  0.0761 -0.2674  0.2207
  302TMC3     H 4604   2.391   2.689   1.447 -2.1692  3.3432 -2.2632
  302TMC3    H1 4605   2.286   2.603   1.046 -2.6634 -1.1748 -1.4328
  302TMC3    H2 4606   2.217   2.305   1.321  3.2276 -1.2957  0.1112
  302TMC3    C7 4607   2.179   2.364   1.090  0.1748  0.5718  0.2273
  302TMC3    C8 4608   2.341   2.454   1.540 -0.4838 -0.7345  0.1554
  302TMC3    O1 4609   2.203   2.245   1.090 -0.2551 -0.3353 -0.2317
  302TMC3    O2 4610   2.438   2.509   1.595 -0.2905 -0.3615 -0.2001
  303MPD2     C 4611   1.550   2.254  10.519 -0.5993 -0.4360 -0.0782
  303MPD2    C1 4612   1.535   2.142  10.594 -0.6566  0.0925  0.3005
  303MPD2    C2 4613   1.611   2.029  10.565  0.0147  0.1811 -0.8894
  303MPD2    C3 4614   1.698   2.040  10.460  0.0555  0.2456  0.4556
  303MPD2    C4 4615   1.712   2.150  10.381  0.8279 -0.4326 -0.0303
  303MPD2    C5 4616   1.639   2.261  10.420 -0.0145  0.0075  0.3988
  303MPD2     H 4617   1.608   1.937  10.623  1.3911  0.7425  0.0890
  303MPD2    H1 4618   1.775   2.150  10.292 -0.9598 -0.2326 -1.2925
  303MPD2    H2 4619   1.493   2.342  10.545  1.6177  0.9604 -0.0627
  303MPD2    H3 4620   1.644   2.355  10.366  0.5093  0.7050  1.6883
  303MPD2     N 4621   1.782   1.927  10.425 -0.0636  0.3498 -0.0813
  303MPD2    H5 4622   1.842   1.940  10.344  1.7373  2.3383  1.5936
  303MPD2    N1 4623   1.435   2.144  10.689 -1.1446  0.2894  0.3443
  303MPD2    H7 4624   1.383   2.231  10.692 -2.1185 -0.3113  0.6278
  304TMC3    C1 4625   1.310   2.114  10.872 -0.1560  0.7260  0.6462
  304TMC3    C2 4626   1.235   2.024  10.944  0.4447  0.0242  1.1331
  304TMC3    C3 4627   1.205   2.048  11.073  0.2349 -0.4798 -0.6324
  304TMC3    C4 4628   1.363   2.219  10.941  0.0335  0.2163 -0.6894
  304TMC3    C5 4629   1.337   2.239  11.071  0.1947 -0.5821 -0.1030
  304TMC3    C6 4630   1.249   2.160  11.137 -0.4787 -0.5297 -0.5566
  304TMC3     C 4631   1.405   2.049  10.781  0.0120  1.1177  0.1836
  304TMC3     O 4632   1.437   1.930  10.793 -0.1669 -0.5535 -0.0314
  304TMC3     H 4633   1.225   1.925  10.900  2.7081 -0.0321  0.7109
  304TMC3    H1 4634   1.430   2.289  10.893  1.2496 -1.0589 -0.8535
  304TMC3    H2 4635   1.226   2.181  11.241 -1.0502 -0.5283 -0.6869
  304TMC3    C7 4636   1.465   2.269  11.128  0.1076  0.4157  0.3916
  304TMC3    C8 4637   1.244   1.934  11.158  0.5850 -0.5797 -0.0123
  304TMC3    O1 4638   1.532   2.362  11.077 -0.2722 -0.3126 -0.7926
  304TMC3    O2 4639   1.321   1.952  11.253 -0.1937  0.5330 -0.0940
  305MPD2     C 4640   0.010   3.585  13.744  0.7224 -0.4480 -0.3752
  305MPD2    C1 4641   0.106   3.487  13.790  0.3461 -0.0593 -1.0481
  305MPD2    C2 4642   0.129   3.372  13.721 -0.8764  0.2032 -0.7300
  305MPD2    C3 4643   0.044   3.344  13.614 -0.9388  0.0172 -0.1637
  305MPD2    C4 4644   4.684   3.430  13.580  0.0863 -0.1062 -0.3658
  305MPD2    C5 4645   4.661   3.544  13.646 -0.1392  0.3065 -0.2018
  305MPD2     H 4646   0.210   3.307  13.753  0.9530  2.4233 -0.9091
  305MPD2    H1 4647   4.606   3.409  13.507  0.0939 -1.6291  0.0492
  305MPD2    H2 4648   4.731   3.679  13.794  0.2923 -0.1255 -1.1133
  305MPD2    H3 4649   4.597   3.619  13.601  1.5628  1.2901 -0.9894
  305MPD2     N 4650   0.063   3.231  13.534  0.5222 -0.2392  0.1209
  305MPD2    H5 4651   4.733   3.219  13.459 -1.8675  2.3681  1.7986
  305MPD2    N1 4652   0.160   3.515  13.912  0.0140  0.1049 -0.8802
  305MPD2    H7 4653   0.154   3.611  13.944  0.0772 -0.4425  0.7631
  306TMC3    C1 4654   0.261   3.457  14.124  0.4915  0.3912  0.3838
  306TMC3    C2 4655   0.243   3.373  14.227  0.4332 -0.7430  0.1479
  306TMC3    C3 4656   0.288   3.418  14.348 -0.3870 -0.5519 -0.1195
  306TMC3    C4 4657   0.343   3.570  14.130 -0.3880  0.2396 -0.0245
  306TMC3    C5 4658   0.384   3.599  14.257 -0.0394 -0.1988  0.0904
  306TMC3    C6 4659   0.356   3.529  14.369  0.1111  0.1397  0.1684
  306TMC3     C 4660   0.213   3.417  14.004 -0.0224  0.2497 -0.9102
  306TMC3     O 4661   0.193   3.297  14.000  0.2573 -0.0115  0.4267
  306TMC3     H 4662   0.189   3.279  14.221  0.5227 -0.7084 -1.0785
  306TMC3    H1 4663   0.393   3.613  14.044 -0.2681  1.6562  0.7623
  306TMC3    H2 4664   0.394   3.557  14.467 -1.5509  1.4080  0.4592
  306TMC3    C7 4665   0.459   3.722  14.262  0.2129 -0.1237  0.3010
  306TMC3    C8 4666   0.248   3.331  14.458  0.1981  0.1097 -0.5094
  306TMC3    O1 4667   0.506   3.774  14.159  0.5641  0.5978 -0.1922
  306TMC3    O2 4668   0.211   3.223  14.419 -0.2475 -0.0984 -0.1661
  307MPD2     C 4669   3.087   1.785   1.191  0.7046 -0.6829  0.0811
  307MPD2    C1 4670   2.966   1.764   1.122 -0.4418  0.1943  0.4907
  307MPD2    C2 4671   2.851   1.767   1.197 -0.0769 -0.6009  0.5318
  307MPD2    C3 4672   2.839   1.800   1.329  0.0982  0.2243  0.7409
  307MPD2    C4 4673   2.957   1.837   1.390 -0.3645 -0.0396  0.4746
  307MPD2    C5 4674   3.073   1.826   1.316 -0.0294 -0.1019 -0.3414
  307MPD2     H 4675   2.759   1.748   1.142 -0.2740 -2.0319  1.3525
  307MPD2    H1 4676   2.963   1.862   1.495  2.4742 -0.5852  0.4485
  307MPD2    H2 4677   3.190   1.791   1.158  1.3023 -0.5468  1.9628
  307MPD2    H3 4678   3.165   1.845   1.371  0.3129 -0.0909 -0.9123
  307MPD2     N 4679   2.716   1.798   1.395  0.0747  0.3573 -0.2792
  307MPD2    H5 4680   2.635   1.787   1.334 -0.6702 -0.2695  0.8044
  307MPD2    N1 4681   2.977   1.741   0.985  0.0213 -0.3925  0.2158
  307MPD2    H7 4682   3.060   1.771   0.936  0.6744 -0.4339  1.3077
  308TMC3    C1 4683   2.398   1.950   1.386  0.4025 -0.0526 -0.1467
  308TMC3    C2 4684   2.428   2.080   1.377 -0.0707 -0.1482 -0.2796
  308TMC3    C3 4685   2.536   2.118   1.451 -0.3326  0.6891  0.1490
  308TMC3    C4 4686   2.469   1.862   1.465 -0.1953  0.6674  0.2657
  308TMC3    C5 4687   2.573   1.905   1.540  0.6311 -0.0104 -0.2572
  308TMC3    C6 4688   2.604   2.039   1.535 -0.5855  0.4584 -0.2056
  308TMC3     C 4689   2.386   1.879   1.257 -0.1380 -0.2903 -1.0995
  308TMC3     O 4690   2.475   1.801   1.227  0.0815 -0.1816  0.1392
  308TMC3     H 4691   2.372   2.141   1.307  0.3567 -0.3508 -0.8043
  308TMC3    H1 4692   2.464   1.755   1.448 -0.7713  0.6398  0.6229
  308TMC3    H2 4693   2.691   2.075   1.589  0.3108 -2.3898  0.2298
  308TMC3    C7 4694   2.691   1.824   1.526 -0.3486  0.6950  0.2740
  308TMC3    C8 4695   2.600   2.250   1.424 -0.2904  0.2268 -0.3075
  308TMC3    O1 4696   2.778   1.829   1.615  0.0213 -0.3049  0.1607
  308TMC3    O2 4697   2.675   2.286   1.513  0.0225 -0.2879  0.0332
  309MPD2     C 4698   2.162   2.223  17.252 -0.2222  0.3727  0.5926
  309MPD2    C1 4699   2.090   2.166  17.145 -0.7621 -0.3095 -0.0117
  309MPD2    C2 4700   1.964   2.126  17.176 -0.4659 -0.0845 -0.7796
  309MPD2    C3 4701   1.906   2.140  17.302  0.5094 -0.6501  0.7422
  309MPD2    C4 4702   1.975   2.199  17.403 -0.0900 -0.3049  0.4585
  309MPD2    C5 4703   2.105   2.241  17.375  0.1169 -0.2029  0.2040
  309MPD2     H 4704   1.897   2.082  17.103  0.9749 -3.0168 -0.3321
  309MPD2    H1 4705   1.933   2.225  17.500 -0.4796  3.1037 -0.6303
  309MPD2    H2 4706   2.261   2.267  17.244 -0.7176  1.3141 -0.3336
  309MPD2    H3 4707   2.162   2.292  17.452  0.6241  0.9372 -0.9293
  309MPD2     N 4708   1.778   2.098  17.328  0.7307  0.0323 -0.2823
  309MPD2    H5 4709   1.748   2.100  17.425  1.8378  0.5937  0.0499
  309MPD2    N1 4710   2.134   2.142  17.016  0.0786  0.5660 -0.6034
  309MPD2    H7 4711   2.066   2.107  16.950  0.4055  1.0734 -1.2151
  310TMC3    C1 4712   2.298   2.099  16.844 -0.9414 -0.7774 -0.1473
  310TMC3    C2 4713   2.212   2.113  16.739 -0.2494 -0.0130 -0.2423
  310TMC3    C3 4714   2.265   2.100  16.622  0.4665 -0.2700  0.4591
  310TMC3    C4 4715   2.433   2.066  16.833 -0.2168 -0.3053  0.0961
  310TMC3    C5 4716   2.479   2.037  16.707  0.0799 -1.3018 -0.1503
  310TMC3    C6 4717   2.399   2.059  16.604  0.0168  1.0515  0.5590
  310TMC3     C 4718   2.266   2.144  16.977  0.9332 -0.4483 -0.8535
  310TMC3     O 4719   2.362   2.174  17.048  0.0195 -0.0010 -0.2638
  310TMC3     H 4720   2.111   2.151  16.749  0.8203  2.2662  2.0563
  310TMC3    H1 4721   2.495   2.049  16.920 -1.3884  0.5962  1.1049
  310TMC3    H2 4722   2.425   2.035  16.502  1.6003  1.9308  0.7581
  310TMC3    C7 4723   2.579   1.940  16.685  0.2802  0.0055  0.7546
  310TMC3    C8 4724   2.189   2.147  16.511 -0.6145  0.4241  0.7600
  310TMC3    O1 4725   2.566   1.874  16.584  0.8160 -0.0366  0.1879
  310TMC3    O2 4726   2.070   2.113  16.502 -0.4585  0.3349 -0.4232
  311MPD2     C 4727   3.718   3.004  12.478 -0.0983  0.1174  0.4349
  311MPD2    C1 4728   3.750   3.076  12.591  0.7713  0.0035 -0.6914
  311MPD2    C2 4729   3.687   3.044  12.709 -0.2315  0.5927 -0.2245
  311MPD2    C3 4730   3.600   2.939  12.722  0.5227  0.1619  0.0411
  311MPD2    C4 4731   3.576   2.860  12.612 -0.0918 -0.2196 -0.8076
  311MPD2    C5 4732   3.634   2.898  12.496  0.6930 -0.0793 -0.2080
  311MPD2     H 4733   3.725   3.099  12.794 -1.3916 -0.1231  0.7521
  311MPD2    H1 4734   3.528   2.763  12.626 -0.0046 -0.2067 -0.4123
  311MPD2    H2 4735   3.753   3.014  12.376  0.5910  1.0480  0.7696
  311MPD2    H3 4736   3.612   2.832  12.413  2.4048 -0.3489 -0.4499
  311MPD2     N 4737   3.540   2.918  12.849  0.4944  0.2804 -0.0672
  311MPD2    H5 4738   3.560   2.985  12.922 -2.2295  0.8200  0.1952
  311MPD2    N1 4739   3.848   3.182  12.597 -0.1700 -0.2186  0.3501
  311MPD2    H7 4740   3.860   3.233  12.684  0.4477 -2.9809  1.8859
  312TMC3    C1 4741   3.359   2.871  12.995  0.0915  0.0428  0.0192
  312TMC3    C2 4742   3.221   2.842  12.972  0.1479  0.0793  0.5229
  312TMC3    C3 4743   3.128   2.929  13.031 -0.4397  0.3963 -0.3609
  312TMC3    C4 4744   3.385   2.988  13.069  0.0663 -1.3045  0.3948
  312TMC3    C5 4745   3.287   3.071  13.119  0.9209 -0.3515  0.0394
  312TMC3    C6 4746   3.158   3.049  13.088  0.1228 -0.0812  0.1214
  312TMC3     C 4747   3.434   2.838  12.877 -0.2275 -0.4543 -0.7669
  312TMC3     O 4748   3.384   2.752  12.806 -0.1873 -0.0653 -0.2133
  312TMC3     H 4749   3.180   2.753  12.926  1.3715  0.7246 -1.7884
  312TMC3    H1 4750   3.489   3.000  13.098 -0.2664 -0.3143  1.1688
  312TMC3    H2 4751   3.083   3.118  13.123  0.1867 -0.3256  0.7525
  312TMC3    C7 4752   3.319   3.199  13.183 -0.4510 -0.1092  0.1582
  312TMC3    C8 4753   2.990   2.918  12.987 -0.9421  0.3132  0.6547
  312TMC3    O1 4754   3.270   3.296  13.121  0.3983 -0.0460 -0.5164
  312TMC3    O2 4755   2.935   2.807  12.995 -0.2118  0.3583 -0.0500
  313MPD2     C 4756   2.896   3.045  11.693 -0.2947  1.2600  0.4447
  313MPD2    C1 4757   2.954   3.035  11.570  0.8041 -0.0852  0.3497
  313MPD2    C2 4758   3.007   2.914  11.535 -0.4065  0.3369 -0.3143
  313MPD2    C3 4759   3.005   2.803  11.621  0.1403  0.9274 -0.0184
  313MPD2    C4 4760   2.952   2.814  11.750 -0.2162  0.6947  0.2940
  313MPD2    C5 4761   2.898   2.933  11.784  0.0012  0.4320  0.5017
  313MPD2     H 4762   3.035   2.894  11.433 -1.2499 -0.8894 -0.3065
  313MPD2    H1 4763   2.942   2.741  11.830  2.3570  0.7094  0.6500
  313MPD2    H2 4764   2.842   3.133  11.725 -2.7526 -0.1137  0.0410
  313MPD2    H3 4765   2.851   2.941  11.881 -0.9930  1.1015 -0.0241
  313MPD2     N 4766   3.057   2.675  11.574  0.0160  0.1716  0.6553
  313MPD2    H5 4767   3.089   2.668  11.478  0.7456  1.4463  0.8060
  313MPD2    N1 4768   2.959   3.136  11.478  0.0787 -0.1515  0.3457
  313MPD2    H7 4769   3.016   3.120  11.396 -0.0249  2.2935 -0.1990
  314TMC3    C1 4770   2.912   3.335  11.371 -0.1464 -0.7187 -0.1204
  314TMC3    C2 4771   3.045   3.382  11.350 -0.1668  0.1585  0.4588
  314TMC3    C3 4772   3.060   3.473  11.245 -0.7517 -0.4108  0.4067
  314TMC3    C4 4773   2.802   3.379  11.307 -0.2215  0.6147  0.2418
  314TMC3    C5 4774   2.831   3.459  11.199 -0.5888 -0.3235 -0.0345
  314TMC3    C6 4775   2.952   3.510  11.171  0.2627  0.3222  0.0345
  314TMC3     C 4776   2.890   3.255  11.486  0.3385  0.1538  0.4101
  314TMC3     O 4777   2.798   3.291  11.557 -0.4186 -0.1457  0.5362
  314TMC3     H 4778   3.129   3.338  11.401  0.4893  0.6321 -0.2159
  314TMC3    H1 4779   2.703   3.334  11.312 -0.7833  1.9640  1.3809
  314TMC3    H2 4780   2.970   3.568  11.081 -0.1507  0.6928  0.1939
  314TMC3    C7 4781   2.736   3.455  11.088 -0.2658  0.1408  0.5583
  314TMC3    C8 4782   3.188   3.523  11.199  0.3169  0.8889 -0.1572
  314TMC3    O1 4783   2.617   3.449  11.108 -0.1390 -0.2854 -0.8202
  314TMC3    O2 4784   3.198   3.586  11.092 -0.1281 -0.0310  0.4201
  315MPD2     C 4785   3.180   1.343  17.231  0.3269 -1.2289  0.2189
  315MPD2    C1 4786   3.227   1.362  17.361  0.4854  0.3216 -0.6032
  315MPD2    C2 4787   3.251   1.494  17.405 -0.0761 -0.2554  0.6519
  315MPD2    C3 4788   3.242   1.599  17.316 -0.1736  0.3107 -0.7880
  315MPD2    C4 4789   3.188   1.574  17.190  0.7738 -0.3188 -0.4294
  315MPD2    C5 4790   3.154   1.449  17.152 -0.1127  0.4272 -0.3521
  315MPD2     H 4791   3.290   1.507  17.505  1.0318  0.3613  0.1269
  315MPD2    H1 4792   3.166   1.654  17.120  1.8333  1.0627  0.7982
  315MPD2    H2 4793   3.155   1.246  17.189 -1.1260 -0.9132  0.3502
  315MPD2    H3 4794   3.112   1.436  17.053  0.2508 -2.9872 -0.0543
  315MPD2     N 4795   3.280   1.732  17.358  0.0103  0.6296  0.2087
  315MPD2    H5 4796   3.298   1.748  17.457  1.2192  4.6575 -0.6682
  315MPD2    N1 4797   3.263   1.262  17.447 -0.2000  0.1883 -0.2201
  315MPD2    H7 4798   3.301   1.295  17.535 -4.1991 -0.0127  1.5757
  316TMC3    C1 4799   3.266   1.970  17.367  0.6944 -0.1484 -0.1303
  316TMC3    C2 4800   3.345   1.970  17.482 -0.6823 -0.1836  0.2908
  316TMC3    C3 4801   3.327   2.076  17.566  0.1033  0.0984 -0.6582
  316TMC3    C4 4802   3.180   2.067  17.329  0.0856  0.1597 -0.1758
  316TMC3    C5 4803   3.166   2.164  17.427  0.0106 -0.5367  0.0666
  316TMC3    C6 4804   3.241   2.174  17.540 -0.0538  0.7266  0.2789
  316TMC3     C 4805   3.262   1.848  17.287 -0.8614 -0.4389 -0.7837
  316TMC3     O 4806   3.239   1.864  17.165 -0.1318  0.7417 -0.0370
  316TMC3     H 4807   3.423   1.896  17.497  1.5522  1.7266 -2.0116
  316TMC3    H1 4808   3.123   2.053  17.238 -2.4562  0.1231  1.4155
  316TMC3    H2 4809   3.239   2.264  17.601 -0.9739  1.2410 -0.4958
  316TMC3    C7 4810   3.064   2.276  17.420  0.1976 -0.5607  0.2583
  316TMC3    C8 4811   3.437   2.112  17.650 -0.0347 -0.6189  0.0029
  316TMC3    O1 4812   3.031   2.324  17.524  0.0688 -0.5651  0.3953
  316TMC3    O2 4813   3.462   2.231  17.651  0.0094 -0.1778  0.0038
  317MPD2     C 4814   0.470   0.326  12.504  0.4932 -0.0223  0.4731
  317MPD2    C1 4815   0.590   0.262  12.502 -0.3739 -0.6543  0.3387
  317MPD2    C2 4816   0.616   0.174  12.608  0.1866 -0.0607  0.1568
  317MPD2    C3 4817   0.531   0.175  12.720 -0.0056  1.1404 -0.6634
  317MPD2    C4 4818   0.414   0.250  12.714 -0.5520 -0.2522  0.1549
  317MPD2    C5 4819   0.381   0.325  12.608  0.6273 -0.0329  0.5688
  317MPD2     H 4820   0.705   0.112  12.611 -0.7786 -1.5190 -2.0639
  317MPD2    H1 4821   0.352   0.251  12.804  0.5907 -0.2880  0.9417
  317MPD2    H2 4822   0.454   0.404  12.430  0.4768  0.0440  0.5476
  317MPD2    H3 4823   0.298   0.394  12.611 -1.4010 -2.4627  1.0583
  317MPD2     N 4824   0.564   0.096  12.834  0.7984  0.2562 -0.5114
  317MPD2    H5 4825   0.658   0.057  12.833  1.1582  1.1527 -2.7118
  317MPD2    N1 4826   0.676   0.279  12.389 -0.3053 -0.8071  0.6873
  317MPD2    H7 4827   0.766   0.232  12.391  1.0210  1.6568 -1.4755
  318TMC3    C1 4828   0.548   0.010  13.057 -0.0884 -0.2510  0.8811
  318TMC3    C2 4829   0.485   4.640  13.111 -0.2175  0.0023 -0.6879
  318TMC3    C3 4830   0.544   4.559  13.205  0.6175  0.0371 -0.7370
  318TMC3    C4 4831   0.680   0.023  13.081  0.1480  0.1454  0.1146
  318TMC3    C5 4832   0.740   4.677  13.169  0.0402 -0.2407  0.0075
  318TMC3    C6 4833   0.677   4.574  13.233  0.0873  0.0448  0.4385
  318TMC3     C 4834   0.483   0.073  12.942 -0.1979  0.4481 -0.3311
  318TMC3     O 4835   0.362   0.072  12.932 -0.0608  0.0485 -0.8071
  318TMC3     H 4836   0.381   4.619  13.088 -0.7939  1.7789  0.3485
  318TMC3    H1 4837   0.737   0.106  13.040  2.2466 -1.3651 -0.0002
  318TMC3    H2 4838   0.716   4.538  13.328  1.1800 -0.4301 -0.1855
  318TMC3    C7 4839   0.843   0.004  13.243  0.3358  0.9274 -0.0957
  318TMC3    C8 4840   0.478   4.439  13.257  0.5001  0.3939  0.8340
  318TMC3    O1 4841   0.835   0.126  13.253 -0.0831 -0.4198  0.0227
  318TMC3    O2 4842   0.548   4.367  13.323 -0.6013  0.0598 -0.1642
  319MPD2     C 4843   1.442   1.435  16.626 -0.3375 -0.6913 -0.1012
  319MPD2    C1 4844   1.367   1.366  16.718 -0.1803  0.2930  0.1979
  319MPD2    C2 4845   1.260   1.284  16.672  0.9983 -0.2722  0.2398
  319MPD2    C3 4846   1.227   1.276  16.535  0.7542  0.2805 -0.0503
  319MPD2    C4 4847   1.308   1.345  16.447  1.2072  0.4285 -0.3500
  319MPD2    C5 4848   1.415   1.416  16.491 -0.2910 -0.8437 -0.0699
  319MPD2     H 4849   1.197   1.237  16.747  1.3030 -0.7289  0.2099
  319MPD2    H1 4850   1.283   1.347  16.342  2.0261 -0.7019 -0.5707
  319MPD2    H2 4851   1.525   1.500  16.652 -1.5949  1.1891 -0.7520
  319MPD2    H3 4852   1.458   1.479  16.414  2.3115 -2.8342 -0.2394
  319MPD2     N 4853   1.115   1.210  16.487 -0.4580  0.1382 -0.4287
  319MPD2    H5 4854   1.090   1.221  16.389  0.8163  2.5381 -0.4712
  319MPD2    N1 4855   1.397   1.374  16.858  0.3235  0.6543 -0.2020
  319MPD2    H7 4856   1.334   1.322  16.917 -1.0841  1.3954 -1.0482
  320TMC3    C1 4857   0.929   1.075  16.484 -0.0546  0.3891  0.4762
  320TMC3    C2 4858   0.858   1.164  16.400  0.3601 -0.3784 -0.0162
  320TMC3    C3 4859   0.762   1.110  16.320  0.2040  0.8694  0.3070
  320TMC3    C4 4860   0.910   0.940  16.477 -0.6314  0.1348 -0.9400
  320TMC3    C5 4861   0.802   0.897  16.402  0.2720  0.1930  0.6925
  320TMC3    C6 4862   0.730   0.976  16.318 -0.4309  0.2348 -0.0391
  320TMC3     C 4863   1.043   1.122  16.562  0.1913 -0.1250  0.0204
  320TMC3     O 4864   1.080   1.066  16.667 -0.2033  0.2871 -0.6678
  320TMC3     H 4865   0.870   1.271  16.409 -1.7247 -0.1614  0.0519
  320TMC3    H1 4866   0.963   0.878  16.548  2.2201  1.9157 -1.4731
  320TMC3    H2 4867   0.642   0.941  16.265  0.5050 -1.9298 -0.1479
  320TMC3    C7 4868   0.805   0.755  16.364  0.6738  0.8648  0.3848
  320TMC3    C8 4869   0.709   1.197  16.224  0.8184  0.2617 -0.2872
  320TMC3    O1 4870   0.764   0.735  16.249 -0.0288  0.1179 -0.3164
  320TMC3    O2 4871   0.708   1.317  16.256  0.4791  0.2246  0.4538
  321TMC3    C1 4872   1.486   1.422  17.066  0.6419  0.5975 -0.1357
  321TMC3    C2 4873   1.398   1.327  17.119  0.3752  0.0848  0.3510
  321TMC3    C3 4874   1.364   1.326  17.251  0.5675  0.3377 -0.0489
  321TMC3    C4 4875   1.546   1.517  17.149 -0.2278 -0.8009 -0.4130
  321TMC3    C5 4876   1.483   1.536  17.273  0.5124  0.8842 -0.0374
  321TMC3    C6 4877   1.394   1.441  17.322  0.0479 -0.0908  0.2158
  321TMC3     C 4878   1.510   1.426  16.916 -0.5264 -0.3794 -0.2004
  321TMC3     O 4879   1.600   1.499  16.872 -0.3818 -0.3199  0.4478
  321TMC3     H 4880   1.368   1.246  17.053  1.1406 -0.2650  0.4299
  321TMC3    H1 4881   1.620   1.585  17.107  0.8344  0.0749  2.8329
  321TMC3    H2 4882   1.347   1.453  17.419  3.2053 -0.0710  1.7421
  321TMC3    C7 4883   1.555   1.590  17.393  0.6456 -0.4791 -0.6054
  321TMC3    C8 4884   1.374   1.206  17.329  0.2345 -0.1846 -0.4438
  321TMC3    O1 4885   1.531   1.528  17.499  0.0906  0.5507 -0.3587
  321TMC3    O2 4886   1.386   1.104  17.260  0.1450  0.4217 -0.0293
  322MPD2     C 4887   4.734   2.756  13.629  0.2874  0.2960 -0.1547
  322MPD2    C1 4888   0.044   2.676  13.735 -0.2171 -0.2798 -0.2884
  322MPD2    C2 4889   0.079   2.543  13.706  0.0382  0.1705 -0.1344
  322MPD2    C3 4890   0.072   2.488  13.576 -0.1838 -0.0141  0.4496
  322MPD2    C4 4891   0.016   2.573  13.481 -0.2573  0.0970 -0.0816
  322MPD2    C5 4892   4.714   2.701  13.508 -0.3061 -0.2691 -0.4876
  322MPD2     H 4893   0.119   2.478  13.783 -1.2072  1.1449  1.3439
  322MPD2    H1 4894   4.722   2.540  13.383  1.2522 -0.2840 -0.4295
  322MPD2    H2 4895   4.700   2.857  13.651 -0.2427 -0.2075  1.2830
  322MPD2    H3 4896   4.666   2.765  13.434 -1.0940  0.8189  0.9607
  322MPD2     N 4897   0.108   2.352  13.557 -0.3108  0.2987  0.6242
  322MPD2    H5 4898   0.158   2.310  13.635 -2.5980  0.0182  1.9380
  322MPD2    N1 4899   0.061   2.728  13.861  0.3865  0.0014 -0.8276
  322MPD2    H7 4900   0.104   2.663  13.927  2.5916  0.0108 -2.2438
  323TMC3    C1 4901   0.100   2.880  14.036 -0.1441  0.2782 -0.9167
  323TMC3    C2 4902   0.208   2.965  14.035 -0.2874 -0.5604  0.0279
  323TMC3    C3 4903   0.285   2.968  14.149  0.3075  0.2016  0.0910
  323TMC3    C4 4904   0.069   2.797  14.140 -0.5927  0.2652  0.6567
  323TMC3    C5 4905   0.151   2.794  14.248 -0.4846  0.5184 -0.3723
  323TMC3    C6 4906   0.251   2.890  14.261 -0.6611 -0.7395  0.1597
  323TMC3     C 4907   0.047   2.866  13.900 -0.0400 -1.0962  0.1400
  323TMC3     O 4908   0.027   2.964  13.830  0.7961  0.5553  0.0733
  323TMC3     H 4909   0.221   3.028  13.948 -0.1730 -0.5675  0.0406
  323TMC3    H1 4910   0.000   2.717  14.113 -1.7277  1.1230  1.0191
  323TMC3    H2 4911   0.322   2.881  14.341 -0.6893  1.4080  0.4256
  323TMC3    C7 4912   0.121   2.703  14.349  0.4627  0.4724  0.2813
  323TMC3    C8 4913   0.419   3.019  14.140  0.5991  0.0394 -0.2502
  323TMC3    O1 4914   0.072   2.595  14.320 -0.1498 -0.4909 -0.3700
  323TMC3    O2 4915   0.500   2.970  14.221  0.1199 -0.3713 -0.3290
  324MPD2     C 4916   2.070   3.943  14.444 -0.2676 -0.1960  0.4430
  324MPD2    C1 4917   2.068   4.061  14.524  0.2579  0.5154  0.1227
  324MPD2    C2 4918   1.943   4.108  14.565 -0.2026 -0.4130 -0.0059
  324MPD2    C3 4919   1.822   4.039  14.541  0.1517 -0.5133 -0.1489
  324MPD2    C4 4920   1.827   3.928  14.456 -0.3876  0.2528 -0.0783
  324MPD2    C5 4921   1.948   3.879  14.410  0.9729 -0.2586  0.3331
  324MPD2     H 4922   1.941   4.197  14.628 -2.7381 -0.1099 -0.4874
  324MPD2    H1 4923   1.732   3.882  14.429  0.1618 -1.2082  0.4655
  324MPD2    H2 4924   2.162   3.902  14.405  0.5686  1.6428  0.4797
  324MPD2    H3 4925   1.961   3.794  14.343 -0.1494 -1.8805  2.1762
  324MPD2     N 4926   1.693   4.073  14.593  0.5507 -0.3195  0.1812
  324MPD2    H5 4927   1.616   4.007  14.590  0.2503 -0.0579  2.2576
  324MPD2    N1 4928   2.185   4.128  14.567  0.1543  0.8810 -0.4437
  324MPD2    H7 4929   2.169   4.214  14.618 -1.8834 -0.3532  0.9653
  325TMC3    C1 4930   1.549   4.170  14.752  0.5118 -0.1636  0.7339
  325TMC3    C2 4931   1.494   4.047  14.795  0.2698  0.5872  0.5047
  325TMC3    C3 4932   1.358   4.036  14.800  0.2885  0.5718  0.4859
  325TMC3    C4 4933   1.467   4.273  14.726  0.3153 -0.3995  0.1350
  325TMC3    C5 4934   1.328   4.258  14.744  0.7119  0.0155 -0.2854
  325TMC3    C6 4935   1.273   4.142  14.794  0.5596  0.4294 -0.4786
  325TMC3     C 4936   1.677   4.175  14.680  0.3967 -0.7907  0.2012
  325TMC3     O 4937   1.732   4.281  14.674  0.2292  0.6964  0.0258
  325TMC3     H 4938   1.556   3.958  14.802 -0.6424 -0.1561 -0.8022
  325TMC3    H1 4939   1.499   4.366  14.680 -0.8595 -1.0807 -2.0297
  325TMC3    H2 4940   1.166   4.130  14.804  0.7504 -0.3747  0.6122
  325TMC3    C7 4941   1.251   4.339  14.653 -0.5795 -0.8687 -0.0628
  325TMC3    C8 4942   1.319   3.913  14.732  0.3872 -0.5932  0.4296
  325TMC3    O1 4943   1.318   4.392  14.563  0.6343 -0.6337 -0.0681
  325TMC3    O2 4944   1.409   3.874  14.653 -0.0096 -0.2460  0.2617
  326MPD2     C 4945   2.934   0.464  11.253  0.7620  0.2258 -0.2156
  326MPD2    C1 4946   2.882   0.478  11.131  0.2900 -0.7964 -0.5778
  326MPD2    C2 4947   2.946   0.559  11.040 -0.3678 -0.2279 -0.4235
  326MPD2    C3 4948   3.069   0.613  11.059 -0.1023 -0.1933 -0.0250
  326MPD2    C4 4949   3.129   0.585  11.180  0.5490  0.3080 -0.4056
  326MPD2    C5 4950   3.061   0.505  11.276 -0.7278  0.0922  0.0196
  326MPD2     H 4951   2.892   0.564  10.946 -1.8727  2.8510  0.6253
  326MPD2    H1 4952   3.225   0.632  11.193 -0.1780  1.9025 -0.7590
  326MPD2    H2 4953   2.883   0.406  11.330 -2.2181  2.4744 -0.4965
  326MPD2    H3 4954   3.098   0.484  11.376 -2.8903 -0.1847  0.7790
  326MPD2     N 4955   3.124   0.702  10.967 -0.7929  0.4876 -0.2050
  326MPD2    H5 4956   3.215   0.739  10.993  0.3223 -1.7368 -0.9883
  326MPD2    N1 4957   2.746   0.442  11.112 -0.4757  0.2082  0.4390
  326MPD2    H7 4958   2.701   0.498  11.041 -0.9678 -2.5149 -1.4144
  327TMC3    C1 4959   2.608   0.283  11.036 -0.0223  0.1779  0.6739
  327TMC3    C2 4960   2.524   0.378  10.995 -0.7228 -0.8602  0.0564
  327TMC3    C3 4961   2.531   0.398  10.860 -0.2744  0.4386  0.4286
  327TMC3    C4 4962   2.663   0.186  10.958 -0.2902 -0.5229 -0.3921
  327TMC3    C5 4963   2.654   0.212  10.819 -0.0079 -0.2303 -0.2653
  327TMC3    C6 4964   2.585   0.317  10.777  0.3305  0.2658  0.1074
  327TMC3     C 4965   2.700   0.319  11.140  0.4886  0.0185  0.1438
  327TMC3     O 4966   2.746   0.234  11.212 -0.0869  0.0557  0.0553
  327TMC3     H 4967   2.494   0.451  11.070  1.5035 -1.4008  1.4442
  327TMC3    H1 4968   2.714   0.102  11.003  0.2126 -0.3321 -0.6018
  327TMC3    H2 4969   2.577   0.346  10.672  0.8123 -2.0216 -0.5641
  327TMC3    C7 4970   2.772   0.198  10.745 -0.8859 -0.6749 -0.0446
  327TMC3    C8 4971   2.491   0.521  10.807  0.1747 -0.3833  0.0533
  327TMC3    O1 4972   2.777   0.184  10.624 -0.6485  0.5699 -0.1402
  327TMC3    O2 4973   2.579   0.570  10.737  0.0998  0.0120 -1.0275
  328MPD2     C 4974   0.759   4.448  17.460  0.5236  0.3780 -0.0210
  328MPD2    C1 4975   0.634   4.446  17.521  0.4702  0.9348 -0.1897
  328MPD2    C2 4976   0.519   4.476  17.452  0.0751  0.0412 -0.1239
  328MPD2    C3 4977   0.534   4.513  17.323  0.5503  0.1955 -0.2974
  328MPD2    C4 4978   0.655   4.512  17.258 -0.7237  0.1507  0.2601
  328MPD2    C5 4979   0.772   4.483  17.326 -0.2613 -0.7077 -0.3607
  328MPD2     H 4980   0.423   4.475  17.501 -0.3520  1.1589 -0.9536
  328MPD2    H1 4981   0.665   4.547  17.156  0.8912  1.6464  0.9385
  328MPD2    H2 4982   0.849   4.421  17.515  0.2228  0.2724  0.4193
  328MPD2    H3 4983   0.872   4.485  17.285  0.4437  0.0295  1.4273
  328MPD2     N 4984   0.421   4.555  17.250  0.5295 -0.4695  0.6179
  328MPD2    H5 4985   0.438   4.614  17.169 -0.9259 -1.3976 -0.3668
  328MPD2    N1 4986   0.636   4.432  17.659 -0.5205 -0.2096  0.8482
  328MPD2    H7 4987   0.725   4.421  17.707 -0.0006  1.8364  0.3489
  329TMC3    C1 4988   0.557   4.418   0.133 -0.0843  1.0137  0.2910
  329TMC3    C2 4989   0.662   4.500   0.168  0.5572 -0.3592  0.0015
  329TMC3    C3 4990   0.674   4.540   0.297  0.7610 -0.1483  0.2374
  329TMC3    C4 4991   0.461   4.377   0.218 -0.0634  0.2424  0.4348
  329TMC3    C5 4992   0.484   4.409   0.355  0.5675  0.4547 -0.5453
  329TMC3    C6 4993   0.588   4.491   0.393 -0.3621  0.3242 -0.8000
  329TMC3     C 4994   0.522   4.413  17.736  0.4102  0.1610 -0.5124
  329TMC3     O 4995   0.406   4.377  17.711 -0.3613  0.5625 -0.0270
  329TMC3     H 4996   0.729   4.544   0.095  1.2697 -2.0121 -0.3335
  329TMC3    H1 4997   0.368   4.331   0.187  0.3081  1.0329 -1.8340
  329TMC3    H2 4998   0.592   4.519   0.497 -3.8699  0.4370 -0.6714
  329TMC3    C7 4999   0.378   4.374   0.451  0.7001 -0.6662  0.5605
  329TMC3    C8 5000   0.716   4.678   0.308  0.0928 -0.3142  0.1481
  329TMC3    O1 5001   0.417   4.399   0.562 -0.6625 -0.6777  0.2667
  329TMC3    O2 5002   0.774   4.724   0.207  0.0923 -0.1290  0.3750
  330TMC3    C1 5003   3.577   0.121   9.742 -0.5484  0.4148 -0.1586
  330TMC3    C2 5004   3.491   0.080   9.643 -0.0347 -0.1201  0.3832
  330TMC3    C3 5005   3.465   4.684   9.629 -0.0676 -0.8992  0.4714
  330TMC3    C4 5006   3.625   0.038   9.836 -0.3866  0.3286 -0.8027
  330TMC3    C5 5007   3.588   4.647   9.830  0.5221 -0.6968  0.3770
  330TMC3    C6 5008   3.515   4.598   9.723  0.5256 -0.0431  0.9641
  330TMC3     C 5009   3.590   0.266   9.774  0.4538  0.1903 -0.3149
  330TMC3     O 5010   3.672   0.294   9.857  0.4820 -0.0596 -0.0406
  330TMC3     H 5011   3.469   0.143   9.558  0.5616  1.1707  1.1723
  330TMC3    H1 5012   3.673   0.076   9.926 -2.6462  4.1579 -1.2131
  330TMC3    H2 5013   3.489   4.493   9.720  2.3667 -0.4158 -1.5448
  330TMC3    C7 5014   3.621   4.555   9.933  0.0552  0.0974 -0.1177
  330TMC3    C8 5015   3.366   4.641   9.530  0.8772 -0.6247 -0.5639
  330TMC3    O1 5016   3.546   4.459   9.945  0.0740 -0.5118  0.7304
  330TMC3    O2 5017   3.306   4.724   9.464 -0.0979 -0.3396 -0.1043
  331MPD2     C 5018   1.476   3.799  12.817 -0.0651 -1.0690 -0.6735
  331MPD2    C1 5019   1.340   3.768  12.794  0.3975 -0.2395 -0.5815
  331MPD2    C2 5020   1.280   3.670  12.872  0.0143  0.7347  0.2713
  331MPD2    C3 5021   1.357   3.615  12.972 -0.0469 -0.7692 -0.5205
  331MPD2    C4 5022   1.484   3.647  12.999  0.4534  0.5325 -0.2477
  331MPD2    C5 5023   1.543   3.744  12.918  1.1245  0.1794  0.4169
  331MPD2     H 5024   1.181   3.630  12.854  0.0726  0.6638  0.1064
  331MPD2    H1 5025   1.544   3.591  13.070  2.5257  3.4775  0.3159
  331MPD2    H2 5026   1.519   3.881  12.761 -0.1510 -0.5226  0.0594
  331MPD2    H3 5027   1.645   3.770  12.943  0.4104  2.3195  1.0412
  331MPD2     N 5028   1.297   3.500  13.018 -0.3178  0.8746  0.4804
  331MPD2    H5 5029   1.209   3.473  12.975  0.3521  1.2203 -1.1271
  331MPD2    N1 5030   1.281   3.826  12.679  0.4519 -0.3664 -0.0409
  331MPD2    H7 5031   1.341   3.879  12.615 -0.0429  0.9528  0.5935
  332TMC3    C1 5032   1.279   3.276  13.069  0.5195 -0.3634  0.6782
  332TMC3    C2 5033   1.196   3.266  12.959  0.0065  0.2204  0.5440
  332TMC3    C3 5034   1.139   3.143  12.930 -0.5024  0.2049 -0.3667
  332TMC3    C4 5035   1.325   3.166  13.139 -0.4139  0.6287  0.0939
  332TMC3    C5 5036   1.260   3.052  13.104  0.7298  0.0375 -0.1660
  332TMC3    C6 5037   1.162   3.036  13.013  0.0121 -0.0996 -0.6068
  332TMC3     C 5038   1.353   3.400  13.098 -0.2279 -0.8419  0.6546
  332TMC3     O 5039   1.451   3.402  13.172 -0.2275 -0.2980 -0.0741
  332TMC3     H 5040   1.181   3.353  12.897 -1.2550  0.5645  1.3426
  332TMC3    H1 5041   1.399   3.168  13.218 -2.1430  2.5467  1.6681
  332TMC3    H2 5042   1.121   2.937  12.997  0.8998 -0.4899 -0.4478
  332TMC3    C7 5043   1.325   2.929  13.144 -0.2254 -0.0836  0.2431
  332TMC3    C8 5044   1.101   3.116  12.787  0.0889 -0.0646 -0.0113
  332TMC3    O1 5045   1.256   2.828  13.161 -0.3447 -0.3786  0.3892
  332TMC3    O2 5046   1.144   3.194  12.703 -0.1348 -0.6101 -0.3001
  333MPD2     C 5047   1.425   3.842  11.224  0.1625  0.2824  0.0130
  333MPD2    C1 5048   1.467   3.749  11.126  0.7267 -0.6364 -0.0798
  333MPD2    C2 5049   1.447   3.616  11.157 -0.3997  0.1091 -0.0971
  333MPD2    C3 5050   1.399   3.570  11.277 -0.1380  0.4085  0.0227
  333MPD2    C4 5051   1.367   3.662  11.378 -0.0222 -0.4989  0.4264
  333MPD2    C5 5052   1.374   3.797  11.342 -0.5047 -1.0411  0.4060
  333MPD2     H 5053   1.462   3.540  11.080 -1.8858 -0.1349 -0.1423
  333MPD2    H1 5054   1.345   3.633  11.480  1.5794  4.1443  2.1087
  333MPD2    H2 5055   1.423   3.950  11.219 -2.7420  0.3135  1.8157
  333MPD2    H3 5056   1.359   3.871  11.419  2.6921 -2.5469  2.4930
  333MPD2     N 5057   1.376   3.431  11.286  0.0720 -0.3587 -0.6573
  333MPD2    H5 5058   1.377   3.377  11.200 -2.7726 -0.6352 -0.5226
  333MPD2    N1 5059   1.506   3.793  10.997 -0.5074  0.4137 -0.6871
  333MPD2    H7 5060   1.518   3.893  10.985 -0.4125  0.4024 -0.6885
  334TMC3    C1 5061   1.597   3.792  10.771 -0.3715 -0.3534  0.3220
  334TMC3    C2 5062   1.675   3.729  10.682  0.4371  0.0087  0.0682
  334TMC3    C3 5063   1.770   3.794  10.608  0.0483  0.5644  0.4120
  334TMC3    C4 5064   1.600   3.927  10.773  0.1679  1.0222  0.2379
  334TMC3    C5 5065   1.695   3.995  10.697  0.9873  0.4738  0.2237
  334TMC3    C6 5066   1.784   3.926  10.620  0.1007 -0.6892 -0.1253
  334TMC3     C 5067   1.543   3.712  10.885  0.1083  0.6345  0.0199
  334TMC3     O 5068   1.537   3.591  10.872  0.0816 -1.0174  0.0008
  334TMC3     H 5069   1.664   3.622  10.664 -1.8935  0.3110 -0.3271
  334TMC3    H1 5070   1.539   3.982  10.843  0.6058  1.4216  0.3038
  334TMC3    H2 5071   1.848   3.986  10.556 -1.3407  1.3428  0.3094
  334TMC3    C7 5072   1.706   4.140  10.693 -0.9670 -0.0982  0.3016
  334TMC3    C8 5073   1.844   3.727  10.497  0.7947 -0.5620  0.0019
  334TMC3    O1 5074   1.812   4.194  10.662 -0.6520 -0.2369  0.5661
  334TMC3    O2 5075   1.783   3.633  10.439 -0.1263  0.0098 -0.6520
  335TMC3    C1 5076   1.751   0.049  17.360 -0.1045 -0.0811 -0.1158
  335TMC3    C2 5077   1.672   0.010  17.258 -0.1695  0.1108 -0.4761
  335TMC3    C3 5078   1.681   0.075  17.140  0.4787  0.0477  0.4979
  335TMC3    C4 5079   1.856   0.136  17.351 -1.0001  0.5794 -0.2502
  335TMC3    C5 5080   1.873   0.190  17.223  0.0860 -0.2278  0.3962
  335TMC3    C6 5081   1.782   0.168  17.123 -0.7089  0.5771  0.8354
  335TMC3     C 5082   1.715   4.729  17.485  0.4063  0.9279  0.0136
  335TMC3     O 5083   1.653   4.626  17.477  0.1354  0.7037 -0.4411
  335TMC3     H 5084   1.601   4.666  17.275  0.9026 -0.8594 -0.6037
  335TMC3    H1 5085   1.925   0.155  17.433 -1.3184 -3.2379  0.9194
  335TMC3    H2 5086   1.796   0.235  17.039  1.0832 -2.0048 -0.8944
  335TMC3    C7 5087   1.961   0.299  17.199 -0.3180  0.1159 -0.7045
  335TMC3    C8 5088   1.614   0.027  17.020  0.4233  0.1651 -0.5592
  335TMC3    O1 5089   2.005   0.309  17.085 -0.4238  0.5775  0.0150
  335TMC3    O2 5090   1.655   0.074  16.919  0.1291 -0.1189 -0.6400
  336MPD2     C 5091   0.892   2.631  16.543 -0.2379  0.5323 -0.5176
  336MPD2    C1 5092   0.946   2.603  16.417 -0.6070  0.4397 -0.2546
  336MPD2    C2 5093   1.025   2.484  16.400 -0.1025 -0.6738 -0.5665
  336MPD2    C3 5094   1.041   2.397  16.506  0.0693 -0.1153  0.2749
  336MPD2    C4 5095   0.987   2.427  16.633 -0.3704 -0.9154 -0.8118
  336MPD2    C5 5096   0.921   2.552  16.647 -0.1206 -0.3302 -0.6620
  336MPD2     H 5097   1.066   2.469  16.301  0.7963 -1.3390 -0.0901
  336MPD2    H1 5098   1.020   2.375  16.722  0.1753  0.1189 -0.4076
  336MPD2    H2 5099   0.834   2.721  16.563  0.2635  0.3307  1.8378
  336MPD2    H3 5100   0.881   2.578  16.744  3.0353  1.0215  0.2805
  336MPD2     N 5101   1.097   2.271  16.488 -0.2825 -0.0400 -0.2585
  336MPD2    H5 5102   1.087   2.204  16.563 -0.1547 -1.3822 -1.4494
  336MPD2    N1 5103   0.945   2.686  16.306 -0.3294  0.3166 -0.1515
  336MPD2    H7 5104   1.003   2.651  16.230  0.1589  2.0959 -0.5845
  337TMC3    C1 5105   0.841   2.823  16.147 -0.1399 -0.3685  0.9333
  337TMC3    C2 5106   0.739   2.910  16.127 -0.0288 -0.1940  0.1047
  337TMC3    C3 5107   0.693   2.918  16.000 -0.4099  0.1867 -0.6179
  337TMC3    C4 5108   0.908   2.765  16.041  0.0318  0.7926 -0.1029
  337TMC3    C5 5109   0.862   2.781  15.912 -0.3244 -0.5435 -0.7362
  337TMC3    C6 5110   0.745   2.855  15.893  0.4755 -0.5868  0.1379
  337TMC3     C 5111   0.860   2.788  16.286 -0.4382 -0.4975 -0.4816
  337TMC3     O 5112   0.796   2.849  16.373 -1.1630  0.2570  0.2953
  337TMC3     H 5113   0.683   2.944  16.213  0.2906  1.3920 -0.3147
  337TMC3    H1 5114   0.992   2.698  16.057  0.3942  1.3747  0.3976
  337TMC3    H2 5115   0.697   2.865  15.796  0.8833 -0.6746 -0.0747
  337TMC3    C7 5116   0.911   2.706  15.799  0.0026 -0.2868  0.3334
  337TMC3    C8 5117   0.548   2.948  15.986  0.6866 -0.0695  0.2930
  337TMC3    O1 5118   0.845   2.712  15.697  0.0226  0.1434  0.0944
  337TMC3    O2 5119   0.502   3.014  16.079 -0.4255  0.0517 -0.0158
  338MPD2     C 5120   1.261   2.379   0.899 -0.3201  0.0491 -0.4455
  338MPD2    C1 5121   1.249   2.269   0.819  0.0947 -0.1929  0.2068
  338MPD2    C2 5122   1.117   2.221   0.792 -1.0245  0.1110  0.0516
  338MPD2    C3 5123   1.003   2.277   0.850  1.2762 -0.0762 -0.1688
  338MPD2    C4 5124   1.020   2.385   0.928  0.7432  0.4273  0.0945
  338MPD2    C5 5125   1.145   2.440   0.949  0.5051 -0.0248 -0.7402
  338MPD2     H 5126   1.103   2.134   0.730 -0.2971  0.3908 -0.5057
  338MPD2    H1 5127   0.933   2.436   0.967  1.1759  2.0118 -0.9965
  338MPD2    H2 5128   1.357   2.424   0.921 -0.3911 -0.0568  0.0928
  338MPD2    H3 5129   1.157   2.534   1.001  0.0907  0.3655 -1.3463
  338MPD2     N 5130   0.876   2.217   0.830  0.0759 -0.2206 -0.1555
  338MPD2    H5 5131   0.886   2.131   0.776 -0.8485 -0.4297  0.0149
  338MPD2    N1 5132   1.362   2.197   0.765  0.0792 -0.0056 -0.0810
  338MPD2    H7 5133   1.349   2.146   0.679  0.5566  1.4954 -1.0451
  339TMC3    C1 5134   0.638   2.167   0.838  0.0246  0.2320 -0.3762
  339TMC3    C2 5135   0.545   2.123   0.929  0.1704  0.5309  0.2455
  339TMC3    C3 5136   0.459   2.030   0.892 -0.3722 -0.7342  0.7958
  339TMC3    C4 5137   0.642   2.108   0.712 -0.0890 -0.0519  0.0142
  339TMC3    C5 5138   0.561   2.006   0.681 -1.5572  0.2408  0.4966
  339TMC3    C6 5139   0.475   1.960   0.774 -0.2203  0.3514  0.0617
  339TMC3     C 5140   0.751   2.256   0.880  0.0831 -0.3586  0.2329
  339TMC3     O 5141   0.725   2.352   0.955  0.9357 -0.1988 -0.2317
  339TMC3     H 5142   0.552   2.163   1.029 -0.3292  2.1094 -0.3508
  339TMC3    H1 5143   0.706   2.159   0.641 -0.6874  2.0204  0.9527
  339TMC3    H2 5144   0.423   1.865   0.764 -0.9313  0.6063  1.3996
  339TMC3    C7 5145   0.595   1.910   0.573 -0.1654 -0.5075 -0.0714
  339TMC3    C8 5146   0.415   1.933   0.994  0.1622 -0.2790 -0.6274
  339TMC3    O1 5147   0.709   1.899   0.529 -0.5338  0.4770 -0.7581
  339TMC3    O2 5148   0.293   1.927   1.019  0.2820  0.1061 -0.6298
  340MPD2     C 5149   1.003   4.370  10.105 -0.3490  0.4345 -0.3453
  340MPD2    C1 5150   1.118   4.311  10.067 -0.2086  0.3221  0.1312
  340MPD2    C2 5151   1.234   4.349  10.142 -0.3601  0.4818  0.8860
  340MPD2    C3 5152   1.223   4.425  10.257 -0.7776  0.0995 -0.0911
  340MPD2    C4 5153   1.101   4.471  10.297  1.1969  0.1639  0.2172
  340MPD2    C5 5154   0.994   4.445  10.219 -0.6786 -0.3298  0.5365
  340MPD2     H 5155   1.333   4.325  10.103 -0.4601  1.6345 -0.0844
  340MPD2    H1 5156   1.078   4.523  10.389  1.0569 -0.9698  0.8226
  340MPD2    H2 5157   0.912   4.343  10.053 -0.7522 -1.0941  1.1720
  340MPD2    H3 5158   0.900   4.484  10.257 -0.8704 -1.4134  1.1741
  340MPD2     N 5159   1.327   4.455  10.341 -0.4330  0.3934 -0.0819
  340MPD2    H5 5160   1.308   4.519  10.418 -1.2080  1.0454 -0.8135
  340MPD2    N1 5161   1.124   4.234   9.947  0.7337  0.7031 -0.1471
  340MPD2    H7 5162   1.036   4.225   9.897  1.5129 -4.1691 -0.6441
  341TMC3    C1 5163   1.187   4.120   9.759 -0.2229 -0.0202 -0.3759
  341TMC3    C2 5164   1.098   4.011   9.780 -0.3711  0.6256  0.4417
  341TMC3    C3 5165   1.082   3.921   9.677 -0.1918  0.7136  0.4275
  341TMC3    C4 5166   1.261   4.131   9.641  0.0837 -0.5255 -0.1713
  341TMC3    C5 5167   1.248   4.035   9.544  0.7810 -0.0836  0.7395
  341TMC3    C6 5168   1.159   3.925   9.558  0.8788 -0.1117 -1.4777
  341TMC3     C 5169   1.234   4.193   9.876  0.6709 -0.1694 -0.1484
  341TMC3     O 5170   1.355   4.204   9.892  0.0787  0.2330 -0.3246
  341TMC3     H 5171   1.033   4.009   9.867  0.9801 -1.0813  1.4198
  341TMC3    H1 5172   1.339   4.206   9.631 -0.3452  0.2008  1.7856
  341TMC3    H2 5173   1.134   3.857   9.478 -0.3972 -1.1527 -0.2014
  341TMC3    C7 5174   1.327   4.059   9.425  0.3494 -0.6906 -0.1436
  341TMC3    C8 5175   0.979   3.816   9.692  0.6494 -0.3318  1.0926
  341TMC3    O1 5176   1.431   4.119   9.441  0.1284 -0.1093  0.4779
  341TMC3    O2 5177   0.893   3.844   9.773  0.4161  0.0269 -0.0753
  342MPD2     C 5178   4.001   2.690   0.178 -0.2514  0.0525 -0.0290
  342MPD2    C1 5179   4.118   2.686   0.106 -0.0580 -0.1613  0.0276
  342MPD2    C2 5180   4.190   2.807   0.094  0.1497  0.0988 -0.4807
  342MPD2    C3 5181   4.145   2.920   0.157 -0.8090 -0.2770 -0.2873
  342MPD2    C4 5182   4.036   2.909   0.236  0.4735  0.1318 -0.4630
  342MPD2    C5 5183   3.966   2.797   0.252 -0.2007 -0.7458  0.4428
  342MPD2     H 5184   4.277   2.820   0.030  2.0764  0.1367  2.1143
  342MPD2    H1 5185   3.998   2.997   0.287 -0.1827  0.2584 -1.1599
  342MPD2    H2 5186   3.942   2.600   0.177  0.7823 -0.6534  1.6581
  342MPD2    H3 5187   3.880   2.793   0.317  0.5386 -2.7015  1.3108
  342MPD2     N 5188   4.202   3.047   0.153 -0.0061  0.2013  0.3325
  342MPD2    H5 5189   4.163   3.120   0.213  1.0027  2.9680 -2.3674
  342MPD2    N1 5190   4.159   2.574   0.035  0.1125 -0.2013 -0.6881
  342MPD2    H7 5191   4.236   2.593  17.716  0.6041  1.0218  0.2789
  343TMC3    C1 5192   4.156   2.362  17.684 -0.4179 -0.1635  0.3639
  343TMC3    C2 5193   4.278   2.389  17.627 -0.2090 -0.3807 -0.1315
  343TMC3    C3 5194   4.317   2.298  17.536 -0.1008  0.4241 -0.1562
  343TMC3    C4 5195   4.075   2.261  17.645 -0.3131  0.3809  0.1706
  343TMC3    C5 5196   4.122   2.171  17.550 -0.3629  0.2638  0.0086
  343TMC3    C6 5197   4.242   2.190  17.484  0.4786 -0.2186 -0.0535
  343TMC3     C 5198   4.102   2.449   0.045  0.1439 -0.2183 -0.1927
  343TMC3     O 5199   4.005   2.417   0.110 -0.0654  0.2333  0.2203
  343TMC3     H 5200   4.344   2.464  17.670  1.1663 -1.2045 -0.8205
  343TMC3    H1 5201   3.984   2.242  17.702 -1.1184 -0.9939 -1.5714
  343TMC3    H2 5202   4.289   2.119  17.417  1.9545  0.7231 -0.0295
  343TMC3    C7 5203   4.039   2.058  17.510  0.0318  0.3082 -0.1120
  343TMC3    C8 5204   4.449   2.325  17.489  0.5298 -0.3140  1.0804
  343TMC3    O1 5205   4.035   2.022  17.392 -0.3021 -0.0808  0.2418
  343TMC3    O2 5206   4.515   2.408  17.551 -0.5213 -0.0745 -0.1465
  344MPD2     C 5207   4.545   2.842  11.387  0.3299  0.1738 -0.4761
  344MPD2    C1 5208   4.546   2.764  11.270 -0.1463  0.4260  0.5099
  344MPD2    C2 5209   4.585   2.824  11.151  0.0170 -0.2397  0.8845
  344MPD2    C3 5210   4.620   2.958  11.135  1.0569 -0.6777  0.5519
  344MPD2    C4 5211   4.616   3.035  11.248 -0.4588  0.1366  0.2858
  344MPD2    C5 5212   4.582   2.973  11.367 -0.5758  0.1916  0.4175
  344MPD2     H 5213   4.574   2.761  11.064  1.8065 -0.5491  0.8804
  344MPD2    H1 5214   4.642   3.140  11.243  3.9734 -0.9595  0.2520
  344MPD2    H2 5215   4.518   2.815  11.488 -0.9360  0.0544 -0.8463
  344MPD2    H3 5216   4.581   3.042  11.450 -2.0443  0.9001 -0.1714
  344MPD2     N 5217   4.658   3.012  11.012 -0.1376 -0.5294  0.6128
  344MPD2    H5 5218   4.697   3.105  11.025 -1.1805 -0.4336  3.1181
  344MPD2    N1 5219   4.529   2.628  11.269  0.1823  0.0526 -0.0187
  344MPD2    H7 5220   4.546   2.585  11.179  2.1487  0.5268  0.1206
  345TMC3    C1 5221   4.706   3.040  10.786  0.2624 -0.6202  0.0286
  345TMC3    C2 5222   0.071   3.128  10.819  0.3931 -0.5111 -0.1048
  345TMC3    C3 5223   0.143   3.188  10.721 -0.0981 -0.1181  1.1003
  345TMC3    C4 5224   4.677   3.024  10.656  0.3527 -0.5524 -0.5399
  345TMC3    C5 5225   0.018   3.074  10.552 -0.1647  0.5233  0.1473
  345TMC3    C6 5226   0.121   3.153  10.584  0.9312 -0.6617 -0.8533
  345TMC3     C 5227   4.648   2.958  10.885  0.0093  0.3896 -0.2574
  345TMC3     O 5228   4.592   2.857  10.840 -0.0040 -0.1425  0.0883
  345TMC3     H 5229   0.102   3.146  10.921  1.6191 -0.9065 -0.3975
  345TMC3    H1 5230   4.605   2.945  10.639 -1.0248  0.8460 -1.2476
  345TMC3    H2 5231   0.187   3.194  10.508  0.8277  1.4664  0.2160
  345TMC3    C7 5232   4.699   3.097  10.419  0.2363 -0.0057 -1.1126
  345TMC3    C8 5233   0.256   3.286  10.755  0.3524  0.1762  0.8643
  345TMC3    O1 5234   0.003   3.201  10.371  0.0470  0.2758  0.2100
  345TMC3    O2 5235   0.305   3.278  10.867 -0.4998 -0.1282  0.5090
  346MPD2     C 5236   0.183   3.930  14.016  0.2293 -0.2417  0.5403
  346MPD2    C1 5237   0.219   4.062  14.030 -0.2339  0.1356 -0.6434
  346MPD2    C2 5238   0.235   4.109  14.166  0.0837  0.5363  0.2055
  346MPD2    C3 5239   0.216   4.031  14.279 -0.0380 -0.2076 -0.4049
  346MPD2    C4 5240   0.179   3.900  14.256 -0.0129 -1.0060  0.1619
  346MPD2    C5 5241   0.155   3.855  14.129  0.1963  0.5160  0.5709
  346MPD2     H 5242   0.280   4.207  14.181 -0.2925  0.6573  0.5611
  346MPD2    H1 5243   0.177   3.827  14.337 -0.0310  0.0210  1.0779
  346MPD2    H2 5244   0.178   3.880  13.920 -0.4698  1.6309 -0.3852
  346MPD2    H3 5245   0.112   3.758  14.111  0.2042  0.2823  1.8220
  346MPD2     N 5246   0.238   4.085  14.407  0.0905  0.5735  0.1533
  346MPD2    H5 5247   0.266   4.183  14.404  1.6510  0.1132  0.0136
  346MPD2    N1 5248   0.251   4.139  13.912 -0.6418  0.7006 -0.2818
  346MPD2    H7 5249   0.242   4.095  13.821  0.9368  1.1569 -0.6477
  347TMC3    C1 5250   0.294   4.094  14.629 -0.2991 -0.5790  0.4980
  347TMC3    C2 5251   0.398   4.184  14.610 -0.9296  0.6465  0.2105
  347TMC3    C3 5252   0.462   4.241  14.721  0.2161  0.3916  0.3808
  347TMC3    C4 5253   0.241   4.068  14.757  0.0308 -0.5505 -0.1103
  347TMC3    C5 5254   0.299   4.144  14.862  0.0672  0.3013  0.4756
  347TMC3    C6 5255   0.411   4.227  14.851 -0.4796 -0.0370  0.2239
  347TMC3     C 5256   0.247   4.012  14.522 -0.1875  0.0372  0.2452
  347TMC3     O 5257   0.218   3.894  14.534  0.1554 -0.2369  0.3224
  347TMC3     H 5258   0.434   4.197  14.509  2.0094 -0.7191  1.0894
  347TMC3    H1 5259   0.171   3.986  14.764  1.6388 -2.0290 -1.2747
  347TMC3    H2 5260   0.464   4.273  14.934  0.4830  2.0154 -1.5076
  347TMC3    C7 5261   0.257   4.111  14.993 -0.0863  0.2524 -0.2075
  347TMC3    C8 5262   0.598   4.303  14.710  0.0712  0.5742  0.2590
  347TMC3    O1 5263   0.209   4.001  15.009 -0.2651 -0.5484 -0.2890
  347TMC3    O2 5264   0.651   4.319  14.820 -0.0428  0.0576 -0.1627
  348MPD2     C 5265   4.130   4.096  12.068  0.2918 -0.2496 -0.2585
  348MPD2    C1 5266   4.062   4.038  11.958 -0.0477  0.2105 -0.8642
  348MPD2    C2 5267   3.979   4.105  11.874  0.4169 -0.8474 -0.2036
  348MPD2    C3 5268   3.968   4.242  11.887 -0.7132  0.6002  0.0074
  348MPD2    C4 5269   4.025   4.303  12.000  0.8474 -0.0456 -0.1889
  348MPD2    C5 5270   4.105   4.233  12.089 -0.5762 -0.2184  0.1964
  348MPD2     H 5271   3.925   4.058  11.793 -0.0760  0.4410 -0.6251
  348MPD2    H1 5272   4.013   4.410  12.016 -0.1453 -0.0917 -0.6404
  348MPD2    H2 5273   4.207   4.046  12.125  0.4870  2.5193  1.8822
  348MPD2    H3 5274   4.153   4.284  12.172 -1.5947  1.2098 -0.0859
  348MPD2     N 5275   3.889   4.316  11.788 -0.4287  0.1447 -0.3839
  348MPD2    H5 5276   3.848   4.268  11.708 -0.0456  1.5859 -1.4414
  348MPD2    N1 5277   4.094   3.911  11.911 -0.1687  0.4697 -0.7144
  348MPD2    H7 5278   4.051   3.888  11.822  1.4223 -2.2663 -0.7832
  349TMC3    C1 5279   4.170   3.689  11.922  0.5476  0.5507  0.3162
  349TMC3    C2 5280   4.132   3.577  11.983 -0.6771 -0.2719 -0.6802
  349TMC3    C3 5281   4.093   3.472  11.911  0.0534  0.7039  0.7374
  349TMC3    C4 5282   4.166   3.699  11.789 -0.7328 -0.2775  0.2765
  349TMC3    C5 5283   4.124   3.592  11.713 -0.0293 -0.7994  0.2110
  349TMC3    C6 5284   4.081   3.481  11.776  0.0691  0.5418  0.7507
  349TMC3     C 5285   4.155   3.813  11.990 -0.3490  0.6695  0.2832
  349TMC3     O 5286   4.164   3.812  12.113 -0.7906  0.0471  0.2275
  349TMC3     H 5287   4.137   3.576  12.091  0.3932  0.4695 -0.7231
  349TMC3    H1 5288   4.222   3.780  11.744  1.8215 -1.4089  1.4777
  349TMC3    H2 5289   4.037   3.403  11.714 -1.3530  3.6602 -2.1795
  349TMC3    C7 5290   4.056   3.623  11.585 -0.0534  1.1937  0.2931
  349TMC3    C8 5291   4.065   3.355  11.993  0.0557  0.7417 -0.1332
  349TMC3    O1 5292   3.950   3.561  11.563 -0.4325  0.3053 -0.3145
  349TMC3    O2 5293   4.063   3.369  12.112  0.3207  0.2265 -0.0145
  350MPD2     C 5294   3.251   2.248  10.775 -0.5840  0.5937 -0.5255
  350MPD2    C1 5295   3.119   2.224  10.810  0.3851  0.1141 -0.6309
  350MPD2    C2 5296   3.087   2.247  10.945  0.7749 -0.7041 -0.8057
  350MPD2    C3 5297   3.179   2.279  11.041  0.2196  0.0224  0.1455
  350MPD2    C4 5298   3.305   2.300  10.998 -0.4330 -0.0233 -0.1106
  350MPD2    C5 5299   3.342   2.289  10.870  0.0002 -1.1300  0.4815
  350MPD2     H 5300   2.985   2.227  10.976  1.0823  0.1649  0.7741
  350MPD2    H1 5301   3.388   2.346  11.051  0.3565  1.4030 -2.5872
  350MPD2    H2 5302   3.281   2.241  10.671  1.2001  0.5003 -0.0103
  350MPD2    H3 5303   3.440   2.319  10.836 -0.9867  0.7533 -0.7433
  350MPD2     N 5304   3.131   2.305  11.166  0.0725 -0.2820 -0.5852
  350MPD2    H5 5305   3.032   2.304  11.186 -0.0032 -1.5484 -1.0414
  350MPD2    N1 5306   3.017   2.184  10.722  0.3863  0.4602 -0.1313
  350MPD2    H7 5307   2.921   2.183  10.756  0.1529  0.8698 -0.7568
  351TMC3    C1 5308   2.919   2.115  10.519 -0.8701 -0.0598 -0.0768
  351TMC3    C2 5309   2.927   2.092  10.384 -0.1217 -0.0447  0.2334
  351TMC3    C3 5310   2.833   2.026  10.316 -0.4500 -0.0256  0.5599
  351TMC3    C4 5311   2.809   2.065  10.589  0.1440 -0.6073  0.3499
  351TMC3    C5 5312   2.712   2.014  10.512 -0.4738  0.0100 -0.1923
  351TMC3    C6 5313   2.721   1.984  10.374  0.8682 -0.0422  0.1490
  351TMC3     C 5314   3.043   2.145  10.590  0.3939  0.0870  0.2804
  351TMC3     O 5315   3.147   2.128  10.529 -0.0971 -0.2036  0.1540
  351TMC3     H 5316   3.008   2.135  10.326 -0.1098 -3.6606 -2.3994
  351TMC3    H1 5317   2.805   2.047  10.696  1.7638 -1.7775  0.2178
  351TMC3    H2 5318   2.642   1.941  10.313 -0.2162  1.5528  0.3935
  351TMC3    C7 5319   2.595   1.972  10.586 -0.1871 -0.3265  0.7221
  351TMC3    C8 5320   2.865   1.977  10.181  0.8860  0.9241  0.2512
  351TMC3    O1 5321   2.571   2.041  10.684 -0.1710 -0.1828  0.1541
  351TMC3    O2 5322   2.942   2.050  10.117  0.5437 -0.4104  0.3308
  352MPD2     C 5323   1.773   4.224   1.157  0.0099 -0.4434  0.7838
  352MPD2    C1 5324   1.672   4.133   1.133  1.3245 -0.2968 -0.2684
  352MPD2    C2 5325   1.712   4.002   1.115  0.1061 -0.4974 -0.4181
  352MPD2    C3 5326   1.843   3.968   1.088  0.0490 -0.2242  0.2259
  352MPD2    C4 5327   1.943   4.058   1.109 -0.0942 -0.3938  0.0455
  352MPD2    C5 5328   1.903   4.189   1.137  0.9870 -0.3830 -0.2675
  352MPD2     H 5329   1.635   3.928   1.095 -1.4568  0.5882  1.4610
  352MPD2    H1 5330   2.046   4.032   1.088 -0.0780  0.1586 -0.5698
  352MPD2    H2 5331   1.761   4.331   1.153 -0.8650 -0.4688  3.0109
  352MPD2    H3 5332   1.979   4.266   1.140  0.0631  0.5453 -0.5881
  352MPD2     N 5333   1.882   3.837   1.048 -0.2737  1.0063 -0.3713
  352MPD2    H5 5334   1.981   3.821   1.031 -0.0626  0.8993  1.0170
  352MPD2    N1 5335   1.538   4.177   1.129 -0.4757  0.2681  0.3932
  352MPD2    H7 5336   1.532   4.271   1.167 -0.3144  0.1333  0.7469
  353TMC3    C1 5337   1.869   3.609   0.978 -0.1276  1.3424 -0.7727
  353TMC3    C2 5338   1.997   3.578   1.015 -0.1672 -0.0498  0.4261
  353TMC3    C3 5339   2.048   3.448   1.024  0.1169  0.2480  0.1854
  353TMC3    C4 5340   1.791   3.494   0.945  0.5036 -0.7141 -0.6312
  353TMC3    C5 5341   1.842   3.371   0.959 -0.2240 -0.1492  0.8355
  353TMC3    C6 5342   1.968   3.343   0.995 -0.3916 -0.3843 -0.5735
  353TMC3     C 5343   1.801   3.725   1.032 -0.1105  0.7099 -0.2256
  353TMC3     O 5344   1.683   3.716   1.045 -0.6057  0.0663 -0.1248
  353TMC3     H 5345   2.060   3.657   1.054 -1.1904 -0.7147  3.4319
  353TMC3    H1 5346   1.695   3.511   0.899  0.3155 -0.4148 -0.1301
  353TMC3    H2 5347   1.999   3.240   1.008 -1.4472 -0.6457 -0.0650
  353TMC3    C7 5348   1.754   3.264   0.971  0.4979  0.3689  0.2591
  353TMC3    C8 5349   2.177   3.427   1.096 -0.8866 -0.7340  0.6148
  353TMC3    O1 5350   1.793   3.159   0.929  1.0550  0.1919  0.7519
  353TMC3    O2 5351   2.244   3.527   1.118 -0.3154  0.4795  0.6580
  354TMC3    C1 5352   3.235   0.264  13.560  0.0327 -0.4853 -0.7765
  354TMC3    C2 5353   3.217   0.400  13.564 -0.4828 -0.8846 -0.6234
  354TMC3    C3 5354   3.263   0.475  13.454 -0.0071 -0.0421  0.9606
  354TMC3    C4 5355   3.277   0.195  13.452 -0.3949 -0.0027 -0.3171
  354TMC3    C5 5356   3.292   0.267  13.337 -0.4077  0.8321  0.2807
  354TMC3    C6 5357   3.287   0.405  13.339  0.3905 -0.5177 -0.5885
  354TMC3     C 5358   3.213   0.199  13.695 -0.3503  0.3098  0.0821
  354TMC3     O 5359   3.140   0.261  13.769  0.0035 -0.5846  1.0948
  354TMC3     H 5360   3.198   0.452  13.658  2.6720  0.4904 -0.7616
  354TMC3    H1 5361   3.272   0.087  13.445  0.6433 -0.1213  0.7995
  354TMC3    H2 5362   3.313   0.463  13.251  0.2418 -0.7577 -0.7904
  354TMC3    C7 5363   3.340   0.189  13.218  0.0364  0.1971 -0.5402
  354TMC3    C8 5364   3.231   0.620  13.451  0.8633  0.1869  0.2356
  354TMC3    O1 5365   3.323   0.071  13.225 -0.2210 -0.2817 -0.4421
  354TMC3    O2 5366   3.165   0.668  13.542 -0.3214 -0.2309 -0.0246
  355MPD2     C 5367   3.194   1.410  11.944 -0.0279  0.8427 -0.4512
  355MPD2    C1 5368   3.274   1.367  11.841 -0.1430  0.2152 -0.0095
  355MPD2    C2 5369   3.306   1.235  11.838  0.9442 -0.0692  0.4081
  355MPD2    C3 5370   3.257   1.140  11.931  0.1992  0.2608  0.1867
  355MPD2    C4 5371   3.173   1.190  12.030 -0.2665 -0.3889 -0.4433
  355MPD2    C5 5372   3.134   1.323  12.029  0.5771  0.3912 -0.2893
  355MPD2     H 5373   3.367   1.201  11.755  2.2010 -2.6304  2.4104
  355MPD2    H1 5374   3.145   1.126  12.113  0.3381 -0.1814 -0.0868
  355MPD2    H2 5375   3.158   1.512  11.953 -0.3322  0.7811 -1.0219
  355MPD2    H3 5376   3.064   1.357  12.104 -0.5369 -0.7723 -0.8036
  355MPD2     N 5377   3.303   1.010  11.932  0.8926 -0.1403  0.2577
  355MPD2    H5 5378   3.242   0.948  11.985  0.7925  0.1855  0.5235
  355MPD2    N1 5379   3.316   1.460  11.742 -0.0483 -0.1941  0.2567
  355MPD2    H7 5380   3.276   1.552  11.756  0.8717  0.3760 -0.8577
  356TMC3    C1 5381   3.539   1.046  11.922  0.1214 -0.8233 -0.2813
  356TMC3    C2 5382   3.610   1.085  11.817  0.3555 -0.2664  0.4838
  356TMC3    C3 5383   3.680   1.198  11.846  0.3545  0.5970 -0.1382
  356TMC3    C4 5384   3.535   1.101  12.048 -0.3287 -0.1702 -0.9807
  356TMC3    C5 5385   3.618   1.206  12.077 -0.4725 -0.7819  0.6693
  356TMC3    C6 5386   3.692   1.254  11.973  0.5992 -0.6399 -0.1068
  356TMC3     C 5387   3.427   0.968  11.880 -0.0330  1.0383  0.1490
  356TMC3     O 5388   3.458   0.850  11.851 -0.2383 -0.6519 -0.1261
  356TMC3     H 5389   3.599   1.051  11.715 -0.6170 -0.1099  0.5450
  356TMC3    H1 5390   3.485   1.052  12.131 -2.4383  0.4715 -1.8707
  356TMC3    H2 5391   3.778   1.317  11.993  0.7147 -0.7676 -0.1999
  356TMC3    C7 5392   3.668   1.219  12.212  0.6126 -0.2642  0.1415
  356TMC3    C8 5393   3.750   1.251  11.739  0.5678  0.4652 -0.5213
  356TMC3    O1 5394   3.671   1.120  12.285  0.2505 -0.6130 -0.5564
  356TMC3    O2 5395   3.770   1.175  11.649  0.3807 -0.2669  0.2525
  357MPD2     C 5396   3.367   0.553  17.434 -0.6048 -0.7083 -0.2240
  357MPD2    C1 5397   3.370   0.598  17.562 -0.1370  1.0511  0.1169
  357MPD2    C2 5398   3.268   0.689  17.600 -0.4544  0.4389  0.1866
  357MPD2    C3 5399   3.170   0.729  17.511 -0.6718 -0.1213 -0.3702
  357MPD2    C4 5400   3.170   0.674  17.381  0.3718 -0.0508 -0.2995
  357MPD2    C5 5401   3.269   0.588  17.344 -0.6082  0.3606 -0.4889
  357MPD2     H 5402   3.268   0.719  17.704  0.1286  1.1585 -0.0179
  357MPD2    H1 5403   3.104   0.699  17.299  0.3364 -0.7563 -0.4917
  357MPD2    H2 5404   3.440   0.484  17.393 -1.1354 -0.5807 -1.3931
  357MPD2    H3 5405   3.271   0.553  17.241 -0.5301  1.9989 -1.0400
  357MPD2     N 5406   3.068   0.820  17.548 -0.4028 -0.4495 -0.4578
  357MPD2    H5 5407   3.012   0.864  17.476 -0.4018  0.5238  0.1353
  357MPD2    N1 5408   3.472   0.553  17.653 -0.9324  0.4192  0.0903
  357MPD2    H7 5409   3.526   0.470  17.629 -1.0698  0.3346  0.0767
  358TMC3    C1 5410   3.657   0.594   0.057  0.3725  0.5573 -0.3581
  358TMC3    C2 5411   3.725   0.482   0.006 -0.2916 -0.0891 -0.7897
  358TMC3    C3 5412   3.828   0.433   0.074  0.4304 -0.2753  0.2702
  358TMC3    C4 5413   3.707   0.667   0.157  0.1248 -0.2036  0.1965
  358TMC3    C5 5414   3.815   0.614   0.224 -0.6234  0.4381  0.0892
  358TMC3    C6 5415   3.882   0.501   0.180 -0.2297  0.0010 -0.0818
  358TMC3     C 5416   3.520   0.627   0.012  0.3098 -0.2920 -0.6900
  358TMC3     O 5417   3.480   0.729   0.069 -0.3463 -0.3374  0.0724
  358TMC3     H 5418   3.685   0.419  17.671 -0.8337  0.7677 -1.2031
  358TMC3    H1 5419   3.659   0.760   0.184  1.1240  0.0662  1.0684
  358TMC3    H2 5420   3.956   0.449   0.241 -1.1534 -1.4948 -0.2356
  358TMC3    C7 5421   3.820   0.656   0.358 -0.3947 -0.5785  0.2536
  358TMC3    C8 5422   3.837   0.291   0.082 -0.2077  0.4787  0.1123
  358TMC3    O1 5423   3.715   0.685   0.406 -0.1535 -0.1501 -0.2113
  358TMC3    O2 5424   3.801   0.226  17.727  0.2217  0.8105 -0.2088
  359MPD2     C 5425   3.813   4.531  12.554  0.2674 -0.1964 -0.1514
  359MPD2    C1 5426   3.707   4.599  12.507  0.7038  0.1349 -0.2619
  359MPD2    C2 5427   3.578   4.566  12.526 -0.4369 -0.0321  0.3966
  359MPD2    C3 5428   3.561   4.452  12.599  0.7019  0.5325 -0.7784
  359MPD2    C4 5429   3.665   4.387  12.653 -0.1800 -0.1062  0.3741
  359MPD2    C5 5430   3.789   4.424  12.641 -0.3107  0.0622 -0.1045
  359MPD2     H 5431   3.502   4.616  12.468  0.6798  1.9583  0.6584
  359MPD2    H1 5432   3.661   4.295  12.710  4.2737 -1.9333 -2.2944
  359MPD2    H2 5433   3.915   4.550  12.524 -0.2764  0.8675 -1.3197
  359MPD2    H3 5434   3.870   4.363  12.679  0.0291  1.3222  1.1991
  359MPD2     N 5435   3.436   4.394  12.645  0.1577 -0.1576 -0.2365
  359MPD2    H5 5436   3.446   4.309  12.699  1.6323  0.9687  1.2660
  359MPD2    N1 5437   3.732   4.715  12.421 -0.2355  0.2492 -0.0425
  359MPD2    H7 5438   3.658   0.040  12.388  0.4479  1.1558  0.1083
  360TMC3    C1 5439   3.848   0.160  12.330 -0.4299 -0.3826  0.0056
  360TMC3    C2 5440   3.965   0.237  12.338 -0.8093  0.6404 -0.2639
  360TMC3    C3 5441   3.997   0.305  12.221 -0.4386 -0.5132 -0.8078
  360TMC3    C4 5442   3.756   0.156  12.225 -0.4697  0.4281 -0.0323
  360TMC3    C5 5443   3.793   0.235  12.117  0.9077  0.2124  0.1922
  360TMC3    C6 5444   3.904   0.310  12.114  0.0902 -0.3494 -0.7285
  360TMC3     C 5445   3.855   0.042  12.408 -0.8287 -0.8441  0.1259
  360TMC3     O 5446   3.963   0.016  12.458  1.1431  0.8051 -0.0634
  360TMC3     H 5447   4.040   0.220  12.415  0.8578  2.9374 -1.3795
  360TMC3    H1 5448   3.681   0.080  12.210  0.3318 -0.7109  1.7152
  360TMC3    H2 5449   3.925   0.380  12.034  0.3335  1.1978  0.6891
  360TMC3    C7 5450   3.756   0.190  11.986 -0.3737  0.0893  0.0634
  360TMC3    C8 5451   4.136   0.293  12.176  0.1703  0.2844  0.8454
  360TMC3    O1 5452   3.810   0.239  11.884  0.4949 -0.4283 -0.3030
  360TMC3    O2 5453   4.221   0.270  12.263  0.1071 -0.0300  0.5349
  361MPD2     C 5454   0.324   3.293  16.804 -0.0587  0.2143  0.2403
  361MPD2    C1 5455   0.307   3.299  16.944  0.2303  0.8854  0.5583
  361MPD2    C2 5456   0.415   3.254  17.026 -1.2612 -0.2937 -0.0447
  361MPD2    C3 5457   0.537   3.214  16.971  0.0101 -0.2582 -0.6672
  361MPD2    C4 5458   0.544   3.205  16.835 -0.7059  0.2156  0.1618
  361MPD2    C5 5459   0.451   3.252  16.747 -0.3931 -0.5615 -0.6662
  361MPD2     H 5460   0.404   3.259  17.134  4.9221 -2.1145  0.6382
  361MPD2    H1 5461   0.637   3.167  16.792 -1.2974 -1.0396 -0.0276
  361MPD2    H2 5462   0.247   3.320  16.732  0.4068  1.9087  0.3816
  361MPD2    H3 5463   0.477   3.244  16.642 -0.9551  2.6030 -1.0412
  361MPD2     N 5464   0.641   3.147  17.041  0.2892 -0.4910 -0.0991
  361MPD2    H5 5465   0.713   3.103  16.984  1.8966  0.7203  0.9869
  361MPD2    N1 5466   0.182   3.344  17.008  0.0723  1.1895  0.6062
  361MPD2    H7 5467   0.171   3.337  17.109  1.5984  2.4951  0.8517
  362TMC3    C1 5468   4.690   3.425  17.020 -0.1525  0.2319 -0.6423
  362TMC3    C2 5469   4.718   3.477  17.139 -0.2179 -1.3964 -0.0963
  362TMC3    C3 5470   4.608   3.512  17.213 -0.0584 -0.0539 -0.5104
  362TMC3    C4 5471   4.567   3.415  16.957  0.8245 -0.4316 -0.3295
  362TMC3    C5 5472   4.467   3.471  17.033 -0.2451  0.1095 -0.2002
  362TMC3    C6 5473   4.478   3.512  17.161 -1.2145 -0.4957 -0.7016
  362TMC3     C 5474   0.069   3.387  16.943  0.6968  0.3122 -0.1872
  362TMC3     O 5475   0.055   3.391  16.822  0.4059  0.2838 -0.2328
  362TMC3     H 5476   0.081   3.484  17.180 -0.0914 -0.8933 -0.4932
  362TMC3    H1 5477   4.553   3.394  16.852  3.8107  1.8707 -1.1715
  362TMC3    H2 5478   4.390   3.561  17.201 -0.9879 -0.4016 -0.3126
  362TMC3    C7 5479   4.359   3.529  16.953  0.6759 -0.0940  0.0673
  362TMC3    C8 5480   4.627   3.545  17.350  0.6105 -0.8917 -0.5537
  362TMC3    O1 5481   4.304   3.633  16.981  0.4101  0.5039 -0.6487
  362TMC3    O2 5482   4.719   3.487  17.404  0.5842 -0.0871 -0.7373
  363TMC3    C1 5483   3.940   1.482  10.078 -0.0251 -0.5936 -0.0921
  363TMC3    C2 5484   4.077   1.500  10.091  0.5818  0.3880  0.0003
  363TMC3    C3 5485   4.116   1.626  10.069 -0.3074  0.2279  0.0333
  363TMC3    C4 5486   3.842   1.583  10.054 -0.2916 -0.8268 -0.0150
  363TMC3    C5 5487   3.898   1.712  10.043 -0.1342 -0.2185  0.0350
  363TMC3    C6 5488   4.036   1.733  10.047 -0.2632  0.0551  0.4095
  363TMC3     C 5489   3.884   1.345  10.090  0.3413  0.4180  0.2716
  363TMC3     O 5490   3.764   1.348  10.115  0.1600 -0.0454 -0.1323
  363TMC3     H 5491   4.146   1.418  10.105  1.3940  0.3817 -3.9484
  363TMC3    H1 5492   3.737   1.556  10.060 -0.1959 -0.9978  0.8936
  363TMC3    H2 5493   4.080   1.832  10.044 -0.2943  0.1282  2.3591
  363TMC3    C7 5494   3.804   1.822  10.020 -0.7224  0.1301 -0.6164
  363TMC3    C8 5495   4.232   1.672  10.131  0.5534 -0.2297 -0.0084
  363TMC3    O1 5496   3.849   1.934   9.994  0.0015 -0.4631  0.3899
  363TMC3    O2 5497   4.280   1.768  10.072  0.2201  0.3200  0.2692
  364MPD2     C 5498   2.233   0.970  10.878  0.6993  0.3009  0.7758
  364MPD2    C1 5499   2.362   0.944  10.832 -0.2443  0.0740 -0.6447
  364MPD2    C2 5500   2.414   0.814  10.821  0.5732  0.0794  0.1112
  364MPD2    C3 5501   2.335   0.707  10.860  0.1479  0.3326 -0.2781
  364MPD2    C4 5502   2.214   0.740  10.912  0.5107  0.2824 -0.2346
  364MPD2    C5 5503   2.163   0.865  10.918  0.2905 -0.8036  0.0724
  364MPD2     H 5504   2.513   0.790  10.785 -0.2910 -0.9758 -1.5560
  364MPD2    H1 5505   2.151   0.656  10.938 -1.0349  1.8825  1.2504
  364MPD2    H2 5506   2.190   1.068  10.898 -0.2286  0.5237 -2.2662
  364MPD2    H3 5507   2.061   0.883  10.948  0.6645 -0.4626  1.1341
  364MPD2     N 5508   2.375   0.574  10.855  0.2043  0.5083  0.0849
  364MPD2    H5 5509   2.325   0.505  10.910 -2.5381  1.7119 -0.9416
  364MPD2    N1 5510   2.431   1.054  10.791  0.9934  0.5261  0.0708
  364MPD2    H7 5511   2.379   1.140  10.808  0.4523  0.3171 -0.5162
  365TMC3    C1 5512   2.597   1.196  10.695  0.2318 -0.5092  0.1707
  365TMC3    C2 5513   2.682   1.203  10.587  0.9052 -0.0802  0.2154
  365TMC3    C3 5514   2.731   1.320  10.554  0.0118 -0.1789 -0.3020
  365TMC3    C4 5515   2.575   1.307  10.771 -0.0837  0.2633  0.6713
  365TMC3    C5 5516   2.644   1.424  10.741  0.1156  0.0624 -0.1282
  365TMC3    C6 5517   2.713   1.429  10.621 -0.2753  0.4164 -0.0308
  365TMC3     C 5518   2.553   1.061  10.727 -0.4106 -0.4027  0.2137
  365TMC3     O 5519   2.620   0.973  10.685 -0.1246 -0.2181 -0.1908
  365TMC3     H 5520   2.693   1.116  10.524 -0.9740 -0.1890  0.0570
  365TMC3    H1 5521   2.518   1.291  10.862 -1.4188  1.1558 -0.0121
  365TMC3    H2 5522   2.775   1.517  10.610 -0.9966  0.8409 -0.7005
  365TMC3    C7 5523   2.618   1.548  10.808  0.9775 -0.8725 -0.5682
  365TMC3    C8 5524   2.798   1.336  10.430 -0.5866 -0.3530 -0.1623
  365TMC3    O1 5525   2.691   1.641  10.778  0.2355  0.1884 -0.6016
  365TMC3    O2 5526   2.802   1.451  10.383 -0.5164 -0.9325 -0.7340
  366MPD2     C 5527   0.867   1.423  15.179 -0.1943  0.3660 -0.2305
  366MPD2    C1 5528   0.930   1.512  15.260  0.4232 -0.5590 -0.2904
  366MPD2    C2 5529   1.065   1.549  15.254 -0.2814  0.1843  0.4889
  366MPD2    C3 5530   1.133   1.511  15.144  0.0840  0.2719  0.3437
  366MPD2    C4 5531   1.068   1.430  15.052  0.3308 -0.2129  0.5180
  366MPD2    C5 5532   0.937   1.385  15.070 -0.5300 -0.2311 -0.5994
  366MPD2     H 5533   1.093   1.618  15.332  0.0511  1.2082 -0.5390
  366MPD2    H1 5534   1.127   1.396  14.967  1.9922 -0.9349  1.9557
  366MPD2    H2 5535   0.764   1.389  15.183  0.3253 -1.2534 -0.5541
  366MPD2    H3 5536   0.914   1.315  14.990  0.3877  0.0309 -1.0954
  366MPD2     N 5537   1.272   1.536  15.124  0.1986 -0.1367 -0.0321
  366MPD2    H5 5538   1.317   1.485  15.048 -3.2231  3.1280 -4.2282
  366MPD2    N1 5539   0.853   1.586  15.356  0.0138 -0.3231  0.0653
  366MPD2    H7 5540   0.903   1.660  15.404 -1.3354 -1.8672  3.8716
  367TMC3    C1 5541   0.684   1.680  15.480  0.0312  0.1557  0.1340
  367TMC3    C2 5542   0.779   1.757  15.543 -0.3409 -0.3428 -0.1348
  367TMC3    C3 5543   0.758   1.888  15.575 -0.3713  0.6076  0.5570
  367TMC3    C4 5544   0.561   1.741  15.448  0.4809 -0.3645 -0.2150
  367TMC3    C5 5545   0.545   1.874  15.471  0.4886 -0.0028 -0.9196
  367TMC3    C6 5546   0.635   1.950  15.541 -0.1463  0.2521  0.4908
  367TMC3     C 5547   0.724   1.574  15.391  0.1896 -0.2093  0.2086
  367TMC3     O 5548   0.639   1.496  15.343 -0.7710  0.5728  0.2671
  367TMC3     H 5549   0.875   1.709  15.563 -0.7484 -0.3805  1.7291
  367TMC3    H1 5550   0.476   1.684  15.409  0.9024 -0.4285 -1.0416
  367TMC3    H2 5551   0.622   2.057  15.550  0.3005  0.2072  1.6902
  367TMC3    C7 5552   0.415   1.929  15.441 -0.5524 -0.1938  0.5019
  367TMC3    C8 5553   0.857   1.962  15.646  0.4011  0.2527 -0.0093
  367TMC3    O1 5554   0.395   2.036  15.500  0.1025 -0.0559  0.3701
  367TMC3    O2 5555   0.973   1.917  15.630 -0.4254 -0.1419 -0.2670
  368MPD2     C 5556   1.954   3.960  13.590 -0.4019 -0.2782  0.3311
  368MPD2    C1 5557   1.965   4.059  13.496 -0.3730 -0.3430  0.3556
  368MPD2    C2 5558   2.082   4.133  13.492  0.1254  0.1934  0.7025
  368MPD2    C3 5559   2.183   4.112  13.581 -0.1182 -0.4828  0.1727
  368MPD2    C4 5560   2.173   4.005  13.671 -0.2040  1.0710  0.3692
  368MPD2    C5 5561   2.061   3.934  13.676  0.6548  0.0556  1.0207
  368MPD2     H 5562   2.088   4.217  13.423  0.3514 -0.6880 -0.3336
  368MPD2    H1 5563   2.252   3.977  13.739 -1.9157 -1.3797  1.3593
  368MPD2    H2 5564   1.867   3.895  13.593 -0.7735  0.1872 -0.3522
  368MPD2    H3 5565   2.048   3.848  13.741 -3.9494  0.9438  1.3238
  368MPD2     N 5566   2.296   4.191  13.592 -0.4211 -0.2685  0.9306
  368MPD2    H5 5567   2.355   4.151  13.665  1.6931  1.9975  0.4646
  368MPD2    N1 5568   1.849   4.074  13.415 -0.0400 -0.5326  0.5957
  368MPD2    H7 5569   1.774   4.016  13.452 -1.8756  0.5636 -1.4466
  369TMC3    C1 5570   1.723   4.143  13.230  0.4307 -0.0575  0.0002
  369TMC3    C2 5571   1.734   4.131  13.097  0.1952  0.3947 -0.4373
  369TMC3    C3 5572   1.619   4.104  13.025  0.0249 -0.1519 -0.4615
  369TMC3    C4 5573   1.611   4.113  13.301 -0.0054 -0.0621 -0.1878
  369TMC3    C5 5574   1.500   4.085  13.225 -0.5110  0.5922 -0.6714
  369TMC3    C6 5575   1.496   4.083  13.089  0.4582 -0.5689 -0.6007
  369TMC3     C 5576   1.849   4.147  13.298  0.3715 -0.0967 -0.4055
  369TMC3     O 5577   1.948   4.184  13.234  0.1272 -0.1681  0.0220
  369TMC3     H 5578   1.821   4.173  13.048 -0.2578 -0.7232 -2.1869
  369TMC3    H1 5579   1.608   4.128  13.408  2.5029  1.1388 -0.2777
  369TMC3    H2 5580   1.409   4.048  13.034 -0.0007  1.4410 -1.1540
  369TMC3    C7 5581   1.404   4.017  13.311 -0.6732 -0.2403  0.1556
  369TMC3    C8 5582   1.642   4.100  12.881 -0.8103 -0.3519  0.0472
  369TMC3    O1 5583   1.414   4.032  13.428  0.3973 -0.5079  0.5185
  369TMC3    O2 5584   1.561   4.148  12.804  0.0949  0.3614 -0.0340
  370TMC3    C1 5585   1.686   4.279  16.210 -0.0850 -1.1128  0.2315
  370TMC3    C2 5586   1.610   4.197  16.283  0.1227 -0.2496  0.6820
  370TMC3    C3 5587   1.544   4.092  16.224  0.5955 -0.2964  0.4595
  370TMC3    C4 5588   1.720   4.248  16.085  0.1279 -0.2322  0.1458
  370TMC3    C5 5589   1.657   4.143  16.029 -1.1750  0.1692  0.7063
  370TMC3    C6 5590   1.569   4.062  16.096 -0.1796 -0.2608  0.2122
  370TMC3     C 5591   1.745   4.394  16.274  0.2363 -0.3253 -0.1160
  370TMC3     O 5592   1.780   4.379  16.391  0.3772  0.1773  0.0794
  370TMC3     H 5593   1.601   4.235  16.385 -0.8155 -0.3129  0.6216
  370TMC3    H1 5594   1.807   4.291  16.037  0.6794  2.3785  3.4462
  370TMC3    H2 5595   1.518   3.977  16.053  1.9114 -0.9202 -0.9423
  370TMC3    C7 5596   1.706   4.088  15.902 -0.3702  0.3990  0.0569
  370TMC3    C8 5597   1.497   3.985  16.313 -0.5221 -0.1823  0.1073
  370TMC3    O1 5598   1.766   4.165  15.831 -0.0628 -0.3568  0.6297
  370TMC3    O2 5599   1.520   3.869  16.280 -0.6497 -0.4092  0.5421
  371TMC3    C1 5600   3.075   2.607  15.712 -0.0435  0.0183 -0.1750
  371TMC3    C2 5601   2.967   2.579  15.793  0.2830  0.1841 -0.5693
  371TMC3    C3 5602   2.894   2.686  15.829 -0.4955 -1.0192  0.2577
  371TMC3    C4 5603   3.106   2.732  15.676 -0.3304  0.1158 -0.3418
  371TMC3    C5 5604   3.023   2.832  15.708  0.2078 -0.5996 -0.1304
  371TMC3    C6 5605   2.920   2.813  15.796  0.0468  0.3060  0.1316
  371TMC3     C 5606   3.174   2.504  15.706 -0.6803 -0.9437 -0.4855
  371TMC3     O 5607   3.291   2.538  15.704 -0.3967 -1.3317  0.0084
  371TMC3     H 5608   2.947   2.475  15.815  0.9668  0.8321  3.1190
  371TMC3    H1 5609   3.198   2.748  15.621 -1.3502  0.6520 -1.9168
  371TMC3    H2 5610   2.845   2.891  15.809  0.2977  0.3317  1.4487
  371TMC3    C7 5611   3.040   2.962  15.644  0.0843  0.3469  0.5302
  371TMC3    C8 5612   2.763   2.644  15.877  0.0015 -0.4818  0.0992
  371TMC3    O1 5613   2.992   3.057  15.705 -0.3216 -0.0255 -0.1396
  371TMC3    O2 5614   2.738   2.524  15.896 -0.3426 -0.7672 -0.5279
  372MPD2     C 5615   2.607   4.398  13.836 -0.4714 -0.1459  0.4474
  372MPD2    C1 5616   2.691   4.292  13.875 -1.1276  0.7458 -0.2106
  372MPD2    C2 5617   2.631   4.178  13.924 -0.5417 -0.1089 -0.3207
  372MPD2    C3 5618   2.495   4.162  13.932  0.1345 -0.5224 -0.6773
  372MPD2    C4 5619   2.408   4.266  13.888  0.2800 -0.5051  0.2478
  372MPD2    C5 5620   2.470   4.379  13.846 -0.0222  0.3093  0.4097
  372MPD2     H 5621   2.691   4.092  13.950  0.8615 -0.0579 -3.4171
  372MPD2    H1 5622   2.300   4.270  13.896  0.0389  0.3848 -3.3540
  372MPD2    H2 5623   2.647   4.487  13.790  0.4660 -0.9189 -0.2597
  372MPD2    H3 5624   2.410   4.464  13.816  1.2360  0.7022 -0.9696
  372MPD2     N 5625   2.443   4.037  13.980  0.5460  0.1065  0.0910
  372MPD2    H5 5626   2.510   3.962  13.990  0.6860 -0.1152 -2.5325
  372MPD2    N1 5627   2.828   4.296  13.867  0.3589 -0.1328 -0.6079
  372MPD2    H7 5628   2.871   4.227  13.927 -0.2253  1.0599  1.1901
  373TMC3    C1 5629   2.292   3.874  14.031  0.3399 -0.3601 -0.8968
  373TMC3    C2 5630   2.296   3.835  14.163 -0.7588 -0.3541  0.0584
  373TMC3    C3 5631   2.241   3.711  14.193  0.6183  0.5892 -0.0874
  373TMC3    C4 5632   2.256   3.785  13.929  0.9164  0.1013  0.3804
  373TMC3    C5 5633   2.211   3.667  13.966  0.6536  0.2888  0.2877
  373TMC3    C6 5634   2.193   3.629  14.096 -0.4538 -0.8557 -0.3277
  373TMC3     C 5635   2.310   4.016  14.008 -0.4016 -0.5131  0.4790
  373TMC3     O 5636   2.211   4.092  13.999 -0.2480 -0.6029 -0.1016
  373TMC3     H 5637   2.335   3.904  14.237 -0.0425 -0.9233  0.2083
  373TMC3    H1 5638   2.279   3.810  13.826  1.0910  1.2367  0.6872
  373TMC3    H2 5639   2.161   3.529  14.123  0.8170 -1.2041 -0.1153
  373TMC3    C7 5640   2.210   3.564  13.860  0.1602 -0.0617  0.3064
  373TMC3    C8 5641   2.245   3.666  14.329  0.8761  0.2616  0.4347
  373TMC3    O1 5642   2.275   3.582  13.761  0.1713 -0.3815  0.0837
  373TMC3    O2 5643   2.175   3.571  14.371 -0.2418  0.3206  0.2151
  374TMC3    C1 5644   2.815   4.362   9.672 -0.3700  0.0022  0.3524
  374TMC3    C2 5645   2.893   4.457   9.726  0.0801 -0.2826  0.0562
  374TMC3    C3 5646   2.927   4.565   9.648 -0.1249  0.0472 -0.6140
  374TMC3    C4 5647   2.772   4.375   9.544  0.1322  0.4184  0.1070
  374TMC3    C5 5648   2.805   4.485   9.466 -0.1516 -0.3205 -0.7655
  374TMC3    C6 5649   2.881   4.583   9.524  0.1301 -0.1738  0.7301
  374TMC3     C 5650   2.770   4.237   9.733 -0.7073  0.4621  0.1159
  374TMC3     O 5651   2.678   4.177   9.683 -0.2299 -0.2503 -0.3287
  374TMC3     H 5652   2.910   4.456   9.834 -0.3329  1.5465  0.1405
  374TMC3    H1 5653   2.709   4.296   9.504 -1.9502  2.1661 -0.0747
  374TMC3    H2 5654   2.908   4.666   9.460 -2.2039 -2.3156 -2.9823
  374TMC3    C7 5655   2.728   4.521   9.349 -0.4428  0.2063  0.0107
  374TMC3    C8 5656   3.021   4.672   9.698  0.0741 -0.0922  0.0133
  374TMC3    O1 5657   2.746   4.631   9.298  0.4436  0.9767  0.3098
  374TMC3    O2 5658   3.044   0.035   9.632 -0.1747 -0.2436  0.4298
  375MPD2     C 5659   3.079   0.502  16.987 -0.2751 -0.1596 -0.0745
  375MPD2    C1 5660   2.976   0.488  16.895 -0.1785  0.3592 -0.2154
  375MPD2    C2 5661   2.975   0.373  16.812  0.3763  0.3863 -0.0846
  375MPD2    C3 5662   3.087   0.290  16.819  0.4966 -0.0868 -0.7899
  375MPD2    C4 5663   3.188   0.299  16.912 -0.1740  0.1882  0.6125
  375MPD2    C5 5664   3.181   0.408  16.990  0.3885 -0.2555 -0.1437
  375MPD2     H 5665   2.900   0.367  16.734 -0.8338  0.6249  1.0575
  375MPD2    H1 5666   3.273   0.233  16.922  0.4389  1.2199  2.1830
  375MPD2    H2 5667   3.078   0.583  17.059  1.8173 -0.3332  0.1459
  375MPD2    H3 5668   3.260   0.422  17.063 -0.5120  1.5896  0.4964
  375MPD2     N 5669   3.087   0.166  16.743  0.0523 -0.2077 -0.1114
  375MPD2    H5 5670   3.170   0.110  16.759 -1.4274 -1.6486  2.6567
  375MPD2    N1 5671   2.865   0.586  16.878 -0.6042  0.1892  0.5338
  375MPD2    H7 5672   2.803   0.583  16.798  0.2567 -3.0321 -0.0336
  376TMC3    C1 5673   2.992   4.706  16.643 -0.0244  0.7810 -0.6924
  376TMC3    C2 5674   3.110   4.649  16.677  0.7215  0.0382  0.5346
  376TMC3    C3 5675   3.126   4.520  16.621 -0.6503 -0.2184  0.7468
  376TMC3    C4 5676   2.910   4.655  16.545  0.0784 -0.0977 -0.2880
  376TMC3    C5 5677   2.940   4.538  16.477 -0.4621  0.0090 -0.1091
  376TMC3    C6 5678   3.047   4.471  16.522 -0.2323  0.6893 -0.1151
  376TMC3     C 5679   2.975   0.109  16.681  0.4686 -0.7875 -0.0811
  376TMC3     O 5680   2.859   0.152  16.675  0.1799 -0.3334 -0.1019
  376TMC3     H 5681   3.188   4.678  16.745 -1.6888  1.9458  2.4807
  376TMC3    H1 5682   2.828   4.720  16.518 -0.3674 -1.4920 -2.2980
  376TMC3    H2 5683   3.089   4.384  16.473 -0.8965  0.1677  0.2408
  376TMC3    C7 5684   2.912   4.531  16.332 -0.2078  0.3302  0.2872
  376TMC3    C8 5685   3.269   4.479  16.617  0.2630 -0.5461 -0.6212
  376TMC3    O1 5686   2.903   4.642  16.285  0.0477  0.0016 -0.0093
  376TMC3    O2 5687   3.358   4.550  16.648 -0.0580  0.3418 -0.1563
  377MPD2     C 5688   0.657   4.351  12.813 -0.6168 -0.2991  0.4368
  377MPD2    C1 5689   0.765   4.272  12.830  0.6690  0.4702 -0.4013
  377MPD2    C2 5690   0.763   4.168  12.915  0.1396 -1.0145 -0.2887
  377MPD2    C3 5691   0.647   4.141  12.991 -0.2636 -0.3421  0.0092
  377MPD2    C4 5692   0.540   4.221  12.972 -0.3985 -0.1099  0.1830
  377MPD2    C5 5693   0.545   4.331  12.889  0.0990 -0.3486  0.6487
  377MPD2     H 5694   0.852   4.112  12.942  1.5598  1.3521 -0.1379
  377MPD2    H1 5695   0.448   4.212  13.029 -1.4737 -0.6363 -1.6185
  377MPD2    H2 5696   0.653   4.444  12.757  1.8681 -2.9712 -4.0691
  377MPD2    H3 5697   0.461   4.399  12.883 -1.5350 -2.4781 -0.5380
  377MPD2     N 5698   0.636   4.030  13.080 -0.1850  0.8884  0.0326
  377MPD2    H5 5699   0.545   4.016  13.122 -0.1537 -2.3483 -0.9250
  377MPD2    N1 5700   0.874   4.296  12.749 -0.3103  0.1188 -0.0295
  377MPD2    H7 5701   0.860   4.378  12.692 -0.1669  2.0636  2.7115
  378TMC3    C1 5702   1.022   4.332  12.390  1.0663  0.0650  0.3825
  378TMC3    C2 5703   0.965   4.304  12.510  0.0018  0.1298  0.5160
  378TMC3    C3 5704   1.046   4.247  12.605  0.3900 -0.1749 -0.1166
  378TMC3    C4 5705   1.151   4.296  12.362 -0.3657  0.6655 -0.1085
  378TMC3    C5 5706   1.227   4.235  12.464  0.0354  0.3606  0.4056
  378TMC3    C6 5707   1.176   4.211  12.590 -0.1981 -0.1929  0.2865
  378TMC3     C 5708   0.953   4.429  12.307  0.2236 -0.1550  0.5123
  378TMC3     O 5709   0.861   4.483  12.359 -0.4409 -0.2814 -0.8754
  378TMC3     H 5710   0.858   4.324  12.513 -0.4251 -2.4955  2.4397
  378TMC3    H1 5711   1.207   4.343  12.282  0.3844 -1.9332 -1.1072
  378TMC3    H2 5712   1.242   4.175  12.668  0.2970  0.4319  0.1616
  378TMC3    C7 5713   1.331   4.142  12.431  0.2682 -0.1761 -0.4147
  378TMC3    C8 5714   0.984   4.217  12.735  0.3439  0.1900  0.7289
  378TMC3    O1 5715   1.364   4.064  12.520  0.0607  0.4382 -0.6928
  378TMC3    O2 5716   1.027   4.126  12.802  0.3768  0.0542  0.3917
  379MPD2     C 5717   2.204   2.280  16.027  1.0856  0.8057  0.6895
  379MPD2    C1 5718   2.095   2.227  16.093  0.2991 -0.1454  0.3701
  379MPD2    C2 5719   2.126   2.184  16.226  0.9553 -0.3245  0.1627
  379MPD2    C3 5720   2.243   2.231  16.288 -0.0541 -0.0464 -0.2327
  379MPD2    C4 5721   2.346   2.284  16.213  0.8386  0.1358 -0.4505
  379MPD2    C5 5722   2.322   2.315  16.084 -0.8883  0.7395  0.7097
  379MPD2     H 5723   2.049   2.131  16.281  0.7054  0.7319  0.8342
  379MPD2    H1 5724   2.432   2.328  16.262  2.4704 -0.2912 -2.9290
  379MPD2    H2 5725   2.195   2.314  15.925  0.8117 -1.0199  0.1169
  379MPD2    H3 5726   2.397   2.366  16.025 -0.6294 -0.1941  0.2249
  379MPD2     N 5727   2.272   2.208  16.418 -0.4899 -0.1024 -0.1324
  379MPD2    H5 5728   2.352   2.257  16.456  0.1429 -1.6501  0.5474
  379MPD2    N1 5729   1.972   2.210  16.021 -0.0345 -0.5993 -0.3378
  379MPD2    H7 5730   1.959   2.261  15.935  0.5956  3.0312  1.7262
  380TMC3    C1 5731   1.739   2.177  15.984  0.0132 -0.1334 -0.0675
  380TMC3    C2 5732   1.772   2.155  15.854  0.2889 -0.0642  0.2450
  380TMC3    C3 5733   1.672   2.150  15.762 -0.2563 -0.2073  0.2024
  380TMC3    C4 5734   1.610   2.193  16.028  0.1527  0.3087 -0.1133
  380TMC3    C5 5735   1.510   2.197  15.930 -0.7150 -0.0142  0.5673
  380TMC3    C6 5736   1.542   2.176  15.799  0.5062  0.1614 -0.4675
  380TMC3     C 5737   1.853   2.165  16.075 -0.4660 -0.3297  0.3725
  380TMC3     O 5738   1.834   2.117  16.188 -0.4519  0.1149 -0.3516
  380TMC3     H 5739   1.874   2.130  15.824  0.4218  0.9184 -0.0967
  380TMC3    H1 5740   1.578   2.175  16.130  0.0246 -1.4091 -0.4438
  380TMC3    H2 5741   1.476   2.171  15.714  0.0404 -0.4111 -0.0741
  380TMC3    C7 5742   1.367   2.235  15.956  0.6460 -0.1932  0.6790
  380TMC3    C8 5743   1.695   2.113  15.619  0.0983 -0.1299  0.4972
  380TMC3    O1 5744   1.345   2.320  16.040  0.0559  0.0834 -0.9268
  380TMC3    O2 5745   1.617   2.170  15.540  0.5072 -0.1741  0.5312
  381TMC3    C1 5746   1.510   3.313  16.168 -0.0819 -0.1338  0.4115
  381TMC3    C2 5747   1.604   3.406  16.138  0.6227 -0.9344  0.6308
  381TMC3    C3 5748   1.623   3.508  16.227 -0.2914  0.4237 -0.3006
  381TMC3    C4 5749   1.449   3.312  16.292  0.0270  0.0363 -0.0708
  381TMC3    C5 5750   1.480   3.409  16.383  0.3829  0.4929 -0.0809
  381TMC3    C6 5751   1.556   3.516  16.347  0.1214 -0.3553 -0.2832
  381TMC3     C 5752   1.491   3.206  16.065  0.1982  0.1618 -0.0164
  381TMC3     O 5753   1.526   3.242  15.952  0.3179 -0.4210  0.1463
  381TMC3     H 5754   1.638   3.419  16.035 -0.3611 -0.4323  0.3628
  381TMC3    H1 5755   1.387   3.225  16.311 -1.9339  1.1983 -1.2010
  381TMC3    H2 5756   1.591   3.587  16.421  1.0941  0.6950 -1.7284
  381TMC3    C7 5757   1.443   3.378  16.520  0.2870 -0.3072  0.0307
  381TMC3    C8 5758   1.746   3.574  16.203 -0.0173 -0.5892 -0.1269
  381TMC3    O1 5759   1.470   3.267  16.562  0.7698  0.3545 -0.1871
  381TMC3    O2 5760   1.812   3.521  16.113 -0.3678  0.4218 -0.1138
  382MPD2     C 5761   0.644   0.599  16.749  0.4393 -0.3400 -0.3706
  382MPD2    C1 5762   0.727   0.622  16.861  0.3443  0.3777 -0.1818
  382MPD2    C2 5763   0.764   0.511  16.938  0.1323  0.6513  0.3301
  382MPD2    C3 5764   0.697   0.386  16.919 -0.0774 -0.1476 -0.7099
  382MPD2    C4 5765   0.613   0.370  16.810 -0.3478 -0.3556 -0.0957
  382MPD2    C5 5766   0.589   0.477  16.731 -0.2603 -0.0353  0.2272
  382MPD2     H 5767   0.832   0.514  17.022  0.1587 -0.3623  0.3412
  382MPD2    H1 5768   0.555   0.278  16.797  1.5960 -1.4417 -1.0808
  382MPD2    H2 5769   0.622   0.681  16.682  1.4195  0.5570  0.3893
  382MPD2    H3 5770   0.515   0.472  16.652 -1.1680 -0.0534  1.0779
  382MPD2     N 5771   0.702   0.280  17.014 -0.3302  0.5910  0.0355
  382MPD2    H5 5772   0.630   0.209  17.005  1.4828 -1.1997 -0.3974
  382MPD2    N1 5773   0.777   0.745  16.898  0.2332  0.3368  0.7025
  382MPD2    H7 5774   0.855   0.746  16.964  1.8796  2.0446 -1.2777
  383TMC3    C1 5775   0.760   0.199  17.232  0.3365  0.2075 -0.3388
  383TMC3    C2 5776   0.628   0.204  17.271 -0.3914  0.5615  0.3506
  383TMC3    C3 5777   0.584   0.139  17.385 -1.0698  0.4928  0.2758
  383TMC3    C4 5778   0.857   0.136  17.307 -0.6822  0.3342  0.0403
  383TMC3    C5 5779   0.802   0.078  17.417  0.4338  0.1001 -0.1043
  383TMC3    C6 5780   0.680   0.067  17.452  0.3731 -0.5281 -0.6148
  383TMC3     C 5781   0.802   0.265  17.106 -0.2585  0.4117 -0.2249
  383TMC3     O 5782   0.924   0.289  17.086 -0.0739 -0.1513  0.6739
  383TMC3     H 5783   0.559   0.257  17.206 -1.3169  1.6484  2.2020
  383TMC3    H1 5784   0.959   0.123  17.272 -0.1574  1.6082  1.1212
  383TMC3    H2 5785   0.651   0.023  17.547  0.4012 -1.1124 -0.8785
  383TMC3    C7 5786   0.903   0.042  17.515 -0.0875  0.2538  0.4546
  383TMC3    C8 5787   0.440   0.118  17.383 -0.4937 -0.2201 -0.2501
  383TMC3    O1 5788   0.875   4.705  17.609 -0.1198 -0.6743 -0.3628
  383TMC3    O2 5789   0.373   0.137  17.277  0.6795 -0.6931 -0.3826
  384MPD2     C 5790   1.590   2.643  12.085 -0.4290 -0.0785  0.1574
  384MPD2    C1 5791   1.619   2.654  12.221  0.2951 -0.3694 -0.4529
  384MPD2    C2 5792   1.747   2.605  12.262  0.4399 -0.0703  0.0592
  384MPD2    C3 5793   1.825   2.533  12.171 -0.0105  0.2425  0.1007
  384MPD2    C4 5794   1.785   2.503  12.046 -0.5932  0.2336 -0.3252
  384MPD2    C5 5795   1.667   2.568  12.002 -0.4627  0.0914  0.0890
  384MPD2     H 5796   1.780   2.606  12.365 -0.5766 -2.0649  0.4187
  384MPD2    H1 5797   1.842   2.448  11.972 -1.4847 -0.0477 -0.7948
  384MPD2    H2 5798   1.495   2.678  12.048  0.4916  3.1564  0.8399
  384MPD2    H3 5799   1.621   2.542  11.908  1.2199 -0.2555 -0.6359
  384MPD2     N 5800   1.947   2.476  12.227  0.2902  0.1055 -0.0380
  384MPD2    H5 5801   1.964   2.506  12.322 -1.3135  1.5053 -0.1953
  384MPD2    N1 5802   1.533   2.724  12.310  0.5874  0.3608  0.4497
  384MPD2    H7 5803   1.554   2.722  12.409  1.0608  0.7839  0.3566
  385TMC3    C1 5804   2.144   2.358  12.260 -0.6221 -0.0541  0.1897
  385TMC3    C2 5805   2.158   2.221  12.247  0.5162 -0.1643 -0.5813
  385TMC3    C3 5806   2.142   2.145  12.364 -0.0711  1.2325 -0.0315
  385TMC3    C4 5807   2.139   2.425  12.377 -0.6617 -0.2520 -0.1486
  385TMC3    C5 5808   2.106   2.349  12.489  0.0596 -0.6651 -0.0453
  385TMC3    C6 5809   2.106   2.209  12.477 -0.4145  0.1192 -0.7113
  385TMC3     C 5810   2.042   2.392  12.166  0.0933 -0.4213  0.1753
  385TMC3     O 5811   2.030   2.340  12.057  0.1640  0.4965  0.0454
  385TMC3     H 5812   2.140   2.172  12.152 -0.1324 -1.8802  0.4256
  385TMC3    H1 5813   2.162   2.530  12.391 -0.3165 -0.2147 -1.0109
  385TMC3    H2 5814   2.076   2.146  12.560 -2.5226 -1.5076 -2.7022
  385TMC3    C7 5815   2.009   2.413  12.573 -0.5201  0.0147  0.2817
  385TMC3    C8 5816   2.208   2.013  12.376 -0.5359 -0.2520  0.5252
  385TMC3    O1 5817   1.974   2.515  12.519 -0.3908 -0.4338 -0.5524
  385TMC3    O2 5818   2.210   1.965  12.488  0.3541 -0.4095  0.1335
  386TMC3    C1 5819   2.620   4.342  11.473 -0.7760 -0.5507  0.2959
  386TMC3    C2 5820   2.607   4.408  11.353 -0.5458 -0.0819 -0.5376
  386TMC3    C3 5821   2.510   4.503  11.346 -0.1395  0.0333  0.2008
  386TMC3    C4 5822   2.534   4.357  11.576  0.3211  0.5566 -0.3728
  386TMC3    C5 5823   2.427   4.439  11.550  0.1233 -0.0615 -0.2444
  386TMC3    C6 5824   2.417   4.521  11.442  1.2900 -0.3121 -0.4199
  386TMC3     C 5825   2.752   4.287  11.498 -0.5541 -0.2664 -0.0375
  386TMC3     O 5826   2.834   4.326  11.414 -0.2441 -0.3054  0.2450
  386TMC3     H 5827   2.682   4.391  11.276  1.2369 -0.7875  1.3578
  386TMC3    H1 5828   2.535   4.297  11.667 -0.0845 -2.4534 -2.3356
  386TMC3    H2 5829   2.337   4.594  11.439 -0.7075 -2.4675  0.4717
  386TMC3    C7 5830   2.298   4.403  11.609  0.4103 -0.1301 -0.4899
  386TMC3    C8 5831   2.461   4.532  11.215 -0.3483  0.0749 -0.0975
  386TMC3    O1 5832   2.297   4.354  11.718 -0.3861 -0.1891 -0.1472
  386TMC3    O2 5833   2.337   4.536  11.213 -0.3729  0.3450 -0.1637
  387MPD2     C 5834   4.189   4.089   9.612 -0.2428  0.3674  0.0909
  387MPD2    C1 5835   4.327   4.088   9.601  0.2765 -0.8441 -0.3620
  387MPD2    C2 5836   4.386   3.955   9.572 -0.1415  0.6624  0.1645
  387MPD2    C3 5837   4.308   3.842   9.564  0.7188 -0.7728  0.0776
  387MPD2    C4 5838   4.172   3.850   9.567  0.1602  0.2110  0.0140
  387MPD2    C5 5839   4.115   3.976   9.582 -0.3631  0.6869  0.6556
  387MPD2     H 5840   4.494   3.947   9.566 -0.1551 -0.9780  2.2239
  387MPD2    H1 5841   4.097   3.773   9.553 -0.4155  0.6143  0.9182
  387MPD2    H2 5842   4.127   4.177   9.617 -1.0149 -0.2794  1.8899
  387MPD2    H3 5843   4.008   3.989   9.579 -0.2875  1.2771  0.3500
  387MPD2     N 5844   4.376   3.718   9.545  0.0480 -0.0843 -0.1623
  387MPD2    H5 5845   4.477   3.723   9.541  0.0058  0.6440 -0.4393
  387MPD2    N1 5846   4.410   4.198   9.610 -0.1516 -0.1984 -0.3038
  387MPD2    H7 5847   4.507   4.168   9.608 -0.0836  0.0529 -0.9594
  388TMC3    C1 5848   4.503   4.419   9.621  0.2976 -0.3716  0.2719
  388TMC3    C2 5849   4.506   4.490   9.735  0.0336  0.3622 -0.6494
  388TMC3    C3 5850   4.621   4.484   9.810 -0.5390 -0.3628  0.0624
  388TMC3    C4 5851   4.614   4.367   9.570 -0.1873 -0.2366  0.2578
  388TMC3    C5 5852   4.720   4.349   9.646 -0.0373  0.5346  0.1665
  388TMC3    C6 5853   4.730   4.411   9.768 -0.1514 -0.4278  0.3928
  388TMC3     C 5854   4.380   4.330   9.620 -0.9380 -0.5957  0.0267
  388TMC3     O 5855   4.273   4.370   9.666 -1.0287  0.2648  0.8341
  388TMC3     H 5856   4.414   4.517   9.785 -1.0078 -3.3082 -0.5432
  388TMC3    H1 5857   4.595   4.320   9.474  2.3678 -0.1284 -0.2808
  388TMC3    H2 5858   0.071   4.387   9.839 -0.5141 -3.3465 -0.1899
  388TMC3    C7 5859   0.024   4.215   9.634 -0.3619 -0.0279 -0.0567
  388TMC3    C8 5860   4.619   4.539   9.942  0.1074 -0.7159 -0.6023
  388TMC3    O1 5861   4.681   4.149   9.573 -0.3042  0.1552 -0.1380
  388TMC3    O2 5862   4.512   4.595   9.971 -0.5408  0.1247  0.0512
  389MPD2     C 5863   3.849   3.195  11.024 -0.2189  0.3420 -0.0950
  389MPD2    C1 5864   3.776   3.084  10.998 -0.1020  0.0335 -0.8107
  389MPD2    C2 5865   3.758   2.991  11.104  0.6957 -0.4247  0.1201
  389MPD2    C3 5866   3.812   3.021  11.226  0.2177 -0.1718  0.0831
  389MPD2    C4 5867   3.887   3.135  11.246  0.0076  1.1262 -0.6451
  389MPD2    C5 5868   3.904   3.220  11.147  0.4205  0.3599 -0.3789
  389MPD2     H 5869   3.708   2.897  11.084  0.5754 -0.2424 -0.4336
  389MPD2    H1 5870   3.935   3.151  11.341 -1.1127  2.1926 -0.2551
  389MPD2    H2 5871   3.879   3.265  10.947  2.4426  0.8066  1.3574
  389MPD2    H3 5872   3.979   3.295  11.169  0.8146 -0.5921  1.5360
  389MPD2     N 5873   3.802   2.933  11.334 -0.0001  0.1939  0.7654
  389MPD2    H5 5874   3.836   2.966  11.423 -1.3535 -0.8668  1.6791
  389MPD2    N1 5875   3.722   3.062  10.872  0.3146 -0.0433  0.6205
  389MPD2    H7 5876   3.762   3.118  10.798 -0.1977 -1.3431 -0.6328
  390TMC3    C1 5877   3.788   2.735  11.458  0.1811  0.4134 -0.2116
  390TMC3    C2 5878   3.828   2.608  11.476  0.2700  0.4347 -0.2306
  390TMC3    C3 5879   3.859   2.554  11.598 -0.3983  0.4406  0.4321
  390TMC3    C4 5880   3.754   2.813  11.567  0.0911  0.8504 -0.4698
  390TMC3    C5 5881   3.785   2.757  11.694 -0.3885 -0.1456 -0.6413
  390TMC3    C6 5882   3.838   2.631  11.708 -0.2486  0.7469 -0.1005
  390TMC3     C 5883   3.787   2.797  11.328  0.3848  0.6319 -0.6372
  390TMC3     O 5884   3.777   2.723  11.229  0.3111 -0.3210  0.3190
  390TMC3     H 5885   3.846   2.541  11.393 -2.0312  1.4596 -1.5479
  390TMC3    H1 5886   3.707   2.910  11.559 -1.4891  0.3690  3.2113
  390TMC3    H2 5887   3.866   2.591  11.805  1.9874  3.3409  0.3155
  390TMC3    C7 5888   3.719   2.821  11.804  1.0391 -0.0843  0.0679
  390TMC3    C8 5889   3.868   2.409  11.603  0.6114  0.3150 -0.4361
  390TMC3    O1 5890   3.715   2.944  11.808  0.7093 -0.3677  0.1399
  390TMC3    O2 5891   3.819   2.357  11.504 -0.5994 -0.4054  0.1217
  391MPD2     C 5892   3.413   4.294  11.181  0.1322  0.6529 -0.4804
  391MPD2    C1 5893   3.551   4.317  11.153  0.1791 -0.1680 -0.1396
  391MPD2    C2 5894   3.589   4.320  11.016 -0.3213  0.3090  0.0771
  391MPD2    C3 5895   3.490   4.309  10.918 -0.7183 -1.1791  0.1037
  391MPD2    C4 5896   3.357   4.279  10.949 -0.6362 -0.1035 -0.6203
  391MPD2    C5 5897   3.323   4.263  11.078  0.2123 -0.6939  0.3075
  391MPD2     H 5898   3.692   4.340  10.992  0.0769  0.4287  1.8406
  391MPD2    H1 5899   3.279   4.286  10.875 -0.2777 -0.6623 -1.0538
  391MPD2    H2 5900   3.374   4.286  11.282 -1.6826 -2.2229 -1.4291
  391MPD2    H3 5901   3.221   4.238  11.106 -0.2656  1.1691  0.2597
  391MPD2     N 5902   3.533   4.350  10.785  0.0349  0.7613 -0.1658
  391MPD2    H5 5903   3.626   4.390  10.777  0.1175  1.0251  2.0259
  391MPD2    N1 5904   3.649   4.347  11.248  0.5497  0.5514 -0.7811
  391MPD2    H7 5905   3.742   4.361  11.209  1.4286  0.1233  1.1757
  392TMC3    C1 5906   3.502   4.419  10.559  0.0663  0.1472  0.0353
  392TMC3    C2 5907   3.429   4.415  10.443  0.9359  0.6449  0.6431
  392TMC3    C3 5908   3.471   4.494  10.333 -1.1367 -0.3662 -0.6894
  392TMC3    C4 5909   3.622   4.485  10.555  0.4713 -0.8852 -0.3247
  392TMC3    C5 5910   3.664   4.548  10.444  0.0827 -0.0170 -0.1599
  392TMC3    C6 5911   3.591   4.559  10.335 -0.3435  0.3546 -0.3006
  392TMC3     C 5912   3.453   4.344  10.672 -0.3787  0.2453  0.7293
  392TMC3     O 5913   3.352   4.277  10.649  0.2667  0.1814 -0.7021
  392TMC3     H 5914   3.333   4.364  10.439  1.3886 -0.0969 -0.8063
  392TMC3    H1 5915   3.674   4.508  10.648  0.9733 -0.0243 -0.8220
  392TMC3    H2 5916   3.624   4.610  10.245 -0.7459  2.1684  0.5843
  392TMC3    C7 5917   3.777   4.634  10.465 -0.1111  0.5712 -0.1364
  392TMC3    C8 5918   3.378   4.523  10.232  0.4573 -0.1024  0.1578
  392TMC3    O1 5919   3.805   4.665  10.582 -0.0679  0.1411 -0.3570
  392TMC3    O2 5920   3.284   4.451  10.215 -0.0658  0.3930  0.5181
  393TMC3    C1 5921   2.356   2.590  10.703  0.3721 -0.5123 -1.0853
  393TMC3    C2 5922   2.234   2.572  10.753  0.8172  0.0045  0.0869
  393TMC3    C3 5923   2.227   2.499  10.868 -0.5849 -0.0951 -0.2483
  393TMC3    C4 5924   2.470   2.541  10.758 -0.4547 -0.5106  1.1747
  393TMC3    C5 5925   2.464   2.487  10.881  0.4607  0.0090 -0.4432
  393TMC3    C6 5926   2.342   2.462  10.932  0.3444 -1.5776 -0.1469
  393TMC3     C 5927   2.363   2.688  10.602  0.2989  0.0193 -0.1252
  393TMC3     O 5928   2.256   2.724  10.558  0.1272 -0.1230  0.1633
  393TMC3     H 5929   2.149   2.622  10.708 -0.9381 -1.7383  1.4984
  393TMC3    H1 5930   2.569   2.563  10.718 -1.1438  0.2528 -0.0912
  393TMC3    H2 5931   2.337   2.395  11.017 -2.2932  0.9799  1.7060
  393TMC3    C7 5932   2.556   2.371  10.897 -0.3732  0.1231  1.0094
  393TMC3    C8 5933   2.098   2.483  10.938  0.2604  0.7871  0.0427
  393TMC3    O1 5934   2.590   2.321  10.790 -0.4396 -0.1508  0.0310
  393TMC3    O2 5935   1.996   2.500  10.869 -0.4533 -0.7100 -0.3273
  394TMC3    C1 5936   3.580   2.988  10.699 -0.7469  0.9393  0.5094
  394TMC3    C2 5937   3.449   2.945  10.678 -0.0581 -0.1966  0.2055
  394TMC3    C3 5938   3.387   2.971  10.562  0.6039  0.4957 -0.0606
  394TMC3    C4 5939   3.653   3.051  10.599  0.1184  0.1900 -0.6280
  394TMC3    C5 5940   3.583   3.049  10.477  0.2168  0.4692  0.4342
  394TMC3    C6 5941   3.447   3.025  10.454  0.2934  0.3971  0.5060
  394TMC3     C 5942   3.624   2.976  10.837 -0.5451 -0.0173  0.3354
  394TMC3     O 5943   3.555   2.920  10.921  0.3403 -0.1414 -0.0697
  394TMC3     H 5944   3.409   2.889  10.761 -0.2945 -0.3031  0.0207
  394TMC3    H1 5945   3.743   3.109  10.614 -0.8017  1.3972  0.3568
  394TMC3    H2 5946   3.408   3.020  10.354 -0.2680 -0.4169  0.7665
  394TMC3    C7 5947   3.657   3.089  10.357 -0.2074  0.1324  0.0822
  394TMC3    C8 5948   3.301   2.870  10.521  0.1175 -0.3922  0.4528
  394TMC3    O1 5949   3.595   3.138  10.263  0.3213  0.0270 -0.4889
  394TMC3    O2 5950   3.185   2.895  10.498 -0.1781 -0.1378  0.7141
  395TMC3    C1 5951   4.016   4.563  14.788 -0.1319 -0.4417  0.0262
  395TMC3    C2 5952   3.879   4.558  14.816 -0.2560  0.8887 -0.1404
  395TMC3    C3 5953   3.838   4.672  14.879  0.0188  0.0449 -0.1012
  395TMC3    C4 5954   4.102   4.670  14.806  0.1534  0.3190  0.8718
  395TMC3    C5 5955   4.051   0.036  14.880  0.4201  0.0634  0.4062
  395TMC3    C6 5956   3.920   0.042  14.908  0.7828  0.8744 -0.0934
  395TMC3     C 5957   4.051   4.474  14.684  0.0609 -0.1898 -0.4898
  395TMC3     O 5958   4.096   4.529  14.584  0.0632  0.0829  0.0783
  395TMC3     H 5959   3.806   4.497  14.765  1.3520 -1.3662  0.2850
  395TMC3    H1 5960   4.207   4.656  14.781 -0.2577 -0.4724 -0.3781
  395TMC3    H2 5961   3.871   0.122  14.963  1.0784 -0.3447  1.9074
  395TMC3    C7 5962   4.126   0.154  14.878  0.3586 -0.1211 -0.7898
  395TMC3    C8 5963   3.714   4.655  14.955  0.1776 -0.2204  0.0842
  395TMC3    O1 5964   4.246   0.144  14.883 -0.0335  0.1006 -0.3399
  395TMC3    O2 5965   3.660   0.018  15.003 -0.1945 -0.1886  0.0246
  396MPD2     C 5966   3.553   0.336  16.906  0.4823  0.0099 -0.1954
  396MPD2    C1 5967   3.635   0.400  16.995  0.2947 -0.1692  0.0202
  396MPD2    C2 5968   3.716   0.495  16.945 -1.0630 -0.5310  0.0707
  396MPD2    C3 5969   3.689   0.548  16.821 -0.2075 -1.0744 -0.0918
  396MPD2    C4 5970   3.613   0.484  16.730  0.1607  0.2426 -0.3087
  396MPD2    C5 5971   3.545   0.373  16.776 -0.8493  0.0690  0.1466
  396MPD2     H 5972   3.778   0.553  17.012 -1.5619 -0.8373  0.7958
  396MPD2    H1 5973   3.604   0.513  16.626  0.4189 -2.0659 -0.9793
  396MPD2    H2 5974   3.508   0.241  16.932  3.7399 -1.3234  0.5309
  396MPD2    H3 5975   3.490   0.309  16.709 -0.7728  1.5752 -1.3437
  396MPD2     N 5976   3.751   0.675  16.794 -0.0180  0.2746 -0.5277
  396MPD2    H5 5977   3.810   0.715  16.866 -0.3769 -2.3558  1.2216
  396MPD2    N1 5978   3.629   0.359  17.130 -1.0744 -0.0057 -0.3026
  396MPD2    H7 5979   3.550   0.300  17.154 -0.5393 -1.3002 -1.7414
  397TMC3    C1 5980   3.724   0.344  17.350  0.2991  0.1880  0.3075
  397TMC3    C2 5981   3.835   0.389  17.425 -0.0392 -0.4516 -0.1068
  397TMC3    C3 5982   3.930   0.297  17.459  0.3477  0.5015  0.4901
  397TMC3    C4 5983   3.701   0.210  17.346  0.1257 -0.0313 -0.3369
  397TMC3    C5 5984   3.796   0.120  17.402  0.2294 -1.1989  0.2222
  397TMC3    C6 5985   3.916   0.163  17.454 -0.2242 -0.1717 -0.1738
  397TMC3     C 5986   3.707   0.420  17.229  0.3024  0.4157 -0.1762
  397TMC3     O 5987   3.744   0.534  17.233 -0.0099 -0.4944 -0.3327
  397TMC3     H 5988   3.877   0.486  17.400 -1.4723  0.3889  0.7204
  397TMC3    H1 5989   3.621   0.165  17.287  0.2635 -1.6968  0.7453
  397TMC3    H2 5990   3.994   0.105  17.502 -0.0649  0.3580  0.2056
  397TMC3    C7 5991   3.740   4.730  17.449 -0.6325  0.4830  0.1135
  397TMC3    C8 5992   4.063   0.340  17.426  0.6558  0.2166 -0.0057
  397TMC3    O1 5993   3.644   4.682  17.391  0.2620  0.5183 -0.0407
  397TMC3    O2 5994   4.133   0.389  17.516 -0.3953  0.1117 -0.6750
  398MPD2     C 5995   1.925   2.146   0.388  0.4115  0.1431 -0.5767
  398MPD2    C1 5996   2.039   2.105   0.458 -0.1570 -0.8648  0.5415
  398MPD2    C2 5997   2.133   2.192   0.502  0.2038  0.8492  0.0250
  398MPD2    C3 5998   2.119   2.325   0.475  0.1663 -0.4768  0.5643
  398MPD2    C4 5999   2.008   2.363   0.402 -0.2591  0.1039 -0.5833
  398MPD2    C5 6000   1.906   2.280   0.365 -0.1506  0.1110  0.2241
  398MPD2     H 6001   2.226   2.158   0.547  0.0654  2.6976  1.7154
  398MPD2    H1 6002   1.995   2.468   0.378  2.5961  0.2052 -1.7942
  398MPD2    H2 6003   1.847   2.075   0.362  1.1233 -0.9539  0.3246
  398MPD2    H3 6004   1.819   2.324   0.317 -0.5660  1.4438  2.1825
  398MPD2     N 6005   2.220   2.412   0.518 -0.1168  0.0178 -0.0170
  398MPD2    H5 6006   2.292   2.374   0.580  0.1400  0.9555  0.2754
  398MPD2    N1 6007   2.066   1.966   0.487 -0.0957 -0.0917  0.1294
  398MPD2    H7 6008   2.151   1.956   0.542 -1.4971  1.5962  2.6356
  399TMC3    C1 6009   2.068   1.740   0.495  0.3576 -0.0248  0.2859
  399TMC3    C2 6010   2.202   1.754   0.509 -0.4973  0.6759 -0.4957
  399TMC3    C3 6011   2.279   1.655   0.559 -0.0687 -0.3793 -0.0994
  399TMC3    C4 6012   2.014   1.628   0.526 -0.0557 -0.4055 -0.0974
  399TMC3    C5 6013   2.085   1.521   0.572 -0.1390  0.8270 -0.0611
  399TMC3    C6 6014   2.219   1.539   0.598 -0.1581  0.0834  0.0215
  399TMC3     C 6015   1.996   1.854   0.449  0.3264 -0.0426  0.2928
  399TMC3     O 6016   1.894   1.843   0.384  0.8933 -0.1011  0.0783
  399TMC3     H 6017   2.253   1.818   0.438  0.2365  1.3679  0.6645
  399TMC3    H1 6018   1.907   1.623   0.510 -0.2768  0.5712  1.0674
  399TMC3    H2 6019   2.277   1.454   0.632  2.1644  1.0375 -1.5284
  399TMC3    C7 6020   2.017   1.390   0.568  0.5994 -0.3609  0.2417
  399TMC3    C8 6021   2.399   1.688   0.636 -0.5465 -0.2223  0.3097
  399TMC3    O1 6022   1.898   1.387   0.552  0.0274 -0.5967 -0.0297
  399TMC3    O2 6023   2.436   1.616   0.727 -0.6332  0.4175 -0.0201
  400TMC3    C1 6024   0.198   4.599  17.203  0.7503 -0.1945 -0.3788
  400TMC3    C2 6025   0.073   4.549  17.224  0.8752 -0.5950 -0.6324
  400TMC3    C3 6026   4.716   4.592  17.141  0.0474 -0.0431  0.0470
  400TMC3    C4 6027   0.231   4.688  17.101  0.3244  0.2442  0.1436
  400TMC3    C5 6028   0.124   4.732  17.028  0.0798  0.1833  1.4593
  400TMC3    C6 6029   4.732   4.689  17.039  0.4329 -0.1743 -0.2987
  400TMC3     C 6030   0.294   4.526  17.286  0.6856 -0.1036  0.2394
  400TMC3     O 6031   0.258   4.434  17.356 -0.1252  0.4228 -0.0339
  400TMC3     H 6032   0.046   4.499  17.316  2.6858 -0.6592 -0.1560
  400TMC3    H1 6033   0.331   4.724  17.079  0.6557 -1.1970 -0.7301
  400TMC3    H2 6034   4.651   0.003  16.988 -0.5595 -1.9083 -0.4118
  400TMC3    C7 6035   0.136   0.129  16.969 -0.5670  0.4329  0.9495
  400TMC3    C8 6036   4.578   4.564  17.175  0.2302 -0.1839 -0.3003
  400TMC3    O1 6037   0.076   0.148  16.869  0.0997 -0.0292 -0.6205
  400TMC3    O2 6038   4.547   4.571  17.291 -0.9223 -0.2136  0.0549
  401MPD2     C 6039   3.575   3.640   0.900  0.2623  0.3244  0.7398
  401MPD2    C1 6040   3.622   3.542   0.984  0.4112 -0.1278 -0.4619
  401MPD2    C2 6041   3.585   3.410   0.957  0.1819 -0.4619 -1.4532
  401MPD2    C3 6042   3.517   3.378   0.840  0.8981  0.6457 -0.2258
  401MPD2    C4 6043   3.466   3.478   0.762  0.1379 -0.0810 -0.1176
  401MPD2    C5 6044   3.504   3.609   0.786  0.6748  0.3485  0.1422
  401MPD2     H 6045   3.616   3.332   1.025  2.7119  0.0781 -1.9841
  401MPD2    H1 6046   3.392   3.456   0.686 -0.7074 -0.5390  0.8477
  401MPD2    H2 6047   3.580   3.745   0.928  1.8904  0.0305  1.5838
  401MPD2    H3 6048   3.455   3.684   0.725  1.0195  0.8182  0.4385
  401MPD2     N 6049   3.498   3.242   0.815  0.1670 -0.2404  0.7622
  401MPD2    H5 6050   3.526   3.175   0.886 -2.6540 -1.0991  1.0675
  401MPD2    N1 6051   3.703   3.562   1.100  0.4943 -0.2802 -0.0473
  401MPD2    H7 6052   3.723   3.473   1.145 -1.1889 -0.2446  0.7987
  402TMC3    C1 6053   3.389   3.064   0.711 -0.3982 -0.3387  0.2164
  402TMC3    C2 6054   3.377   3.010   0.841 -0.0354  0.4815  0.3345
  402TMC3    C3 6055   3.351   2.879   0.839 -0.9036 -0.3984 -0.3121
  402TMC3    C4 6056   3.386   2.987   0.601 -0.4008 -0.6196 -0.3426
  402TMC3    C5 6057   3.361   2.854   0.607  0.0936  0.5509  0.7242
  402TMC3    C6 6058   3.348   2.800   0.729 -0.3911 -0.1767  0.0185
  402TMC3     C 6059   3.452   3.192   0.696 -0.3354  0.0944 -0.0897
  402TMC3     O 6060   3.455   3.245   0.586 -0.7307 -0.3790 -0.2275
  402TMC3     H 6061   3.369   3.062   0.936 -0.4193  0.4105  0.3438
  402TMC3    H1 6062   3.417   3.035   0.508  0.1569 -0.9438 -0.3270
  402TMC3    H2 6063   3.324   2.695   0.742 -1.2617 -0.0737 -0.8163
  402TMC3    C7 6064   3.421   2.772   0.506 -0.3639 -0.0257  0.3093
  402TMC3    C8 6065   3.431   2.815   0.936  0.3080 -0.2907 -0.0160
  402TMC3    O1 6066   3.411   2.803   0.390  0.2890  0.5729 -0.2380
  402TMC3    O2 6067   3.497   2.718   0.894  0.4051  0.2435  0.5967
  403MPD2     C 6068   1.379   2.162  13.778  0.4988  0.6977  0.6476
  403MPD2    C1 6069   1.487   2.101  13.715  0.4683  0.2914  0.3169
  403MPD2    C2 6070   1.612   2.150  13.735 -0.5452  0.3055 -0.0101
  403MPD2    C3 6071   1.640   2.248  13.831 -0.3901  1.0541 -0.2150
  403MPD2    C4 6072   1.533   2.303  13.897 -0.1202  0.2803  0.9062
  403MPD2    C5 6073   1.404   2.260  13.872  0.3481 -0.3489 -0.5350
  403MPD2     H 6074   1.697   2.109  13.681  0.6843  1.4777  1.0314
  403MPD2    H1 6075   1.534   2.389  13.963  2.3991 -1.8892  3.6606
  403MPD2    H2 6076   1.275   2.140  13.758  0.0973  3.4800 -0.2922
  403MPD2    H3 6077   1.320   2.313  13.915  2.4376  2.0052  0.6508
  403MPD2     N 6078   1.770   2.304  13.854  0.0625 -0.3746  0.5175
  403MPD2    H5 6079   1.842   2.260  13.798  0.8615  0.7327  0.6775
  403MPD2    N1 6080   1.459   1.996  13.625 -0.0001  0.1114 -0.1079
  403MPD2    H7 6081   1.365   1.958  13.622 -0.1822  0.6187 -0.9545
  404TMC3    C1 6082   1.510   1.824  13.472 -0.5407 -0.3223 -0.0502
  404TMC3    C2 6083   1.485   1.716  13.552 -0.6514  0.3790 -0.6593
  404TMC3    C3 6084   1.503   1.590  13.497  0.2725  0.4116  0.1745
  404TMC3    C4 6085   1.556   1.815  13.345  0.2075  0.5759 -0.3461
  404TMC3    C5 6086   1.559   1.692  13.284 -0.0513  0.5402 -0.1857
  404TMC3    C6 6087   1.540   1.579  13.359  0.0853 -0.6835  0.2013
  404TMC3     C 6088   1.553   1.949  13.536 -0.1982 -1.1712 -0.4422
  404TMC3     O 6089   1.656   2.002  13.490 -0.2502 -0.3145 -0.2858
  404TMC3     H 6090   1.458   1.724  13.657 -1.4526 -0.2584 -0.8221
  404TMC3    H1 6091   1.568   1.907  13.290 -0.9703  0.2370 -1.1638
  404TMC3    H2 6092   1.553   1.482  13.312  0.7792 -0.4316 -0.1193
  404TMC3    C7 6093   1.596   1.699  13.144  0.4450 -0.5420  0.6032
  404TMC3    C8 6094   1.570   1.496  13.587 -0.5770  0.1936 -0.4158
  404TMC3    O1 6095   1.665   1.791  13.101  0.5452  0.5996  0.0548
  404TMC3    O2 6096   1.658   1.425  13.539 -0.5401  0.3179 -0.3661
  405MPD2     C 6097   2.184   2.268  14.376 -0.5450 -0.2891  0.6039
  405MPD2    C1 6098   2.081   2.180  14.360 -0.4985  0.7320  0.1619
  405MPD2    C2 6099   1.955   2.239  14.338  0.0268  0.0435 -0.3135
  405MPD2    C3 6100   1.935   2.372  14.319 -0.5397 -0.6858 -0.0020
  405MPD2    C4 6101   2.042   2.455  14.333 -0.4809  0.6290 -0.4568
  405MPD2    C5 6102   2.161   2.402  14.364 -0.1499  0.0586  1.2519
  405MPD2     H 6103   1.864   2.182  14.330 -0.8330  1.5707 -1.3954
  405MPD2    H1 6104   2.033   2.563  14.332 -0.9023  0.5999  0.1138
  405MPD2    H2 6105   2.281   2.241  14.417 -0.4220 -0.3272  0.2916
  405MPD2    H3 6106   2.238   2.474  14.386 -1.2172  1.4626  0.4500
  405MPD2     N 6107   1.804   2.425  14.304 -0.3475 -0.1728  0.6992
  405MPD2    H5 6108   1.727   2.359  14.293  0.9091 -1.4922 -0.1403
  405MPD2    N1 6109   2.104   2.045  14.384  0.0100 -0.3128  0.5910
  405MPD2    H7 6110   2.194   2.014  14.416  0.2945 -1.0562 -0.9195
  406TMC3    C1 6111   1.430   2.682  14.322 -0.7240 -0.2984  0.6125
  406TMC3    C2 6112   1.349   2.569  14.299 -0.2780 -0.2453  0.4764
  406TMC3    C3 6113   1.415   2.456  14.263  0.6493 -0.0482  0.0403
  406TMC3    C4 6114   1.564   2.678  14.311 -0.5218 -0.0556 -0.0664
  406TMC3    C5 6115   1.624   2.564  14.268  0.5024 -0.0186 -0.1631
  406TMC3    C6 6116   1.548   2.451  14.243  0.4664 -0.3396  0.0781
  406TMC3     C 6117   1.368   2.801  14.385  0.3134  0.4777 -0.5132
  406TMC3     O 6118   1.437   2.903  14.406 -0.0590  0.1862  0.0231
  406TMC3     H 6119   1.241   2.572  14.288 -0.2263 -2.1244 -0.4901
  406TMC3    H1 6120   1.621   2.759  14.354 -0.0511 -0.2545 -0.3134
  406TMC3    H2 6121   1.581   2.363  14.189  1.5031  0.7194 -1.0053
  406TMC3    C7 6122   1.768   2.553  14.279  0.4770 -0.1380 -0.0614
  406TMC3    C8 6123   1.357   2.331  14.315  1.2692  0.2035  0.5796
  406TMC3    O1 6124   1.827   2.655  14.254  0.1926 -0.3151  0.6172
  406TMC3    O2 6125   1.255   2.346  14.382 -0.3110 -0.1885 -0.6169
  407MPD2     C 6126   4.130   0.615  10.184 -0.1316  0.2907  0.4455
  407MPD2    C1 6127   4.231   0.534  10.133  0.3303  0.4136  0.2229
  407MPD2    C2 6128   4.351   0.531  10.193  0.6773 -0.6111  0.1890
  407MPD2    C3 6129   4.379   0.585  10.315  0.6856  0.1899 -0.0288
  407MPD2    C4 6130   4.280   0.661  10.372  0.3752  0.1031  0.0244
  407MPD2    C5 6131   4.158   0.675  10.305  0.8266  0.0095  0.5516
  407MPD2     H 6132   4.426   0.473  10.142  0.5787 -1.2788  0.7918
  407MPD2    H1 6133   4.293   0.707  10.469 -0.8074  0.0520  0.2056
  407MPD2    H2 6134   4.032   0.621  10.140 -0.3855 -1.2526  0.8203
  407MPD2    H3 6135   4.089   0.748  10.348  0.7869  1.8310 -2.6130
  407MPD2     N 6136   4.504   0.577  10.381  0.4135 -0.0441  0.0022
  407MPD2    H5 6137   4.498   0.601  10.480 -1.9277  1.5903 -0.5463
  407MPD2    N1 6138   4.211   0.465  10.008 -0.0271 -0.0468  0.3694
  407MPD2    H7 6139   4.293   0.410   9.982 -0.1844 -0.6172  1.0896
  408TMC3    C1 6140   4.095   0.356   9.834  0.1327  0.0458  0.4525
  408TMC3    C2 6141   4.209   0.282   9.810 -0.4498  0.2736  0.5814
  408TMC3    C3 6142   4.208   0.201   9.697 -0.3937 -0.4613 -1.0052
  408TMC3    C4 6143   3.984   0.348   9.754  0.6466  0.3871  0.6805
  408TMC3    C5 6144   3.998   0.282   9.635 -0.3651 -0.1177  0.1860
  408TMC3    C6 6145   4.101   0.205   9.602  0.0240 -0.3580  1.4507
  408TMC3     C 6146   4.088   0.447   9.944 -0.0549  0.1133 -0.0603
  408TMC3     O 6147   3.980   0.491   9.968 -0.0008  0.2842  0.2219
  408TMC3     H 6148   4.285   0.268   9.886  0.5900 -0.2716 -0.5470
  408TMC3    H1 6149   3.889   0.392   9.781  0.0084 -0.7007  0.2348
  408TMC3    H2 6150   4.091   0.150   9.509  0.6880  0.5812  0.8286
  408TMC3    C7 6151   3.876   0.234   9.569  0.1480  0.3542  0.3719
  408TMC3    C8 6152   4.324   0.134   9.644  0.6827  0.2276  0.3343
  408TMC3    O1 6153   3.853   0.115   9.569  0.2188  0.0406 -0.2197
  408TMC3    O2 6154   4.303   0.064   9.546  0.0400 -0.2742 -0.0306
  409MPD2     C 6155   3.836   4.416  17.260 -0.5452 -0.0840 -0.0203
  409MPD2    C1 6156   3.929   4.440  17.358 -1.1134  0.3081 -0.3192
  409MPD2    C2 6157   4.013   4.548  17.341  0.1777 -0.8464 -0.0509
  409MPD2    C3 6158   4.016   4.619  17.228  0.2760 -0.7770  0.3650
  409MPD2    C4 6159   3.931   4.587  17.129 -0.0320  0.7050  0.5551
  409MPD2    C5 6160   3.838   4.483  17.145  0.1940 -0.1088 -0.2842
  409MPD2     H 6161   4.085   4.573  17.417 -0.4216 -0.7770  0.4931
  409MPD2    H1 6162   3.939   4.633  17.032 -0.7055  0.3178  0.3119
  409MPD2    H2 6163   3.763   4.339  17.281  0.9684 -0.8832  2.4064
  409MPD2    H3 6164   3.773   4.448  17.066  0.3041 -1.0857  0.0569
  409MPD2     N 6165   4.114   4.719  17.191 -0.2601  0.4764  0.0261
  409MPD2    H5 6166   4.121   4.735  17.091 -0.7448  2.7367  0.3386
  409MPD2    N1 6167   3.952   4.367  17.476 -0.0099  0.4360  0.1494
  409MPD2    H7 6168   4.036   4.391  17.528 -0.8522 -0.8798  2.1164
  410TMC3    C1 6169   4.318   0.097  17.220  0.1798  0.0069 -0.4326
  410TMC3    C2 6170   4.417   0.148  17.302  0.5522 -0.2048 -0.0241
  410TMC3    C3 6171   4.525   0.210  17.254 -0.3674 -0.0649 -0.3786
  410TMC3    C4 6172   4.334   0.116  17.081  0.1406 -0.4174 -0.3846
  410TMC3    C5 6173   4.444   0.188  17.034 -0.0163  0.1823 -0.0403
  410TMC3    C6 6174   4.545   0.228  17.119 -0.1454 -0.0174  0.2717
  410TMC3     C 6175   4.198   0.044  17.279 -0.0655 -0.3556  0.3056
  410TMC3     O 6176   4.201   0.027  17.400 -0.4239 -0.2241 -0.2594
  410TMC3     H 6177   4.400   0.155  17.409 -2.6160  2.5356 -0.6777
  410TMC3    H1 6178   4.278   0.062  17.006  0.8125 -0.5704 -0.7743
  410TMC3    H2 6179   4.630   0.281  17.079  1.9362 -3.1773  0.5341
  410TMC3    C7 6180   4.463   0.201  16.894 -0.0296 -0.3360  0.0875
  410TMC3    C8 6181   4.648   0.196  17.325 -0.2832 -0.2065  0.1612
  410TMC3    O1 6182   4.406   0.112  16.833 -0.2543  0.3644  0.1005
  410TMC3    O2 6183   0.005   0.259  17.280  0.0054 -0.1845 -0.1668
  411MPD2     C 6184   4.618   1.242  14.573  0.4228 -0.2723 -0.1664
  411MPD2    C1 6185   4.504   1.164  14.572 -0.1277  0.4787 -0.1408
  411MPD2    C2 6186   4.514   1.030  14.537 -0.9320  0.0198  0.0878
  411MPD2    C3 6187   4.635   0.973  14.494  0.5084  0.4205 -0.4181
  411MPD2    C4 6188   0.002   1.059  14.483 -0.1511  0.3835  0.0545
  411MPD2    C5 6189   4.729   1.189  14.524  0.4257 -0.2106  0.5569
  411MPD2     H 6190   4.422   0.974  14.533 -0.7755 -0.2894  0.8998
  411MPD2    H1 6191   0.104   1.023  14.472 -1.0895 -2.0252 -0.7736
  411MPD2    H2 6192   4.626   1.338  14.622  0.1000 -0.0781 -0.4997
  411MPD2    H3 6193   0.081   1.252  14.523  0.2861 -0.0286 -0.5222
  411MPD2     N 6194   4.664   0.833  14.465  0.0974 -0.0679  0.3975
  411MPD2    H5 6195   0.024   0.810  14.444  0.3801  1.6292 -0.1374
  411MPD2    N1 6196   4.384   1.221  14.614 -0.2239  0.1693 -0.1657
  411MPD2    H7 6197   4.313   1.150  14.629 -1.4546  1.7699  1.5654
  412TMC3    C1 6198   4.633   0.597  14.462 -0.3212  0.4022 -0.1798
  412TMC3    C2 6199   4.566   0.502  14.541  1.1341  0.0973 -0.5906
  412TMC3    C3 6200   4.573   0.370  14.503 -0.4582  0.7934  0.5482
  412TMC3    C4 6201   4.692   0.554  14.344  0.0998 -0.5067  0.0612
  412TMC3    C5 6202   4.691   0.420  14.308  0.0672  0.2787 -0.0937
  412TMC3    C6 6203   4.645   0.321  14.399  0.7750 -0.0252  0.4174
  412TMC3     C 6204   4.575   0.729  14.478  0.6643 -0.1208  0.0495
  412TMC3     O 6205   4.456   0.733  14.481  0.3491  0.4980  0.0483
  412TMC3     H 6206   4.513   0.546  14.625  0.8897 -4.1858  1.4731
  412TMC3    H1 6207   4.721   0.631  14.274 -0.2567 -0.3015  0.1438
  412TMC3    H2 6208   4.618   0.221  14.370  0.2927  0.2223  0.0154
  412TMC3    C7 6209   4.645   0.404  14.170  1.1368  0.3715  0.5734
  412TMC3    C8 6210   4.451   0.299  14.518  0.3200 -1.2591 -0.4261
  412TMC3    O1 6211   4.626   0.510  14.108  0.1402  0.1536  0.1262
  412TMC3    O2 6212   4.455   0.182  14.548  0.6366 -0.5439  0.0474
  413MPD2     C 6213   0.983   3.410  15.337  0.2273 -0.4891  0.2867
  413MPD2    C1 6214   0.980   3.483  15.221  0.1071 -0.5706 -0.6941
  413MPD2    C2 6215   1.048   3.438  15.102 -0.3907 -0.4820 -0.0666
  413MPD2    C3 6216   1.108   3.314  15.106 -0.8918 -0.7924  0.4145
  413MPD2    C4 6217   1.114   3.241  15.221 -0.1252  0.6680  0.1876
  413MPD2    C5 6218   1.039   3.285  15.335 -0.3119  0.5763  0.0639
  413MPD2     H 6219   1.040   3.493  15.009  1.1841  2.3871  1.5110
  413MPD2    H1 6220   1.167   3.146  15.226 -1.1396  0.1911  1.9481
  413MPD2    H2 6221   0.959   3.460  15.430 -0.0338  0.3320 -0.2202
  413MPD2    H3 6222   1.028   3.216  15.418  0.2347 -0.7291 -0.9587
  413MPD2     N 6223   1.172   3.276  14.984 -0.4113 -0.7502  0.6211
  413MPD2    H5 6224   1.183   3.345  14.910  0.5233 -0.7482  0.7644
  413MPD2    N1 6225   0.898   3.600  15.224  0.0161  0.1291 -0.1710
  413MPD2    H7 6226   0.837   3.625  15.301  1.3472  0.8256  0.6616
  414TMC3    C1 6227   1.310   3.135  14.851 -0.3675  0.4908  0.2148
  414TMC3    C2 6228   1.342   3.008  14.809  0.4260 -0.4548 -1.0216
  414TMC3    C3 6229   1.447   2.984  14.727  0.0302  0.2837 -0.1367
  414TMC3    C4 6230   1.392   3.234  14.818 -0.1925 -0.2054 -0.1244
  414TMC3    C5 6231   1.503   3.197  14.748 -0.4080  0.3804  0.5635
  414TMC3    C6 6232   1.532   3.077  14.686 -0.7457  0.1787 -0.3633
  414TMC3     C 6233   1.224   3.154  14.962 -0.0104 -0.1234  0.6137
  414TMC3     O 6234   1.195   3.048  15.019 -0.2537  0.4484 -0.8623
  414TMC3     H 6235   1.270   2.930  14.833  0.0966  0.5635  1.2623
  414TMC3    H1 6236   1.391   3.339  14.843  2.0209 -0.0985 -0.4337
  414TMC3    H2 6237   1.621   3.069  14.625 -0.1153  0.5398  0.5210
  414TMC3    C7 6238   1.611   3.284  14.760  0.1125 -0.4507  0.2061
  414TMC3    C8 6239   1.492   2.846  14.727  0.2622  0.3317 -0.1991
  414TMC3    O1 6240   1.592   3.398  14.719 -0.0577 -0.0741  0.0916
  414TMC3    O2 6241   1.432   2.767  14.796  0.0686  0.0235 -0.0803
  415TMC3    C1 6242   1.885   1.712  10.437  0.0968  0.0145 -0.5754
  415TMC3    C2 6243   1.993   1.755  10.368 -0.3276 -0.2353 -0.0968
  415TMC3    C3 6244   2.090   1.662  10.354 -0.2826  0.0714  0.0642
  415TMC3    C4 6245   1.872   1.588  10.489  0.5779  0.8966  0.1638
  415TMC3    C5 6246   1.966   1.486  10.459 -0.5619  0.0421  0.9333
  415TMC3    C6 6247   2.077   1.527  10.391  0.2074 -0.3704  0.2778
  415TMC3     C 6248   1.780   1.803  10.484  0.0288  0.6036  0.2257
  415TMC3     O 6249   1.716   1.762  10.581 -0.0469 -0.2642  0.4218
  415TMC3     H 6250   2.004   1.849  10.314 -2.3604  0.9594  1.5909
  415TMC3    H1 6251   1.782   1.549  10.537  0.6886  1.3523  0.7433
  415TMC3    H2 6252   2.164   1.463  10.378 -0.6398 -1.9050  2.3667
  415TMC3    C7 6253   1.983   1.377  10.550 -0.3413  0.6024  0.2565
  415TMC3    C8 6254   2.205   1.690  10.272 -0.1748  0.7513 -0.0386
  415TMC3    O1 6255   2.049   1.280  10.521 -0.2751  0.2457 -0.7458
  415TMC3    O2 6256   2.244   1.594  10.201 -0.0376  0.0705  0.8314
  416MPD2     C 6257   3.673   0.772  11.614  0.0780  0.5496  0.2232
  416MPD2    C1 6258   3.570   0.724  11.540  0.4335 -0.0886  0.1897
  416MPD2    C2 6259   3.599   0.689  11.409  0.0836  0.3181 -0.4072
  416MPD2    C3 6260   3.732   0.702  11.354  0.1592 -0.6405 -0.5805
  416MPD2    C4 6261   3.822   0.765  11.429 -0.1717 -0.0810 -0.3567
  416MPD2    C5 6262   3.799   0.794  11.558 -0.3311 -0.0105  0.9581
  416MPD2     H 6263   3.516   0.654  11.349 -0.1818  2.9868 -1.5918
  416MPD2    H1 6264   3.927   0.769  11.403  0.5965 -0.7319  2.6533
  416MPD2    H2 6265   3.661   0.796  11.719  0.6342  0.6823  0.2576
  416MPD2    H3 6266   3.888   0.820  11.614  0.7666  0.6054 -1.0551
  416MPD2     N 6267   3.772   0.654  11.227  0.7194 -0.5512 -0.1743
  416MPD2    H5 6268   3.867   0.671  11.197  0.8162  0.8373  0.9213
  416MPD2    N1 6269   3.450   0.699  11.611 -0.2996 -0.1553 -0.5174
  416MPD2    H7 6270   3.445   0.727  11.709 -2.0811  0.4340 -0.7774
  417TMC3    C1 6271   3.224   0.630  11.651  0.7572  0.6949  0.4047
  417TMC3    C2 6272   3.253   0.636  11.788  0.2423  0.4239 -0.5557
  417TMC3    C3 6273   3.150   0.688  11.868 -0.2034  0.3679 -0.5150
  417TMC3    C4 6274   3.103   0.676  11.600 -0.3332  0.5188  0.4969
  417TMC3    C5 6275   3.015   0.740  11.683  0.4226 -0.4670  0.1180
  417TMC3    C6 6276   3.038   0.741  11.817  0.0286  0.0006  0.3977
  417TMC3     C 6277   3.334   0.644  11.560 -0.0699  0.3270 -0.2068
  417TMC3     O 6278   3.312   0.615  11.443  0.3773  0.0831  0.5743
  417TMC3     H 6279   3.352   0.606  11.820  1.2794  1.7896 -2.4532
  417TMC3    H1 6280   3.087   0.680  11.493 -0.0244  3.3559  0.5426
  417TMC3    H2 6281   2.960   0.772  11.886 -0.6484  0.8439 -0.7425
  417TMC3    C7 6282   2.901   0.807  11.621  0.4199 -0.5563  0.7572
  417TMC3    C8 6283   3.176   0.709  12.005  0.0706 -0.4643  0.5461
  417TMC3    O1 6284   2.893   0.821  11.501 -0.5217 -0.4675 -0.2074
  417TMC3    O2 6285   3.124   0.804  12.059  1.0296  0.1503 -0.5004
  418TMC3    C1 6286   2.595   2.605   0.512 -0.3845  0.0654  0.2199
  418TMC3    C2 6287   2.472   2.596   0.448 -0.8646  0.4641  0.0901
  418TMC3    C3 6288   2.359   2.586   0.524  1.0898 -0.3204 -0.1242
  418TMC3    C4 6289   2.612   2.590   0.648 -0.3066 -0.5015  0.5056
  418TMC3    C5 6290   2.497   2.572   0.714 -0.0603  0.8991 -0.1885
  418TMC3    C6 6291   2.374   2.557   0.656 -0.0397  0.0153  0.1171
  418TMC3     C 6292   2.710   2.593   0.426 -0.0503  0.1632 -0.8928
  418TMC3     O 6293   2.706   2.634   0.313 -0.1509 -0.6133  0.2258
  418TMC3     H 6294   2.460   2.619   0.342  0.7611  0.8092 -0.0186
  418TMC3    H1 6295   2.707   2.587   0.699  0.6096 -0.5800 -1.2212
  418TMC3    H2 6296   2.284   2.561   0.716  0.5635  0.5567  0.9794
  418TMC3    C7 6297   2.511   2.534   0.851 -0.8149  0.1861 -0.2321
  418TMC3    C8 6298   2.250   2.524   0.452 -0.0484 -0.0366 -0.5102
  418TMC3    O1 6299   2.434   2.447   0.889  0.2894 -0.0199 -0.4999
  418TMC3    O2 6300   2.208   2.564   0.345 -0.9568 -0.1850  0.2019
  419MPD2     C 6301   1.454   0.097  12.914  0.0156  1.1677 -0.0083
  419MPD2    C1 6302   1.346   0.137  12.840  0.6060 -0.5985 -0.2648
  419MPD2    C2 6303   1.234   0.187  12.898 -0.2907  0.0646 -0.0377
  419MPD2    C3 6304   1.233   0.195  13.041 -0.5135  0.8531  0.2339
  419MPD2    C4 6305   1.347   0.163  13.110  0.4438 -0.0553 -0.3142
  419MPD2    C5 6306   1.454   0.112  13.048  1.0084 -0.4855 -0.0947
  419MPD2     H 6307   1.146   0.210  12.839 -1.4415 -1.3445  1.1218
  419MPD2    H1 6308   1.362   0.189  13.214  0.6318 -1.1628 -0.0687
  419MPD2    H2 6309   1.548   0.063  12.873 -0.8719  0.3962 -1.3850
  419MPD2    H3 6310   1.545   0.085  13.100  0.4351  1.5886  1.9646
  419MPD2     N 6311   1.129   0.260  13.111 -0.8078  0.2701 -0.2515
  419MPD2    H5 6312   1.140   0.279  13.210 -0.0171  1.8619 -0.6429
  419MPD2    N1 6313   1.342   0.139  12.698  0.2569  0.0949 -0.5019
  419MPD2    H7 6314   1.256   0.183  12.666  0.9325 -0.0694 -2.5352
  420TMC3    C1 6315   0.942   0.383  13.141 -0.2920 -0.0957 -0.2489
  420TMC3    C2 6316   0.820   0.432  13.090 -0.3808  0.2059  0.1607
  420TMC3    C3 6317   0.750   0.504  13.181 -0.1845  0.2506  0.0689
  420TMC3    C4 6318   0.988   0.425  13.267  0.4623  0.8904  0.4662
  420TMC3    C5 6319   0.920   0.513  13.347  0.3336 -0.7316 -1.0729
  420TMC3    C6 6320   0.795   0.544  13.301 -0.0728  1.2488 -0.4748
  420TMC3     C 6321   1.008   0.283  13.061 -0.0336 -0.7357  0.7666
  420TMC3     O 6322   0.954   0.247  12.956  0.3863 -0.4855  0.0894
  420TMC3     H 6323   0.784   0.404  12.992 -2.4341 -2.2495  1.6390
  420TMC3    H1 6324   1.059   0.360  13.315  0.6194 -0.3584 -1.4660
  420TMC3    H2 6325   0.736   0.610  13.364  0.9247  1.3632  0.3307
  420TMC3    C7 6326   0.936   0.518  13.490  0.2462 -0.0187 -0.0472
  420TMC3    C8 6327   0.614   0.544  13.138 -0.2076 -0.0731  0.1777
  420TMC3    O1 6328   0.836   0.548  13.554 -0.4038  0.2399 -0.0107
  420TMC3    O2 6329   0.541   0.574  13.231 -0.7037 -0.0205  0.1796
  421TMC3    C1 6330   1.955   2.421  13.946  0.4786  0.5400  0.1284
  421TMC3    C2 6331   1.993   2.545  13.987  0.0915  0.2517  0.8921
  421TMC3    C3 6332   2.126   2.563  13.995 -0.0352  0.1714  0.2899
  421TMC3    C4 6333   2.040   2.332  13.893 -1.3193  0.0642 -0.3186
  421TMC3    C5 6334   2.172   2.363  13.881  0.6982 -0.2559  0.4840
  421TMC3    C6 6335   2.215   2.477  13.933  0.5909 -0.1001  0.4766
  421TMC3     C 6336   1.805   2.406  13.937 -0.1868  0.4411 -0.2252
  421TMC3     O 6337   1.732   2.488  13.986 -0.5471  0.6021  0.0031
  421TMC3     H 6338   1.917   2.615  14.019 -1.7415 -0.3911 -2.0351
  421TMC3    H1 6339   2.005   2.235  13.860  1.9553 -1.1574 -0.1975
  421TMC3    H2 6340   2.321   2.500  13.926 -0.1044  1.6073 -4.1822
  421TMC3    C7 6341   2.272   2.261  13.833  0.3315  0.2981  0.2308
  421TMC3    C8 6342   2.186   2.676  14.070  0.1772 -0.0459  0.7176
  421TMC3    O1 6343   2.378   2.262  13.899 -0.5784  0.0640  0.2223
  421TMC3    O2 6344   2.308   2.671  14.078 -0.2228 -0.1072  0.3341
  422TMC3    C1 6345   4.270   3.333  12.483 -0.7019  0.7690 -1.1191
  422TMC3    C2 6346   4.282   3.394  12.601 -0.7225  0.1443 -0.0413
  422TMC3    C3 6347   4.170   3.410  12.672  0.1117  0.2185 -0.2898
  422TMC3    C4 6348   4.154   3.277  12.436  0.0717  0.2167 -0.0367
  422TMC3    C5 6349   4.044   3.294  12.515  0.1674  0.3904 -0.6461
  422TMC3    C6 6350   4.050   3.356  12.632  0.1156 -0.5761 -0.5072
  422TMC3     C 6351   4.376   3.357  12.390 -0.1501  0.2038 -0.7623
  422TMC3     O 6352   4.461   3.430  12.439  0.0580  0.4096 -0.1788
  422TMC3     H 6353   4.375   3.437  12.635 -0.7698  2.0325 -2.3039
  422TMC3    H1 6354   4.149   3.217  12.345  1.6137 -1.3626  0.9241
  422TMC3    H2 6355   3.962   3.388  12.688  1.0613 -0.5482  0.9596
  422TMC3    C7 6356   3.935   3.203  12.492 -0.0866 -0.2754 -0.9562
  422TMC3    C8 6357   4.158   3.546  12.724  0.0196  0.3237  0.6870
  422TMC3    O1 6358   3.940   3.145  12.388  0.3245  0.1559  0.1979
  422TMC3    O2 6359   4.254   3.583  12.791 -0.2948 -0.3145  0.4461
  423MPD2     C 6360   0.931   4.263   0.585  0.5966  0.0482 -0.5790
  423MPD2    C1 6361   1.030   4.171   0.615  0.4010  0.8867  0.3730
  423MPD2    C2 6362   1.105   4.096   0.524  0.6456  0.6569  0.0247
  423MPD2    C3 6363   1.085   4.122   0.391  0.3883 -0.3300 -0.2505
  423MPD2    C4 6364   0.984   4.211   0.356  0.5451 -0.4381  0.5939
  423MPD2    C5 6365   0.909   4.278   0.449  0.6387  0.3945  0.5824
  423MPD2     H 6366   1.176   4.029   0.572 -2.3296 -2.1192  0.5056
  423MPD2    H1 6367   0.965   4.234   0.252 -0.1058  0.1175  0.8414
  423MPD2    H2 6368   0.877   4.326   0.654  1.5657  1.6272 -1.2527
  423MPD2    H3 6369   0.832   4.339   0.403  0.8869 -0.0128 -0.3759
  423MPD2     N 6370   1.149   4.062   0.286 -0.6787  0.3221 -1.0776
  423MPD2    H5 6371   1.123   4.085   0.191 -0.7893 -1.6378 -1.5283
  423MPD2    N1 6372   1.062   4.156   0.751 -0.7081  0.2099 -0.5502
  423MPD2    H7 6373   1.110   4.069   0.768 -0.4430  0.6466  0.9111
  424TMC3    C1 6374   1.103   4.194   0.981  0.1998 -0.1771  0.4981
  424TMC3    C2 6375   1.235   4.161   0.969 -0.4957  0.4913  0.3075
  424TMC3    C3 6376   1.316   4.183   1.081 -0.6423 -0.4359  0.2135
  424TMC3    C4 6377   1.046   4.206   1.105  0.3258 -0.6730 -0.2473
  424TMC3    C5 6378   1.137   4.216   1.216 -0.4801 -0.1620 -0.2516
  424TMC3    C6 6379   1.271   4.209   1.205  0.1350 -0.3396  0.3855
  424TMC3     C 6380   1.023   4.229   0.863 -0.1434  0.7341 -0.1823
  424TMC3     O 6381   0.937   4.308   0.879 -0.3672 -0.3320  0.1649
  424TMC3     H 6382   1.286   4.155   0.874 -1.7987 -1.7548 -0.2547
  424TMC3    H1 6383   0.941   4.223   1.124  0.3103 -1.3844  0.3335
  424TMC3    H2 6384   1.329   4.206   1.296  1.9877 -0.1028 -0.7856
  424TMC3    C7 6385   1.082   4.250   1.346  0.1029  0.2711  0.0161
  424TMC3    C8 6386   1.435   4.112   1.066 -0.1678  0.0364 -0.2181
  424TMC3    O1 6387   1.153   4.220   1.443 -0.3767 -0.2181  0.0828
  424TMC3    O2 6388   1.425   3.998   1.024 -0.1553 -0.1242  0.3522
  425MPD2     C 6389   0.417   3.245   0.121  0.9448 -0.1327  0.4653
  425MPD2    C1 6390   0.337   3.210   0.016 -0.9018  0.1521 -0.3290
  425MPD2    C2 6391   0.199   3.233   0.018 -0.3362  0.4614  0.0222
  425MPD2    C3 6392   0.147   3.298   0.124 -0.3320 -0.1891  0.5042
  425MPD2    C4 6393   0.223   3.337   0.227 -0.0416  0.6522  0.0211
  425MPD2    C5 6394   0.357   3.310   0.229 -0.2668  0.1259  0.1897
  425MPD2     H 6395   0.134   3.186  17.690  0.1185 -0.4856  0.2312
  425MPD2    H1 6396   0.187   3.395   0.310 -1.9775 -2.4178  1.3272
  425MPD2    H2 6397   0.520   3.212   0.121  1.2707  0.8933  0.8347
  425MPD2    H3 6398   0.412   3.348   0.315 -0.4694  0.1540  0.3060
  425MPD2     N 6399   0.007   3.313   0.122 -0.3656 -0.1158  0.1419
  425MPD2    H5 6400   4.704   3.264   0.042  3.2843 -1.3473 -0.8935
  425MPD2    N1 6401   0.394   3.140  17.651  1.1483  0.2497  0.3488
  425MPD2    H7 6402   0.494   3.119  17.645  1.5810  2.3648  0.2280
  426TMC3    C1 6403   0.398   3.024  17.449 -0.6947  0.5709 -0.8514
  426TMC3    C2 6404   0.379   3.026  17.314 -1.1094 -0.8859  0.1753
  426TMC3    C3 6405   0.425   2.928  17.236 -0.6931 -0.5584  0.3235
  426TMC3    C4 6406   0.493   2.942  17.503 -0.0167 -0.6562  0.1907
  426TMC3    C5 6407   0.546   2.843  17.422 -0.0876  0.1846  0.5252
  426TMC3    C6 6408   0.507   2.836  17.295  0.0136  0.1856 -0.1139
  426TMC3     C 6409   0.327   3.111  17.538  0.1238 -0.1895  0.2356
  426TMC3     O 6410   0.229   3.164  17.488  0.0017  0.1636  0.1488
  426TMC3     H 6411   0.320   3.106  17.271  0.0770  0.1068  0.3846
  426TMC3    H1 6412   0.516   2.938  17.608  2.6106 -0.5693 -0.3896
  426TMC3    H2 6413   0.544   2.753  17.235 -0.8283 -2.0871  2.5498
  426TMC3    C7 6414   0.559   2.718  17.485  0.4694  0.5492 -0.0507
  426TMC3    C8 6415   0.373   2.891  17.106 -0.1015  0.4569  0.6584
  426TMC3    O1 6416   0.658   2.650  17.452  0.4851 -0.3975  0.3920
  426TMC3    O2 6417   0.448   2.831  17.032  0.0063 -0.0749 -0.2851
  427MPD2     C 6418   3.668   0.942  14.657  0.7042  0.2814 -0.1364
  427MPD2    C1 6419   3.631   0.864  14.764 -0.8267 -0.4066  0.6755
  427MPD2    C2 6420   3.493   0.843  14.783  0.1922 -0.1492 -0.0345
  427MPD2    C3 6421   3.401   0.916  14.706  0.2110  0.3783  0.1132
  427MPD2    C4 6422   3.440   0.988  14.601 -0.3054 -0.0983 -0.6923
  427MPD2    C5 6423   3.577   0.999  14.577  0.0290 -0.1865 -0.4994
  427MPD2     H 6424   3.460   0.771  14.856 -0.6578 -1.0304 -1.2792
  427MPD2    H1 6425   3.372   1.053  14.547  0.9574  2.7712  1.1501
  427MPD2    H2 6426   3.771   0.961  14.629  1.3097 -0.2021  1.7649
  427MPD2    H3 6427   3.616   1.060  14.497 -0.8692  1.6279  0.4533
  427MPD2     N 6428   3.261   0.905  14.730  0.3061  0.2863 -0.1961
  427MPD2    H5 6429   3.204   0.943  14.655  0.0809  0.6011  0.1386
  427MPD2    N1 6430   3.721   0.790  14.844  0.4031 -0.6690  0.4402
  427MPD2    H7 6431   3.678   0.721  14.905  0.8636  0.0409  1.5669
  428TMC3    C1 6432   3.929   0.693  14.908 -0.1747  0.8916  0.9626
  428TMC3    C2 6433   3.872   0.580  14.960 -0.4753  0.2791  0.0576
  428TMC3    C3 6434   3.943   0.515  15.059 -0.1619 -0.5215  0.5987
  428TMC3    C4 6435   4.051   0.736  14.940 -0.2756 -0.1406  0.3511
  428TMC3    C5 6436   4.117   0.666  15.037  0.2768 -0.2250  0.0523
  428TMC3    C6 6437   4.062   0.560  15.105  0.0518 -0.9275 -0.4666
  428TMC3     C 6438   3.855   0.792  14.823 -0.6396 -0.5686  0.5970
  428TMC3     O 6439   3.928   0.866  14.759 -0.3663 -0.6699  0.3457
  428TMC3     H 6440   3.794   0.524  14.909 -0.5061 -0.9187  1.4098
  428TMC3    H1 6441   4.097   0.827  14.902  1.4179 -1.0826  0.1248
  428TMC3    H2 6442   4.107   0.505  15.186  0.9299 -1.0210 -1.0293
  428TMC3    C7 6443   4.226   0.732  15.108  0.5301  0.1203  0.3245
  428TMC3    C8 6444   3.887   0.405  15.132 -0.4287  0.7005  0.2123
  428TMC3    O1 6445   4.275   0.672  15.201  0.3254 -0.2183  0.4921
  428TMC3    O2 6446   3.961   0.331  15.196  0.5798 -0.6445  0.0070
  429MPD2     C 6447   0.116   0.727   0.171  0.3020  0.5012 -0.5773
  429MPD2    C1 6448   0.206   0.626   0.143 -1.0279  0.8165  1.0391
  429MPD2    C2 6449   0.316   0.656   0.066  0.7610  0.0507  0.3658
  429MPD2    C3 6450   0.331   0.779   0.001  0.0569  0.6009  0.2436
  429MPD2    C4 6451   0.234   0.879   0.028  0.1345 -0.6436 -0.2588
  429MPD2    C5 6452   0.128   0.844   0.103  0.2191  0.6061  0.5318
  429MPD2     H 6453   0.395   0.586   0.042 -1.0699 -1.6335 -0.7001
  429MPD2    H1 6454   0.245   0.982  17.740  1.8622 -0.9199 -0.5488
  429MPD2    H2 6455   0.029   0.709   0.233 -0.8448  0.8114 -2.1140
  429MPD2    H3 6456   0.045   0.913   0.115  0.4468  0.8487  0.7018
  429MPD2     N 6457   0.436   0.795  17.654  0.1338  0.0904  0.9886
  429MPD2    H5 6458   0.507   0.724  17.644  0.2311  0.5541 -1.6451
  429MPD2    N1 6459   0.190   0.493   0.198  0.0314  0.2804  0.5180
  429MPD2    H7 6460   0.252   0.421   0.160 -0.1317 -0.2627  1.2764
  430TMC3    C1 6461   0.541   0.861  17.457  1.1955 -0.0851 -0.0331
  430TMC3    C2 6462   0.556   0.956  17.360  1.0362  0.2805  0.1489
  430TMC3    C3 6463   0.591   0.919  17.234 -0.8281  0.2706  0.5901
  430TMC3    C4 6464   0.555   0.729  17.430 -0.6145 -0.4377 -0.0689
  430TMC3    C5 6465   0.606   0.692  17.303 -0.9275 -0.1413  0.0594
  430TMC3    C6 6466   0.629   0.790  17.210  0.6938  0.1193 -0.1500
  430TMC3     C 6467   0.435   0.893  17.554  0.2221 -0.1542  0.5036
  430TMC3     O 6468   0.357   0.981  17.523  0.5401 -0.2904  0.0244
  430TMC3     H 6469   0.525   1.058  17.379 -1.6462 -0.8311  1.8628
  430TMC3    H1 6470   0.544   0.644  17.497  0.4987  1.3727  2.3938
  430TMC3    H2 6471   0.668   0.765  17.112 -0.3899 -1.9094 -0.0718
  430TMC3    C7 6472   0.532   0.576  17.251 -0.0302  0.3331 -0.0096
  430TMC3    C8 6473   0.528   0.976  17.120 -0.3561 -0.1780  0.4363
  430TMC3    O1 6474   0.505   0.479  17.323  0.1858  0.1571  0.5111
  430TMC3    O2 6475   0.507   0.894  17.033 -0.9262  0.6756  0.3180
  431MPD2     C 6476   0.836   0.776  12.513 -0.5811 -0.6578 -0.0140
  431MPD2    C1 6477   0.974   0.810  12.501  0.0381 -0.0309  0.0961
  431MPD2    C2 6478   1.073   0.711  12.481  0.6513  0.3257 -0.2304
  431MPD2    C3 6479   1.040   0.580  12.454 -0.7253  0.4741  0.3690
  431MPD2    C4 6480   0.904   0.551  12.463 -0.4615 -0.0181  0.5103
  431MPD2    C5 6481   0.805   0.643  12.492  0.1807 -0.1832  0.0660
  431MPD2     H 6482   1.176   0.744  12.481  0.9051 -0.4853  0.8049
  431MPD2    H1 6483   0.877   0.449  12.439  0.0483 -0.2623  0.9734
  431MPD2    H2 6484   0.756   0.846  12.534  0.7146  0.1742  2.1774
  431MPD2    H3 6485   0.702   0.610  12.494  0.2546 -0.3845  0.5288
  431MPD2     N 6486   1.131   0.473  12.427 -0.6023 -0.8836 -0.2809
  431MPD2    H5 6487   1.094   0.379  12.414 -1.7680 -0.2592 -1.4145
  431MPD2    N1 6488   1.017   0.947  12.520 -0.0110  0.1038  0.1843
  431MPD2    H7 6489   1.117   0.967  12.521 -0.0121  0.1316 -0.1744
  432TMC3    C1 6490   1.341   0.373  12.369  0.0301  0.1137 -0.4713
  432TMC3    C2 6491   1.469   0.409  12.330 -0.5200  0.3039 -0.3544
  432TMC3    C3 6492   1.569   0.324  12.353  0.2652  0.1774 -0.3279
  432TMC3    C4 6493   1.322   0.266  12.452 -0.2919  0.9941 -0.2674
  432TMC3    C5 6494   1.433   0.190  12.480 -0.1230  0.0200  0.0743
  432TMC3    C6 6495   1.554   0.217  12.434 -0.4161  0.1353 -0.0082
  432TMC3     C 6496   1.266   0.496  12.401  0.6876  0.2843 -0.1712
  432TMC3     O 6497   1.320   0.607  12.387 -1.0611 -0.0928 -0.0938
  432TMC3     H 6498   1.484   0.499  12.271 -0.6859  0.8785  0.4768
  432TMC3    H1 6499   1.228   0.239  12.497  0.9488 -3.5108 -0.4223
  432TMC3    H2 6500   1.630   0.140  12.426 -0.7590  0.1210 -3.0557
  432TMC3    C7 6501   1.445   0.116  12.606 -0.0966  0.6078  0.6373
  432TMC3    C8 6502   1.701   0.381  12.373 -0.3514  0.1673 -0.0236
  432TMC3    O1 6503   1.536   0.042  12.618  0.5786  0.1611 -0.4910
  432TMC3    O2 6504   1.696   0.506  12.380 -0.0638 -0.1303 -0.1622
  433MPD2     C 6505   4.358   0.011  10.619 -0.3259  0.7234 -0.2610
  433MPD2    C1 6506   4.444   4.665  10.683 -0.4535 -0.1634  0.1218
  433MPD2    C2 6507   4.459   4.662  10.819 -0.6646 -0.4635  1.2886
  433MPD2    C3 6508   4.394   0.018  10.892 -0.2075 -0.0271 -0.8120
  433MPD2    C4 6509   4.309   0.112  10.833  0.3962 -0.4431  0.2548
  433MPD2    C5 6510   4.295   0.106  10.697 -0.5353  0.5624  0.3019
  433MPD2     H 6511   4.531   4.598  10.867 -1.9435 -1.2842  2.1152
  433MPD2    H1 6512   4.251   0.189  10.884 -2.2871 -1.4517 -1.3029
  433MPD2    H2 6513   4.328   0.008  10.515  2.4474  1.6730 -1.0711
  433MPD2    H3 6514   4.229   0.181  10.654 -0.2383  0.5603 -0.1657
  433MPD2     N 6515   4.397   0.004  11.030  0.1723 -0.0642  0.6673
  433MPD2    H5 6516   4.436   4.654  11.064  1.8458  0.7526  0.8093
  433MPD2    N1 6517   4.516   4.567  10.612  0.5600  0.2559  0.2664
  433MPD2    H7 6518   4.575   4.507  10.669 -0.9100 -3.3476 -1.9949
  434TMC3    C1 6519   4.566   4.406  10.441  0.4317 -0.2679 -0.2998
  434TMC3    C2 6520   4.650   4.336  10.526  0.0992 -0.7147  0.4638
  434TMC3    C3 6521   4.656   4.194  10.506 -0.2348 -0.1599 -1.1424
  434TMC3    C4 6522   4.511   4.341  10.328  0.3916 -0.0839  0.6505
  434TMC3    C5 6523   4.492   4.210  10.338  0.1872  0.0233  0.4767
  434TMC3    C6 6524   4.571   4.130  10.424 -0.1249  0.0553  0.4017
  434TMC3     C 6525   4.495   4.521  10.486  0.1137 -0.1272 -0.2242
  434TMC3     O 6526   4.408   4.558  10.409 -0.6792  0.8016  0.3310
  434TMC3     H 6527   4.702   4.386  10.607  0.1417  0.6647 -0.4018
  434TMC3    H1 6528   4.435   4.391  10.268  0.3775  1.3048  1.8107
  434TMC3    H2 6529   4.566   4.022  10.431  2.8119 -0.1819 -1.2895
  434TMC3    C7 6530   4.367   4.158  10.289 -0.4251  0.0011  0.6886
  434TMC3    C8 6531   0.002   4.133  10.610  0.5002 -0.5581 -0.3871
  434TMC3    O1 6532   4.274   4.238  10.290 -0.5022  0.5700  0.5431
  434TMC3    O2 6533   0.082   4.199  10.673  0.3222 -0.4601  0.1675
  435MPD2     C 6534   1.910   4.326  15.386  0.2966  0.3788 -0.2069
  435MPD2    C1 6535   1.877   4.275  15.514 -0.3350 -0.0045 -0.1414
  435MPD2    C2 6536   1.960   4.183  15.571 -0.5660 -0.1148 -0.3656
  435MPD2    C3 6537   2.068   4.137  15.504 -0.2842  0.3060  0.0559
  435MPD2    C4 6538   2.102   4.182  15.380 -0.3456 -0.5787 -0.4011
  435MPD2    C5 6539   2.023   4.274  15.324 -0.9435  0.3119  0.4164
  435MPD2     H 6540   1.940   4.142  15.669  1.8247  1.1311  0.6344
  435MPD2    H1 6541   2.191   4.149  15.327  0.7650  0.4413  0.8307
  435MPD2    H2 6542   1.847   4.390  15.325  1.4790  0.4939 -1.2927
  435MPD2    H3 6543   2.057   4.312  15.229 -0.2075  0.4672  0.7412
  435MPD2     N 6544   2.145   4.043  15.581  0.3626 -0.1427  0.1515
  435MPD2    H5 6545   2.134   4.049  15.682 -1.0629  1.7414 -0.1163
  435MPD2    N1 6546   1.765   4.312  15.587  0.4354 -0.9410  0.2222
  435MPD2    H7 6547   1.749   4.271  15.679  0.7201 -0.4064  0.5160
  436TMC3    C1 6548   1.467   4.436  15.839 -0.7161 -0.4068  0.2114
  436TMC3    C2 6549   1.568   4.405  15.756 -0.3515  0.2976 -0.6026
  436TMC3    C3 6550   1.549   4.404  15.619 -1.2283  0.1688 -0.9150
  436TMC3    C4 6551   1.342   4.459  15.792  0.3717  0.0594 -0.5684
  436TMC3    C5 6552   1.331   4.469  15.658  0.0479 -0.3846  0.0553
  436TMC3    C6 6553   1.427   4.433  15.567 -0.7040 -0.0127  0.4067
  436TMC3     C 6554   1.507   4.511  15.957  0.0618 -0.0575 -0.8324
  436TMC3     O 6555   1.629   4.528  15.964  0.2165 -0.0620 -0.0514
  436TMC3     H 6556   1.670   4.396  15.791 -0.1124  1.1044 -1.0830
  436TMC3    H1 6557   1.263   4.486  15.861  0.9653 -2.4309  1.0845
  436TMC3    H2 6558   1.409   4.434  15.460 -0.5937 -1.3311  0.3726
  436TMC3    C7 6559   1.199   4.452  15.601  0.4310 -0.1697 -0.1565
  436TMC3    C8 6560   1.664   4.394  15.534 -0.1353  0.2350  0.3074
  436TMC3    O1 6561   1.126   4.376  15.664  0.7115 -0.5138  0.1454
  436TMC3    O2 6562   1.650   4.450  15.422  0.3138  0.4085  0.0016
  437TMC3    C1 6563   4.576   1.519  13.028  0.4758 -0.4354 -0.3474
  437TMC3    C2 6564   4.462   1.587  13.068 -0.0011 -0.0401 -0.4035
  437TMC3    C3 6565   4.410   1.692  12.995 -0.1583 -0.0717 -0.4299
  437TMC3    C4 6566   4.632   1.539  12.907 -0.3454  0.7121  0.4505
  437TMC3    C5 6567   4.568   1.638  12.835 -0.6581 -0.0951  0.4473
  437TMC3    C6 6568   4.466   1.715  12.873 -0.1940 -0.8254  0.1913
  437TMC3     C 6569   4.622   1.425  13.129  0.8162  0.3312  0.8766
  437TMC3     O 6570   4.542   1.385  13.214 -0.6002  0.3373  0.3604
  437TMC3     H 6571   4.429   1.574  13.170  0.7449  2.6232  0.1736
  437TMC3    H1 6572   4.724   1.490  12.876 -0.3882  1.0023 -0.1331
  437TMC3    H2 6573   4.441   1.800  12.811 -0.0993 -1.2203 -0.3969
  437TMC3    C7 6574   4.620   1.683  12.709 -0.2668  0.2981 -0.3260
  437TMC3    C8 6575   4.282   1.746  13.034  1.3466 -0.2103  0.5466
  437TMC3    O1 6576   4.533   1.718  12.627 -0.3232 -0.1768  0.1764
  437TMC3    O2 6577   4.222   1.685  13.120  0.5208 -0.3490  0.0655
  438MPD2     C 6578   2.620   2.369  16.479  0.4890  0.0618 -0.4197
  438MPD2    C1 6579   2.682   2.274  16.559 -0.1720 -0.2680 -0.1650
  438MPD2    C2 6580   2.702   2.296  16.693  0.6228  0.5926 -0.2255
  438MPD2    C3 6581   2.640   2.402  16.753 -0.6372 -0.2520  0.1144
  438MPD2    C4 6582   2.574   2.495  16.678  0.1834  0.7244 -0.5792
  438MPD2    C5 6583   2.564   2.479  16.540 -0.1476 -0.4446 -0.4526
  438MPD2     H 6584   2.763   2.217  16.735 -0.8878  0.3658  1.5556
  438MPD2    H1 6585   2.522   2.580  16.721 -2.8148 -0.8204 -1.1415
  438MPD2    H2 6586   2.613   2.351  16.372 -4.3376  0.1439 -0.1066
  438MPD2    H3 6587   2.511   2.553  16.482  0.2344 -1.6563 -2.3470
  438MPD2     N 6588   2.641   2.415  16.895  0.2813  0.4004  0.4778
  438MPD2    H5 6589   2.585   2.490  16.933  0.4808  0.3703  0.8302
  438MPD2    N1 6590   2.724   2.155  16.499  0.1296 -0.0048  0.2627
  438MPD2    H7 6591   2.787   2.106  16.563  0.1720 -1.6086 -1.0092
  439TMC3    C1 6592   2.785   1.988  16.339 -0.0153  0.0655 -0.4421
  439TMC3    C2 6593   2.767   1.922  16.220  0.0282 -0.1513  0.1555
  439TMC3    C3 6594   2.852   1.814  16.196  0.2593 -0.6790 -1.1125
  439TMC3    C4 6595   2.875   1.940  16.432 -0.3953 -0.5735  0.3840
  439TMC3    C5 6596   2.946   1.824  16.403  0.0508  0.3688  0.1953
  439TMC3    C6 6597   2.937   1.762  16.287 -0.3742  0.1433 -0.6310
  439TMC3     C 6598   2.688   2.097  16.378  0.0903  0.0329  0.2760
  439TMC3     O 6599   2.595   2.132  16.307 -0.0991 -0.0046  0.3267
  439TMC3     H 6600   2.705   1.972  16.146  2.0118  0.2991 -1.2013
  439TMC3    H1 6601   2.878   1.983  16.531 -0.6409 -0.6503  0.4250
  439TMC3    H2 6602   2.976   1.663  16.263 -2.1587 -0.7030 -0.0664
  439TMC3    C7 6603   3.059   1.786  16.492 -0.0949  0.8868  0.9887
  439TMC3    C8 6604   2.890   1.769  16.066 -0.2041  0.1285  0.4919
  439TMC3    O1 6605   3.079   1.844  16.598  0.8152  0.1756 -0.8220
  439TMC3    O2 6606   3.004   1.797  16.024 -0.3771 -0.0479 -0.1893
  440MPD2     C 6607   0.830   2.413  15.087  0.0428 -0.2900  0.4539
  440MPD2    C1 6608   0.942   2.497  15.092 -0.0297  0.1727 -0.1322
  440MPD2    C2 6609   1.057   2.452  15.030 -0.1757  0.9767  0.3300
  440MPD2    C3 6610   1.065   2.326  14.971 -0.2387  0.2942 -0.1764
  440MPD2    C4 6611   0.948   2.255  14.958  0.0752 -0.4288  0.5691
  440MPD2    C5 6612   0.838   2.296  15.013 -0.0058 -0.0437  0.4920
  440MPD2     H 6613   1.145   2.514  15.044  0.3053  0.0819  1.3173
  440MPD2    H1 6614   0.945   2.161  14.905  1.3016  0.2892 -0.7748
  440MPD2    H2 6615   0.734   2.439  15.131 -0.8385 -1.6745 -0.6754
  440MPD2    H3 6616   0.754   2.231  14.990  0.1588  0.0748 -0.4271
  440MPD2     N 6617   1.186   2.279  14.917  0.1493  0.5033 -0.3916
  440MPD2    H5 6618   1.263   2.346  14.925  0.1144  0.5002 -0.0466
  440MPD2    N1 6619   0.935   2.624  15.138  0.4116 -0.4571  0.0634
  440MPD2    H7 6620   1.012   2.684  15.109 -1.3422  1.5733 -0.3682
  441TMC3    C1 6621   1.349   2.126  14.870 -0.2439  0.4561 -0.3034
  441TMC3    C2 6622   1.418   2.165  14.760 -0.1918 -0.0011 -0.0764
  441TMC3    C3 6623   1.556   2.138  14.756  0.6437  0.6548  0.7432
  441TMC3    C4 6624   1.405   2.054  14.966 -0.1677  0.1800  0.1271
  441TMC3    C5 6625   1.540   2.046  14.973 -0.0119 -0.9804 -0.3272
  441TMC3    C6 6626   1.621   2.078  14.865  0.2698  0.1999 -0.2602
  441TMC3     C 6627   1.211   2.154  14.875  0.1539  0.6765 -0.0973
  441TMC3     O 6628   1.142   2.052  14.883  0.0864 -0.2763 -0.1445
  441TMC3     H 6629   1.363   2.231  14.694  1.1092  0.9901 -0.1594
  441TMC3    H1 6630   1.342   2.017  15.046 -3.9949 -0.1937 -3.0645
  441TMC3    H2 6631   1.729   2.081  14.877  0.5083 -0.7246 -2.1369
  441TMC3    C7 6632   1.586   2.024  15.111  0.2877  0.3089 -0.2073
  441TMC3    C8 6633   1.635   2.221  14.676 -0.8092  0.1031 -0.1709
  441TMC3    O1 6634   1.504   2.065  15.190  0.4088 -0.5312 -0.7317
  441TMC3    O2 6635   1.741   2.175  14.640 -0.2880  0.5064 -0.1355
  442MPD2     C 6636   0.120   2.440  16.883 -0.2139 -0.4876  0.1585
  442MPD2    C1 6637   4.719   2.451  16.903  0.4311 -0.4085 -0.1135
  442MPD2    C2 6638   4.645   2.384  16.804 -0.0051  0.1646  0.5136
  442MPD2    C3 6639   4.692   2.318  16.693  0.1147 -0.7449 -0.0745
  442MPD2    C4 6640   0.091   2.325  16.674 -0.5456 -0.1741 -0.3475
  442MPD2    C5 6641   0.171   2.384  16.767 -0.0368  0.6490  0.2233
  442MPD2     H 6642   4.540   2.369  16.825 -0.2105  0.0068 -0.6032
  442MPD2    H1 6643   0.148   2.280  16.593  0.2287 -0.2961  0.2609
  442MPD2    H2 6644   0.189   2.464  16.964  0.3624 -1.9960  0.1059
  442MPD2    H3 6645   0.279   2.388  16.759  0.0669  0.1952  1.3255
  442MPD2     N 6646   4.608   2.268  16.590 -0.5080 -0.1621  0.4559
  442MPD2    H5 6647   4.651   2.256  16.499  1.5832 -0.1598  1.4479
  442MPD2    N1 6648   4.653   2.516  17.011  0.0998 -0.4129 -1.3150
  442MPD2    H7 6649   4.552   2.510  17.004 -0.0492 -0.4300  1.0287
  443TMC3    C1 6650   4.605   2.649  17.193  0.0500 -0.7087 -0.3078
  443TMC3    C2 6651   4.617   2.788  17.204 -0.1598  0.3320 -0.7478
  443TMC3    C3 6652   4.509   2.868  17.222 -0.0145  0.1712 -0.0710
  443TMC3    C4 6653   4.476   2.592  17.206  0.3408 -0.0967  0.0481
  443TMC3    C5 6654   4.371   2.677  17.241  0.4242 -0.1837  0.6884
  443TMC3    C6 6655   4.386   2.813  17.246  0.1147 -0.6008 -0.4287
  443TMC3     C 6656   4.708   2.581  17.122 -0.4547 -0.4839  0.2844
  443TMC3     O 6657   0.088   2.619  17.135  0.1139  0.6763 -0.9265
  443TMC3     H 6658   4.718   2.825  17.185  0.6644 -0.4771  2.0243
  443TMC3    H1 6659   4.466   2.485  17.191  0.3312 -0.3381  1.8827
  443TMC3    H2 6660   4.301   2.879  17.260  0.4349 -0.0287 -1.1604
  443TMC3    C7 6661   4.244   2.616  17.300 -0.4269  0.7873  0.4268
  443TMC3    C8 6662   4.538   3.012  17.255 -0.8690 -0.5622 -0.4354
  443TMC3    O1 6663   4.207   2.507  17.256  0.4390 -0.1388 -0.2128
  443TMC3    O2 6664   4.633   3.025  17.327 -0.3742 -0.1926 -0.0064
  444MPD2     C 6665   4.726   2.324  17.376 -0.3096 -0.2229  0.3783
  444MPD2    C1 6666   4.619   2.260  17.321  0.1090 -0.5999  0.9631
  444MPD2    C2 6667   4.643   2.195  17.201  0.3975 -0.3275 -0.1946
  444MPD2    C3 6668   0.028   2.196  17.143 -0.4590  0.0207 -0.4520
  444MPD2    C4 6669   0.128   2.272  17.200  0.0477 -0.7424  0.2643
  444MPD2    C5 6670   0.113   2.331  17.321 -0.2605  1.0046  0.3731
  444MPD2     H 6671   4.567   2.132  17.155 -0.8451  1.5130 -0.6358
  444MPD2    H1 6672   0.225   2.286  17.153 -1.7376  0.9286 -2.9524
  444MPD2    H2 6673   4.728   2.370  17.474  0.0432 -1.6971  1.0662
  444MPD2    H3 6674   0.193   2.383  17.372  1.2742 -2.1708  1.1417
  444MPD2     N 6675   0.050   2.125  17.021 -0.1317 -0.2143  0.0122
  444MPD2    H5 6676   4.701   2.089  16.980 -1.3426 -0.8305  3.0031
  444MPD2    N1 6677   4.486   2.267  17.371  0.2672  0.2242 -0.0699
  444MPD2    H7 6678   4.412   2.221  17.318  1.7962  0.0550 -2.0817
  445TMC3    C1 6679   0.182   2.039  16.840 -0.1866  0.6414 -0.1098
  445TMC3    C2 6680   0.076   2.008  16.761  0.0365 -0.0427  0.0889
  445TMC3    C3 6681   0.098   1.946  16.641 -0.2427  0.2824  0.9106
  445TMC3    C4 6682   0.309   2.011  16.798 -0.3258  0.3713 -0.1973
  445TMC3    C5 6683   0.328   1.943  16.681  0.0014  0.3409  0.0525
  445TMC3    C6 6684   0.223   1.916  16.597  0.1803 -0.4699 -0.0181
  445TMC3     C 6685   0.173   2.118  16.963 -0.1383 -0.8842 -0.2448
  445TMC3     O 6686   0.282   2.139  17.015  0.1607 -0.2956 -0.1120
  445TMC3     H 6687   4.709   2.025  16.788  0.7335  4.1473  0.2113
  445TMC3    H1 6688   0.396   2.027  16.861  1.6653 -0.8767 -2.6283
  445TMC3    H2 6689   0.229   1.883  16.493 -1.0874 -0.2102 -0.1657
  445TMC3    C7 6690   0.466   1.923  16.644  0.2650 -0.5257  0.5134
  445TMC3    C8 6691   4.720   1.881  16.572 -0.3081  0.0202  0.3445
  445TMC3    O1 6692   0.543   2.010  16.679 -0.0290  0.4967 -0.3014
  445TMC3    O2 6693   4.605   1.916  16.600  0.5954  0.3117  0.3909
  446MPD2     C 6694   4.304   3.769  10.930  0.4157 -0.2297 -0.0936
  446MPD2    C1 6695   4.241   3.882  10.909 -0.7411 -0.2651  0.4041
  446MPD2    C2 6696   4.306   4.001  10.941  0.3924 -0.5558  0.6111
  446MPD2    C3 6697   4.432   3.998  11.001  0.3689  0.2863  0.3230
  446MPD2    C4 6698   4.495   3.876  11.026 -0.4554 -0.1355  0.8762
  446MPD2    C5 6699   4.436   3.767  10.972  0.0463  0.2179 -0.0524
  446MPD2     H 6700   4.255   4.097  10.932 -1.0655 -1.4032 -0.2002
  446MPD2    H1 6701   4.592   3.875  11.073 -0.5508 -0.6846  1.0611
  446MPD2    H2 6702   4.262   3.673  10.904 -2.2786  0.5329  1.4104
  446MPD2    H3 6703   4.494   3.677  10.983 -1.1488 -0.3608  1.4883
  446MPD2     N 6704   4.504   4.123  11.046 -0.7263 -0.2671  0.0746
  446MPD2    H5 6705   4.461   4.210  11.016  1.7922  1.5604  1.6593
  446MPD2    N1 6706   4.109   3.884  10.855  0.4538 -0.3576  0.6416
  446MPD2    H7 6707   4.048   3.965  10.862  0.2183 -0.5041  0.2968
  447TMC3    C1 6708   4.705   4.252  11.103 -0.3235 -0.6556  0.0927
  447TMC3    C2 6709   4.715   4.316  10.977 -0.1171 -0.4147 -0.3964
  447TMC3    C3 6710   0.100   4.365  10.939 -0.0213  0.0498 -0.1494
  447TMC3    C4 6711   0.079   4.237  11.184  0.2385  0.6685  0.0760
  447TMC3    C5 6712   0.194   4.304  11.148  0.3326  0.2622 -0.1163
  447TMC3    C6 6713   0.208   4.357  11.024 -0.2945 -0.1490  0.0292
  447TMC3     C 6714   4.612   4.142  11.127 -0.6543  0.4156  0.4269
  447TMC3     O 6715   4.655   4.063  11.210 -0.1381  0.3008  0.5228
  447TMC3     H 6716   4.635   4.322  10.904 -1.1480  4.6007  1.1651
  447TMC3    H1 6717   0.077   4.202  11.287 -1.6018  2.4134  0.6256
  447TMC3    H2 6718   0.308   4.383  10.991 -0.7711 -0.1550 -1.4079
  447TMC3    C7 6719   0.310   4.240  11.199 -0.3042  0.4367 -0.0452
  447TMC3    C8 6720   0.108   4.460  10.833 -0.5273  0.3471 -0.0362
  447TMC3    O1 6721   0.383   4.206  11.109 -0.1533 -0.3441 -0.0732
  447TMC3    O2 6722   0.001   4.509  10.801  0.7625 -0.4560  0.1568
  448TMC3    C1 6723   2.463   3.773  16.973  0.6665 -0.4133 -0.4646
  448TMC3    C2 6724   2.498   3.673  16.894 -0.3509  0.0483 -0.0905
  448TMC3    C3 6725   2.585   3.571  16.942 -0.2246 -0.0364 -0.0350
  448TMC3    C4 6726   2.532   3.795  17.092 -0.4622 -0.3827  0.2852
  448TMC3    C5 6727   2.613   3.695  17.138  0.7352 -0.0779  0.5708
  448TMC3    C6 6728   2.633   3.575  17.069  0.0792 -0.6860 -0.2063
  448TMC3     C 6729   2.408   3.893  16.922 -0.4871 -0.1840 -0.4248
  448TMC3     O 6730   2.457   3.934  16.819  0.4600  0.0582  0.1092
  448TMC3     H 6731   2.449   3.659  16.798  1.1096  2.2851 -1.1372
  448TMC3    H1 6732   2.511   3.885  17.148 -2.2524 -0.3250 -0.4708
  448TMC3    H2 6733   2.716   3.510  17.095  0.1052 -1.7272 -2.9016
  448TMC3    C7 6734   2.666   3.716  17.277 -0.3888 -0.1449  0.3588
  448TMC3    C8 6735   2.620   3.447  16.863 -0.0955  1.0462  0.5585
  448TMC3    O1 6736   2.653   3.826  17.327 -0.0550  0.7087 -0.0202
  448TMC3    O2 6737   2.710   3.376  16.915 -0.1714 -0.4536  0.4502
  449MPD2     C 6738   4.358   2.289  14.031  0.4641  1.1336 -0.5142
  449MPD2    C1 6739   4.271   2.310  13.925  0.4798 -0.3711 -0.5082
  449MPD2    C2 6740   4.143   2.262  13.945  0.3452 -0.3957 -0.9434
  449MPD2    C3 6741   4.100   2.203  14.062  0.2983  0.3214 -0.0409
  449MPD2    C4 6742   4.188   2.188  14.164 -0.4077 -0.5971 -0.4076
  449MPD2    C5 6743   4.316   2.239  14.152 -0.2109 -0.2604  0.2936
  449MPD2     H 6744   4.071   2.281  13.866  0.6905  2.8404 -0.4580
  449MPD2    H1 6745   4.176   2.133  14.257 -0.8560 -1.1340 -0.7848
  449MPD2    H2 6746   4.463   2.315  14.028  1.1066 -1.1608  2.1698
  449MPD2    H3 6747   4.389   2.230  14.231  1.4119  4.1423 -0.7097
  449MPD2     N 6748   3.967   2.174  14.070  0.1376  0.4237  0.3588
  449MPD2    H5 6749   3.915   2.191  13.984 -2.8970 -0.7013  1.9896
  449MPD2    N1 6750   4.288   2.371  13.800 -0.1077 -0.1789 -0.0305
  449MPD2    H7 6751   4.203   2.378  13.745  1.5387 -0.8021 -2.6524
  450TMC3    C1 6752   4.375   2.505  13.643 -0.3106  0.2811  0.3128
  450TMC3    C2 6753   4.445   2.463  13.529  0.6417  0.6053 -0.1738
  450TMC3    C3 6754   4.370   2.455  13.414 -0.1740  0.6852  0.2887
  450TMC3    C4 6755   4.247   2.546  13.640 -0.7940 -0.7790  0.0461
  450TMC3    C5 6756   4.179   2.550  13.521  0.6869  0.0616  0.1932
  450TMC3    C6 6757   4.241   2.508  13.406 -0.2286  0.2153 -0.5110
  450TMC3     C 6758   4.405   2.427  13.761  0.3554 -0.4659  0.3179
  450TMC3     O 6759   4.519   2.403  13.799  0.3669  0.2283 -0.1764
  450TMC3     H 6760   4.544   2.419  13.535  1.6007  3.1481  2.2358
  450TMC3    H1 6761   4.193   2.582  13.727 -1.0630  0.2084 -0.5243
  450TMC3    H2 6762   4.195   2.485  13.311 -2.1188 -1.3556  0.7928
  450TMC3    C7 6763   4.055   2.477  13.560  0.1206 -0.3245 -0.0519
  450TMC3    C8 6764   4.366   2.324  13.364 -0.1585  0.2255 -0.3506
  450TMC3    O1 6765   4.060   2.379  13.640 -0.0068  0.1464  0.3305
  450TMC3    O2 6766   4.272   2.252  13.391 -0.0517  0.8212  0.3256
  451MPD2     C 6767   0.674   0.263   1.392  0.2334 -0.0697  0.3827
  451MPD2    C1 6768   0.740   0.323   1.290 -0.0826  0.1319 -0.8240
  451MPD2    C2 6769   0.860   0.270   1.247 -0.6503  0.0446  0.0097
  451MPD2    C3 6770   0.916   0.156   1.309  0.6317  0.4255  0.1284
  451MPD2    C4 6771   0.849   0.104   1.410  0.5089  0.3303 -0.6006
  451MPD2    C5 6772   0.726   0.152   1.447 -0.0215  0.7794  0.5746
  451MPD2     H 6773   0.918   0.327   1.176 -1.4561  0.0678 -0.6287
  451MPD2    H1 6774   0.886   0.019   1.466  0.5050  1.0651  0.5179
  451MPD2    H2 6775   0.577   0.300   1.424 -0.8557 -0.7672 -2.1781
  451MPD2    H3 6776   0.676   0.090   1.521 -0.7049  1.5596  0.7766
  451MPD2     N 6777   1.043   0.100   1.286  0.3756 -0.2779  0.2154
  451MPD2    H5 6778   1.084   0.039   1.355 -1.7333  0.2716  1.9762
  451MPD2    N1 6779   0.690   0.445   1.235  0.2280 -0.3850 -1.1419
  451MPD2    H7 6780   0.603   0.473   1.277 -0.5418 -1.7978 -1.7881
  452TMC3    C1 6781   1.254   0.067   1.173 -0.5753 -0.2363  0.3239
  452TMC3    C2 6782   1.256   4.667   1.173  0.9067  0.4100 -0.4604
  452TMC3    C3 6783   1.325   4.607   1.072  0.5583  0.0665 -0.3958
  452TMC3    C4 6784   1.342   0.144   1.105  0.1250  0.1181 -0.3631
  452TMC3    C5 6785   1.419   0.079   1.016  0.2639 -0.2484  0.4517
  452TMC3    C6 6786   1.415   4.677   0.993  0.2721  0.7060  0.1769
  452TMC3     C 6787   1.125   0.133   1.171 -0.0161  0.3073 -0.0830
  452TMC3     O 6788   1.099   0.204   1.074  0.9074 -0.1199 -0.5863
  452TMC3     H 6789   1.174   4.610   1.215  1.3538  1.8056  2.2897
  452TMC3    H1 6790   1.323   0.250   1.098  0.1195  0.2141  1.0985
  452TMC3    H2 6791   1.482   4.620   0.929  2.3831  1.6895  1.5322
  452TMC3    C7 6792   1.447   0.164   0.900 -0.0302  0.6524 -0.5221
  452TMC3    C8 6793   1.233   4.528   0.995  0.0269 -0.7774  0.6844
  452TMC3    O1 6794   1.475   0.283   0.922  0.1257  0.5233  0.1348
  452TMC3    O2 6795   1.118   4.567   1.010 -0.1019  0.1496 -0.7579
  453TMC3    C1 6796   1.701   2.965  11.851 -0.2629 -0.7781 -0.0226
  453TMC3    C2 6797   1.649   2.854  11.799 -0.4514 -1.3376 -0.0224
  453TMC3    C3 6798   1.559   2.869  11.698  0.1541  0.0524 -0.1548
  453TMC3    C4 6799   1.695   3.090  11.795  0.1331 -0.4225 -0.0580
  453TMC3    C5 6800   1.606   3.104  11.691 -0.4113  0.2426  0.7583
  453TMC3    C6 6801   1.536   2.993  11.640  0.7982 -0.1487 -0.1645
  453TMC3     C 6802   1.814   2.962  11.946  0.0005 -0.5723  0.1799
  453TMC3     O 6803   1.851   3.063  11.996  0.5747  0.0508 -0.6346
  453TMC3     H 6804   1.643   2.763  11.858 -2.6187 -0.7423  0.6951
  453TMC3    H1 6805   1.743   3.170  11.850  0.6109 -2.1137  1.9673
  453TMC3    H2 6806   1.467   3.004  11.557  0.3484 -1.5576  0.0159
  453TMC3    C7 6807   1.637   3.206  11.595 -0.7712  0.5281 -0.5887
  453TMC3    C8 6808   1.497   2.753  11.651 -0.3534 -0.0651 -0.7090
  453TMC3    O1 6809   1.633   3.187  11.473  0.2617  0.3562  0.1800
  453TMC3    O2 6810   1.385   2.761  11.605 -0.1947  0.1041 -0.3751
  454MPD2     C 6811   0.729   2.100  16.239 -0.6002  0.9183  0.0306
  454MPD2    C1 6812   0.660   2.160  16.135  0.1738  0.3814  0.3665
  454MPD2    C2 6813   0.620   2.294  16.142  0.4741  0.1865 -0.0897
  454MPD2    C3 6814   0.639   2.371  16.255 -0.0340  0.1293 -0.1165
  454MPD2    C4 6815   0.713   2.312  16.351  0.4253  0.2379  0.7576
  454MPD2    C5 6816   0.748   2.181  16.347 -0.0851 -0.5671  0.2299
  454MPD2     H 6817   0.559   2.339  16.064 -2.7979 -1.3155  1.6218
  454MPD2    H1 6818   0.741   2.366  16.441  0.4622  0.0440  0.8646
  454MPD2    H2 6819   0.778   2.004  16.236  1.4774  2.0312 -1.7070
  454MPD2    H3 6820   0.801   2.140  16.432 -0.4960 -1.8281 -0.1223
  454MPD2     N 6821   0.570   2.487  16.289  0.1702  0.2870 -0.3085
  454MPD2    H5 6822   0.571   2.510  16.388  0.4310 -0.3080 -0.1735
  454MPD2    N1 6823   0.609   2.087  16.022  0.3884  0.4597  0.2712
  454MPD2    H7 6824   0.556   2.140  15.954 -0.2337  0.9769  1.1563
  455TMC3    C1 6825   0.383   2.611  16.269 -0.0336  0.4002 -0.6573
  455TMC3    C2 6826   0.396   2.642  16.403 -0.4305 -0.6549  0.4917
  455TMC3    C3 6827   0.293   2.614  16.482  0.1618  0.3921  0.1094
  455TMC3    C4 6828   0.277   2.539  16.219 -0.3353 -0.2550 -0.2102
  455TMC3    C5 6829   0.182   2.505  16.308 -0.0790 -0.6050  0.0421
  455TMC3    C6 6830   0.184   2.547  16.436  0.3847  0.0376  0.4156
  455TMC3     C 6831   0.506   2.572  16.207  0.3576 -0.2852 -0.9256
  455TMC3     O 6832   0.501   2.564  16.087 -0.5720 -0.1079  0.2678
  455TMC3     H 6833   0.469   2.717  16.430 -0.3985  0.3336 -2.2557
  455TMC3    H1 6834   0.291   2.496  16.121 -1.3254 -1.9305  0.3806
  455TMC3    H2 6835   0.101   2.530  16.504 -0.5778  1.5455 -0.3904
  455TMC3    C7 6836   0.162   2.364  16.308  0.8315 -0.4701 -0.0783
  455TMC3    C8 6837   0.289   2.695  16.605  0.5373  0.7945  0.0231
  455TMC3    O1 6838   0.058   2.322  16.355 -0.1800  0.4360  0.2523
  455TMC3    O2 6839   0.390   2.750  16.645 -0.0663  0.3232 -0.4175
  456MPD2     C 6840   2.934   2.162  16.045  0.0492 -0.1488 -0.7685
  456MPD2    C1 6841   3.020   2.152  16.153  0.4747  0.4120  0.1988
  456MPD2    C2 6842   3.013   2.239  16.266 -0.5471 -0.4856 -0.0723
  456MPD2    C3 6843   2.935   2.350  16.262  0.1141  0.0189  0.4178
  456MPD2    C4 6844   2.850   2.363  16.151  0.0306  0.9693 -0.7374
  456MPD2    C5 6845   2.847   2.271  16.045 -0.0886  0.0352  0.1607
  456MPD2     H 6846   3.083   2.223  16.347 -0.1331  0.8660 -0.1555
  456MPD2    H1 6847   2.785   2.447  16.132 -1.1661  0.7853  2.5534
  456MPD2    H2 6848   2.931   2.094  15.961 -3.2157  0.6543 -1.3009
  456MPD2    H3 6849   2.776   2.287  15.964 -0.0193  0.4506  0.1828
  456MPD2     N 6850   2.940   2.440  16.359  0.7660 -1.0593 -0.3710
  456MPD2    H5 6851   3.003   2.410  16.433 -1.5552 -1.8681  1.3073
  456MPD2    N1 6852   3.123   2.048  16.145 -0.3009  0.6631 -0.2755
  456MPD2    H7 6853   3.103   1.985  16.068 -1.2983  0.8523 -0.1714
  457TMC3    C1 6854   2.868   2.627  16.492 -0.1243  0.3593 -0.1874
  457TMC3    C2 6855   2.816   2.755  16.495  0.9408 -0.0817 -0.2446
  457TMC3    C3 6856   2.834   2.825  16.613 -0.2189  0.3671  0.0234
  457TMC3    C4 6857   2.927   2.571  16.605  0.6814  0.8038 -0.3043
  457TMC3    C5 6858   2.927   2.642  16.725  0.0269 -0.4707  0.1057
  457TMC3    C6 6859   2.894   2.775  16.725 -0.1302 -0.0146 -0.0256
  457TMC3     C 6860   2.865   2.557  16.368 -1.0493 -0.0404 -0.0328
  457TMC3     O 6861   2.801   2.613  16.285 -0.4615  0.1043  0.0188
  457TMC3     H 6862   2.788   2.807  16.404  0.1242  0.7727  0.4864
  457TMC3    H1 6863   2.964   2.471  16.624 -0.5068  0.3618 -0.2794
  457TMC3    H2 6864   2.911   2.831  16.817 -0.3816  0.5124 -0.2989
  457TMC3    C7 6865   2.938   2.574  16.855 -0.2632 -0.3456 -0.0636
  457TMC3    C8 6866   2.797   2.965  16.631  0.5822 -0.4113 -0.1686
  457TMC3    O1 6867   2.989   2.463  16.857  0.2069  0.1310 -0.2380
  457TMC3    O2 6868   2.836   3.016  16.733  0.2891  0.5480  0.4296
  458MPD2     C 6869   0.267   1.855  12.421 -0.6891  0.0063  0.2450
  458MPD2    C1 6870   0.322   1.806  12.533 -0.1678 -0.3631  0.1267
  458MPD2    C2 6871   0.240   1.752  12.629  0.7230 -0.2421  0.0146
  458MPD2    C3 6872   0.105   1.730  12.611 -0.3947 -0.2283 -0.1888
  458MPD2    C4 6873   0.052   1.767  12.492  0.3651  0.2492 -0.1790
  458MPD2    C5 6874   0.132   1.830  12.401 -0.1187 -0.0322 -0.6625
  458MPD2     H 6875   0.287   1.721  12.722  1.0565 -1.9447 -0.7201
  458MPD2    H1 6876   4.683   1.754  12.471  1.0370  0.4784 -3.6722
  458MPD2    H2 6877   0.328   1.896  12.341 -0.1522 -0.4963  0.3933
  458MPD2    H3 6878   0.082   1.857  12.309  0.6761  0.7798 -0.8578
  458MPD2     N 6879   0.021   1.684  12.713  0.4711  0.4183 -0.1604
  458MPD2    H5 6880   0.064   1.669  12.804 -1.7413  1.3197  1.0407
  458MPD2    N1 6881   0.461   1.823  12.537 -0.0287 -0.4635 -0.9359
  458MPD2    H7 6882   0.505   1.883  12.468  2.8603 -0.9026  0.5201
  459TMC3    C1 6883   0.674   1.800  12.651 -0.4500 -0.0167  0.1466
  459TMC3    C2 6884   0.700   1.933  12.632  0.1252 -0.0308  0.7111
  459TMC3    C3 6885   0.829   1.974  12.657  0.1935 -0.3130  0.2311
  459TMC3    C4 6886   0.760   1.702  12.701  0.0772 -0.2303  0.3858
  459TMC3    C5 6887   0.889   1.754  12.722  0.4996 -0.0197  0.0777
  459TMC3    C6 6888   0.926   1.883  12.693  0.0304  0.5118  0.2762
  459TMC3     C 6889   0.533   1.761  12.639  0.1817 -0.1374  0.1804
  459TMC3     O 6890   0.509   1.648  12.692 -0.2867 -0.6575 -0.3693
  459TMC3     H 6891   0.623   2.001  12.599  0.4683 -1.1199 -2.2737
  459TMC3    H1 6892   0.729   1.599  12.713 -1.1227 -0.1984 -2.3365
  459TMC3    H2 6893   1.023   1.922  12.718  1.4095 -2.8307  0.1937
  459TMC3    C7 6894   0.961   1.687  12.829 -0.3284 -0.3655  0.1756
  459TMC3    C8 6895   0.866   2.111  12.632  0.4537  0.1847 -0.9088
  459TMC3    O1 6896   0.924   1.572  12.857  0.8431 -0.2818  0.2360
  459TMC3    O2 6897   0.978   2.145  12.670 -0.7673  0.5985 -0.2577
  460MPD2     C 6898   0.421   4.580  10.682 -0.3016 -0.4842 -0.3054
  460MPD2    C1 6899   0.288   4.588  10.707  0.1921  0.6913 -0.2322
  460MPD2    C2 6900   0.218   4.704  10.682 -0.0285 -0.9740 -0.3795
  460MPD2    C3 6901   0.283   0.087  10.659 -0.3799  0.2943  0.5828
  460MPD2    C4 6902   0.419   0.087  10.643 -0.1049 -0.0194 -0.5315
  460MPD2    C5 6903   0.488   4.700  10.658  0.1001 -0.0062  0.1451
  460MPD2     H 6904   0.112   4.701  10.702  0.2051  1.3995  1.1309
  460MPD2    H1 6905   0.473   0.174  10.611  2.0740 -0.3336  2.2433
  460MPD2    H2 6906   0.479   4.489  10.698 -2.2512 -1.4053  1.5608
  460MPD2    H3 6907   0.596   4.699  10.650  0.3722  1.2174  3.7014
  460MPD2     N 6908   0.201   0.200  10.625 -0.0131  0.2667  0.4814
  460MPD2    H5 6909   0.104   0.188  10.599  0.3646  0.1357 -0.8864
  460MPD2    N1 6910   0.238   4.482  10.786 -0.6055 -0.5002  0.0568
  460MPD2    H7 6911   0.300   4.410  10.821  0.3228 -0.5114 -1.6024
  461TMC3    C1 6912   0.160   0.438  10.582 -0.2608  0.9049  0.1731
  461TMC3    C2 6913   0.067   0.416  10.483 -0.4788 -0.5594 -0.2497
  461TMC3    C3 6914   4.707   0.510  10.458 -0.1971  0.0720  0.3268
  461TMC3    C4 6915   0.156   0.552  10.655  0.1729  0.1327 -0.2866
  461TMC3    C5 6916   0.069   0.653  10.616  0.1380  0.1313 -0.1881
  461TMC3    C6 6917   4.707   0.636  10.531  0.7513 -0.1123  0.1703
  461TMC3     C 6918   0.247   0.328  10.630 -0.6635 -0.8761 -0.6877
  461TMC3     O 6919   0.336   0.365  10.709  0.6815 -0.0355  0.1913
  461TMC3     H 6920   0.054   0.322  10.430  2.5323 -1.3748  0.4634
  461TMC3    H1 6921   0.229   0.567  10.734 -0.3229 -1.2614  0.4398
  461TMC3    H2 6922   4.659   0.721  10.484 -1.9460 -0.7844  1.6641
  461TMC3    C7 6923   0.069   0.782  10.680 -0.3409 -0.2052  0.0021
  461TMC3    C8 6924   4.613   0.512  10.344 -0.2365 -0.6760 -0.3847
  461TMC3    O1 6925   4.706   0.838  10.651  0.3115  0.0069 -0.1434
  461TMC3    O2 6926   4.648   0.452  10.245  0.3277 -0.3069  0.2650
  462TMC3    C1 6927   0.055   0.668   0.703  0.0084 -0.0967  0.0812
  462TMC3    C2 6928   0.190   0.653   0.682  0.1013 -0.4807 -0.0753
  462TMC3    C3 6929   0.229   0.524   0.663  0.4908  0.5024 -1.0522
  462TMC3    C4 6930   4.700   0.570   0.696  0.1409 -0.4379  0.2099
  462TMC3    C5 6931   0.015   0.441   0.687  0.2849 -0.5046 -0.0280
  462TMC3    C6 6932   0.145   0.418   0.663  0.0321 -0.3114 -0.3368
  462TMC3     C 6933   0.014   0.805   0.728 -0.2535  0.6283  0.2759
  462TMC3     O 6934   4.671   0.814   0.819  0.0588 -0.2154 -0.4807
  462TMC3     H 6935   0.261   0.735   0.683 -1.0448  0.5229 -0.9407
  462TMC3    H1 6936   4.598   0.594   0.724  0.7926  1.0917  1.2556
  462TMC3    H2 6937   0.174   0.317   0.638  0.1359 -0.3170 -0.1959
  462TMC3    C7 6938   4.654   0.339   0.650 -0.2305 -0.4756  0.1228
  462TMC3    C8 6939   0.358   0.513   0.600 -0.0830 -0.3657 -0.6897
  462TMC3    O1 6940   4.690   0.222   0.650 -0.1681 -0.1402  0.2674
  462TMC3    O2 6941   0.415   0.617   0.558  0.4294 -0.1604 -0.0790
  463MPD2     C 6942   1.949   3.197   1.373  0.1746 -0.1394 -0.4857
  463MPD2    C1 6943   1.858   3.302   1.362 -0.0866 -0.0136  0.2299
  463MPD2    C2 6944   1.894   3.430   1.381 -0.1090 -0.8136 -0.5224
  463MPD2    C3 6945   2.028   3.461   1.412  0.1399  0.3187 -0.1446
  463MPD2    C4 6946   2.114   3.358   1.449  0.6279 -0.0814 -0.7032
  463MPD2    C5 6947   2.067   3.229   1.425 -0.2190 -0.0391  0.4223
  463MPD2     H 6948   1.827   3.511   1.353  0.6742 -0.4409 -1.3454
  463MPD2    H1 6949   2.216   3.371   1.484 -0.6970  0.0868  3.0849
  463MPD2    H2 6950   1.930   3.090   1.370  2.1699 -0.4927 -0.4930
  463MPD2    H3 6951   2.127   3.141   1.446 -0.0526 -0.5798 -2.3015
  463MPD2     N 6952   2.081   3.592   1.418  1.1538  0.2865 -0.4122
  463MPD2    H5 6953   2.179   3.603   1.442  1.0988 -0.4466  0.1577
  463MPD2    N1 6954   1.719   3.268   1.341 -0.1610 -0.4073 -0.3392
  463MPD2    H7 6955   1.659   3.350   1.337  0.1262 -0.2570 -1.3993
  464TMC3    C1 6956   1.521   3.134   1.356  0.1708 -0.0122  1.1053
  464TMC3    C2 6957   1.454   3.240   1.404 -0.1773 -0.4764 -0.5548
  464TMC3    C3 6958   1.321   3.223   1.426  0.4652  0.6134 -0.3552
  464TMC3    C4 6959   1.457   3.017   1.330 -0.3167  0.8698  0.3428
  464TMC3    C5 6960   1.323   3.009   1.361  0.0299 -0.0402  0.0962
  464TMC3    C6 6961   1.250   3.113   1.393 -0.2138  0.0623  0.0424
  464TMC3     C 6962   1.662   3.144   1.321  0.3106 -0.0984 -0.4424
  464TMC3     O 6963   1.714   3.042   1.286  0.0304 -0.3385  0.2059
  464TMC3     H 6964   1.498   3.339   1.413 -0.7825 -0.2551 -0.0960
  464TMC3    H1 6965   1.509   2.933   1.286  0.7604  2.0077 -0.5647
  464TMC3    H2 6966   1.145   3.099   1.416 -0.9000  2.5889 -1.6238
  464TMC3    C7 6967   1.271   2.879   1.336 -0.6040  0.1441  0.1453
  464TMC3    C8 6968   1.242   3.340   1.458 -0.1451  0.0225 -0.6993
  464TMC3    O1 6969   1.353   2.789   1.330 -0.1375 -0.2306 -0.3661
  464TMC3    O2 6970   1.143   3.359   1.390  0.2006  1.1159 -0.1317
  465MPD2     C 6971   2.196   2.471  16.994 -0.2041 -0.6566  0.1868
  465MPD2    C1 6972   2.057   2.479  16.978  0.3345 -0.0829  0.2301
  465MPD2    C2 6973   2.007   2.472  16.854 -0.0625  0.5147 -1.3161
  465MPD2    C3 6974   2.084   2.450  16.741 -0.2078  0.4998  0.5135
  465MPD2    C4 6975   2.219   2.442  16.765 -0.5002 -0.3955 -0.1812
  465MPD2    C5 6976   2.277   2.449  16.890 -0.1852  0.3377 -0.2518
  465MPD2     H 6977   1.900   2.474  16.840 -0.3735  1.1412  1.1810
  465MPD2    H1 6978   2.292   2.429  16.686  0.8460 -4.1776  1.6913
  465MPD2    H2 6979   2.250   2.473  17.088 -0.1394 -0.4151  0.1444
  465MPD2    H3 6980   2.384   2.432  16.890 -0.5559 -2.1372 -2.9240
  465MPD2     N 6981   2.027   2.441  16.618 -0.0869 -0.0249 -0.2008
  465MPD2    H5 6982   1.927   2.421  16.619  0.0518 -0.8118 -2.2948
  465MPD2    N1 6983   1.960   2.496  17.080  0.1787  0.5993  0.1916
  465MPD2    H7 6984   1.864   2.505  17.049  0.3902 -0.2234 -0.7069
  466TMC3    C1 6985   1.787   2.392  16.314  1.1512 -0.1194  0.4882
  466TMC3    C2 6986   1.793   2.474  16.216  0.6850 -0.3426  0.2625
  466TMC3    C3 6987   1.907   2.538  16.188 -0.3581  0.5529  0.7209
  466TMC3    C4 6988   1.888   2.370  16.407  0.0156  0.1873  0.2920
  466TMC3    C5 6989   2.000   2.444  16.390 -0.0319  0.0085 -0.0958
  466TMC3    C6 6990   2.008   2.532  16.285 -0.0214 -0.5247 -0.2883
  466TMC3     C 6991   1.658   2.354  16.355 -0.6736  0.1341  0.3865
  466TMC3     O 6992   1.572   2.440  16.363 -0.6709  0.4217  0.0556
  466TMC3     H 6993   1.698   2.509  16.176 -0.0091 -1.2715  1.1295
  466TMC3    H1 6994   1.879   2.295  16.484 -1.4412 -0.0491 -0.1114
  466TMC3    H2 6995   2.101   2.588  16.276  0.4229 -1.2625 -0.2636
  466TMC3    C7 6996   2.089   2.463  16.500  0.7816  0.0906  0.0137
  466TMC3    C8 6997   1.885   2.669  16.139 -0.0871  0.4045  0.4175
  466TMC3    O1 6998   2.196   2.526  16.489 -0.0289 -0.2930 -0.9328
  466TMC3    O2 6999   1.889   2.685  16.017  0.5288 -0.3380 -0.5828
  467TMC3    C1 7000   3.073   0.923  13.752 -0.5249 -0.6886 -0.5083
  467TMC3    C2 7001   3.024   1.038  13.699  0.3521 -0.0798 -0.3278
  467TMC3    C3 7002   2.902   1.046  13.643  0.8584  0.8682  0.0656
  467TMC3    C4 7003   2.993   0.810  13.756 -0.2493  0.6773 -0.5067
  467TMC3    C5 7004   2.864   0.816  13.695 -0.1469 -0.1764  0.0969
  467TMC3    C6 7005   2.819   0.936  13.637  0.2677 -0.0411  0.1420
  467TMC3     C 7006   3.214   0.930  13.803  0.0827  0.3125  0.4932
  467TMC3     O 7007   3.246   1.034  13.863 -0.3042 -0.1809  0.1266
  467TMC3     H 7008   3.092   1.123  13.701 -0.7680  0.8148 -0.2827
  467TMC3    H1 7009   3.031   0.718  13.800 -0.3866  1.5758  1.4684
  467TMC3    H2 7010   2.728   0.935  13.577 -0.5134 -1.7877  1.3490
  467TMC3    C7 7011   2.759   0.713  13.720 -0.1952  0.4893 -0.3228
  467TMC3    C8 7012   2.865   1.160  13.569 -0.3943  0.4410  0.3788
  467TMC3    O1 7013   2.798   0.597  13.729  0.1675 -0.1863 -0.1187
  467TMC3    O2 7014   2.804   1.247  13.630 -0.3221 -0.0331 -0.4074
  468MPD2     C 7015   1.532   4.620  10.785  0.1865 -0.1115  0.2289
  468MPD2    C1 7016   1.661   4.569  10.787 -0.0134  0.1885  0.0481
  468MPD2    C2 7017   1.681   4.432  10.765 -0.8801 -0.3387 -0.2148
  468MPD2    C3 7018   1.573   4.345  10.747 -0.2858 -1.0160  0.4316
  468MPD2    C4 7019   1.449   4.391  10.756  0.8994 -0.3505  0.0442
  468MPD2    C5 7020   1.430   4.528  10.771  0.4851  0.5115 -0.0351
  468MPD2     H 7021   1.784   4.398  10.769 -0.9204 -0.3282  0.9125
  468MPD2    H1 7022   1.366   4.322  10.746  0.5934 -0.0634  0.5713
  468MPD2    H2 7023   1.513   4.726  10.799 -0.0198 -0.3188  1.5616
  468MPD2    H3 7024   1.331   4.572  10.777 -0.0719 -0.8250  0.3595
  468MPD2     N 7025   1.586   4.202  10.730  0.3024  0.0355 -0.3125
  468MPD2    H5 7026   1.506   4.143  10.751  0.2870  0.2637  0.2541
  468MPD2    N1 7027   1.774   4.649  10.811  0.2138 -0.2711 -0.2150
  468MPD2    H7 7028   1.864   4.605  10.795 -0.5096 -1.2277 -1.6565
  469TMC3    C1 7029   1.891   0.115  10.834 -0.9131  0.3138 -0.2159
  469TMC3    C2 7030   1.979   0.082  10.732 -0.2577 -0.1388 -0.8960
  469TMC3    C3 7031   2.082   0.166  10.704  0.1684  0.2131 -0.1285
  469TMC3    C4 7032   1.919   0.215  10.925 -0.0560  0.4137  0.0959
  469TMC3    C5 7033   2.029   0.288  10.899  0.2084  0.2290  0.4174
  469TMC3    C6 7034   2.098   0.278  10.779  0.5944 -0.1450 -0.5440
  469TMC3     C 7035   1.770   0.043  10.858 -0.3746  0.5548  0.4939
  469TMC3     O 7036   1.682   0.109  10.916  0.1704  0.0662  0.4545
  469TMC3     H 7037   1.980   4.722  10.682 -4.3301  0.1909 -1.5722
  469TMC3    H1 7038   1.866   0.219  11.019 -1.9622  0.3963 -0.9755
  469TMC3    H2 7039   2.193   0.330  10.769  0.7679 -0.0380  1.6028
  469TMC3    C7 7040   2.114   0.316  11.009 -0.1232 -0.5575 -0.2849
  469TMC3    C8 7041   2.206   0.102  10.680  0.3296  0.4557  0.0372
  469TMC3    O1 7042   2.211   0.382  10.987  0.0592 -0.2280 -0.0197
  469TMC3    O2 7043   2.278   0.149  10.591 -0.8003  0.0668 -0.0063
  470TMC3    C1 7044   3.971   4.617   0.985  0.4357  0.5690  0.6291
  470TMC3    C2 7045   4.078   4.696   1.009  0.1207 -0.3997 -0.2479
  470TMC3    C3 7046   4.068   0.051   1.109 -0.7940  0.4189 -0.3059
  470TMC3    C4 7047   3.851   4.629   1.053 -0.2489 -0.3004 -1.0418
  470TMC3    C5 7048   3.845   4.736   1.142  0.3268 -0.1954  0.0835
  470TMC3    C6 7049   3.952   0.078   1.177 -0.2820 -0.5755  0.0768
  470TMC3     C 7050   3.981   4.530   0.870  0.7505 -0.2036  0.1930
  470TMC3     O 7051   4.057   4.568   0.785 -0.2739  0.8895 -0.1271
  470TMC3     H 7052   4.167   4.684   0.948  0.3539 -0.9254  0.1954
  470TMC3    H1 7053   3.764   4.576   1.015 -0.7666 -0.3463  0.1992
  470TMC3    H2 7054   3.939   0.155   1.253  0.3003  0.2234 -0.6449
  470TMC3    C7 7055   3.710   0.054   1.154 -0.2074  0.5096  0.9480
  470TMC3    C8 7056   4.164   0.156   1.127 -0.8400 -0.4977  0.0708
  470TMC3    O1 7057   3.615   4.717   1.125  0.1375 -0.3529  0.3532
  470TMC3    O2 7058   4.123   0.261   1.177  0.1715 -0.0821 -0.6655
  471MPD2     C 7059   0.247   1.320  16.879 -0.4561  0.9270 -0.2345
  471MPD2    C1 7060   0.279   1.188  16.847  0.3287 -0.8339 -0.2272
  471MPD2    C2 7061   0.369   1.120  16.928  0.0882  0.0027 -0.3496
  471MPD2    C3 7062   0.415   1.176  17.044  0.9241  0.5359 -0.3545
  471MPD2    C4 7063   0.378   1.309  17.066 -0.8400 -0.7857 -1.3225
  471MPD2    C5 7064   0.290   1.374  16.993 -0.4888 -0.1231 -0.3560
  471MPD2     H 7065   0.386   1.014  16.910  0.7988  0.3287 -1.6005
  471MPD2    H1 7066   0.413   1.362  17.153 -3.0853 -0.5124 -0.5788
  471MPD2    H2 7067   0.180   1.377  16.816 -1.1094 -2.3668 -2.5370
  471MPD2    H3 7068   0.268   1.479  17.004 -0.6577 -0.2525  0.5632
  471MPD2     N 7069   0.489   1.109  17.141  0.0198 -0.0568  0.3238
  471MPD2    H5 7070   0.524   1.149  17.228 -0.5458 -0.8637  0.9208
  471MPD2    N1 7071   0.226   1.120  16.732 -0.4795  0.1258  0.2524
  471MPD2    H7 7072   0.248   1.026  16.702  2.7920  1.2520 -0.8133
  472TMC3    C1 7073   0.090   1.075  16.552  0.6594 -0.8464  0.4804
  472TMC3    C2 7074   0.007   1.122  16.457 -0.1510 -0.0572  0.2331
  472TMC3    C3 7075   4.680   1.032  16.371 -0.3945 -1.1921  0.3510
  472TMC3    C4 7076   0.100   0.943  16.590  0.3953  0.3023 -0.5260
  472TMC3    C5 7077   0.029   0.856  16.512 -0.3355  0.5233  0.5640
  472TMC3    C6 7078   4.687   0.901  16.405 -0.1441 -0.5611  0.5047
  472TMC3     C 7079   0.133   1.171  16.645 -0.3458  0.0319 -0.2890
  472TMC3     O 7080   0.080   1.282  16.634 -0.2118  0.1960 -0.4274
  472TMC3     H 7081   4.722   1.226  16.436  0.6761 -0.0335 -0.4848
  472TMC3    H1 7082   0.164   0.898  16.665  0.2608  0.2505 -0.4419
  472TMC3    H2 7083   4.632   0.833  16.340 -1.5199 -0.9709  2.1111
  472TMC3    C7 7084   4.714   0.751  16.583  0.5813  0.0780  0.0824
  472TMC3    C8 7085   4.545   1.066  16.340  0.3165  0.2040  0.3284
  472TMC3    O1 7086   4.718   0.744  16.703 -0.0621 -0.0345 -0.3257
  472TMC3    O2 7087   4.479   1.063  16.441  0.0948 -0.0224  0.0417
  473MPD2     C 7088   4.121   3.245  13.736  0.1229  0.4684 -0.0704
  473MPD2    C1 7089   4.164   3.325  13.632 -0.5916  0.7844  0.6359
  473MPD2    C2 7090   4.225   3.450  13.658 -0.2967 -0.5899  0.5480
  473MPD2    C3 7091   4.220   3.494  13.789  0.1038 -0.2877  0.3257
  473MPD2    C4 7092   4.177   3.415  13.890  1.0642 -1.2444 -0.2770
  473MPD2    C5 7093   4.123   3.293  13.869  0.0733  0.1284  0.0990
  473MPD2     H 7094   4.262   3.508  13.575 -0.5642  1.1927  1.6872
  473MPD2    H1 7095   4.180   3.445  13.994  0.0748 -1.9838 -0.0324
  473MPD2    H2 7096   4.090   3.142  13.721 -0.5798  0.8257 -0.9948
  473MPD2    H3 7097   4.084   3.232  13.949  0.9745 -0.2817  0.2294
  473MPD2     N 7098   4.264   3.616  13.838 -0.4808  0.0376 -0.4439
  473MPD2    H5 7099   4.269   3.622  13.939 -2.3514  2.3714 -0.4872
  473MPD2    N1 7100   4.150   3.282  13.496 -0.0289 -0.0583 -0.1811
  473MPD2    H7 7101   4.150   3.358  13.430 -0.4345  0.5743  0.5413
  474TMC3    C1 7102   4.380   3.823  13.840 -0.0254  0.7842 -0.2461
  474TMC3    C2 7103   4.450   3.912  13.760  0.4474 -0.1857  0.0031
  474TMC3    C3 7104   4.551   3.990  13.819  0.3855 -0.3763 -0.1462
  474TMC3    C4 7105   4.408   3.814  13.977 -0.3513  0.2197  0.3357
  474TMC3    C5 7106   4.512   3.893  14.024  0.4253  0.2617  0.0378
  474TMC3    C6 7107   4.572   3.987  13.953  0.1099  0.3025  0.6202
  474TMC3     C 7108   4.315   3.721  13.761  0.2775 -0.2409  0.0299
  474TMC3     O 7109   4.308   3.736  13.640  0.1552  0.2281 -0.3386
  474TMC3     H 7110   4.437   3.924  13.653 -0.4811  2.5593  0.4179
  474TMC3    H1 7111   4.362   3.741  14.043  0.7971  0.1300  1.0472
  474TMC3    H2 7112   4.659   4.034  13.997 -0.5420  0.0298  2.2062
  474TMC3    C7 7113   4.584   3.819  14.126 -0.4218 -0.0953 -0.1337
  474TMC3    C8 7114   4.620   4.077  13.730 -0.4391  0.7469  0.3485
  474TMC3    O1 7115   4.616   3.706  14.096  0.2545  0.6386 -0.2303
  474TMC3    O2 7116   4.617   4.049  13.611 -0.0653  0.4398 -0.0671
  475MPD2     C 7117   2.828   2.017  11.124 -1.1770  0.0209 -0.9000
  475MPD2    C1 7118   2.783   2.110  11.216  0.3557 -0.5014 -0.3237
  475MPD2    C2 7119   2.703   2.213  11.188  0.2018 -0.0798  0.2003
  475MPD2    C3 7120   2.665   2.225  11.060 -0.1103  0.5138  0.7927
  475MPD2    C4 7121   2.716   2.138  10.966 -0.1850 -0.3126  0.0519
  475MPD2    C5 7122   2.787   2.031  10.999 -0.2088 -0.1706 -0.4470
  475MPD2     H 7123   2.669   2.280  11.266  0.7549  0.3488  0.0747
  475MPD2    H1 7124   2.684   2.149  10.863 -1.9581  1.3480  0.7972
  475MPD2    H2 7125   2.892   1.934  11.151 -2.9865 -1.0247  0.1531
  475MPD2    H3 7126   2.805   1.960  10.919 -1.9187 -0.9490 -0.1443
  475MPD2     N 7127   2.585   2.337  11.026  0.6180 -0.3118 -0.3004
  475MPD2    H5 7128   2.555   2.400  11.099 -1.6481 -2.0479  0.2523
  475MPD2    N1 7129   2.855   2.103  11.338  0.7245  0.6378  0.7117
  475MPD2    H7 7130   2.944   2.055  11.327  0.2497  0.1070 -0.9644
  476TMC3    C1 7131   2.961   2.222  11.504 -0.3350  0.1102 -0.2139
  476TMC3    C2 7132   3.068   2.212  11.419 -0.8435 -0.1783  0.1573
  476TMC3    C3 7133   3.143   2.329  11.390 -0.4904 -0.0365 -0.1691
  476TMC3    C4 7134   2.944   2.339  11.574 -0.1010 -0.0975 -0.0116
  476TMC3    C5 7135   3.038   2.437  11.559  0.1821 -0.6702  0.3636
  476TMC3    C6 7136   3.139   2.443  11.466 -0.0566  0.4551  0.5442
  476TMC3     C 7137   2.837   2.185  11.443  0.5971  0.5232  0.3158
  476TMC3     O 7138   2.743   2.260  11.477  0.0080  0.4721 -0.6279
  476TMC3     H 7139   3.087   2.118  11.369  0.8596 -0.0841  0.6154
  476TMC3    H1 7140   2.872   2.339  11.655  0.0369  0.0564  0.1105
  476TMC3    H2 7141   3.201   2.526  11.437  0.6530 -0.0497  0.6106
  476TMC3    C7 7142   3.024   2.554  11.638  0.0119 -0.3552 -0.5323
  476TMC3    C8 7143   3.209   2.344  11.270 -0.2732 -0.0776 -0.4036
  476TMC3    O1 7144   2.947   2.538  11.735  0.2615  0.2566 -0.0091
  476TMC3    O2 7145   3.327   2.356  11.286 -0.7546  0.1901 -0.3217
  477MPD2     C 7146   0.512   3.888  11.935 -0.7079 -0.1822  0.1258
  477MPD2    C1 7147   0.472   3.785  11.847  0.2721  0.1271  0.7009
  477MPD2    C2 7148   0.479   3.653  11.884 -0.3485  0.4671 -0.3996
  477MPD2    C3 7149   0.533   3.621  12.008 -0.0277 -0.7035 -0.5517
  477MPD2    C4 7150   0.582   3.720  12.089  0.0782  0.0014 -0.0333
  477MPD2    C5 7151   0.575   3.854  12.050  0.0223  0.1887  0.5594
  477MPD2     H 7152   0.442   3.573  11.820  2.1518 -1.4462  0.5828
  477MPD2    H1 7153   0.628   3.698  12.185 -0.7238 -1.7018 -0.0330
  477MPD2    H2 7154   0.511   3.991  11.899  2.3350  0.2069  1.2350
  477MPD2    H3 7155   0.604   3.933  12.119  1.4633 -0.2747  0.4885
  477MPD2     N 7156   0.534   3.486  12.047  0.6316  1.0825 -0.5432
  477MPD2    H5 7157   0.496   3.428  11.973 -1.9001 -0.6925  2.1691
  477MPD2    N1 7158   0.405   3.823  11.724  0.1454  0.3316 -0.4398
  477MPD2    H7 7159   0.377   3.920  11.718 -1.7910 -0.4417 -3.8808
  478TMC3    C1 7160   0.300   3.818  11.526 -0.1256 -0.6984  0.9250
  478TMC3    C2 7161   0.181   3.862  11.581 -0.3125 -0.4126  0.5518
  478TMC3    C3 7162   0.081   3.885  11.492 -0.1840  0.1518  0.1447
  478TMC3    C4 7163   0.308   3.802  11.387  0.2454  0.3569 -0.3175
  478TMC3    C5 7164   0.208   3.839  11.309 -0.6191  0.2186  0.3678
  478TMC3    C6 7165   0.090   3.875  11.359  0.4129 -0.0561  0.4895
  478TMC3     C 7166   0.387   3.738  11.614  0.0843 -0.6341 -0.4037
  478TMC3     O 7167   0.447   3.637  11.574 -0.1010 -0.1960  0.3727
  478TMC3     H 7168   0.166   3.834  11.684  2.3614 -1.7043  0.6083
  478TMC3    H1 7169   0.382   3.732  11.350 -0.8898 -0.3095 -1.2828
  478TMC3    H2 7170   4.734   3.871  11.303  0.9178 -0.7139 -0.3074
  478TMC3    C7 7171   0.198   3.788  11.177 -0.3494 -0.4018  0.2677
  478TMC3    C8 7172   4.695   3.937  11.558 -0.6563 -0.0708 -0.1747
  478TMC3    O1 7173   0.257   3.682  11.161 -0.0551  0.4929 -0.0299
  478TMC3    O2 7174   4.696   3.944  11.679  0.3508 -0.1316 -0.5364
  479MPD2     C 7175   4.349   1.080  15.054  0.4102 -0.2808  0.1490
  479MPD2    C1 7176   4.342   0.954  15.119 -0.1320  0.6579  0.1755
  479MPD2    C2 7177   4.395   0.944  15.249  0.4417  0.5471 -0.8047
  479MPD2    C3 7178   4.451   1.048  15.314 -0.1215 -0.5431 -0.5682
  479MPD2    C4 7179   4.474   1.169  15.243  0.7001 -0.6236  0.9237
  479MPD2    C5 7180   4.428   1.181  15.116 -0.0965 -0.0150  0.3391
  479MPD2     H 7181   4.401   0.850  15.303 -0.4908  0.2471 -1.2348
  479MPD2    H1 7182   4.521   1.258  15.283 -0.0208 -0.7938  2.1485
  479MPD2    H2 7183   4.307   1.094  14.955  1.0921  0.6777 -0.0047
  479MPD2    H3 7184   4.435   1.275  15.064  0.2725 -1.2892 -1.9117
  479MPD2     N 7185   4.489   1.060  15.451  0.3042 -0.1013  0.2882
  479MPD2    H5 7186   4.523   1.154  15.469 -2.7887  0.8066  1.3623
  479MPD2    N1 7187   4.267   0.854  15.056  0.3030  0.4669 -0.0614
  479MPD2    H7 7188   4.234   0.883  14.964  0.0346 -3.0135 -1.0911
  480TMC3    C1 7189   4.309   0.674  15.671  0.3113 -0.7274 -0.3871
  480TMC3    C2 7190   4.178   0.684  15.630 -0.1801  0.4536  0.2955
  480TMC3    C3 7191   4.160   0.790  15.541  0.1369 -0.1768  0.9603
  480TMC3    C4 7192   4.409   0.755  15.620 -0.1226  0.0432 -0.2219
  480TMC3    C5 7193   4.386   0.858  15.537  0.0330  0.1434 -0.2079
  480TMC3    C6 7194   4.255   0.887  15.510 -0.3742  0.1042 -0.0046
  480TMC3     C 7195   4.351   0.600  15.794  0.1527  0.9226 -0.0902
  480TMC3     O 7196   4.464   0.618  15.829  0.4068  0.6900  0.3743
  480TMC3     H 7197   4.096   0.624  15.668 -1.4202  1.9020 -0.1036
  480TMC3    H1 7198   4.511   0.724  15.635 -1.1827 -3.5066 -0.4812
  480TMC3    H2 7199   4.230   0.979  15.459 -0.9387  0.7222  1.3780
  480TMC3    C7 7200   4.480   0.963  15.552  0.1234  0.2685  0.0516
  480TMC3    C8 7201   4.036   0.789  15.463 -0.0952 -0.0290  0.0159
  480TMC3    O1 7202   4.538   0.965  15.660  0.6676  0.4188  0.6791
  480TMC3    O2 7203   3.953   0.703  15.481 -0.7599  0.6856  0.4070
  481MPD2     C 7204   1.098   0.408  14.770  0.0795  0.8431  0.4747
  481MPD2    C1 7205   0.982   0.333  14.749  0.1880  0.1644  0.1569
  481MPD2    C2 7206   0.899   0.311  14.857  0.3252  0.4298 -0.5197
  481MPD2    C3 7207   0.944   0.345  14.985  0.1407  0.2168 -0.0061
  481MPD2    C4 7208   1.060   0.424  14.998  0.9757  0.6826 -0.1625
  481MPD2    C5 7209   1.136   0.457  14.890 -0.6768  0.8876 -0.3079
  481MPD2     H 7210   0.809   0.254  14.839  0.4952  0.2353 -0.7572
  481MPD2    H1 7211   1.099   0.457  15.094  1.4324  0.8389 -0.4019
  481MPD2    H2 7212   1.168   0.428  14.689  0.8363  0.6226  1.0782
  481MPD2    H3 7213   1.223   0.520  14.903 -0.2265  0.4362 -1.0832
  481MPD2     N 7214   0.860   0.327  15.098  0.8373 -0.2034 -0.0936
  481MPD2    H5 7215   0.902   0.359  15.185  1.2716  0.4999 -0.5645
  481MPD2    N1 7216   0.946   0.302  14.612  0.1136  0.4306  0.3022
  481MPD2    H7 7217   1.012   0.331  14.541 -1.3982 -0.3953 -1.4331
  482TMC3    C1 7218   0.829   0.267  14.414 -0.2549  0.1351 -0.4318
  482TMC3    C2 7219   0.709   0.248  14.357  0.0727 -0.5542 -0.4120
  482TMC3    C3 7220   0.681   0.311  14.241 -0.6644  0.4087 -0.0967
  482TMC3    C4 7221   0.937   0.330  14.353 -0.2764  0.6449  1.1489
  482TMC3    C5 7222   0.906   0.382  14.230 -0.1493  0.4540 -0.6451
  482TMC3    C6 7223   0.776   0.396  14.180  0.2060  0.1087 -0.8809
  482TMC3     C 7224   0.829   0.253  14.566  0.3372 -0.2130 -0.2121
  482TMC3     O 7225   0.725   0.227  14.625 -0.0710 -0.4729  0.4735
  482TMC3     H 7226   0.642   0.178  14.405 -0.1463  1.7791  2.7068
  482TMC3    H1 7227   1.038   0.318  14.389  0.0658  1.5501  0.4799
  482TMC3    H2 7228   0.752   0.445  14.086  0.6198  1.3957 -0.3029
  482TMC3    C7 7229   1.017   0.403  14.140 -0.5890  0.3939 -0.5249
  482TMC3    C8 7230   0.580   0.251  14.160 -0.5977  0.6290  0.0032
  482TMC3    O1 7231   1.119   0.349  14.177  0.6897 -0.6121  0.0014
  482TMC3    O2 7232   0.556   0.131  14.181 -0.0917  0.8961  0.1124
  483TMC3    C1 7233   3.857   3.668   1.233 -0.0830  0.3979 -1.0013
  483TMC3    C2 7234   3.925   3.783   1.264 -0.1487  0.8703 -0.0994
  483TMC3    C3 7235   4.055   3.782   1.301  0.5960  0.3283 -0.2084
  483TMC3    C4 7236   3.925   3.551   1.249 -0.0141  0.4848  0.2909
  483TMC3    C5 7237   4.052   3.553   1.288  0.4563 -0.2979  0.6153
  483TMC3    C6 7238   4.119   3.670   1.320  0.2817  0.3172 -0.1962
  483TMC3     C 7239   3.764   3.682   1.131  0.0501  0.4707  0.3529
  483TMC3     O 7240   3.734   3.794   1.091 -0.1879  1.0709  0.0260
  483TMC3     H 7241   3.882   3.881   1.247 -0.9118  0.5366 -0.1398
  483TMC3    H1 7242   3.875   3.462   1.212  0.5297 -0.4542  1.8262
  483TMC3    H2 7243   4.224   3.675   1.346  0.1539  1.0165  0.1595
  483TMC3    C7 7244   4.128   3.435   1.274 -0.5867 -0.3768 -0.0910
  483TMC3    C8 7245   4.126   3.887   1.232 -0.2083 -0.5508  0.1334
  483TMC3    O1 7246   4.247   3.436   1.264 -0.4578 -0.4914  0.4732
  483TMC3    O2 7247   4.223   3.852   1.169 -0.2634  0.0387 -0.3327
  484MPD2     C 7248   0.683   2.351  12.419  1.3327  0.0395  0.1703
  484MPD2    C1 7249   0.778   2.313  12.512 -0.1685  0.1920 -1.2903
  484MPD2    C2 7250   0.886   2.400  12.541  0.0516 -0.0858 -0.0604
  484MPD2    C3 7251   0.890   2.529  12.480  0.2556  0.6650  0.4037
  484MPD2    C4 7252   0.786   2.563  12.396 -0.3456 -0.3385  0.2237
  484MPD2    C5 7253   0.682   2.478  12.371  0.0236  0.3850 -0.1864
  484MPD2     H 7254   0.967   2.378  12.609 -2.1865 -0.0478  2.6105
  484MPD2    H1 7255   0.790   2.653  12.336  0.4019 -1.7187 -1.7774
  484MPD2    H2 7256   0.605   2.287  12.380  1.0716 -0.2614  1.1904
  484MPD2    H3 7257   0.612   2.508  12.294 -0.1111  1.2083  0.2532
  484MPD2     N 7258   1.002   2.615  12.492  0.0008 -0.2882  0.1328
  484MPD2    H5 7259   1.006   2.683  12.416 -0.0664 -1.4170 -0.8762
  484MPD2    N1 7260   0.767   2.181  12.560  0.5584  0.9358  0.4148
  484MPD2    H7 7261   0.694   2.128  12.514 -0.1063  1.5724  0.7466
  485TMC3    C1 7262   1.205   2.694  12.563  0.8559  0.5714  0.5921
  485TMC3    C2 7263   1.308   2.701  12.654 -0.4696 -0.1045 -0.4765
  485TMC3    C3 7264   1.425   2.767  12.631  0.2878 -0.5492  0.0130
  485TMC3    C4 7265   1.227   2.739  12.432 -0.2306 -0.7810 -0.3553
  485TMC3    C5 7266   1.344   2.806  12.410 -0.4167  0.6852  0.4751
  485TMC3    C6 7267   1.441   2.828  12.511 -0.1076 -0.4756  0.5671
  485TMC3     C 7268   1.102   2.594  12.586 -0.3088 -0.5968 -0.8866
  485TMC3     O 7269   1.106   2.525  12.685  0.1557 -0.5395 -0.3913
  485TMC3     H 7270   1.293   2.659  12.752  2.1084 -2.9618 -1.3393
  485TMC3    H1 7271   1.163   2.706  12.351 -1.4046  1.2665 -0.2448
  485TMC3    H2 7272   1.534   2.881  12.493  0.4840 -0.7839  2.7416
  485TMC3    C7 7273   1.403   2.779  12.283  0.0439  0.3753  0.0109
  485TMC3    C8 7274   1.546   2.683  12.648 -0.0563 -0.4916  0.3176
  485TMC3    O1 7275   1.332   2.767  12.182  0.1997 -0.1558  0.5462
  485TMC3    O2 7276   1.627   2.686  12.557 -0.1754  0.1935  0.3716
  486MPD2     C 7277   3.833   1.148  12.882  0.3933 -0.0707  0.1682
  486MPD2    C1 7278   3.767   1.068  12.792  0.0030  0.4759 -0.6815
  486MPD2    C2 7279   3.685   1.128  12.699  0.0341 -0.2344  0.1498
  486MPD2    C3 7280   3.629   1.251  12.729  0.3025  0.0615  0.4343
  486MPD2    C4 7281   3.683   1.326  12.837 -0.6528 -0.0863 -0.6402
  486MPD2    C5 7282   3.799   1.277  12.900 -1.4859  0.0067  0.1056
  486MPD2     H 7283   3.654   1.075  12.609  1.2717 -0.5720 -0.0747
  486MPD2    H1 7284   3.651   1.426  12.866 -0.6370 -0.3431  0.2454
  486MPD2    H2 7285   3.913   1.103  12.939  0.7225  0.4472  0.1080
  486MPD2    H3 7286   3.841   1.343  12.974 -0.3976  0.3099 -0.7923
  486MPD2     N 7287   3.523   1.301  12.643  0.1509  0.1480 -0.1847
  486MPD2    H5 7288   3.500   1.241  12.564  1.8326 -0.7018 -0.0346
  486MPD2    N1 7289   3.804   0.930  12.798  0.0568 -0.7305 -0.0715
  486MPD2    H7 7290   3.873   0.904  12.868  1.5071  2.8341 -0.1935
  487TMC3    C1 7291   3.796   0.706  12.747  0.1976 -0.1944 -0.2881
  487TMC3    C2 7292   3.786   0.605  12.651  1.2089 -0.1545  0.4388
  487TMC3    C3 7293   3.853   0.486  12.667 -0.0326  0.8826 -0.0469
  487TMC3    C4 7294   3.869   0.683  12.860  0.0012 -0.2095 -0.2168
  487TMC3    C5 7295   3.935   0.562  12.872  0.8208  0.4509  0.6823
  487TMC3    C6 7296   3.942   0.478  12.765 -0.0642 -0.6903 -0.2240
  487TMC3     C 7297   3.746   0.834  12.719  0.6277  0.5802  0.2781
  487TMC3     O 7298   3.663   0.847  12.629  0.2144 -0.0230 -0.2685
  487TMC3     H 7299   3.731   0.615  12.558 -1.2054  0.5164  1.9313
  487TMC3    H1 7300   3.880   0.755  12.941 -0.9124 -1.0032  0.6096
  487TMC3    H2 7301   3.978   0.380  12.794  0.5603 -0.1833  0.7002
  487TMC3    C7 7302   3.919   0.505  13.006 -0.2366  0.4255 -0.4418
  487TMC3    C8 7303   3.774   0.360  12.667  1.2751  0.0069  0.2581
  487TMC3    O1 7304   3.922   0.581  13.100 -0.1188 -0.2442  0.1644
  487TMC3    O2 7305   3.812   0.263  12.602 -0.1707 -0.6798  0.1493
  488MPD2     C 7306   3.943   2.175  16.630  0.0822 -0.4748  0.1561
  488MPD2    C1 7307   3.961   2.280  16.718 -0.4118  0.2045  0.5428
  488MPD2    C2 7308   3.894   2.281  16.835 -0.5725 -0.0816 -0.1915
  488MPD2    C3 7309   3.812   2.174  16.876 -0.3200  0.1986 -0.5384
  488MPD2    C4 7310   3.798   2.069  16.785 -0.5486  0.5048  0.3343
  488MPD2    C5 7311   3.869   2.068  16.665  0.2988  0.3819  0.2632
  488MPD2     H 7312   3.892   2.364  16.905 -2.4921 -1.3687  1.2828
  488MPD2    H1 7313   3.744   1.977  16.807 -2.0767  1.7979  1.9451
  488MPD2    H2 7314   3.990   2.168  16.533 -1.9318  1.9589 -0.9967
  488MPD2    H3 7315   3.862   1.981  16.600 -1.5988  0.5855  0.1836
  488MPD2     N 7316   3.746   2.166  17.001 -0.5504 -0.0933  0.4352
  488MPD2    H5 7317   3.764   2.247  17.059 -2.0065  0.3900  0.2273
  488MPD2    N1 7318   4.048   2.389  16.694  0.2772 -0.1254 -0.6030
  488MPD2    H7 7319   4.056   2.450  16.775 -2.7780  0.8806 -1.0341
  489TMC3    C1 7320   3.603   2.134  17.169  0.9530 -0.2637 -0.4388
  489TMC3    C2 7321   3.705   2.178  17.255  0.3696 -0.0277 -0.1438
  489TMC3    C3 7322   3.678   2.283  17.344  0.0542 -0.3796  0.1395
  489TMC3    C4 7323   3.482   2.201  17.153  0.1674  0.1626 -0.6421
  489TMC3    C5 7324   3.469   2.312  17.233  0.2913 -0.6656  0.0155
  489TMC3    C6 7325   3.557   2.350  17.326  0.3433 -0.3625 -0.0052
  489TMC3     C 7326   3.642   2.081  17.043  0.2134  0.2106 -0.3452
  489TMC3     O 7327   3.572   2.004  16.986  0.1064 -0.2686  0.4989
  489TMC3     H 7328   3.794   2.119  17.268  2.0395  2.2166 -1.4823
  489TMC3    H1 7329   3.402   2.171  17.086 -1.2736 -0.9379  1.5369
  489TMC3    H2 7330   3.537   2.430  17.397 -0.9230 -0.6846 -0.0066
  489TMC3    C7 7331   3.380   2.417  17.184  0.4646  0.1180 -0.0256
  489TMC3    C8 7332   3.788   2.354  17.388  0.2208  0.0579  0.2825
  489TMC3    O1 7333   3.277   2.393  17.122 -0.2876  0.9832 -0.3874
  489TMC3    O2 7334   3.884   2.329  17.320 -0.2927  0.1533 -0.0533
  490MPD2     C 7335   4.565   1.831  17.216 -0.4113 -0.1066  0.0977
  490MPD2    C1 7336   4.556   1.837  17.353  0.2034  0.2752  0.1996
  490MPD2    C2 7337   4.668   1.872  17.432  0.7983 -0.1545 -0.0008
  490MPD2    C3 7338   0.052   1.894  17.363  0.5687 -0.0909  0.0711
  490MPD2    C4 7339   0.062   1.896  17.229 -0.3429 -0.1392  0.4438
  490MPD2    C5 7340   4.685   1.857  17.159 -0.3625 -0.4285  0.5541
  490MPD2     H 7341   4.663   1.887  17.539  2.4839  0.6702 -0.0436
  490MPD2    H1 7342   0.153   1.911  17.173 -1.9391  1.7619 -1.6441
  490MPD2    H2 7343   4.484   1.795  17.154  0.0653  1.0233 -1.1809
  490MPD2    H3 7344   4.700   1.853  17.052  2.0304  0.3174  0.8790
  490MPD2     N 7345   0.172   1.913  17.426  0.5766 -0.6947  0.2414
  490MPD2    H5 7346   0.253   1.929  17.367  0.9677  0.6768  1.1285
  490MPD2    N1 7347   4.430   1.818  17.419 -0.1224  0.2452 -0.6726
  490MPD2    H7 7348   4.434   1.803  17.519 -0.2834 -1.1079 -0.8759
  491TMC3    C1 7349   4.201   1.753  17.405 -1.5995 -0.0293 -0.7294
  491TMC3    C2 7350   4.211   1.720  17.534 -0.0560 -0.2654  0.4360
  491TMC3    C3 7351   4.131   1.611  17.573  0.5908  0.1743 -0.1628
  491TMC3    C4 7352   4.112   1.699  17.311 -0.0217  0.7668 -0.1038
  491TMC3    C5 7353   4.040   1.592  17.356 -0.4612 -0.3016 -0.5957
  491TMC3    C6 7354   4.044   1.549  17.489 -0.2853  0.3496 -0.2953
  491TMC3     C 7355   4.311   1.828  17.350  0.1077 -0.0082  0.8823
  491TMC3     O 7356   4.298   1.883  17.244  0.3063  0.9098  0.3005
  491TMC3     H 7357   4.281   1.772  17.599 -1.1233  0.0318  1.3373
  491TMC3    H1 7358   4.122   1.717  17.205 -0.7467 -0.4281 -0.3757
  491TMC3    H2 7359   3.986   1.464  17.523  1.9341  0.3333  3.4062
  491TMC3    C7 7360   3.958   1.514  17.260 -0.1860  0.6762  0.1527
  491TMC3    C8 7361   4.147   1.558  17.706 -0.2372  0.0765  0.2198
  491TMC3    O1 7362   3.955   1.395  17.278 -0.2063 -0.6762  0.1711
  491TMC3    O2 7363   4.157   1.640   0.052 -0.5009 -0.1907 -0.2695
  492MPD2     C 7364   4.693   2.105  11.839 -0.3306  0.2701  0.2655
  492MPD2    C1 7365   4.620   2.044  11.736 -0.4245 -0.6096 -0.1871
  492MPD2    C2 7366   4.556   1.925  11.760  0.0538  0.3627 -0.1108
  492MPD2    C3 7367   4.563   1.863  11.887  0.2807 -0.3376  0.0872
  492MPD2    C4 7368   4.634   1.920  11.988  0.2011 -0.3367 -0.4381
  492MPD2    C5 7369   4.698   2.042  11.963  0.2851  0.7636 -0.4290
  492MPD2     H 7370   4.509   1.875  11.677  1.2887 -1.5884  0.3635
  492MPD2    H1 7371   4.640   1.875  12.087 -1.3342  0.0632 -0.1644
  492MPD2    H2 7372   4.726   2.207  11.836  1.8592 -0.5271 -2.3800
  492MPD2    H3 7373   0.019   2.086  12.044  1.2788 -1.7002  0.2076
  492MPD2     N 7374   4.484   1.749  11.916 -0.5109 -0.1024 -0.3668
  492MPD2    H5 7375   4.488   1.723  12.014  1.2922  0.5203 -0.2710
  492MPD2    N1 7376   4.602   2.118  11.616  0.2856 -0.2424  0.0649
  492MPD2    H7 7377   4.665   2.197  11.608 -0.6201  0.4463 -0.1768
  493TMC3    C1 7378   4.508   2.178  11.404 -0.4675 -0.6576  0.5219
  493TMC3    C2 7379   4.546   2.306  11.428  0.0805 -0.2866  0.2581
  493TMC3    C3 7380   4.504   2.404  11.338  1.0646 -0.3593  0.4314
  493TMC3    C4 7381   4.439   2.146  11.294 -0.2252 -0.4146 -0.5469
  493TMC3    C5 7382   4.400   2.242  11.210  0.6027 -0.6663  0.0707
  493TMC3    C6 7383   4.436   2.374  11.227  0.6579  0.0472 -0.5036
  493TMC3     C 7384   4.522   2.079  11.509  0.0122  0.4460 -0.2700
  493TMC3     O 7385   4.440   1.984  11.498  0.9235 -0.2718 -0.2531
  493TMC3     H 7386   4.596   2.337  11.519 -0.9477  2.6265 -0.1850
  493TMC3    H1 7387   4.420   2.042  11.268 -1.3511 -0.6134  1.0853
  493TMC3    H2 7388   4.385   2.458  11.182 -0.5558 -0.5072 -0.1631
  493TMC3    C7 7389   4.320   2.211  11.093 -0.9703 -0.0201 -0.3399
  493TMC3    C8 7390   4.506   2.549  11.380  0.5375 -0.2646 -0.5449
  493TMC3    O1 7391   4.247   2.115  11.092 -0.0732 -0.0267 -0.2775
  493TMC3    O2 7392   4.506   2.575  11.499 -0.0838 -0.1166  0.1488
  494TMC3    C1 7393   0.972   3.655   0.524 -0.1960 -0.5862 -0.0138
  494TMC3    C2 7394   0.989   3.525   0.544 -0.1079 -0.1597 -0.0826
  494TMC3    C3 7395   1.017   3.452   0.430 -0.5863  0.0991 -0.5269
  494TMC3    C4 7396   0.956   3.707   0.396 -0.2700  0.0434 -0.0870
  494TMC3    C5 7397   0.986   3.628   0.288 -0.9521 -0.2193  0.2926
  494TMC3    C6 7398   1.019   3.498   0.300 -0.5852  0.0893  0.8318
  494TMC3     C 7399   0.925   3.732   0.639 -0.1616 -0.0874  1.1253
  494TMC3     O 7400   0.960   3.699   0.752 -0.1523 -0.3081  0.3154
  494TMC3     H 7401   0.976   3.471   0.637 -0.2562 -0.1044 -0.0704
  494TMC3    H1 7402   0.964   3.815   0.386  1.6492  0.0287  1.3382
  494TMC3    H2 7403   1.063   3.439   0.221 -0.7458 -1.4787  1.9146
  494TMC3    C7 7404   0.978   3.695   0.159  0.5288 -0.0820  0.3447
  494TMC3    C8 7405   1.019   3.312   0.462 -0.2732  0.0173 -0.1106
  494TMC3    O1 7406   1.038   3.653   0.062  0.1147 -0.4947  0.5328
  494TMC3    O2 7407   1.032   3.263   0.571  0.5800 -0.2339  0.3034
  495TMC3    C1 7408   4.211   1.351  14.678  1.0797 -0.1108  0.1163
  495TMC3    C2 7409   4.126   1.310  14.579  0.2919  0.1940  0.0361
  495TMC3    C3 7410   4.002   1.274  14.613 -0.2658 -0.4391 -0.3999
  495TMC3    C4 7411   4.176   1.309  14.810  0.3128 -0.0835 -0.0131
  495TMC3    C5 7412   4.051   1.249  14.832  1.0443  0.1358 -1.1048
  495TMC3    C6 7413   3.961   1.226  14.733 -0.2077 -0.4340 -0.1581
  495TMC3     C 7414   4.357   1.350  14.652 -0.0118 -0.7529  0.1470
  495TMC3     O 7415   4.423   1.452  14.643  0.1317  0.9022 -0.4659
  495TMC3     H 7416   4.161   1.330  14.478 -1.3227  1.0047 -0.3632
  495TMC3    H1 7417   4.243   1.350  14.885  1.0500 -0.9942 -0.1821
  495TMC3    H2 7418   3.860   1.187  14.737 -0.6526  0.9868  1.9049
  495TMC3    C7 7419   4.017   1.201  14.965  0.2563 -0.8139 -0.0917
  495TMC3    C8 7420   3.945   1.205  14.499 -0.2767  0.2313 -1.2451
  495TMC3    O1 7421   4.090   1.242  15.053 -0.4170  0.9361 -0.3507
  495TMC3    O2 7422   3.826   1.228  14.471  0.2616 -0.2594  0.4668
  496MPD2     C 7423   1.483   0.973  15.144  0.4847  0.6122 -0.0766
  496MPD2    C1 7424   1.522   0.917  15.263  0.7569  0.3097 -0.1332
  496MPD2    C2 7425   1.459   0.955  15.380  0.1478 -0.7700  0.3397
  496MPD2    C3 7426   1.339   1.026  15.365  0.2213 -0.4065 -0.9238
  496MPD2    C4 7427   1.300   1.074  15.238  0.2723 -0.9893  0.1249
  496MPD2    C5 7428   1.382   1.060  15.134 -0.5344  0.1033 -0.2242
  496MPD2     H 7429   1.501   0.926  15.476  1.4812  0.9824  0.2811
  496MPD2    H1 7430   1.209   1.129  15.218 -0.3601 -1.4769  1.6389
  496MPD2    H2 7431   1.539   0.953  15.053  0.1343 -1.1924  0.1029
  496MPD2    H3 7432   1.351   1.109  15.043  1.2115 -1.7055 -1.7898
  496MPD2     N 7433   1.253   1.037  15.473 -0.3798 -0.1430 -0.4385
  496MPD2    H5 7434   1.162   1.077  15.454 -0.3769 -0.4591 -1.1276
  496MPD2    N1 7435   1.635   0.829  15.258 -0.0044 -0.2312  0.1333
  496MPD2    H7 7436   1.693   0.840  15.175 -0.7109 -3.8655 -0.8256
  497TMC3    C1 7437   1.182   1.008  15.693 -0.4088 -0.3448  0.8834
  497TMC3    C2 7438   1.062   0.954  15.646 -0.1312 -0.3940 -0.1902
  497TMC3    C3 7439   0.967   0.919  15.740  0.5573  0.3454 -0.0469
  497TMC3    C4 7440   1.210   1.013  15.828  0.0860  0.0841  0.0223
  497TMC3    C5 7441   1.116   0.973  15.917  0.1380 -0.4353 -0.1091
  497TMC3    C6 7442   0.996   0.933  15.872 -0.3295 -0.2234  0.5100
  497TMC3     C 7443   1.295   1.034  15.603 -0.1014  0.6140  0.2336
  497TMC3     O 7444   1.401   1.064  15.653 -0.4223  0.1711  0.0538
  497TMC3     H 7445   1.030   0.957  15.543 -0.5207 -2.0806 -0.1090
  497TMC3    H1 7446   1.305   1.045  15.870  1.1318 -3.1437  0.1590
  497TMC3    H2 7447   0.912   0.922  15.939 -1.7528  0.6398 -1.1363
  497TMC3    C7 7448   1.145   0.963  16.062  0.3087  0.1542 -0.3433
  497TMC3    C8 7449   0.827   0.879  15.710 -0.5305 -0.6504  0.2855
  497TMC3    O1 7450   1.062   0.889  16.117  0.4331  0.0081  0.4612
  497TMC3    O2 7451   0.788   0.911  15.598  0.7309  0.6040  0.1606
  498MPD2     C 7452   2.554   2.004  10.060  0.6102  0.0697  0.0732
  498MPD2    C1 7453   2.484   2.073  10.153  0.1838  0.2128  0.0322
  498MPD2    C2 7454   2.405   2.003  10.238 -0.3009  0.1000 -0.0689
  498MPD2    C3 7455   2.363   1.870  10.223 -0.4958 -0.0511  0.5132
  498MPD2    C4 7456   2.443   1.803  10.129 -1.1670 -0.3439  0.2334
  498MPD2    C5 7457   2.539   1.870  10.055 -0.4430 -0.4204 -0.2251
  498MPD2     H 7458   2.350   2.056  10.315 -2.6504 -0.7823 -1.1542
  498MPD2    H1 7459   2.441   1.697  10.108  0.8075 -0.3720  0.1361
  498MPD2    H2 7460   2.614   2.055   9.986 -0.6347  0.5098 -0.6399
  498MPD2    H3 7461   2.601   1.815   9.984  0.7176  3.4250 -2.1776
  498MPD2     N 7462   2.251   1.814  10.290 -0.3802  0.2391  0.6686
  498MPD2    H5 7463   2.209   1.879  10.356 -0.7687  0.4089  0.2570
  498MPD2    N1 7464   2.494   2.212  10.176  0.0217  0.6708 -0.3802
  498MPD2    H7 7465   2.458   2.248  10.264 -0.3563  1.3720 -0.8255
  499TMC3    C1 7466   2.527   2.439  10.129  0.1943  0.4192  0.0361
  499TMC3    C2 7467   2.616   2.461  10.229  0.3277  0.0565  0.3552
  499TMC3    C3 7468   2.663   2.589  10.243  0.6166  0.4673  0.1127
  499TMC3    C4 7469   2.496   2.532  10.034 -0.6130  0.0654  0.2055
  499TMC3    C5 7470   2.547   2.661  10.055  1.0644  0.3058  0.6177
  499TMC3    C6 7471   2.633   2.691  10.160  0.6357  0.0360  0.6274
  499TMC3     C 7472   2.539   2.308  10.081 -0.3547  0.3100  0.2557
  499TMC3     O 7473   2.556   2.291   9.961  0.4768  0.5262 -0.1883
  499TMC3     H 7474   2.661   2.377  10.280 -2.6082 -1.0462  1.1035
  499TMC3    H1 7475   2.439   2.502   9.946 -0.8840 -0.6493  0.6229
  499TMC3    H2 7476   2.671   2.791  10.173 -0.4338  0.2880  1.8978
  499TMC3    C7 7477   2.505   2.764   9.966  0.2072 -0.3225 -0.2392
  499TMC3    C8 7478   2.775   2.621  10.334 -0.1561 -0.3131 -0.8526
  499TMC3    O1 7479   2.580   2.858   9.945 -0.3839 -0.4080 -0.6195
  499TMC3    O2 7480   2.867   2.696  10.293 -0.5099 -0.3108 -0.0058
  500MPD2     C 7481   3.687   3.381  10.708  0.1746 -0.7748 -0.3439
  500MPD2    C1 7482   3.704   3.376  10.570 -0.2546  0.0710 -0.3705
  500MPD2    C2 7483   3.599   3.373  10.480  0.0381  0.4882  0.3261
  500MPD2    C3 7484   3.471   3.368  10.532 -0.3566  0.3241  0.3645
  500MPD2    C4 7485   3.451   3.361  10.669 -0.5684 -0.4394 -0.2214
  500MPD2    C5 7486   3.560   3.370  10.757  0.5622  0.8522  0.7826
  500MPD2     H 7487   3.624   3.388  10.375 -0.4469  1.7945  0.3983
  500MPD2    H1 7488   3.349   3.347  10.704 -0.4782  1.6771  0.8893
  500MPD2    H2 7489   3.767   3.367  10.780  0.8764  1.7474 -0.6347
  500MPD2    H3 7490   3.532   3.368  10.862 -1.1803 -0.4278  0.2831
  500MPD2     N 7491   3.356   3.366  10.450 -0.1566 -0.8833  0.4124
  500MPD2    H5 7492   3.267   3.390  10.492  0.0138  0.6398 -0.1013
  500MPD2    N1 7493   3.831   3.369  10.519 -0.2085 -0.4220  0.0161
  500MPD2    H7 7494   3.838   3.406  10.425 -1.0834  0.2115  0.1955
  501TMC3    C1 7495   4.055   3.314  10.490 -0.1485 -0.3737 -0.2275
  501TMC3    C2 7496   4.071   3.412  10.401 -0.0074 -0.5246 -0.0217
  501TMC3    C3 7497   4.193   3.411  10.338 -0.4454  0.1581 -0.6857
  501TMC3    C4 7498   4.135   3.203  10.503 -0.1477 -0.2095  0.6519
  501TMC3    C5 7499   4.257   3.217  10.447  0.0058 -0.6275  0.1900
  501TMC3    C6 7500   4.289   3.323  10.372  0.3985 -0.1234  0.0255
  501TMC3     C 7501   3.947   3.324  10.581 -0.4578  0.0110  0.5913
  501TMC3     O 7502   3.943   3.270  10.690 -0.3747  0.6011  0.1500
  501TMC3     H 7503   3.992   3.485  10.390 -1.2221 -1.6229  1.4271
  501TMC3    H1 7504   4.114   3.125  10.574 -4.0490  0.8700  0.6513
  501TMC3    H2 7505   4.383   3.327  10.317 -1.2578  0.8559 -2.6845
  501TMC3    C7 7506   4.349   3.181  10.548  0.1371  0.2248  0.9355
  501TMC3    C8 7507   4.236   3.536  10.273  0.2689 -0.9383  1.0514
  501TMC3    O1 7508   4.348   3.074  10.605  0.4228  0.0543  0.5955
  501TMC3    O2 7509   4.352   3.545  10.246  0.2041  0.2423 -0.0891
  502TMC3    C1 7510   3.495   1.303  14.908 -0.0967  0.3316  0.0414
  502TMC3    C2 7511   3.496   1.377  14.788  0.0871  0.4411 -0.2175
  502TMC3    C3 7512   3.387   1.447  14.747 -0.4048  0.5749 -1.0235
  502TMC3    C4 7513   3.372   1.300  14.981  0.4941 -0.0941 -0.1145
  502TMC3    C5 7514   3.264   1.376  14.941  0.2927 -0.4539  0.3198
  502TMC3    C6 7515   3.273   1.445  14.818  0.0855 -0.6110 -0.2481
  502TMC3     C 7516   3.616   1.329  14.984 -0.3044 -0.5716  0.6130
  502TMC3     O 7517   3.707   1.384  14.920  0.3948  0.0772 -0.2727
  502TMC3     H 7518   3.580   1.376  14.719  1.1438  2.2879  1.0196
  502TMC3    H1 7519   3.364   1.261  15.081 -1.1241  0.6117  0.0371
  502TMC3    H2 7520   3.194   1.512  14.786 -0.3896 -1.3514 -0.6420
  502TMC3    C7 7521   3.231   1.473  15.042 -0.2015  0.6964 -0.9622
  502TMC3    C8 7522   3.425   1.584  14.731  0.1207 -0.0541 -0.4667
  502TMC3    O1 7523   3.326   1.505  15.114  0.2265 -0.5336 -0.4656
  502TMC3    O2 7524   3.361   1.664  14.801 -0.9147 -0.3876  0.1730
  503MPD2     C 7525   0.869   2.461  17.011  0.0231  0.4791 -0.0090
  503MPD2    C1 7526   0.918   2.492  17.133 -0.2880  0.9261 -0.0415
  503MPD2    C2 7527   1.010   2.401  17.191  0.2152 -1.0080  0.0857
  503MPD2    C3 7528   1.052   2.291  17.127  0.5130  0.0548 -0.0155
  503MPD2    C4 7529   0.998   2.256  16.999  0.4632 -0.4806  0.4844
  503MPD2    C5 7530   0.907   2.346  16.944  0.3304 -0.8796  0.5015
  503MPD2     H 7531   1.065   2.438  17.277  1.2866 -0.2580 -0.9114
  503MPD2    H1 7532   1.020   2.160  16.954  0.0555  0.0799 -0.9302
  503MPD2    H2 7533   0.787   2.516  16.967 -1.0112 -0.0946  1.2138
  503MPD2    H3 7534   0.853   2.317  16.855 -1.1988  0.4267  0.9844
  503MPD2     N 7535   1.155   2.211  17.188  0.3515 -0.3107 -0.1305
  503MPD2    H5 7536   1.186   2.227  17.283  2.5973 -1.4239 -0.6782
  503MPD2    N1 7537   0.880   2.613  17.198  0.1763 -0.1257  0.6186
  503MPD2    H7 7538   0.908   2.618  17.295 -0.0877 -0.3011  0.7031
  504TMC3    C1 7539   1.324   2.059  17.222 -1.0020 -0.4310  0.9238
  504TMC3    C2 7540   1.290   2.033  17.353 -0.3420 -0.1816  0.5845
  504TMC3    C3 7541   1.391   2.004  17.446  0.4787 -0.6192  0.0544
  504TMC3    C4 7542   1.449   2.051  17.179  0.3144 -0.3997  0.1213
  504TMC3    C5 7543   1.551   2.046  17.273 -0.0826 -0.1763  0.3302
  504TMC3    C6 7544   1.523   2.012  17.404  0.3762  0.4328 -0.4723
  504TMC3     C 7545   1.229   2.113  17.128 -0.4309 -0.1868  0.1629
  504TMC3     O 7546   1.234   2.081  17.012 -0.2560 -0.1948  0.2152
  504TMC3     H 7547   1.191   2.021  17.397 -0.8061  4.6599  0.8939
  504TMC3    H1 7548   1.473   2.071  17.075 -1.7843  0.3062 -0.2115
  504TMC3    H2 7549   1.605   1.968  17.460 -1.0815 -0.2851  1.0899
  504TMC3    C7 7550   1.683   2.084  17.229  0.2348 -0.6193 -0.0129
  504TMC3    C8 7551   1.374   1.891  17.530  0.4283  0.5555  0.1881
  504TMC3    O1 7552   1.686   2.111  17.110  0.5597 -0.2950 -0.0466
  504TMC3    O2 7553   1.292   1.808  17.493 -0.1603  0.0810 -0.3847
  505MPD2     C 7554   1.207   1.440  11.303 -0.6879  0.2234 -0.1079
  505MPD2    C1 7555   1.306   1.532  11.325 -0.3205  0.1104 -0.3609
  505MPD2    C2 7556   1.295   1.666  11.276  0.0310 -0.6179  0.0315
  505MPD2    C3 7557   1.190   1.698  11.192 -0.4692 -0.2392 -0.3595
  505MPD2    C4 7558   1.092   1.603  11.167  0.0037 -0.4686  0.2757
  505MPD2    C5 7559   1.095   1.479  11.227 -0.0316  0.2016  0.7998
  505MPD2     H 7560   1.374   1.739  11.292 -0.0774 -0.2305 -1.1947
  505MPD2    H1 7561   1.000   1.634  11.119  0.0182  0.5237  0.8830
  505MPD2    H2 7562   1.213   1.339  11.342 -1.5703  0.4933  0.6972
  505MPD2    H3 7563   1.019   1.404  11.213  1.0285 -0.5153 -1.1114
  505MPD2     N 7564   1.173   1.819  11.129 -0.1462 -0.0025 -0.3020
  505MPD2    H5 7565   1.097   1.828  11.062 -1.0833  0.0925  0.7847
  505MPD2    N1 7566   1.419   1.497  11.409 -1.0520  0.1813  0.1807
  505MPD2    H7 7567   1.422   1.399  11.438 -0.4591 -0.4662 -2.0507
  506TMC3    C1 7568   1.639   1.528  11.493 -0.2964 -0.5058 -0.2536
  506TMC3    C2 7569   1.670   1.419  11.410 -0.1619 -0.0427  0.4719
  506TMC3    C3 7570   1.791   1.423  11.354 -0.8942 -0.4641  0.5043
  506TMC3    C4 7571   1.728   1.628  11.518  0.0751 -1.2100  0.2452
  506TMC3    C5 7572   1.846   1.627  11.448 -0.0605  0.5402 -0.4113
  506TMC3    C6 7573   1.875   1.525  11.363  0.4684 -0.0718  0.4243
  506TMC3     C 7574   1.511   1.590  11.461 -0.2380  0.1150 -0.6496
  506TMC3     O 7575   1.495   1.714  11.468  0.2805  0.1559 -0.4587
  506TMC3     H 7576   1.596   1.344  11.384  0.0726 -1.3780  3.5833
  506TMC3    H1 7577   1.694   1.711  11.579  0.0407 -2.4793  1.9381
  506TMC3    H2 7578   1.973   1.527  11.316 -0.9345  2.4706 -2.3453
  506TMC3    C7 7579   1.892   1.761  11.404  0.4242 -0.9494  0.1125
  506TMC3    C8 7580   1.823   1.329  11.256  0.1514 -0.3460 -0.4523
  506TMC3    O1 7581   2.002   1.773  11.356 -0.1754 -0.4442 -0.2813
  506TMC3    O2 7582   1.766   1.221  11.277 -0.1558  0.0779  0.1700
  507TMC3    C1 7583   1.971   1.879  14.717 -0.7083  0.0053  0.3094
  507TMC3    C2 7584   1.873   1.784  14.711  0.2469 -0.1415 -0.5448
  507TMC3    C3 7585   1.832   1.739  14.592  0.2891 -0.5295  0.4281
  507TMC3    C4 7586   2.038   1.922  14.610  0.7404 -0.6573 -0.1428
  507TMC3    C5 7587   2.005   1.862  14.489  0.4871 -0.0868 -0.0733
  507TMC3    C6 7588   1.903   1.769  14.478  0.0066  0.6302  0.5637
  507TMC3     C 7589   1.974   1.961  14.838 -0.1175  0.5469 -0.0477
  507TMC3     O 7590   1.932   1.906  14.939  0.1059  1.1058 -0.3904
  507TMC3     H 7591   1.810   1.757  14.795  0.1230  0.6482 -0.3842
  507TMC3    H1 7592   2.129   1.981  14.610 -0.2650  0.8908 -0.9564
  507TMC3    H2 7593   1.866   1.733  14.383 -0.8568 -3.8991  2.6282
  507TMC3    C7 7594   2.001   1.957  14.378 -0.3522  0.2857  0.1003
  507TMC3    C8 7595   1.689   1.746  14.581 -0.2626  0.6569  0.1897
  507TMC3    O1 7596   1.910   1.945  14.294  0.6742 -0.3293 -0.1839
  507TMC3    O2 7597   1.619   1.700  14.667 -0.5954  0.3601 -0.3038
  508MPD2     C 7598   2.863   4.233  16.120 -0.1168 -0.8894  0.0130
  508MPD2    C1 7599   2.878   4.368  16.146  0.1965 -0.3729  0.1922
  508MPD2    C2 7600   2.885   4.465  16.050  0.4704 -0.2026 -0.4308
  508MPD2    C3 7601   2.855   4.426  15.922 -0.5085 -0.5049 -0.2408
  508MPD2    C4 7602   2.817   4.293  15.896 -0.9619 -0.1846  0.0647
  508MPD2    C5 7603   2.828   4.197  15.992 -0.1169 -0.0229 -0.5121
  508MPD2     H 7604   2.894   4.568  16.084  0.8812 -0.1307 -0.7592
  508MPD2    H1 7605   2.788   4.264  15.795  1.5139 -0.7164 -0.5069
  508MPD2    H2 7606   2.861   4.161  16.200 -1.9796 -0.9319 -0.0623
  508MPD2    H3 7607   2.796   4.097  15.966 -2.3055  0.6184 -0.2879
  508MPD2     N 7608   2.877   4.518  15.819  0.3904  0.1721 -0.6724
  508MPD2    H5 7609   2.912   4.611  15.841  1.3468  0.3776 -3.1082
  508MPD2    N1 7610   2.904   4.406  16.278 -0.9647 -0.5104 -1.2063
  508MPD2    H7 7611   2.919   4.325  16.337  1.7933  0.6915 -0.2410
  509TMC3    C1 7612   2.799   0.060  15.469 -0.0506  0.1156 -0.0036
  509TMC3    C2 7613   2.886   0.152  15.517 -0.1896 -0.1963  1.0853
  509TMC3    C3 7614   2.971   0.106  15.608  0.4497 -0.6313 -0.2174
  509TMC3    C4 7615   2.785   4.671  15.517  0.0330 -0.0658 -0.0913
  509TMC3    C5 7616   2.865   4.639  15.627 -0.0424  0.1018 -0.2660
  509TMC3    C6 7617   2.968   4.721  15.672 -1.4914 -0.3043  0.0537
  509TMC3     C 7618   2.702   0.100  15.366 -1.0811  0.5108  0.3522
  509TMC3     O 7619   2.582   0.071  15.392 -0.4332  0.2130  0.0710
  509TMC3     H 7620   2.893   0.253  15.477  0.5495 -1.0406 -0.9467
  509TMC3    H1 7621   2.713   4.596  15.485 -0.8209  1.2458 -1.2172
  509TMC3    H2 7622   3.050   4.687  15.735  0.7495  0.6411 -2.3321
  509TMC3    C7 7623   2.844   4.509  15.687  0.5243 -0.5148 -0.3248
  509TMC3    C8 7624   3.093   0.192  15.622  0.5656 -0.6981 -0.4968
  509TMC3    O1 7625   2.786   4.420  15.630 -0.0963  0.4213  0.3153
  509TMC3    O2 7626   3.143   0.245  15.522 -0.0650 -0.4068 -0.4410
  510MPD2     C 7627   0.635   1.547  14.677 -0.0831  0.7246 -0.7146
  510MPD2    C1 7628   0.699   1.426  14.712 -0.4921 -0.0491 -0.8546
  510MPD2    C2 7629   0.829   1.403  14.674 -0.6018 -0.6215 -0.4317
  510MPD2    C3 7630   0.895   1.486  14.585 -0.1333  1.0284 -0.5206
  510MPD2    C4 7631   0.826   1.593  14.529 -0.7906  0.0640 -0.2857
  510MPD2    C5 7632   0.708   1.631  14.591  0.0793 -0.2666  0.1381
  510MPD2     H 7633   0.882   1.323  14.725 -0.2616  0.4175  0.8510
  510MPD2    H1 7634   0.867   1.658  14.453  1.6249 -1.7032 -0.4787
  510MPD2    H2 7635   0.531   1.566  14.700 -0.0838 -0.3132  0.1491
  510MPD2    H3 7636   0.663   1.721  14.553 -1.4462 -0.8917  0.4530
  510MPD2     N 7637   1.034   1.471  14.573  0.0125 -0.0842 -0.0787
  510MPD2    H5 7638   1.081   1.394  14.621 -2.3762 -2.1926 -1.1167
  510MPD2    N1 7639   0.622   1.337  14.790  0.1643 -0.1857  0.2808
  510MPD2    H7 7640   0.522   1.357  14.797 -0.1629 -1.2768 -1.1593
  511TMC3    C1 7641   0.556   1.146  14.922 -0.3517 -0.5365 -0.3812
  511TMC3    C2 7642   0.469   1.215  15.008 -0.2411  0.3593 -0.6764
  511TMC3    C3 7643   0.382   1.140  15.080 -0.4463  0.7902  0.5257
  511TMC3    C4 7644   0.549   1.012  14.902 -0.3681  0.2528  0.3875
  511TMC3    C5 7645   0.456   0.942  14.978  0.8452 -0.1203  0.3218
  511TMC3    C6 7646   0.370   1.005  15.064 -0.5676  0.4718 -0.3088
  511TMC3     C 7647   0.658   1.221  14.844 -0.2360  0.3345  0.1781
  511TMC3     O 7648   0.765   1.167  14.840  0.2813  1.4733  0.4593
  511TMC3     H 7649   0.479   1.322  15.021  0.7828  0.0074  1.3984
  511TMC3    H1 7650   0.632   0.962  14.854 -1.1975 -0.4411 -0.3443
  511TMC3    H2 7651   0.291   0.949  15.115  2.3144 -2.2242  1.1978
  511TMC3    C7 7652   0.398   0.834  14.897  0.0222  0.0264  0.0434
  511TMC3    C8 7653   0.319   1.199  15.197 -0.0784 -0.4075 -0.0558
  511TMC3    O1 7654   0.418   0.822  14.774 -0.3361  0.0216  0.4191
  511TMC3    O2 7655   0.278   1.314  15.186 -0.0838  0.3961  0.6684
  512TMC3    C1 7656   4.248   0.696  13.248  0.0489 -0.1281  0.7003
  512TMC3    C2 7657   4.355   0.648  13.321  0.5497 -0.1852 -0.2812
  512TMC3    C3 7658   4.440   0.564  13.257  0.4737 -0.8513  0.5341
  512TMC3    C4 7659   4.225   0.677  13.118  0.2098  1.0080 -0.6216
  512TMC3    C5 7660   4.319   0.587  13.055 -0.9319 -0.1584 -0.2674
  512TMC3    C6 7661   4.423   0.531  13.125 -0.1156  0.7150 -0.2739
  512TMC3     C 7662   4.137   0.742  13.330  0.0970  0.4035  0.3981
  512TMC3     O 7663   4.120   0.693  13.437 -0.6004 -0.0173  0.6242
  512TMC3     H 7664   4.371   0.659  13.428 -0.3317 -1.2042 -0.0405
  512TMC3    H1 7665   4.132   0.696  13.065 -0.8676 -0.4951  0.7426
  512TMC3    H2 7666   4.504   0.478  13.075 -1.1351 -1.5012  0.4061
  512TMC3    C7 7667   4.282   0.502  12.946 -0.9247  0.0115 -0.4353
  512TMC3    C8 7668   4.572   0.539  13.318  0.3340 -0.3119  0.2106
  512TMC3    O1 7669   4.244   0.565  12.851 -0.5674  0.1723  0.3233
  512TMC3    O2 7670   4.637   0.447  13.274  0.4803 -0.1660  0.3934
  513MPD2     C 7671   1.070   0.855  13.340 -0.1878  0.3102 -0.5516
  513MPD2    C1 7672   1.156   0.769  13.278 -0.7162 -0.4341 -0.2583
  513MPD2    C2 7673   1.264   0.715  13.346 -0.1709  0.2128 -0.2690
  513MPD2    C3 7674   1.282   0.745  13.475 -0.8216  0.0312 -0.2296
  513MPD2    C4 7675   1.193   0.826  13.545  0.7994 -0.4953 -0.5452
  513MPD2    C5 7676   1.091   0.881  13.470 -0.2367 -0.3676 -0.2862
  513MPD2     H 7677   1.346   0.669  13.293  0.4964  2.4744 -1.2035
  513MPD2    H1 7678   1.203   0.839  13.652 -1.6369 -0.1713 -0.3575
  513MPD2    H2 7679   0.985   0.903  13.292 -0.6730  1.0119  1.0040
  513MPD2    H3 7680   1.018   0.939  13.526  2.2638  0.9941  1.5392
  513MPD2     N 7681   1.399   0.695  13.525  0.3272  0.4101 -0.4800
  513MPD2    H5 7682   1.443   0.628  13.463  2.4770  0.1868  1.2799
  513MPD2    N1 7683   1.140   0.752  13.135  0.0351  0.6276  0.0512
  513MPD2    H7 7684   1.065   0.807  13.093 -1.0950 -1.8944 -1.2248
  514TMC3    C1 7685   1.186   0.663  12.918  0.1114  0.2827 -0.0951
  514TMC3    C2 7686   1.219   0.777  12.862  0.5573 -0.2342  0.1126
  514TMC3    C3 7687   1.302   0.775  12.756 -0.1822  0.0255  0.2290
  514TMC3    C4 7688   1.228   0.544  12.869 -0.2582  0.2399  0.3836
  514TMC3    C5 7689   1.306   0.542  12.759 -0.7286  0.1508 -0.1981
  514TMC3    C6 7690   1.343   0.658  12.700 -0.5151 -0.0149  0.8200
  514TMC3     C 7691   1.212   0.662  13.061 -0.0514 -0.6029 -0.4057
  514TMC3     O 7692   1.279   0.568  13.104  0.2152  0.1175 -0.0396
  514TMC3     H 7693   1.180   0.870  12.903 -1.2490 -0.8289 -0.2429
  514TMC3    H1 7694   1.199   0.447  12.909  1.7428  0.5309  2.5653
  514TMC3    H2 7695   1.384   0.651  12.600  1.2874  0.0178  1.5496
  514TMC3    C7 7696   1.427   0.456  12.764 -0.0212 -0.3842  0.1236
  514TMC3    C8 7697   1.364   0.900  12.719 -1.0552 -0.7151  0.2373
  514TMC3    O1 7698   1.507   0.442  12.670  0.0150 -0.5161  0.0619
  514TMC3    O2 7699   1.320   1.003  12.768 -0.5466 -0.0787 -0.4930
  515MPD2     C 7700   4.108   2.893  14.998 -0.1036 -0.3230  0.3399
  515MPD2    C1 7701   4.139   2.758  14.981  0.3681 -0.5257  0.2329
  515MPD2    C2 7702   4.248   2.715  15.044 -0.1153 -0.2522 -0.0397
  515MPD2    C3 7703   4.333   2.792  15.114  0.3964  0.6251  0.1682
  515MPD2    C4 7704   4.293   2.923  15.140  0.0253  0.4399  0.4056
  515MPD2    C5 7705   4.178   2.971  15.089 -0.4810 -0.8231  0.3212
  515MPD2     H 7706   4.263   2.608  15.048 -2.2154 -0.4224  2.8359
  515MPD2    H1 7707   4.351   2.987  15.205  0.3561  0.8848 -0.3282
  515MPD2    H2 7708   4.029   2.943  14.944 -0.0185 -1.2141 -0.6178
  515MPD2    H3 7709   4.165   3.077  15.106  1.4277 -0.3518 -1.1058
  515MPD2     N 7710   4.433   2.734  15.199  0.3430  0.1082  0.7922
  515MPD2    H5 7711   4.474   2.793  15.271  0.0598 -0.8533  1.7388
  515MPD2    N1 7712   4.061   2.672  14.900  0.2807 -0.4415  0.0564
  515MPD2    H7 7713   4.101   2.579  14.888  2.9423  0.5650  1.1508
  516TMC3    C1 7714   3.902   2.596  14.749  0.0601  0.2408 -0.4011
  516TMC3    C2 7715   3.842   2.625  14.630  0.3595  0.3406  0.3674
  516TMC3    C3 7716   3.845   2.537  14.529 -0.1596  0.0210  0.2116
  516TMC3    C4 7717   3.946   2.471  14.770  0.0420  0.3638  0.3643
  516TMC3    C5 7718   3.935   2.376  14.670 -0.8664  0.7936  0.3360
  516TMC3    C6 7719   3.887   2.407  14.548 -0.3301  0.5823  0.1861
  516TMC3     C 7720   3.947   2.711  14.826  0.2460  0.8907  0.2825
  516TMC3     O 7721   3.889   2.818  14.814  0.4219  0.7640  0.1066
  516TMC3     H 7722   3.809   2.725  14.605  2.7197  0.6386 -1.6044
  516TMC3    H1 7723   3.976   2.447  14.871  0.4603  0.7205  0.3232
  516TMC3    H2 7724   3.893   2.335  14.467 -0.2639  0.3643  0.3827
  516TMC3    C7 7725   3.951   2.238  14.713  0.3843 -0.3167 -0.1142
  516TMC3    C8 7726   3.808   2.577  14.389  0.2170 -0.1904  0.6662
  516TMC3    O1 7727   3.889   2.212  14.816 -0.3143 -0.3983 -0.2984
  516TMC3    O2 7728   3.722   2.663  14.372 -0.3579  0.2405 -0.4938
  517MPD2     C 7729   4.038   3.782   0.183 -0.3762  0.4526 -0.1456
  517MPD2    C1 7730   4.160   3.775   0.246 -0.2456 -0.0918 -0.3877
  517MPD2    C2 7731   4.203   3.891   0.312  0.5010  0.7308 -0.6237
  517MPD2    C3 7732   4.126   4.011   0.327 -0.4239  0.5718  0.6006
  517MPD2    C4 7733   4.002   4.019   0.259 -0.1633 -0.1934 -0.4944
  517MPD2    C5 7734   3.965   3.902   0.199 -0.3465  0.1247  0.2963
  517MPD2     H 7735   4.302   3.883   0.356 -0.0008 -0.1379  0.3556
  517MPD2    H1 7736   3.943   4.110   0.253  0.1906  0.0221 -0.7705
  517MPD2    H2 7737   3.991   3.699   0.132 -0.3964  0.0336  0.5662
  517MPD2    H3 7738   3.866   3.904   0.155 -0.3208 -2.0606  0.1439
  517MPD2     N 7739   4.172   4.117   0.405  0.1475 -0.6093 -0.4939
  517MPD2    H5 7740   4.109   4.196   0.406 -0.5462 -1.1643  0.3375
  517MPD2    N1 7741   4.247   3.659   0.228 -0.1311  0.2379 -0.2162
  517MPD2    H7 7742   4.334   3.661   0.281  0.5639 -1.0786 -1.3134
  518TMC3    C1 7743   4.313   3.443   0.157 -0.0787 -0.4646 -0.3939
  518TMC3    C2 7744   4.262   3.320   0.127  0.6000  0.2619 -0.1631
  518TMC3    C3 7745   4.350   3.221   0.114 -1.0778 -0.0365 -0.4376
  518TMC3    C4 7746   4.441   3.464   0.184  0.2899  0.9113 -0.5976
  518TMC3    C5 7747   4.526   3.354   0.183  0.0549  0.4350 -0.6081
  518TMC3    C6 7748   4.484   3.234   0.133  0.2520 -0.1325 -0.2925
  518TMC3     C 7749   4.226   3.551   0.141  0.1401  0.2446  0.2961
  518TMC3     O 7750   4.131   3.537   0.062 -0.0271 -0.0501 -0.2868
  518TMC3     H 7751   4.155   3.307   0.116  0.6748  1.9186 -2.8024
  518TMC3    H1 7752   4.484   3.557   0.221 -0.6546  1.8409 -1.8246
  518TMC3    H2 7753   4.545   3.144   0.142  1.1855  0.4886 -0.3755
  518TMC3    C7 7754   4.668   3.382   0.211 -0.9895 -0.4660  0.1609
  518TMC3    C8 7755   4.311   3.092   0.072 -0.2713 -0.6725 -0.5384
  518TMC3    O1 7756   4.699   3.462   0.299 -0.2097  0.9430 -0.5340
  518TMC3    O2 7757   4.393   3.039  17.742 -0.1901  0.1780 -0.0114
  519MPD2     C 7758   0.795   2.107  14.654  0.3075  0.0411  0.1760
  519MPD2    C1 7759   0.797   2.169  14.536 -0.0193 -0.1072  0.2242
  519MPD2    C2 7760   0.873   2.114  14.432  0.3154  0.1919 -0.8105
  519MPD2    C3 7761   0.951   2.004  14.455  0.2147  0.7461  0.3337
  519MPD2    C4 7762   0.952   1.951  14.581 -0.4113  0.6289 -0.7112
  519MPD2    C5 7763   0.874   2.005  14.680  0.3473  0.1784 -0.7682
  519MPD2     H 7764   0.856   2.143  14.329 -1.4065 -0.1328 -0.6141
  519MPD2    H1 7765   1.013   1.865  14.609 -0.4412  0.8339 -0.0216
  519MPD2    H2 7766   0.743   2.143  14.742 -0.0735 -1.2451  0.4843
  519MPD2    H3 7767   0.892   1.957  14.776  0.4935 -2.7817 -2.2502
  519MPD2     N 7768   1.025   1.944  14.346  0.1602  0.4857 -0.3840
  519MPD2    H5 7769   1.064   1.853  14.369 -0.5139  0.5462  1.0637
  519MPD2    N1 7770   0.701   2.276  14.515  0.5995  0.7356 -0.0957
  519MPD2    H7 7771   0.633   2.297  14.587  0.8171 -2.3871  1.0131
  520TMC3    C1 7772   1.097   1.900  14.131 -0.3870  0.1517  0.1017
  520TMC3    C2 7773   1.064   1.911  13.998 -0.0100 -0.0720 -0.6451
  520TMC3    C3 7774   1.156   1.879  13.903  0.2403 -0.1071  0.0680
  520TMC3    C4 7775   1.212   1.839  14.170  1.1935 -0.6644  0.1820
  520TMC3    C5 7776   1.293   1.805  14.070 -0.7372  0.0971 -0.3890
  520TMC3    C6 7777   1.270   1.810  13.937 -0.2783 -0.1415 -0.4937
  520TMC3     C 7778   1.029   1.992  14.216 -0.2904 -0.2488 -0.1143
  520TMC3     O 7779   0.977   2.083  14.161 -0.2606 -0.0918 -0.2960
  520TMC3     H 7780   0.970   1.957  13.972  0.8765  1.9784 -0.1985
  520TMC3    H1 7781   1.245   1.836  14.273  1.1733 -0.3276  0.1994
  520TMC3    H2 7782   1.334   1.767  13.861  0.6654 -0.7785  0.6711
  520TMC3    C7 7783   1.434   1.808  14.101 -0.5723 -0.6337 -0.1929
  520TMC3    C8 7784   1.117   1.903  13.763  0.8496  0.2740  0.2771
  520TMC3    O1 7785   1.476   1.786  14.210 -0.6002 -0.0315  0.1882
  520TMC3    O2 7786   1.208   1.896  13.676 -0.2295  0.5473 -0.3887
  521MPD2     C 7787   2.056   0.554  17.459  0.2056  0.3683 -0.1445
  521MPD2    C1 7788   2.064   0.493  17.332  0.2940 -0.1925 -0.2580
  521MPD2    C2 7789   2.142   0.544  17.232 -0.2647  0.2809  0.2966
  521MPD2    C3 7790   2.234   0.648  17.261  0.3696 -0.4195  0.3230
  521MPD2    C4 7791   2.241   0.700  17.388  0.2148  0.2461 -0.5277
  521MPD2    C5 7792   2.152   0.655  17.482 -0.0666  0.1768  0.1311
  521MPD2     H 7793   2.123   0.513  17.130 -0.5521 -0.3284  0.5378
  521MPD2    H1 7794   2.315   0.775  17.414 -0.0681  0.2460  0.2520
  521MPD2    H2 7795   1.991   0.515  17.537  0.6834  1.2874  0.7046
  521MPD2    H3 7796   2.167   0.690  17.584  1.1237  1.0189 -0.3414
  521MPD2     N 7797   2.302   0.711  17.157 -0.4508 -0.6122 -0.0390
  521MPD2    H5 7798   2.283   0.682  17.062 -2.1786  2.1014 -0.4968
  521MPD2    N1 7799   1.987   0.370  17.317 -0.3607 -0.4262 -0.4454
  521MPD2    H7 7800   1.943   0.331  17.400  0.2090 -0.8943 -0.3654
  522TMC3    C1 7801   2.506   0.783  17.051 -0.1348  0.2565 -0.1313
  522TMC3    C2 7802   2.638   0.758  17.063 -0.0741 -0.2601 -0.0420
  522TMC3    C3 7803   2.715   0.755  16.951  0.6207 -0.7309 -0.4575
  522TMC3    C4 7804   2.449   0.810  16.936  0.1348  0.1905 -0.3767
  522TMC3    C5 7805   2.533   0.810  16.826  0.4375  0.0882 -0.4202
  522TMC3    C6 7806   2.666   0.773  16.826 -0.6652  0.1288  0.0616
  522TMC3     C 7807   2.428   0.775  17.171  0.6808  0.5409 -0.2362
  522TMC3     O 7808   2.473   0.818  17.274  0.2279 -0.0742 -0.4226
  522TMC3     H 7809   2.676   0.725  17.159  0.9607 -0.8218 -0.6430
  522TMC3    H1 7810   2.345   0.839  16.933 -0.6747 -2.8551 -1.6574
  522TMC3    H2 7811   2.734   0.785  16.742  1.5335  1.5066  2.0280
  522TMC3    C7 7812   2.491   0.869  16.694 -0.3974 -0.4955  0.1997
  522TMC3    C8 7813   2.842   0.687  16.972  0.2874 -0.0437  0.2620
  522TMC3    O1 7814   2.581   0.910  16.622  0.3779  0.4317  0.0235
  522TMC3    O2 7815   2.895   0.707  17.080  0.4510 -0.1151  0.6376
  523MPD2     C 7816   0.270   0.928  10.962 -0.7397  0.7245  0.4049
  523MPD2    C1 7817   0.171   0.928  10.865 -0.4542  0.1465  0.6726
  523MPD2    C2 7818   0.053   1.006  10.875  0.0746 -0.4735 -0.5042
  523MPD2    C3 7819   0.040   1.100  10.977  0.5257  0.3056 -0.7086
  523MPD2    C4 7820   0.144   1.108  11.068  0.6901 -0.5834 -0.4164
  523MPD2    C5 7821   0.257   1.024  11.056  0.1237  0.5938  0.7261
  523MPD2     H 7822   4.709   0.988  10.803 -0.5085  2.0638 -0.4918
  523MPD2    H1 7823   0.144   1.174  11.153  1.3652  0.0856 -0.9343
  523MPD2    H2 7824   0.356   0.863  10.961 -1.6897 -0.5340 -0.7099
  523MPD2    H3 7825   0.342   1.030  11.123 -0.5904  1.2710  1.5744
  523MPD2     N 7826   4.666   1.176  10.995 -0.7656  0.1221  0.3353
  523MPD2    H5 7827   4.661   1.237  11.075  1.4367  1.6990 -0.7284
  523MPD2    N1 7828   0.170   0.812  10.775 -0.2732 -0.0804 -0.4408
  523MPD2    H7 7829   0.245   0.746  10.787 -0.3291 -0.3772 -1.7042
  524TMC3    C1 7830   4.455   1.289  10.927  0.3195  0.4697  0.1664
  524TMC3    C2 7831   4.325   1.264  10.885 -1.0955 -0.2886  0.0681
  524TMC3    C3 7832   4.242   1.374  10.880 -0.5708 -0.4613  0.4157
  524TMC3    C4 7833   4.511   1.409  10.946  0.4578  0.1308  0.1930
  524TMC3    C5 7834   4.425   1.520  10.913  0.1225 -0.3339 -0.2221
  524TMC3    C6 7835   4.294   1.497  10.895 -0.0349 -1.2676  0.6559
  524TMC3     C 7836   4.551   1.174  10.912 -0.2617  0.2776  0.0396
  524TMC3     O 7837   4.516   1.099  10.820 -0.1626 -0.2109 -0.3028
  524TMC3     H 7838   4.290   1.161  10.885 -4.2000  0.7911  2.6073
  524TMC3    H1 7839   4.615   1.431  10.964  0.4149  0.2678  0.2762
  524TMC3    H2 7840   4.231   1.584  10.878  3.7100  1.8530  2.8195
  524TMC3    C7 7841   4.480   1.617  10.819 -0.6658  0.1624 -0.0084
  524TMC3    C8 7842   4.139   1.365  10.773  0.5658  0.3483  0.7829
  524TMC3    O1 7843   4.599   1.653  10.824 -0.0072  0.8437 -0.1964
  524TMC3    O2 7844   4.096   1.469  10.724 -0.5499  0.1043 -0.0377
  525MPD2     C 7845   2.288   1.820  14.205 -0.2711 -0.0462 -0.3891
  525MPD2    C1 7846   2.405   1.841  14.269  0.4098  0.3762  0.0518
  525MPD2    C2 7847   2.477   1.952  14.241  0.3162 -0.1766  0.0130
  525MPD2    C3 7848   2.435   2.052  14.147 -0.4479  0.2007 -0.2153
  525MPD2    C4 7849   2.315   2.018  14.085 -0.7132 -0.4402  0.3688
  525MPD2    C5 7850   2.245   1.899  14.105 -0.4413 -0.0877 -0.8546
  525MPD2     H 7851   2.572   1.955  14.293  0.1214  1.6970  0.2886
  525MPD2    H1 7852   2.271   2.094  14.021 -0.0943  0.3808  0.9070
  525MPD2    H2 7853   2.238   1.724  14.213 -1.7847  0.7560 -0.2034
  525MPD2    H3 7854   2.152   1.881  14.052 -1.6710  1.9702  0.6624
  525MPD2     N 7855   2.505   2.177  14.136  0.9006  0.3182 -0.1880
  525MPD2    H5 7856   2.448   2.248  14.092 -0.7050 -0.9823 -0.2316
  525MPD2    N1 7857   2.456   1.757  14.369  0.4130 -0.2150  0.9080
  525MPD2    H7 7858   2.554   1.758  14.397  0.8384  4.9798 -0.6274
  526TMC3    C1 7859   2.480   1.550  14.480 -0.1055  0.7463  0.3075
  526TMC3    C2 7860   2.456   1.506  14.606 -0.4526  0.5720  0.1376
  526TMC3    C3 7861   2.546   1.415  14.660 -0.2314 -0.1465  0.3637
  526TMC3    C4 7862   2.591   1.511  14.417 -0.3393 -0.4656 -0.2603
  526TMC3    C5 7863   2.684   1.438  14.478  0.6023  0.4745  0.2919
  526TMC3    C6 7864   2.660   1.382  14.600 -0.0334 -0.0007  0.4106
  526TMC3     C 7865   2.389   1.648  14.419 -0.0607  0.2754  0.1478
  526TMC3     O 7866   2.266   1.630  14.418  0.2927  0.6059 -0.8234
  526TMC3     H 7867   2.371   1.544  14.662 -0.2166  3.0772 -1.2428
  526TMC3    H1 7868   2.606   1.533  14.312 -0.8453  0.0852 -0.2182
  526TMC3    H2 7869   2.739   1.330  14.653  2.8701  1.3721 -2.5586
  526TMC3    C7 7870   2.811   1.389  14.419  0.1561 -0.1548 -1.2021
  526TMC3    C8 7871   2.563   1.426  14.808 -0.2944  0.3672 -0.0198
  526TMC3    O1 7872   2.873   1.305  14.479 -0.0710  0.4744  0.5910
  526TMC3    O2 7873   2.671   1.472  14.845  0.5021 -0.1189  0.8013
  527MPD2     C 7874   0.725   4.430   1.675 -0.2360 -0.8923  0.0277
  527MPD2    C1 7875   0.699   4.484   1.551  0.1455  0.1262 -0.4792
  527MPD2    C2 7876   0.786   4.452   1.446  0.2439 -0.2825  0.3578
  527MPD2    C3 7877   0.889   4.361   1.454  0.8975  1.0078  0.1782
  527MPD2    C4 7878   0.914   4.313   1.581 -0.1839  0.4813  0.2969
  527MPD2    C5 7879   0.830   4.343   1.685  0.0819  0.7849  0.2695
  527MPD2     H 7880   0.777   4.495   1.347 -2.1817 -0.7767  0.3657
  527MPD2    H1 7881   0.989   4.239   1.606  0.0539 -0.0865 -2.1113
  527MPD2    H2 7882   0.660   4.448   1.760  0.7134 -1.1747  0.8123
  527MPD2    H3 7883   0.846   4.302   1.784 -0.5869  0.3281  0.1924
  527MPD2     N 7884   0.962   4.320   1.343  0.7083 -0.2673  0.1246
  527MPD2    H5 7885   0.935   4.364   1.256 -3.1632  1.0613  1.9755
  527MPD2    N1 7886   0.593   4.570   1.514  0.7957 -0.2178  0.3220
  527MPD2    H7 7887   0.589   4.604   1.419  2.0118  0.1405  0.3881
  528TMC3    C1 7888   0.401   4.711   1.548  0.8284 -0.4270 -0.6494
  528TMC3    C2 7889   0.406   4.730   1.417 -0.2415  0.0533  0.4965
  528TMC3    C3 7890   0.340   0.097   1.360  0.2996 -0.6017  0.0474
  528TMC3    C4 7891   0.322   0.052   1.633  0.2121 -0.2903  0.2405
  528TMC3    C5 7892   0.262   0.163   1.569  0.1019  0.2240 -0.1413
  528TMC3    C6 7893   0.259   0.177   1.434 -0.2943  0.3953 -0.2007
  528TMC3     C 7894   0.499   4.621   1.608  0.3353  0.0864  0.1656
  528TMC3     O 7895   0.499   4.620   1.732 -0.1041 -0.3495 -0.2234
  528TMC3     H 7896   0.450   4.654   1.354 -0.1547  1.1203 -0.7351
  528TMC3    H1 7897   0.299   0.023   1.734  2.6138 -0.4068  0.7659
  528TMC3    H2 7898   0.189   0.246   1.389  0.4255  0.0716 -1.8146
  528TMC3    C7 7899   0.196   0.264   1.648  0.8634 -0.0393  0.1724
  528TMC3    C8 7900   0.389   0.137   1.234 -0.7542  0.2278 -0.7868
  528TMC3    O1 7901   0.118   0.342   1.594  0.1213  0.6374  0.8181
  528TMC3    O2 7902   0.475   0.072   1.176  0.1362 -0.1146  0.0772
  529MPD2     C 7903   3.103   3.166   0.910  0.1915  0.5592 -0.2603
  529MPD2    C1 7904   3.057   3.042   0.875  0.4462  0.5505 -1.0175
  529MPD2    C2 7905   3.021   3.019   0.737 -0.0852  0.5309  0.4922
  529MPD2    C3 7906   3.026   3.123   0.651  0.2264 -0.9869 -0.6403
  529MPD2    C4 7907   3.068   3.246   0.694 -0.4638  1.3603 -0.5235
  529MPD2    C5 7908   3.109   3.269   0.819  1.1191  0.5788  0.0656
  529MPD2     H 7909   2.997   2.917   0.709 -1.9835  1.3623 -0.9048
  529MPD2    H1 7910   3.067   3.332   0.628  0.1608  2.5714  1.0226
  529MPD2    H2 7911   3.132   3.188   1.012  2.1382  0.1203 -0.7220
  529MPD2    H3 7912   3.147   3.361   0.861  0.5095  0.9974 -0.3106
  529MPD2     N 7913   2.993   3.117   0.512  0.7337  0.0125 -0.3568
  529MPD2    H5 7914   3.030   3.188   0.448  0.4851  1.2429  0.8677
  529MPD2    N1 7915   3.055   2.931   0.966  0.8074 -0.2034  0.3587
  529MPD2    H7 7916   3.001   2.850   0.938 -0.2356  1.0996 -1.4447
  530TMC3    C1 7917   3.101   2.795   1.156  0.4551  0.0841  0.7485
  530TMC3    C2 7918   3.108   2.683   1.075  0.4438 -0.6545  0.1938
  530TMC3    C3 7919   3.153   2.568   1.137 -0.2276  0.2941  0.1350
  530TMC3    C4 7920   3.121   2.793   1.295  1.0654  0.1664 -0.0813
  530TMC3    C5 7921   3.149   2.674   1.351 -0.1038 -0.1452  0.0989
  530TMC3    C6 7922   3.177   2.563   1.271  0.0971 -0.5778 -0.2957
  530TMC3     C 7923   3.108   2.929   1.091  0.1342  0.3362  0.3956
  530TMC3     O 7924   3.181   3.007   1.149 -0.1568 -0.4838 -0.0074
  530TMC3     H 7925   3.080   2.673   0.971 -2.2385  0.1489  0.8506
  530TMC3    H1 7926   3.133   2.882   1.355  0.1054  0.8005 -0.8324
  530TMC3    H2 7927   3.195   2.467   1.319  1.0411  0.5004  1.5056
  530TMC3    C7 7928   3.202   2.679   1.494 -0.7010  0.4504 -0.0507
  530TMC3    C8 7929   3.163   2.453   1.054 -0.0609 -0.2102  0.0755
  530TMC3    O1 7930   3.223   2.790   1.543 -0.3515 -0.2992 -0.5064
  530TMC3    O2 7931   3.093   2.445   0.954  0.3547  0.0420 -0.1150
  531MPD2     C 7932   1.853   0.428  13.071 -0.0277  0.0333 -0.1349
  531MPD2    C1 7933   1.736   0.453  13.147  0.0625 -0.3264 -0.9240
  531MPD2    C2 7934   1.603   0.443  13.090 -0.6767  0.3235  0.3730
  531MPD2    C3 7935   1.597   0.435  12.948 -0.2868 -0.5946  0.1280
  531MPD2    C4 7936   1.708   0.405  12.874 -0.5890 -0.8350  0.1372
  531MPD2    C5 7937   1.837   0.398  12.938 -0.7175  0.5670 -0.8128
  531MPD2     H 7938   1.511   0.446  13.147 -1.9011 -2.3139 -1.4725
  531MPD2    H1 7939   1.700   0.398  12.766  1.0725  2.9830 -0.2508
  531MPD2    H2 7940   1.957   0.433  13.101  0.4969 -3.3334 -1.3606
  531MPD2    H3 7941   1.924   0.374  12.878 -0.6879 -1.6390  0.0866
  531MPD2     N 7942   1.471   0.464  12.894 -0.3710 -0.1196 -0.3849
  531MPD2    H5 7943   1.398   0.484  12.963  0.6889 -0.7216  0.9186
  531MPD2    N1 7944   1.757   0.486  13.283  0.2420  0.0683  0.1238
  531MPD2    H7 7945   1.853   0.489  13.316  0.2013 -0.4915  0.2994
  532TMC3    C1 7946   1.702   0.538  13.508  0.2635 -0.1946 -0.5129
  532TMC3    C2 7947   1.587   0.548  13.589 -0.2370  0.5592  0.5171
  532TMC3    C3 7948   1.577   0.663  13.670 -0.2063  0.1628  0.0519
  532TMC3    C4 7949   1.814   0.612  13.523 -0.7802  0.2981  0.2740
  532TMC3    C5 7950   1.803   0.713  13.615 -0.3403 -0.3925 -0.1022
  532TMC3    C6 7951   1.682   0.744  13.678 -0.3840 -0.0584  0.0498
  532TMC3     C 7952   1.656   0.507  13.370  0.4004  0.0212 -0.3311
  532TMC3     O 7953   1.536   0.483  13.364  0.2022  0.1560 -0.4267
  532TMC3     H 7954   1.502   0.482  13.580 -0.4067  0.9474 -0.7577
  532TMC3    H1 7955   1.895   0.587  13.455 -0.1444  0.0727  1.1201
  532TMC3    H2 7956   1.676   0.841  13.726  1.1853 -1.1074  2.3724
  532TMC3    C7 7957   1.911   0.805  13.621  0.1846  0.1608 -0.1532
  532TMC3    C8 7958   1.458   0.738  13.645 -0.4949  0.3245 -0.6509
  532TMC3    O1 7959   1.882   0.921  13.652  0.6278 -0.1262  0.0307
  532TMC3    O2 7960   1.448   0.844  13.706  0.8006  0.0320  0.1630
  533TMC3    C1 7961   2.663   2.354  14.157  0.4842 -0.2800 -0.2934
  533TMC3    C2 7962   2.796   2.380  14.172 -0.9162  0.2806 -0.3944
  533TMC3    C3 7963   2.835   2.509  14.191  0.3321 -0.2138  0.6735
  533TMC3    C4 7964   2.565   2.451  14.179  0.0962  0.0862 -0.4052
  533TMC3    C5 7965   2.607   2.579  14.210  0.5757 -0.4280  0.2442
  533TMC3    C6 7966   2.743   2.609  14.218 -0.0082  0.4379 -0.0323
  533TMC3     C 7967   2.631   2.208  14.174 -0.3752  0.6433 -0.3410
  533TMC3     O 7968   2.718   2.137  14.218 -0.6860  0.3428  0.3289
  533TMC3     H 7969   2.873   2.304  14.162 -2.3570 -1.4234  1.5972
  533TMC3    H1 7970   2.461   2.425  14.166  0.6458 -1.8955 -0.9195
  533TMC3    H2 7971   2.775   2.701  14.265  0.5070  0.9413 -1.3860
  533TMC3    C7 7972   2.553   2.625  14.336  0.0793 -1.1325  0.0046
  533TMC3    C8 7973   2.961   2.516  14.259 -0.4445 -0.3841  0.3742
  533TMC3    O1 7974   2.564   2.743  14.365 -0.5282 -0.2177 -0.2291
  533TMC3    O2 7975   3.001   2.415  14.319  0.4253  0.8167 -0.2636
  534MPD2     C 7976   1.108   2.630   1.304  0.3375  0.1182  0.2038
  534MPD2    C1 7977   1.064   2.758   1.279  0.7845  0.4531 -0.1063
  534MPD2    C2 7978   0.941   2.778   1.227 -0.6120 -0.2263 -0.4116
  534MPD2    C3 7979   0.849   2.674   1.210  0.0958 -0.8013 -0.1879
  534MPD2    C4 7980   0.892   2.549   1.240  0.1261 -0.2839 -0.8209
  534MPD2    C5 7981   1.023   2.526   1.284  0.4077 -0.7856  0.0085
  534MPD2     H 7982   0.906   2.881   1.219 -1.8044 -0.6830 -1.0836
  534MPD2    H1 7983   0.825   2.464   1.233 -2.0821  1.3609  0.1352
  534MPD2    H2 7984   1.202   2.608   1.353 -0.0677  1.4709  1.5726
  534MPD2    H3 7985   1.054   2.424   1.303  1.7703 -1.1596 -4.0157
  534MPD2     N 7986   0.713   2.692   1.166  0.1272  0.5476 -0.1487
  534MPD2    H5 7987   0.650   2.612   1.160  0.3970  0.3473 -0.3379
  534MPD2    N1 7988   1.141   2.875   1.308 -0.0343 -0.0238  0.1209
  534MPD2    H7 7989   1.102   2.967   1.288  0.4008 -0.0747 -0.9368
  535TMC3    C1 7990   0.549   2.793   1.034 -0.0142  0.6534  0.2961
  535TMC3    C2 7991   0.452   2.714   1.088 -1.0195  0.4655  0.3505
  535TMC3    C3 7992   0.350   2.677   1.002  0.1702  0.0537  0.9638
  535TMC3    C4 7993   0.536   2.844   0.905  0.1496  0.2198  1.3161
  535TMC3    C5 7994   0.434   2.806   0.832 -0.0644  0.3167  0.2444
  535TMC3    C6 7995   0.340   2.709   0.874  0.7369  0.0492  0.2665
  535TMC3     C 7996   0.668   2.811   1.107  0.0636 -0.2022 -0.1471
  535TMC3     O 7997   0.720   2.917   1.085 -0.1376 -0.4668  0.1528
  535TMC3     H 7998   0.448   2.678   1.190  1.1089 -2.9518 -0.7590
  535TMC3    H1 7999   0.622   2.900   0.871 -1.2676  1.0053 -1.0456
  535TMC3    H2 8000   0.270   2.666   0.804  0.1348 -0.1564  0.9959
  535TMC3    C7 8001   0.460   2.810   0.690  0.0759 -0.2546 -0.4707
  535TMC3    C8 8002   0.222   2.666   1.062  0.3067 -0.1349  0.0995
  535TMC3    O1 8003   0.426   2.713   0.621 -0.0717  0.3572 -0.2535
  535TMC3    O2 8004   0.126   2.644   0.989  0.0219  0.5688  0.2128
  536MPD2     C 8005   4.200   1.296  16.251  0.5918 -0.4404 -0.1286
  536MPD2    C1 8006   4.077   1.244  16.286 -0.1194  0.9013  1.1669
  536MPD2    C2 8007   3.962   1.271  16.216 -0.1472 -0.1219 -0.3054
  536MPD2    C3 8008   3.975   1.351  16.106 -0.4335  0.1060 -0.2023
  536MPD2    C4 8009   4.096   1.395  16.057  0.2251  0.3654 -0.0297
  536MPD2    C5 8010   4.210   1.358  16.125  0.1773 -0.1944  0.5023
  536MPD2     H 8011   3.873   1.217  16.247 -0.5227 -0.2322 -1.5898
  536MPD2    H1 8012   4.102   1.436  15.957 -2.7053 -0.1075 -0.3776
  536MPD2    H2 8013   4.290   1.274  16.307 -0.8224 -2.4528  1.3385
  536MPD2    H3 8014   4.309   1.369  16.083  0.9373  1.2293  2.6523
  536MPD2     N 8015   3.856   1.382  16.031 -0.0608 -0.4233  0.2538
  536MPD2    H5 8016   3.872   1.421  15.939 -1.5476  0.8076  0.5097
  536MPD2    N1 8017   4.074   1.161  16.394 -0.1832  0.5427 -0.1430
  536MPD2    H7 8018   4.146   1.175  16.464 -1.0864 -0.7062  1.0246
  537TMC3    C1 8019   3.972   1.000  16.530  0.5453  0.3148  0.3922
  537TMC3    C2 8020   3.978   1.083  16.638  0.3560 -0.0848  0.6969
  537TMC3    C3 8021   3.926   1.043  16.754  0.4280 -0.3225 -0.8354
  537TMC3    C4 8022   3.886   0.900  16.532 -0.1910  0.1841 -0.3960
  537TMC3    C5 8023   3.828   0.864  16.657  0.2955 -0.6332 -0.4270
  537TMC3    C6 8024   3.862   0.925  16.770  1.2956  0.5940 -0.7785
  537TMC3     C 8025   3.985   1.056  16.402 -0.3984 -0.0830  0.7332
  537TMC3     O 8026   3.927   1.006  16.308  0.3698 -0.2173 -0.2655
  537TMC3     H 8027   4.023   1.181  16.642 -1.0279  0.4685  2.6041
  537TMC3    H1 8028   3.845   0.852  16.445 -0.1590 -0.9010  0.1945
  537TMC3    H2 8029   3.820   0.897  16.866  0.8899  0.8983 -0.8647
  537TMC3    C7 8030   3.760   0.731  16.665 -0.0712  0.2162 -0.1934
  537TMC3    C8 8031   3.896   1.143  16.854 -0.3218 -0.0137  0.4009
  537TMC3    O1 8032   3.732   0.686  16.558 -0.1252  0.3596  0.2407
  537TMC3    O2 8033   3.904   1.108  16.969 -0.0379  0.3622 -0.6710
  538TMC3    C1 8034   0.098   4.721  11.072  0.0503 -0.2285  0.2453
  538TMC3    C2 8035   0.231   4.733  11.098  0.4968 -0.2612  0.5900
  538TMC3    C3 8036   0.295   0.111  11.071  0.6956  0.2540 -0.6845
  538TMC3    C4 8037   0.031   0.073  11.003 -0.0538 -0.2509 -0.1254
  538TMC3    C5 8038   0.097   0.185  10.966 -0.0987 -0.7701 -0.1937
  538TMC3    C6 8039   0.231   0.201  10.992 -0.1086 -0.5028 -0.5252
  538TMC3     C 8040   0.015   4.630  11.149 -0.8351  0.4586  0.0120
  538TMC3     O 8041   4.636   4.605  11.109  0.0334  0.2701 -0.3589
  538TMC3     H 8042   0.294   4.670  11.159 -0.7875  0.2831  2.4852
  538TMC3    H1 8043   4.663   0.057  10.980 -0.8348  2.2324  1.6924
  538TMC3    H2 8044   0.268   0.300  10.969 -0.7225 -0.0623  0.3347
  538TMC3    C7 8045   0.020   0.295  10.927  0.2044  0.4002 -0.3445
  538TMC3    C8 8046   0.442   0.123  11.076 -0.4291 -0.2428  0.5494
  538TMC3    O1 8047   4.654   0.275  10.861 -0.8026  0.3619  0.1204
  538TMC3    O2 8048   0.503   0.020  11.040  0.1463  0.4415  0.1701
  539MPD2     C 8049   4.433   4.025  11.649  1.0864 -0.4787 -0.0858
  539MPD2    C1 8050   4.479   4.057  11.520  0.1653 -0.3409 -0.3363
  539MPD2    C2 8051   4.404   4.150  11.444  0.3279 -0.0911 -0.4441
  539MPD2    C3 8052   4.279   4.200  11.494 -0.5825 -0.9565  0.5720
  539MPD2    C4 8053   4.236   4.162  11.617 -0.1644 -0.7171  0.1671
  539MPD2    C5 8054   4.311   4.074  11.691  0.0651 -0.2332 -0.0922
  539MPD2     H 8055   4.448   4.169  11.347  1.0114 -1.0758 -0.3280
  539MPD2    H1 8056   4.140   4.198  11.651 -0.0767  0.3321 -0.6913
  539MPD2    H2 8057   4.480   3.949  11.710  0.5113 -1.9068 -1.4186
  539MPD2    H3 8058   4.280   4.020  11.780  1.4941 -0.7383  0.1101
  539MPD2     N 8059   4.211   4.313  11.441  0.6306 -0.1030 -0.1445
  539MPD2    H5 8060   4.151   4.361  11.506  1.3189  1.5446 -0.7383
  539MPD2    N1 8061   4.598   3.996  11.472  0.3802  0.1440  0.4966
  539MPD2    H7 8062   4.619   4.022  11.376  0.8044 -1.2745  0.2074
  540TMC3    C1 8063   4.229   4.524  11.333 -0.1381  0.0162 -0.2752
  540TMC3    C2 8064   4.282   4.591  11.231 -0.4351  0.6459 -0.5454
  540TMC3    C3 8065   4.318   4.722  11.245  0.1820 -0.0349  0.0952
  540TMC3    C4 8066   4.224   4.579  11.459  1.2929  0.0811 -0.5777
  540TMC3    C5 8067   4.273   4.709  11.474  0.1364  0.6524  0.3857
  540TMC3    C6 8068   4.322   0.049  11.368 -0.3345  0.5459 -0.2041
  540TMC3     C 8069   4.263   4.378  11.331 -0.0756 -0.5321  0.1330
  540TMC3     O 8070   4.333   4.334  11.243 -0.8607 -0.2593 -0.2126
  540TMC3     H 8071   4.280   4.535  11.138 -0.6054  0.7766 -0.6227
  540TMC3    H1 8072   4.184   4.539  11.552  1.0058 -0.0989 -0.7806
  540TMC3    H2 8073   4.321   0.157  11.376  1.3924  0.5858 -0.5007
  540TMC3    C7 8074   4.255   0.040  11.598 -0.5627 -0.3307 -0.3826
  540TMC3    C8 8075   4.334   0.073  11.126 -0.5727 -0.5597 -0.6146
  540TMC3    O1 8076   4.167   4.721  11.666 -0.5383  0.1234 -0.1772
  540TMC3    O2 8077   4.303   0.191  11.135  0.0220  0.3720 -0.4917
  541MPD2     C 8078   3.261   0.915  13.427  0.3507  0.5269  0.4204
  541MPD2    C1 8079   3.277   0.831  13.326  0.0853 -1.0612  0.1540
  541MPD2    C2 8080   3.294   0.889  13.199 -0.5085 -0.5154 -0.3248
  541MPD2    C3 8081   3.295   1.019  13.169 -0.9159  0.1976 -0.0008
  541MPD2    C4 8082   3.275   1.100  13.277  0.9544 -0.5625  0.0739
  541MPD2    C5 8083   3.260   1.047  13.403  0.0187 -0.3302  0.1121
  541MPD2     H 8084   3.310   0.832  13.108 -2.0857 -1.3097 -0.0924
  541MPD2    H1 8085   3.272   1.208  13.265  1.1064 -0.7038 -1.2723
  541MPD2    H2 8086   3.232   0.868  13.521  0.2097 -1.6302 -0.7004
  541MPD2    H3 8087   3.241   1.116  13.484  0.4251  0.0371 -0.1099
  541MPD2     N 8088   3.308   1.074  13.038 -0.1483  0.4955  0.4172
  541MPD2    H5 8089   3.287   1.173  13.036 -2.3156  0.0531  1.8663
  541MPD2    N1 8090   3.290   0.688  13.344 -0.5946 -0.8464 -0.0335
  541MPD2    H7 8091   3.340   0.639  13.271  3.1620  0.9139  1.3489
  542TMC3    C1 8092   3.306   1.082  12.801  0.2661 -0.6482 -0.3695
  542TMC3    C2 8093   3.362   1.031  12.685  0.2999  0.2650  0.2821
  542TMC3    C3 8094   3.298   1.056  12.566 -0.0022 -0.7082  0.2900
  542TMC3    C4 8095   3.187   1.142  12.802 -0.0612  0.2127 -0.5297
  542TMC3    C5 8096   3.117   1.158  12.684  1.1731  0.7939  0.5756
  542TMC3    C6 8097   3.181   1.127  12.564  0.6043  1.1298  0.0737
  542TMC3     C 8098   3.343   1.009  12.918  0.4629  0.6730  0.2790
  542TMC3     O 8099   3.413   0.907  12.903  0.2673 -0.0480 -0.0209
  542TMC3     H 8100   3.461   0.985  12.686 -0.3047 -1.0438 -0.2948
  542TMC3    H1 8101   3.149   1.180  12.897 -0.9105 -0.6345 -0.5282
  542TMC3    H2 8102   3.128   1.143  12.471 -3.1735 -2.0212  1.6610
  542TMC3    C7 8103   3.016   1.255  12.687  0.0130  0.4056  0.1470
  542TMC3    C8 8104   3.331   0.978  12.444  0.3042 -0.4138 -0.8830
  542TMC3    O1 8105   3.022   1.346  12.769  0.2681 -0.2262 -0.2943
  542TMC3    O2 8106   3.277   1.022  12.342 -0.7708  0.6229 -0.4980
  543TMC3    C1 8107   2.647   2.324  17.108  0.0356  0.9154 -0.1545
  543TMC3    C2 8108   2.644   2.200  17.175 -0.8777  0.0651  0.8186
  543TMC3    C3 8109   2.566   2.193  17.288  0.7947  0.4183 -0.2629
  543TMC3    C4 8110   2.582   2.433  17.145 -0.5200  0.2431  0.5682
  543TMC3    C5 8111   2.513   2.414  17.266  0.4005  0.2701 -0.2800
  543TMC3    C6 8112   2.507   2.300  17.335 -0.4229 -0.2664  0.0770
  543TMC3     C 8113   2.697   2.322  16.975 -0.6197  0.4574  0.1441
  543TMC3     O 8114   2.753   2.219  16.947  0.0463 -0.2179  0.4788
  543TMC3     H 8115   2.700   2.113  17.143  1.5228  1.5495  0.9971
  543TMC3    H1 8116   2.611   2.529  17.104 -1.6644 -0.1083 -1.0850
  543TMC3    H2 8117   2.443   2.298  17.422  0.3687 -1.2981  0.6408
  543TMC3    C7 8118   2.491   2.540  17.334  0.5328 -0.0471  0.5438
  543TMC3    C8 8119   2.523   2.061  17.316 -0.1965 -0.7915  0.1179
  543TMC3    O1 8120   2.525   2.547  17.448  0.5886 -0.3040  0.1741
  543TMC3    O2 8121   2.543   1.981  17.229 -0.7420  0.6191 -0.2533
  544MPD2     C 8122   2.385   1.685  17.636  0.3012  0.1583 -0.2007
  544MPD2    C1 8123   2.417   1.678  17.505 -0.2022  0.9804 -0.0032
  544MPD2    C2 8124   2.433   1.794  17.435  0.6095  0.3786 -1.3036
  544MPD2    C3 8125   2.431   1.919  17.496  0.3888  0.2643  0.1761
  544MPD2    C4 8126   2.404   1.919  17.634 -0.1857  0.7119 -0.6747
  544MPD2    C5 8127   2.382   1.806  17.698 -0.2658  0.6176  0.5986
  544MPD2     H 8128   2.470   1.786  17.333 -0.2054  0.3910 -1.5985
  544MPD2    H1 8129   2.409   2.009  17.694  0.6331  0.1751  0.0440
  544MPD2    H2 8130   2.352   1.594  17.685  0.7558 -0.3251 -0.7902
  544MPD2    H3 8131   2.367   1.803   0.061 -2.2346  0.7290  0.3282
  544MPD2     N 8132   2.464   2.048  17.441 -0.2230 -0.3266 -0.4856
  544MPD2    H5 8133   2.471   2.118  17.513 -1.3101 -1.5352  0.7822
  544MPD2    N1 8134   2.435   1.547  17.452 -0.3753 -0.3984 -0.0079
  544MPD2    H7 8135   2.442   1.471  17.519 -2.0176 -0.5557 -0.0074
  545TMC3    C1 8136   2.443   1.380  17.304 -0.7327 -0.3930 -0.3147
  545TMC3    C2 8137   2.491   1.341  17.180  0.8040 -0.3213  0.5390
  545TMC3    C3 8138   2.555   1.226  17.174 -0.1443 -1.0879 -0.2492
  545TMC3    C4 8139   2.435   1.293  17.411  0.1488  0.1774 -0.4735
  545TMC3    C5 8140   2.495   1.173  17.393  1.0349  0.1894 -0.1903
  545TMC3    C6 8141   2.555   1.135  17.276  0.2535 -0.2792 -0.3242
  545TMC3     C 8142   2.422   1.517  17.318 -0.8300 -0.1499 -0.3225
  545TMC3     O 8143   2.399   1.585  17.219  0.8077  0.2410  0.1151
  545TMC3     H 8144   2.510   1.417  17.105 -0.7378  0.1815  0.6541
  545TMC3    H1 8145   2.377   1.316  17.499 -0.7278 -0.3445 -0.9058
  545TMC3    H2 8146   2.602   1.037  17.269 -0.3111 -0.5929  0.2132
  545TMC3    C7 8147   2.514   1.101  17.517 -0.0335  0.5943 -0.1078
  545TMC3    C8 8148   2.623   1.188  17.058  0.1751 -0.2148 -0.1376
  545TMC3    O1 8149   2.469   1.156  17.618  0.3790 -0.8873  0.1923
  545TMC3    O2 8150   2.571   1.205  16.950  0.0539 -0.4895  0.2315
  546MPD2     C 8151   3.739   1.674  17.629  0.0041 -0.1165 -0.5316
  546MPD2    C1 8152   3.747   1.739  17.511  0.3532  0.6938 -0.1245
  546MPD2    C2 8153   3.831   1.844  17.496  0.4339  0.2025  0.7178
  546MPD2    C3 8154   3.908   1.880  17.610 -0.5231 -0.7537  0.0810
  546MPD2    C4 8155   3.894   1.817  17.733 -0.2307  0.5699  0.6198
  546MPD2    C5 8156   3.805   1.713  17.741 -0.3740  0.0338  0.0097
  546MPD2     H 8157   3.838   1.897  17.402 -0.2526  0.3404  0.7497
  546MPD2    H1 8158   3.948   1.850   0.076 -1.3018  0.9429  1.1429
  546MPD2    H2 8159   3.659   1.601  17.634  1.0067 -1.2879 -1.5581
  546MPD2    H3 8160   3.779   1.670   0.093 -1.6134  3.2325  1.0974
  546MPD2     N 8161   3.999   1.982  17.613 -0.2018 -0.4415 -0.3555
  546MPD2    H5 8162   4.019   2.020  17.705  2.2151 -1.1004 -0.5979
  546MPD2    N1 8163   3.656   1.693  17.413 -0.2335  0.0257 -0.4860
  546MPD2    H7 8164   3.598   1.611  17.432 -0.7101  0.4522 -0.1174
  547TMC3    C1 8165   3.563   1.653  17.201 -0.5629 -0.1792  0.1295
  547TMC3    C2 8166   3.509   1.710  17.091 -0.0683  0.3961  0.7111
  547TMC3    C3 8167   3.480   1.617  16.993  0.1690 -0.3338 -0.2022
  547TMC3    C4 8168   3.574   1.518  17.225 -1.0447 -0.3528  0.3257
  547TMC3    C5 8169   3.522   1.437  17.136  0.6426 -0.2970 -0.0510
  547TMC3    C6 8170   3.481   1.483  17.015 -0.0874  0.1016  0.4034
  547TMC3     C 8171   3.649   1.737  17.283 -0.1293  0.7798  0.2723
  547TMC3     O 8172   3.682   1.846  17.240 -0.3624 -0.0269 -0.0130
  547TMC3     H 8173   3.501   1.818  17.079  0.3066  0.2697 -0.6970
  547TMC3    H1 8174   3.612   1.486  17.322 -0.0480  0.8705  0.3482
  547TMC3    H2 8175   3.434   1.418  16.942  2.1044 -0.2274 -0.7263
  547TMC3    C7 8176   3.531   1.300  17.171 -0.0037  0.2594 -0.2162
  547TMC3    C8 8177   3.423   1.662  16.870 -0.0887  0.3815 -0.1342
  547TMC3    O1 8178   3.548   1.278  17.290  0.2850 -0.1125  0.7532
  547TMC3    O2 8179   3.391   1.779  16.866 -0.4517 -0.2082 -0.2812
  548MPD2     C 8180   3.570   2.534  12.468  0.1299 -0.3435  0.0737
  548MPD2    C1 8181   3.533   2.431  12.557  1.0117 -0.2259 -0.1082
  548MPD2    C2 8182   3.628   2.325  12.558  0.5228 -0.8307  0.1765
  548MPD2    C3 8183   3.747   2.325  12.490 -0.4059  0.0326 -0.1562
  548MPD2    C4 8184   3.773   2.431  12.409 -0.6110  0.3332 -0.3943
  548MPD2    C5 8185   3.685   2.535  12.394 -0.0274 -0.0065  0.1217
  548MPD2     H 8186   3.600   2.245  12.626  0.4907 -1.0985 -0.1482
  548MPD2    H1 8187   3.861   2.431  12.345  0.7245  1.4347  1.4434
  548MPD2    H2 8188   3.507   2.622  12.462  1.3850  0.5558 -0.0931
  548MPD2    H3 8189   3.716   2.615  12.327  0.0329 -0.3098 -0.2112
  548MPD2     N 8190   3.824   2.204  12.494 -0.1859 -0.2704  0.2338
  548MPD2    H5 8191   3.805   2.135  12.566 -1.7234 -0.4298 -0.3216
  548MPD2    N1 8192   3.405   2.441  12.628  0.5973  0.3013 -0.3083
  548MPD2    H7 8193   3.339   2.517  12.614  0.8481  0.3834 -1.0786
  549TMC3    C1 8194   3.223   2.393  12.769 -0.2030 -0.7356  0.2784
  549TMC3    C2 8195   3.176   2.518  12.735  0.1345 -0.7288  0.7497
  549TMC3    C3 8196   3.041   2.536  12.736  0.6428  0.1467  0.8093
  549TMC3    C4 8197   3.139   2.289  12.796  0.0732  0.2049  0.6300
  549TMC3    C5 8198   3.008   2.318  12.787  0.2220  0.1241 -0.3624
  549TMC3    C6 8199   2.955   2.441  12.764  0.5334  0.1297 -0.6341
  549TMC3     C 8200   3.356   2.356  12.729  0.4611 -0.7401 -0.4380
  549TMC3     O 8201   3.409   2.257  12.782 -0.1097 -0.4267  0.1356
  549TMC3     H 8202   3.250   2.594  12.710  0.0909 -0.1951  2.2793
  549TMC3    H1 8203   3.177   2.191  12.820 -0.3241 -0.6681 -2.3078
  549TMC3    H2 8204   2.847   2.448  12.753  0.3084 -0.9986  0.9508
  549TMC3    C7 8205   2.913   2.211  12.811  0.3352 -0.3586 -0.1360
  549TMC3    C8 8206   2.987   2.668  12.709 -0.6766 -1.1313 -0.1012
  549TMC3    O1 8207   2.803   2.236  12.857 -0.0375  0.3468 -0.6469
  549TMC3    O2 8208   2.865   2.675  12.697 -0.4031 -0.0199  0.3540
  550TMC3    C1 8209   2.992   0.569  12.395  0.7162  0.1585 -0.1817
  550TMC3    C2 8210   2.964   0.556  12.526 -0.2554 -0.0573  0.2090
  550TMC3    C3 8211   2.973   0.666  12.606  0.0844 -0.2137  1.0687
  550TMC3    C4 8212   3.008   0.693  12.336 -0.0049  0.2659 -0.0897
  550TMC3    C5 8213   3.017   0.800  12.418 -0.3307 -0.6122 -0.2463
  550TMC3    C6 8214   3.015   0.785  12.555 -0.3202 -0.1169  0.3008
  550TMC3     C 8215   2.954   0.455  12.310  0.9446 -0.2756 -0.7106
  550TMC3     O 8216   3.036   0.387  12.247  0.0172 -0.0483  0.0757
  550TMC3     H 8217   2.929   0.455  12.547  2.5545 -1.4168 -1.6407
  550TMC3    H1 8218   3.011   0.700  12.228  1.9165 -1.3835 -0.1302
  550TMC3    H2 8219   3.014   0.869  12.623 -0.9890  0.7974 -0.8514
  550TMC3    C7 8220   2.957   0.923  12.373 -0.2560  0.2455  0.6460
  550TMC3    C8 8221   2.857   0.674  12.688  0.0156 -0.2674  0.0543
  550TMC3    O1 8222   2.899   0.989  12.459 -0.0670 -0.0385  0.1760
  550TMC3    O2 8223   2.808   0.570  12.732  0.4692  0.6940 -0.0152
  551TMC3    C1 8224   0.064   2.932  13.250 -0.2704 -0.1137  0.3929
  551TMC3    C2 8225   0.179   2.869  13.216 -0.0422  0.4584 -0.0667
  551TMC3    C3 8226   0.290   2.909  13.285  0.4153  0.4275 -0.3548
  551TMC3    C4 8227   0.046   3.016  13.359  0.0043 -0.2357 -0.2358
  551TMC3    C5 8228   0.160   3.049  13.421  0.3631 -0.4393 -0.1279
  551TMC3    C6 8229   0.280   2.996  13.386 -0.0062 -0.3243  0.2171
  551TMC3     C 8230   4.693   2.926  13.148 -0.7232  0.3134  0.5359
  551TMC3     O 8231   4.702   2.832  13.069  0.3838 -0.1974 -0.1148
  551TMC3     H 8232   0.186   2.832  13.114  0.5854  3.0753 -0.9785
  551TMC3    H1 8233   4.689   3.061  13.391  0.4576 -0.9925  2.1400
  551TMC3    H2 8234   0.360   3.018  13.457  0.9700  0.2758 -1.0588
  551TMC3    C7 8235   0.167   3.133  13.541 -0.0178  0.1303  0.0680
  551TMC3    C8 8236   0.399   2.940  13.196 -0.5898 -0.5256  0.5675
  551TMC3    O1 8237   0.257   3.119  13.620  0.1367  0.4952  0.2426
  551TMC3    O2 8238   0.431   2.870  13.096  0.1388 -0.5925  0.3277
  552MPD2     C 8239   2.017   0.566  14.375 -0.4516 -0.5778 -1.1910
  552MPD2    C1 8240   2.070   0.443  14.349  0.0756  0.0882 -0.4371
  552MPD2    C2 8241   2.151   0.380  14.442 -0.1695 -0.5215  0.2251
  552MPD2    C3 8242   2.199   0.454  14.549  0.1076 -0.3217  0.0254
  552MPD2    C4 8243   2.147   0.580  14.569  0.1163 -0.5772  0.7821
  552MPD2    C5 8244   2.045   0.626  14.492  0.0234  0.6452  0.0556
  552MPD2     H 8245   2.184   0.278  14.425  3.1910  0.6670 -0.4251
  552MPD2    H1 8246   2.174   0.635  14.659 -0.3869  0.4954  0.2751
  552MPD2    H2 8247   1.961   0.624  14.302 -1.1701 -0.6120 -0.6543
  552MPD2    H3 8248   2.016   0.723  14.530 -1.0690  0.4839 -0.3948
  552MPD2     N 8249   2.298   0.402  14.640 -0.2857 -0.3547  0.2676
  552MPD2    H5 8250   2.341   0.469  14.702 -0.0869  0.9734 -1.3165
  552MPD2    N1 8251   2.062   0.376  14.226  0.7467 -0.4260 -0.1370
  552MPD2    H7 8252   2.111   0.288  14.216  0.9745 -0.3609  0.4103
  553TMC3    C1 8253   1.989   0.343  14.004 -0.1340  0.2394  0.1268
  553TMC3    C2 8254   1.989   0.389  13.874  0.4748 -0.4957 -0.5676
  553TMC3    C3 8255   1.947   0.300  13.775 -0.6088 -0.2334  0.6993
  553TMC3    C4 8256   1.952   0.216  14.033 -0.9341  0.0660  0.3687
  553TMC3    C5 8257   1.936   0.122  13.929 -0.2939  0.4761 -0.5683
  553TMC3    C6 8258   1.921   0.167  13.800  0.0457  0.5453  0.4256
  553TMC3     C 8259   2.009   0.433  14.110 -0.2203 -0.3673 -0.2235
  553TMC3     O 8260   1.996   0.549  14.079  0.1891 -0.1291  0.3981
  553TMC3     H 8261   2.000   0.495  13.854  1.8511 -0.4670  0.3436
  553TMC3    H1 8262   1.956   0.177  14.134 -0.6251 -0.9930 -0.0496
  553TMC3    H2 8263   1.924   0.094  13.720  1.2701 -0.1003  1.0657
  553TMC3    C7 8264   1.971   4.717  13.958 -0.1444 -0.1194  0.2330
  553TMC3    C8 8265   1.996   0.337  13.644  0.1496 -0.0509  0.3736
  553TMC3    O1 8266   1.917   4.628  13.888  0.1872 -0.3083 -0.2064
  553TMC3    O2 8267   2.081   0.424  13.632 -0.0954  0.0637  0.0904
  554TMC3    C1 8268   3.791   4.501  11.667  0.0818 -0.5278 -0.1635
  554TMC3    C2 8269   3.736   4.402  11.591 -0.0270 -0.0299 -0.0957
  554TMC3    C3 8270   3.738   4.419  11.452 -0.0254 -0.2253 -0.6013
  554TMC3    C4 8271   3.842   4.620  11.622  0.0556  0.7341 -0.4980
  554TMC3    C5 8272   3.846   4.620  11.481  0.0776 -0.0580  0.1208
  554TMC3    C6 8273   3.785   4.532  11.400  0.1509 -0.1980  0.0253
  554TMC3     C 8274   3.858   4.451  11.794 -0.0756 -0.7098  0.0864
  554TMC3     O 8275   3.881   4.540  11.876  0.5864  0.2702  0.4167
  554TMC3     H 8276   3.676   4.320  11.627 -0.4298 -1.1658 -3.3493
  554TMC3    H1 8277   3.890   4.696  11.683  0.8122  2.8199 -3.7227
  554TMC3    H2 8278   3.765   4.553  11.296 -1.3258  2.1782  0.8072
  554TMC3    C7 8279   3.874   0.013  11.417  0.0094  0.1017 -0.8255
  554TMC3    C8 8280   3.620   4.369  11.382 -0.5544  0.6921 -0.0266
  554TMC3    O1 8281   3.867   0.020  11.293  0.4543  0.0394 -0.0820
  554TMC3    O2 8282   3.522   4.347  11.451  0.5642  0.6181  0.5602
  555TMC3    C1 8283   3.050   3.821  15.373 -0.3125 -0.5069 -0.1163
  555TMC3    C2 8284   3.133   3.896  15.457 -0.0002 -0.0699 -0.1890
  555TMC3    C3 8285   3.162   3.830  15.577 -0.1361  0.3465 -0.7096
  555TMC3    C4 8286   3.017   3.688  15.407 -0.0076 -0.9147  0.1862
  555TMC3    C5 8287   3.062   3.629  15.519 -0.4271 -0.3344 -0.0482
  555TMC3    C6 8288   3.133   3.701  15.609  0.4719 -0.4426  0.4798
  555TMC3     C 8289   2.991   3.884  15.257  0.9187  0.2809 -0.2638
  555TMC3     O 8290   2.904   3.830  15.198  0.4102  0.4239 -1.0242
  555TMC3     H 8291   3.170   3.996  15.439 -2.4320  1.2237  1.9039
  555TMC3    H1 8292   2.949   3.630  15.347 -0.8366 -0.9250  1.1332
  555TMC3    H2 8293   3.171   3.652  15.698  0.4291  1.5172  1.5764
  555TMC3    C7 8294   3.069   3.485  15.526 -0.0336 -0.0899  0.5495
  555TMC3    C8 8295   3.255   3.906  15.661 -0.4570 -0.0756 -0.4313
  555TMC3    O1 8296   3.088   3.433  15.632 -0.3473  0.1582  0.0830
  555TMC3    O2 8297   3.259   4.026  15.634 -0.5361  0.0499 -0.4086
  556MPD2     C 8298   0.609   1.553  11.216 -0.0014 -0.3424  0.5992
  556MPD2    C1 8299   0.676   1.438  11.248  0.2134 -0.0883  0.2958
  556MPD2    C2 8300   0.654   1.333  11.171  0.1456 -0.7259 -0.4518
  556MPD2    C3 8301   0.576   1.334  11.060  0.2627  0.3945 -0.2293
  556MPD2    C4 8302   0.516   1.453  11.021  0.2437  0.5164  0.0440
  556MPD2    C5 8303   0.537   1.559  11.105 -0.0492 -0.5649  0.0070
  556MPD2     H 8304   0.700   1.241  11.206 -0.4300 -1.2678 -1.1158
  556MPD2    H1 8305   0.462   1.462  10.928 -1.1926 -1.2898  0.7132
  556MPD2    H2 8306   0.611   1.639  11.282 -0.4823 -1.1194  1.6086
  556MPD2    H3 8307   0.483   1.651  11.083 -0.2697 -0.1123  2.3579
  556MPD2     N 8308   0.569   1.216  10.992 -0.8826 -0.5315 -0.8641
  556MPD2    H5 8309   0.606   1.131  11.032  1.3599  1.4430  1.2811
  556MPD2    N1 8310   0.769   1.431  11.353  0.4016  0.0908 -0.3597
  556MPD2    H7 8311   0.815   1.341  11.356 -0.1140 -0.2205 -1.6974
  557TMC3    C1 8312   0.510   1.059  10.828  0.1871 -0.5986 -0.7291
  557TMC3    C2 8313   0.471   1.032  10.702 -0.3711 -0.4230 -0.1892
  557TMC3    C3 8314   0.501   0.908  10.643 -0.3126 -0.1136 -0.5616
  557TMC3    C4 8315   0.584   0.962  10.895  0.1664 -0.8290  0.3124
  557TMC3    C5 8316   0.619   0.844  10.837 -0.0608  0.6967 -0.2161
  557TMC3    C6 8317   0.575   0.818  10.711 -0.4149 -0.2398  0.9049
  557TMC3     C 8318   0.494   1.194  10.874  0.5940  0.3279 -0.3476
  557TMC3     O 8319   0.426   1.267  10.801  0.3566 -0.3009  0.2156
  557TMC3     H 8320   0.421   1.107  10.642 -1.5342 -0.5525  0.6252
  557TMC3    H1 8321   0.629   0.964  10.993  2.4750  0.8215 -0.7893
  557TMC3    H2 8322   0.590   0.722  10.663  2.0379  0.0502  1.0827
  557TMC3    C7 8323   0.627   0.730  10.926  0.0301 -0.3425  0.4014
  557TMC3    C8 8324   0.419   0.864  10.528  0.3896 -0.2190 -0.0075
  557TMC3    O1 8325   0.583   0.735  11.038 -0.3780 -0.0453  0.0534
  557TMC3    O2 8326   0.334   0.947  10.503 -0.1866  0.0685 -0.9001
  558TMC3    C1 8327   3.215   3.342  10.264  0.0992 -0.9357  0.6688
  558TMC3    C2 8328   3.105   3.348  10.341  0.4244 -0.0483 -0.3609
  558TMC3    C3 8329   2.984   3.391  10.284 -0.1238  0.2665 -0.5654
  558TMC3    C4 8330   3.213   3.359  10.126  0.2089 -0.2542 -0.4759
  558TMC3    C5 8331   3.094   3.404  10.078  0.4029  0.5679  0.3619
  558TMC3    C6 8332   2.980   3.416  10.149 -0.1433  0.1176 -0.2784
  558TMC3     C 8333   3.348   3.364  10.320 -0.0991 -0.2757  0.2476
  558TMC3     O 8334   3.436   3.361  10.235  0.1269 -0.0155 -0.1026
  558TMC3     H 8335   3.102   3.326  10.447 -3.5588  2.1023 -0.0259
  558TMC3    H1 8336   3.304   3.360  10.067 -0.1552 -0.4150 -1.0379
  558TMC3    H2 8337   2.891   3.456  10.101  0.2564  1.7357  0.3348
  558TMC3    C7 8338   3.092   3.418   9.933 -0.6939  0.3325  0.3000
  558TMC3    C8 8339   2.869   3.419  10.358  0.1540 -0.2460  0.2184
  558TMC3    O1 8340   3.204   3.403   9.878  0.5806 -0.8334 -0.0378
  558TMC3    O2 8341   2.761   3.424  10.295  0.4308  1.4186  0.2360
  559MPD2     C 8342   3.257   3.678  10.175  0.1747  0.0832 -0.0843
  559MPD2    C1 8343   3.222   3.720  10.302  0.5084 -0.3868  0.8183
  559MPD2    C2 8344   3.317   3.731  10.403  0.6336  0.5760 -0.5896
  559MPD2    C3 8345   3.452   3.721  10.365 -0.0251 -0.5236 -0.1983
  559MPD2    C4 8346   3.485   3.686  10.234 -0.0449  0.1635 -0.5966
  559MPD2    C5 8347   3.388   3.653  10.142 -0.2920  0.7565  0.2404
  559MPD2     H 8348   3.294   3.749  10.507 -1.8487 -0.0921 -1.0218
  559MPD2    H1 8349   3.585   3.690  10.191  0.1033 -0.8935 -0.3547
  559MPD2    H2 8350   3.186   3.658  10.095  1.6044 -0.7542 -1.1420
  559MPD2    H3 8351   3.423   3.621  10.044  0.5521  1.6907  0.2376
  559MPD2     N 8352   3.545   3.741  10.466 -0.1561  0.0307 -0.0272
  559MPD2    H5 8353   3.514   3.763  10.560 -0.7078 -0.6497 -0.0500
  559MPD2    N1 8354   3.087   3.751  10.323  0.3609  0.0464  0.3058
  559MPD2    H7 8355   3.034   3.751  10.236  0.8512  1.5966  0.0042
  560TMC3    C1 8356   3.746   3.709  10.587 -0.3301  0.4626  0.6578
  560TMC3    C2 8357   3.658   3.679  10.694 -1.4548 -0.8739 -0.2178
  560TMC3    C3 8358   3.706   3.706  10.818  0.3742 -0.2004 -0.0844
  560TMC3    C4 8359   3.875   3.752  10.609  0.2481 -0.6157 -0.7361
  560TMC3    C5 8360   3.914   3.788  10.737 -0.2969 -0.4423 -0.0359
  560TMC3    C6 8361   3.834   3.765  10.844 -0.1597 -0.7471  0.0464
  560TMC3     C 8362   3.681   3.708  10.455 -0.2619 -0.1760  0.4228
  560TMC3     O 8363   3.758   3.686  10.363  0.0347  0.3241  0.1647
  560TMC3     H 8364   3.558   3.641  10.681 -1.3876 -0.8834 -0.7178
  560TMC3    H1 8365   3.935   3.775  10.522 -0.0157 -1.3093 -1.1086
  560TMC3    H2 8366   3.874   3.792  10.941 -2.1244 -1.2559  0.9875
  560TMC3    C7 8367   4.057   3.786  10.767 -0.5592  0.3993 -0.5034
  560TMC3    C8 8368   3.615   3.671  10.921 -0.4470  0.0505 -0.1981
  560TMC3    O1 8369   4.121   3.703  10.701 -0.5456 -0.1786  0.3704
  560TMC3    O2 8370   3.495   3.656  10.890  0.1257 -0.3248 -0.3726
  561TMC3    C1 8371   1.295   3.061  11.187 -0.0652  0.2577  0.4181
  561TMC3    C2 8372   1.202   2.994  11.260 -0.3444 -0.0124 -0.9794
  561TMC3    C3 8373   1.173   3.045  11.385  0.5573  0.2968  0.4205
  561TMC3    C4 8374   1.366   3.167  11.241 -0.0513 -0.0022  0.5900
  561TMC3    C5 8375   1.334   3.214  11.368  0.1312  0.0777  1.1483
  561TMC3    C6 8376   1.236   3.154  11.437  0.2084  0.5500 -0.2043
  561TMC3     C 8377   1.338   3.006  11.058  0.6374  0.8492  0.5594
  561TMC3     O 8378   1.251   2.966  10.980  0.0319 -0.4640 -0.5407
  561TMC3     H 8379   1.162   2.902  11.218 -0.9660  0.5404 -1.6045
  561TMC3    H1 8380   1.441   3.217  11.182 -2.0799 -1.0761 -2.8865
  561TMC3    H2 8381   1.218   3.179  11.541  0.3437 -0.9621  0.1955
  561TMC3    C7 8382   1.348   3.359  11.401 -0.9784 -0.1306 -0.7457
  561TMC3    C8 8383   1.117   2.947  11.472  0.5244 -0.6583  0.1834
  561TMC3    O1 8384   1.298   3.399  11.503  0.3908  0.2066 -0.5792
  561TMC3    O2 8385   1.126   2.832  11.440  0.3852  0.1945 -0.1785
  562TMC3    C1 8386   2.832   3.713  16.448 -0.6093  0.3172 -0.0268
  562TMC3    C2 8387   2.785   3.816  16.371 -0.2079  0.5047 -0.2058
  562TMC3    C3 8388   2.720   3.785  16.258  0.3065  0.1092  0.0855
  562TMC3    C4 8389   2.819   3.584  16.410  0.3749  0.0810  0.0729
  562TMC3    C5 8390   2.746   3.553  16.294 -0.0812 -0.2384 -0.7124
  562TMC3    C6 8391   2.696   3.655  16.213  0.8462  1.0647 -0.6519
  562TMC3     C 8392   2.855   3.751  16.587  0.3449  0.7189 -1.1308
  562TMC3     O 8393   2.806   3.857  16.618  0.1948  0.8135  0.6692
  562TMC3     H 8394   2.803   3.920  16.396  1.7046  0.0823  0.1514
  562TMC3    H1 8395   2.871   3.505  16.464  1.0873  0.7439  0.3467
  562TMC3    H2 8396   2.630   3.639  16.129 -0.8412  1.9024  0.5088
  562TMC3    C7 8397   2.734   3.418  16.238 -0.5315 -0.4868 -0.0697
  562TMC3    C8 8398   2.640   3.896  16.206 -0.3783  0.6168  0.3307
  562TMC3    O1 8399   2.658   3.402  16.147 -0.1636 -0.9168 -0.0595
  562TMC3    O2 8400   2.613   3.996  16.272  0.0507 -0.3332  0.0526
  563MPD2     C 8401   0.115   0.391  15.860  0.1495  0.3806 -0.7499
  563MPD2    C1 8402   0.197   0.367  15.966  0.3844 -0.6404  0.1529
  563MPD2    C2 8403   0.335   0.354  15.950 -0.0686 -0.1977  0.3091
  563MPD2    C3 8404   0.390   0.359  15.821  0.2748 -0.4795  0.2228
  563MPD2    C4 8405   0.307   0.379  15.713 -1.0622  0.6021 -0.5316
  563MPD2    C5 8406   0.172   0.389  15.734  0.2301  0.0086  0.1378
  563MPD2     H 8407   0.401   0.332  16.033  1.4124 -1.0714 -1.1035
  563MPD2    H1 8408   0.331   0.386  15.608 -1.1171 -2.8288 -0.7756
  563MPD2    H2 8409   0.008   0.382  15.869  0.4513 -1.3684  1.1902
  563MPD2    H3 8410   0.104   0.394  15.649  1.0993  1.4481 -0.4602
  563MPD2     N 8411   0.522   0.345  15.810 -0.9354  0.0924  0.2015
  563MPD2    H5 8412   0.563   0.347  15.902  0.2135 -1.8720 -0.2652
  563MPD2    N1 8413   0.131   0.346  16.084 -0.7751 -0.4945  0.1510
  563MPD2    H7 8414   0.031   0.328  16.077 -1.0014  0.1218  1.7607
  564TMC3    C1 8415   0.114   0.292  16.316  0.0275 -0.4529  0.4144
  564TMC3    C2 8416   4.732   0.221  16.297  0.3519  0.0744  0.0785
  564TMC3    C3 8417   4.695   0.123  16.392 -0.0100 -0.5367 -0.1658
  564TMC3    C4 8418   0.186   0.271  16.433 -0.2959 -0.4978 -0.1026
  564TMC3    C5 8419   0.150   0.175  16.526 -0.0945 -0.3040  0.0215
  564TMC3    C6 8420   0.022   0.113  16.512  0.2844  0.1348  0.2415
  564TMC3     C 8421   0.192   0.354  16.211  0.3696 -0.2421 -0.6131
  564TMC3     O 8422   0.307   0.384  16.238 -0.6957  0.2448 -0.2150
  564TMC3     H 8423   4.672   0.228  16.207 -2.6658 -2.0121  1.9262
  564TMC3    H1 8424   0.279   0.325  16.451  0.9831 -3.6708  2.8783
  564TMC3    H2 8425   4.729   0.031  16.577  1.2526 -1.3563 -1.1789
  564TMC3    C7 8426   0.264   0.117  16.590 -0.0608  0.0462 -1.1364
  564TMC3    C8 8427   4.572   0.051  16.382 -0.2362 -0.0275  0.3331
  564TMC3    O1 8428   0.369   0.153  16.543 -0.3134  0.0948 -0.7832
  564TMC3    O2 8429   4.516   0.014  16.487 -0.5612 -0.1959 -0.5634
  565TMC3    C1 8430   0.223   1.973  10.792 -0.5191 -0.0729 -0.2008
  565TMC3    C2 8431   0.222   1.935  10.922 -0.0924  0.6108 -0.1654
  565TMC3    C3 8432   0.183   1.804  10.957  0.9448  0.0085 -0.1909
  565TMC3    C4 8433   0.188   1.887  10.692 -0.1744  0.2787 -0.5144
  565TMC3    C5 8434   0.156   1.760  10.726 -0.1419 -0.0573 -1.0943
  565TMC3    C6 8435   0.152   1.716  10.855  0.4293 -0.2136  0.3907
  565TMC3     C 8436   0.284   2.098  10.745  0.1006  0.3600 -0.4032
  565TMC3     O 8437   0.318   2.116  10.630  0.6611  0.2711 -0.1919
  565TMC3     H 8438   0.227   2.006  11.004 -0.8927 -0.2302  0.6101
  565TMC3    H1 8439   0.209   1.919  10.590 -0.2853  2.0043  0.0157
  565TMC3    H2 8440   0.163   1.610  10.874 -1.3894 -0.7995 -1.8497
  565TMC3    C7 8441   0.164   1.656  10.621  0.1017 -0.2328  0.1420
  565TMC3    C8 8442   0.218   1.769  11.090  0.4591  0.1551 -0.3340
  565TMC3    O1 8443   0.227   1.676  10.515  0.6512 -0.2784  0.3100
  565TMC3    O2 8444   0.264   1.855  11.159 -0.3820  0.0630  0.8887
  566MPD2     C 8445   2.521   3.602  14.747  0.0986  0.7428  0.3361
  566MPD2    C1 8446   2.594   3.685  14.667 -0.5648  0.0109 -0.0309
  566MPD2    C2 8447   2.538   3.708  14.545 -0.8801 -0.6842 -0.2893
  566MPD2    C3 8448   2.413   3.669  14.507 -0.0570 -0.1527 -0.4827
  566MPD2    C4 8449   2.341   3.588  14.593  0.1569  0.0876 -1.3058
  566MPD2    C5 8450   2.397   3.553  14.711 -0.6832  0.0581 -0.5674
  566MPD2     H 8451   2.588   3.776  14.477 -0.3006 -2.9710 -2.1359
  566MPD2    H1 8452   2.238   3.556  14.579 -0.6033  0.9552  2.0230
  566MPD2    H2 8453   2.553   3.566  14.845 -1.6837  1.9514  1.3686
  566MPD2    H3 8454   2.345   3.490  14.782 -1.5364  0.6974 -0.6213
  566MPD2     N 8455   2.360   3.710  14.377  0.3813  0.1550 -0.0786
  566MPD2    H5 8456   2.411   3.776  14.319 -0.2298  1.1665  0.5327
  566MPD2    N1 8457   2.732   3.711  14.694  0.1581 -0.3329  0.5727
  566MPD2    H7 8458   2.772   3.683  14.784 -0.4021 -2.8202  0.0553
  567TMC3    C1 8459   2.952   3.772  14.662  0.2035 -0.4950 -0.8341
  567TMC3    C2 8460   3.037   3.833  14.574  0.0972 -0.9352  0.1727
  567TMC3    C3 8461   3.163   3.784  14.561 -0.4292 -0.3098 -0.6963
  567TMC3    C4 8462   2.986   3.658  14.727 -0.5289 -0.3826  0.4013
  567TMC3    C5 8463   3.111   3.611  14.700  0.1170 -0.3193 -0.1156
  567TMC3    C6 8464   3.205   3.672  14.617  0.1596 -0.0133 -0.1857
  567TMC3     C 8465   2.816   3.778  14.616 -0.0396 -0.0250  1.0089
  567TMC3     O 8466   2.799   3.847  14.512 -0.5454  0.4535 -0.5982
  567TMC3     H 8467   3.015   3.932  14.534  0.1639 -1.3762 -0.9231
  567TMC3    H1 8468   2.928   3.607  14.803  0.7172 -0.3544  1.3689
  567TMC3    H2 8469   3.294   3.621  14.581 -1.7184 -2.2166 -1.7355
  567TMC3    C7 8470   3.155   3.477  14.744  0.4416  0.0781 -0.1630
  567TMC3    C8 8471   3.222   3.832  14.438 -0.0582 -0.3337  0.2303
  567TMC3    O1 8472   3.271   3.444  14.723  0.1238 -0.2790  0.2725
  567TMC3    O2 8473   3.217   3.951  14.416 -0.5444  0.5095  0.4038
  568MPD2     C 8474   4.256   3.427  16.615 -0.4864  0.2218  0.4103
  568MPD2    C1 8475   4.282   3.517  16.719  0.3746  0.1595  0.9530
  568MPD2    C2 8476   4.241   3.648  16.701 -0.2889  0.4864  0.6083
  568MPD2    C3 8477   4.177   3.694  16.584  0.1399 -0.0279  0.2746
  568MPD2    C4 8478   4.159   3.603  16.483  0.5975 -0.1315  0.2831
  568MPD2    C5 8479   4.203   3.476  16.497  0.7345  0.5889 -0.8198
  568MPD2     H 8480   4.260   3.723  16.776 -0.9225  2.7800 -1.5479
  568MPD2    H1 8481   4.104   3.635  16.395 -0.5083  1.1651  1.4517
  568MPD2    H2 8482   4.291   3.325  16.626 -0.0310  0.4696  1.2949
  568MPD2    H3 8483   4.182   3.405  16.418 -1.1901  1.5213 -1.1426
  568MPD2     N 8484   4.120   3.821  16.582 -0.4540  0.5265  0.4794
  568MPD2    H5 8485   4.136   3.880  16.663 -0.7823  0.3086  0.6982
  568MPD2    N1 8486   4.341   3.462  16.833  0.0827 -0.1416  0.2387
  568MPD2    H7 8487   4.388   3.374  16.816  0.8686  0.4464 -0.6886
  569TMC3    C1 8488   4.030   4.019  16.508 -0.5211 -0.1342  0.1656
  569TMC3    C2 8489   4.014   4.063  16.636  0.3056 -0.0973  0.0705
  569TMC3    C3 8490   4.036   4.195  16.662 -0.1360 -0.4641 -0.2508
  569TMC3    C4 8491   4.057   4.110  16.413 -0.4676 -0.5374 -0.4148
  569TMC3    C5 8492   4.082   4.242  16.439 -1.0132  0.6303 -0.6259
  569TMC3    C6 8493   4.071   4.285  16.560  0.0352 -1.0801  0.6428
  569TMC3     C 8494   4.071   3.883  16.468  0.3829  0.5145 -0.5075
  569TMC3     O 8495   4.081   3.855  16.351  0.0232  0.0267 -1.1379
  569TMC3     H 8496   3.991   3.999  16.721 -1.2701  0.6655  0.2072
  569TMC3    H1 8497   4.067   4.074  16.311  1.6261 -0.3119 -0.2821
  569TMC3    H2 8498   4.078   4.391  16.584  0.5026 -0.7011 -1.1520
  569TMC3    C7 8499   4.128   4.319  16.331 -0.2671  0.7102  0.1364
  569TMC3    C8 8500   4.033   4.242  16.796 -0.0985  0.2320 -0.4582
  569TMC3    O1 8501   4.094   4.277  16.220  0.2341 -0.4782  0.4784
  569TMC3    O2 8502   3.964   4.186  16.879 -0.9662  0.0090 -0.2568
  570TMC3    C1 8503   4.185   2.539  16.570 -0.3688 -0.9299 -0.4652
  570TMC3    C2 8504   4.212   2.582  16.446  0.2204  0.1420 -0.7583
  570TMC3    C3 8505   4.262   2.714  16.441  0.0636 -0.3278 -0.3187
  570TMC3    C4 8506   4.255   2.590  16.675 -0.0965  0.1046 -0.3992
  570TMC3    C5 8507   4.313   2.718  16.665 -0.3740 -0.5784  0.3824
  570TMC3    C6 8508   4.310   2.787  16.545  0.2675 -0.2918 -0.2630
  570TMC3     C 8509   4.111   2.414  16.576  0.2791  0.0056  0.5745
  570TMC3     O 8510   4.115   2.345  16.478 -0.6970 -0.2923 -0.1735
  570TMC3     H 8511   4.147   2.552  16.365  0.2478  0.0211 -0.7354
  570TMC3    H1 8512   4.244   2.553  16.776  2.6792  0.5979  0.0888
  570TMC3    H2 8513   4.331   2.893  16.541  0.6313 -0.2621  2.5066
  570TMC3    C7 8514   4.332   2.794  16.794 -1.2966  0.5832 -0.1995
  570TMC3    C8 8515   4.271   2.772  16.303 -0.2032 -0.1912  0.2002
  570TMC3    O1 8516   4.357   2.728  16.892  0.0449 -0.1112  0.2644
  570TMC3    O2 8517   4.278   2.898  16.286 -0.0356 -0.3942 -0.4025
  571MPD2     C 8518   2.035   4.489  17.315  0.2387  0.1431  0.2186
  571MPD2    C1 8519   2.033   4.513  17.452 -0.6857 -0.3722  1.0534
  571MPD2    C2 8520   2.096   4.635  17.502 -0.4333 -0.7832  0.5542
  571MPD2    C3 8521   2.156   4.717  17.416  0.1724 -0.3013  0.7241
  571MPD2    C4 8522   2.158   4.687  17.282 -0.6594 -0.6442 -0.0841
  571MPD2    C5 8523   2.112   4.571  17.230 -0.5203 -0.2724 -0.3074
  571MPD2     H 8524   2.101   4.653  17.609  1.3660  1.0390  0.1743
  571MPD2    H1 8525   2.200   0.020  17.210 -0.1623  1.5190  2.2973
  571MPD2    H2 8526   1.985   4.404  17.272  0.6447  0.2443 -0.4550
  571MPD2    H3 8527   2.116   4.560  17.123 -1.6187  0.0657 -0.3837
  571MPD2     N 8528   2.222   0.098  17.459  0.4945 -0.2762  0.1084
  571MPD2    H5 8529   2.276   0.150  17.390 -3.3015  2.3478 -0.9229
  571MPD2    N1 8530   1.977   4.417  17.531 -1.1182  0.0266  0.5613
  571MPD2    H7 8531   1.939   4.334  17.487 -0.2011 -0.7485  1.2173
  572TMC3    C1 8532   2.287   0.282  17.590  0.4854 -0.3404  0.5599
  572TMC3    C2 8533   2.423   0.259  17.578  0.3143  0.4378  0.5547
  572TMC3    C3 8534   2.494   0.329  17.666 -0.5105 -0.8057 -0.6486
  572TMC3    C4 8535   2.235   0.370  17.678  0.8528  0.3715  0.5568
  572TMC3    C5 8536   2.313   0.447   0.012 -0.7093 -0.5098  0.3926
  572TMC3    C6 8537   2.443   0.416   0.017 -0.2279 -0.3183  0.2829
  572TMC3     C 8538   2.202   0.160  17.578 -0.1697  0.1856 -0.0749
  572TMC3     O 8539   2.108   0.145  17.658 -0.1878 -0.6530  0.4926
  572TMC3     H 8540   2.461   0.165  17.541 -0.5912 -0.6362  2.3423
  572TMC3    H1 8541   2.131   0.385  17.653  1.2253  2.2518  0.0646
  572TMC3    H2 8542   2.519   0.473   0.070 -0.2668 -1.7414  1.8851
  572TMC3    C7 8543   2.266   0.575   0.076  0.0303  0.4656  1.0848
  572TMC3    C8 8544   2.628   0.284  17.688 -0.7504 -0.3634 -0.2229
  572TMC3    O1 8545   2.154   0.609   0.047 -0.5033  0.0985 -0.4336
  572TMC3    O2 8546   2.689   0.242  17.588  0.4583  0.0662  0.3735
  573MPD2     C 8547   3.633   0.208   0.366  0.3426 -0.0816 -0.4663
  573MPD2    C1 8548   3.662   0.224   0.231  0.6409 -0.2297 -0.1186
  573MPD2    C2 8549   3.554   0.243   0.145  0.1117  0.5027 -0.2226
  573MPD2    C3 8550   3.425   0.236   0.195 -0.2194 -0.4490  0.6639
  573MPD2    C4 8551   3.400   0.227   0.333  0.3844  0.6321  0.2965
  573MPD2    C5 8552   3.508   0.208   0.414  0.0433  0.4218 -0.2978
  573MPD2     H 8553   3.571   0.272   0.042  0.8664 -0.1684 -0.2845
  573MPD2    H1 8554   3.298   0.229   0.372  0.5236 -3.5139  0.8645
  573MPD2    H2 8555   3.707   0.206   0.445 -2.0411 -0.4255  1.7293
  573MPD2    H3 8556   3.496   0.204   0.522  2.5760 -0.7840 -0.0313
  573MPD2     N 8557   3.315   0.268   0.109 -0.0408  0.2828  0.3487
  573MPD2    H5 8558   3.223   0.273   0.152 -0.4554 -1.0801 -0.3653
  573MPD2    N1 8559   3.801   0.249   0.207  0.2433  0.1231 -0.0938
  573MPD2    H7 8560   3.867   0.266   0.282 -0.6751  1.5499  0.4010
  574TMC3    C1 8561   3.191   0.294  17.652 -0.0027 -0.1979  0.4108
  574TMC3    C2 8562   3.112   0.390  17.703  0.3847 -0.3396  0.3071
  574TMC3    C3 8563   2.990   0.420  17.644  0.0748 -0.6970 -0.1092
  574TMC3    C4 8564   3.167   0.243  17.525 -0.7574 -0.2483  0.1394
  574TMC3    C5 8565   3.061   0.296  17.458 -0.8445  0.8771  0.0177
  574TMC3    C6 8566   2.963   0.371  17.516  0.3096  0.2929  0.5740
  574TMC3     C 8567   3.321   0.267  17.714 -0.3724  0.1916  0.0264
  574TMC3     O 8568   3.413   0.242  17.632 -0.1104  0.7856  0.0578
  574TMC3     H 8569   3.146   0.454   0.038  0.3684  1.5510 -1.2171
  574TMC3    H1 8570   3.237   0.180  17.471 -0.7289 -0.1020  0.0058
  574TMC3    H2 8571   2.866   0.384  17.471  1.0891 -0.3666 -1.3034
  574TMC3    C7 8572   3.018   0.232  17.334 -0.3553 -0.4202 -0.8338
  574TMC3    C8 8573   2.904   0.517  17.707  0.9873  0.2234  0.6107
  574TMC3    O1 8574   3.111   0.215  17.256  1.0137  0.2956 -0.5382
  574TMC3    O2 8575   2.895   0.503   0.084 -0.1991  0.5704 -0.3173
  575TMC3    C1 8576   0.616   1.892  11.847 -0.3748  0.0504  0.0634
  575TMC3    C2 8577   0.716   1.812  11.884 -0.2876 -0.6076 -0.0430
  575TMC3    C3 8578   0.718   1.688  11.830  0.0895 -0.8689 -0.3712
  575TMC3    C4 8579   0.521   1.854  11.755 -0.5928  0.2507 -0.0090
  575TMC3    C5 8580   0.540   1.732  11.695  0.2691 -0.6340 -0.2863
  575TMC3    C6 8581   0.630   1.639  11.735 -1.2102  0.6478  0.0063
  575TMC3     C 8582   0.597   2.026  11.902 -0.0427 -0.0869  0.2128
  575TMC3     O 8583   0.481   2.064  11.916  0.1829 -0.2343  0.2406
  575TMC3     H 8584   0.763   1.849  11.975  4.3104 -0.1718 -2.6174
  575TMC3    H1 8585   0.451   1.932  11.729 -1.4041 -0.0935  1.1036
  575TMC3    H2 8586   0.640   1.539  11.696 -0.7860  0.6025  0.2266
  575TMC3    C7 8587   0.458   1.716  11.578 -0.5209  0.6951 -0.0303
  575TMC3    C8 8588   0.816   1.595  11.876  0.8948  0.3371  0.0069
  575TMC3    O1 8589   0.421   1.815  11.519 -0.2957 -0.2498 -0.7804
  575TMC3    O2 8590   0.799   1.478  11.847  0.3389 -1.0525  0.9907
  576MPD2     C 8591   0.294   3.037  12.719 -0.1007  0.2847 -0.1225
  576MPD2    C1 8592   0.370   3.145  12.689  0.6209 -0.8409  0.0319
  576MPD2    C2 8593   0.399   3.241  12.785  0.3457 -0.3146 -0.7554
  576MPD2    C3 8594   0.349   3.230  12.908 -0.3133 -0.1129 -0.1888
  576MPD2    C4 8595   0.255   3.132  12.937  0.0036 -0.0333 -0.1192
  576MPD2    C5 8596   0.245   3.031  12.846  0.6628  0.7701 -1.5347
  576MPD2     H 8597   0.466   3.322  12.758  0.2073  0.0577 -0.0042
  576MPD2    H1 8598   0.203   3.110  13.030  1.2236 -1.1172  0.3044
  576MPD2    H2 8599   0.278   2.966  12.639  0.9056  2.0540 -1.9054
  576MPD2    H3 8600   0.199   2.938  12.880  0.5933  1.6638  0.8090
  576MPD2     N 8601   0.383   3.330  13.001 -0.5403 -0.1370 -0.1690
  576MPD2    H5 8602   0.448   3.402  12.971  1.0927 -1.4808  0.1243
  576MPD2    N1 8603   0.428   3.163  12.562 -0.2262 -0.4263 -0.1552
  576MPD2    H7 8604   0.478   3.250  12.547  1.1655 -0.9113  1.6469
  577TMC3    C1 8605   0.483   3.115  12.341  0.6620 -0.2514 -0.2783
  577TMC3    C2 8606   0.538   3.025  12.252  0.2754  0.3314 -0.4353
  577TMC3    C3 8607   0.574   3.071  12.127 -0.3203 -0.3167  0.6643
  577TMC3    C4 8608   0.472   3.251  12.315  0.1808  0.2261  0.1165
  577TMC3    C5 8609   0.510   3.293  12.190  0.3385  0.0424  0.2100
  577TMC3    C6 8610   0.560   3.207  12.100 -0.6540  0.1541  0.0607
  577TMC3     C 8611   0.428   3.065  12.467  0.1153 -1.0043  0.0397
  577TMC3     O 8612   0.426   2.942  12.477 -0.0782  0.2847 -0.2766
  577TMC3     H 8613   0.550   2.922  12.281 -1.6695 -0.5976 -2.9279
  577TMC3    H1 8614   0.413   3.314  12.381 -0.5497  0.6397 -0.9364
  577TMC3    H2 8615   0.589   3.248  12.004 -1.6672 -0.9999 -0.7443
  577TMC3    C7 8616   0.541   3.436  12.175 -0.1673  0.0845  0.4007
  577TMC3    C8 8617   0.649   2.982  12.042  0.0324 -0.0213  0.8271
  577TMC3    O1 8618   0.564   3.497  12.281 -0.3065 -0.0195 -0.2992
  577TMC3    O2 8619   0.620   2.869  12.067 -0.7107 -0.6992  0.8191
  578MPD2     C 8620   3.464   2.876   1.296 -0.1037 -0.1190  0.5142
  578MPD2    C1 8621   3.505   2.831   1.176 -0.8767 -0.7337  0.8628
  578MPD2    C2 8622   3.621   2.766   1.162 -0.1066 -0.3002  0.5636
  578MPD2    C3 8623   3.696   2.745   1.279  0.4941  0.2670 -0.0096
  578MPD2    C4 8624   3.642   2.767   1.402  0.6095 -0.2650 -0.7788
  578MPD2    C5 8625   3.529   2.841   1.407  0.4100 -0.2325 -0.0329
  578MPD2     H 8626   3.656   2.738   1.064  0.5355  0.1222  0.6711
  578MPD2    H1 8627   3.701   2.761   1.493 -0.7297  2.3673  0.2524
  578MPD2    H2 8628   3.374   2.936   1.292 -0.5651 -0.8002  0.6106
  578MPD2    H3 8629   3.482   2.881   1.496 -0.5270 -0.1314 -0.5722
  578MPD2     N 8630   3.816   2.672   1.274  0.2495  0.5307  0.0162
  578MPD2    H5 8631   3.855   2.633   1.189 -2.6428 -1.8518 -0.1696
  578MPD2    N1 8632   3.427   2.872   1.061  0.0794  0.6935  0.1626
  578MPD2    H7 8633   3.357   2.942   1.085 -0.9400 -0.1503 -0.3272
  579TMC3    C1 8634   4.035   2.613   1.330 -0.1445  0.6640  0.0713
  579TMC3    C2 8635   4.151   2.650   1.383  0.0272  0.3656 -0.8439
  579TMC3    C3 8636   4.267   2.596   1.333 -0.3587  0.3525  0.3131
  579TMC3    C4 8637   4.027   2.523   1.231  0.2214  0.0557  0.2775
  579TMC3    C5 8638   4.145   2.469   1.184 -0.0254  0.0545  0.0569
  579TMC3    C6 8639   4.271   2.500   1.237 -0.1046 -0.4867  0.1384
  579TMC3     C 8640   3.910   2.670   1.377  0.4215 -0.4574  0.0017
  579TMC3     O 8641   3.911   2.738   1.476 -1.1613 -0.1444  0.0106
  579TMC3     H 8642   4.153   2.733   1.453  0.4460 -1.0122  0.7886
  579TMC3    H1 8643   3.934   2.470   1.214 -0.0291  0.2870  0.9188
  579TMC3    H2 8644   4.366   2.461   1.201  0.7707  1.6381  0.1533
  579TMC3    C7 8645   4.147   2.346   1.103 -0.2698  0.4033 -0.2405
  579TMC3    C8 8646   4.378   2.668   1.373  0.3577  0.4663  0.6510
  579TMC3    O1 8647   4.245   2.278   1.112  0.5569 -0.7475 -0.2181
  579TMC3    O2 8648   4.370   2.710   1.490 -0.0879  0.4171  0.0537
  580TMC3    C1 8649   2.950   2.450  12.360 -0.4832 -0.7006  0.0386
  580TMC3    C2 8650   3.061   2.525  12.394 -0.2407 -0.8471  0.0225
  580TMC3    C3 8651   3.187   2.481  12.361  0.4171 -0.3767 -0.8129
  580TMC3    C4 8652   2.969   2.338  12.283 -0.8249  0.4242  0.6989
  580TMC3    C5 8653   3.091   2.296  12.244 -0.7424 -1.2722  0.2258
  580TMC3    C6 8654   3.199   2.368  12.287 -0.7150  0.1960  0.6239
  580TMC3     C 8655   2.848   2.535  12.299 -0.4660 -0.4853 -0.0214
  580TMC3     O 8656   2.731   2.497  12.291  0.8853 -0.2258  0.3403
  580TMC3     H 8657   3.064   2.614  12.455  0.3671  0.0729 -1.3754
  580TMC3    H1 8658   2.881   2.283  12.252 -2.1934  1.1302  3.3272
  580TMC3    H2 8659   3.302   2.340  12.269  0.0762  3.8526 -0.4856
  580TMC3    C7 8660   3.114   2.156  12.219 -0.4523  0.0797 -0.0678
  580TMC3    C8 8661   3.275   2.588  12.338  0.2433  0.1328  0.0001
  580TMC3    O1 8662   3.038   2.075  12.266 -0.4756 -0.0447 -0.0689
  580TMC3    O2 8663   3.277   2.678  12.415  0.2183  0.3075  0.0715
  581MPD2     C 8664   0.818   2.221  15.393 -0.4412 -0.6064  0.4105
  581MPD2    C1 8665   0.849   2.126  15.298 -0.3071  0.0154 -0.4960
  581MPD2    C2 8666   0.757   2.085  15.204 -0.1166 -0.4812  0.8364
  581MPD2    C3 8667   0.625   2.125  15.218  0.4983  0.2078  0.0446
  581MPD2    C4 8668   0.592   2.227  15.306  0.2965  0.1756  0.1762
  581MPD2    C5 8669   0.692   2.273  15.395  0.1502  0.7707  0.3858
  581MPD2     H 8670   0.786   2.013  15.129 -2.2069  0.4703 -0.8872
  581MPD2    H1 8671   0.500   2.284  15.304 -0.2004 -0.5851  1.3386
  581MPD2    H2 8672   0.894   2.252  15.464 -0.6482 -1.3889  0.9715
  581MPD2    H3 8673   0.681   2.350  15.471  0.5286 -0.5159  1.7578
  581MPD2     N 8674   0.527   2.099  15.120 -0.3224  0.4610  0.1065
  581MPD2    H5 8675   0.438   2.148  15.125 -0.0449  0.8784  0.9555
  581MPD2    N1 8676   0.979   2.077  15.301 -0.4694 -0.0749 -0.1299
  581MPD2    H7 8677   1.048   2.120  15.362  0.1367 -1.1642 -0.0408
  582TMC3    C1 8678   1.165   1.924  15.272 -0.2698  0.0837  0.4440
  582TMC3    C2 8679   1.212   1.949  15.401  0.1562 -0.4955 -0.2107
  582TMC3    C3 8680   1.308   1.874  15.453  0.3124  0.5031  0.7489
  582TMC3    C4 8681   1.211   1.820  15.202 -0.1788  0.2069 -0.4293
  582TMC3    C5 8682   1.312   1.742  15.254  0.1789 -0.4937 -0.3660
  582TMC3    C6 8683   1.364   1.774  15.383 -0.4413  0.0468  0.4817
  582TMC3     C 8684   1.023   1.963  15.232  0.4232 -0.3322  0.2740
  582TMC3     O 8685   0.957   1.872  15.186 -0.6930  0.3442 -0.0193
  582TMC3     H 8686   1.175   2.034  15.458  0.4243  0.9660 -2.1977
  582TMC3    H1 8687   1.171   1.782  15.108  1.1608 -0.4803 -0.7142
  582TMC3    H2 8688   1.438   1.707  15.424 -0.4107  0.6778  1.4393
  582TMC3    C7 8689   1.355   1.616  15.203  0.1650  0.0628  0.2146
  582TMC3    C8 8690   1.359   1.907  15.588  0.6366  0.2036  0.1978
  582TMC3    O1 8691   1.478   1.601  15.202  0.4225  0.8425  0.1445
  582TMC3    O2 8692   1.300   2.003  15.641  1.3878  0.6609 -0.0209
  583MPD2     C 8693   1.374   3.385  16.804  0.1152  0.5933 -0.1413
  583MPD2    C1 8694   1.335   3.481  16.717  0.1982  0.7425 -0.5921
  583MPD2    C2 8695   1.277   3.598  16.760 -0.2859  0.4516 -0.0961
  583MPD2    C3 8696   1.258   3.619  16.892 -0.5123  0.0118 -0.1102
  583MPD2    C4 8697   1.312   3.526  16.982  0.5168  0.2114 -0.2313
  583MPD2    C5 8698   1.358   3.405  16.939  0.7581  0.0327 -0.2668
  583MPD2     H 8699   1.250   3.674  16.688  0.7802 -1.5685 -2.6385
  583MPD2    H1 8700   1.296   3.529  17.089  0.5472  1.1315 -0.2534
  583MPD2    H2 8701   1.423   3.290  16.783 -2.2809 -0.1617 -2.2914
  583MPD2    H3 8702   1.400   3.329  17.003  0.7160 -0.3236 -0.6620
  583MPD2     N 8703   1.198   3.741  16.944 -0.7574 -0.0312  0.2262
  583MPD2    H5 8704   1.158   3.802  16.873 -0.0713  1.0304  0.7620
  583MPD2    N1 8705   1.380   3.477  16.586 -0.0617 -0.0902  0.4912
  583MPD2    H7 8706   1.348   3.556  16.531  0.7136  0.9474  1.5476
  584TMC3    C1 8707   1.109   3.900  17.091 -0.3828  0.1876 -0.6194
  584TMC3    C2 8708   1.124   3.998  16.996  0.3568  0.1689 -0.0896
  584TMC3    C3 8709   1.096   4.120  17.030 -0.2964 -0.3214 -0.1111
  584TMC3    C4 8710   1.060   3.932  17.217 -0.8057 -0.0603 -0.6423
  584TMC3    C5 8711   1.037   4.064  17.243 -0.0909 -0.3342  0.2247
  584TMC3    C6 8712   1.051   4.166  17.153  0.1043 -0.2908  0.4137
  584TMC3     C 8713   1.173   3.773  17.078 -0.5140 -0.0322 -0.2341
  584TMC3     O 8714   1.186   3.701  17.172  0.0313 -0.0208  0.6678
  584TMC3     H 8715   1.154   3.975  16.894  0.0106 -0.4684 -0.0493
  584TMC3    H1 8716   1.053   3.851  17.288 -1.6338  1.2465  0.7658
  584TMC3    H2 8717   1.014   4.267  17.171 -0.5066 -0.6434  1.1251
  584TMC3    C7 8718   0.999   4.103  17.371 -0.3474 -0.7051 -0.1672
  584TMC3    C8 8719   1.124   4.210  16.930 -0.3729  0.2110  1.3137
  584TMC3    O1 8720   1.006   4.219  17.407 -0.2124  0.2486  0.0104
  584TMC3    O2 8721   1.118   4.170  16.815  0.1221 -0.2348  0.0582
  585MPD2     C 8722   0.572   2.336   0.416 -0.6466 -0.8124 -0.6484
  585MPD2    C1 8723   0.666   2.302   0.326 -0.5984  0.3361 -0.3442
  585MPD2    C2 8724   0.645   2.183   0.245 -0.1493 -0.1452 -0.1414
  585MPD2    C3 8725   0.535   2.105   0.260  0.0464 -0.4735 -0.4023
  585MPD2    C4 8726   0.443   2.154   0.349 -0.2395  0.0972 -0.0485
  585MPD2    C5 8727   0.454   2.269   0.425 -0.2002  0.1709 -0.3775
  585MPD2     H 8728   0.710   2.170   0.160 -1.6818  3.1189 -1.8277
  585MPD2    H1 8729   0.345   2.106   0.346 -1.0442  1.7731 -0.2196
  585MPD2    H2 8730   0.573   2.422   0.482 -0.9122 -1.7891  0.6357
  585MPD2    H3 8731   0.378   2.309   0.491  0.7071  0.1281  0.6898
  585MPD2     N 8732   0.496   2.005   0.175  0.2336 -0.2617 -0.0804
  585MPD2    H5 8733   0.399   1.976   0.164 -0.7706  3.2397 -0.4995
  585MPD2    N1 8734   0.766   2.401   0.303  0.2405 -0.0773 -0.4449
  585MPD2    H7 8735   0.762   2.487   0.357  1.3086  0.6311 -1.5054
  586TMC3    C1 8736   0.516   1.875  17.724  0.3303  0.4356  0.4474
  586TMC3    C2 8737   0.599   1.821  17.632  0.3437 -0.1797 -0.0863
  586TMC3    C3 8738   0.545   1.788  17.510 -0.2655  0.2179  0.1045
  586TMC3    C4 8739   0.382   1.910  17.699 -0.9070 -0.3392 -0.5357
  586TMC3    C5 8740   0.346   1.895  17.572  0.3866 -0.4964 -0.4054
  586TMC3    C6 8741   0.422   1.828  17.476 -0.5878  0.5785  0.5629
  586TMC3     C 8742   0.582   1.936   0.091  0.8436  0.6111 -0.8129
  586TMC3     O 8743   0.705   1.936   0.098 -0.1699 -0.4713 -0.6186
  586TMC3     H 8744   0.705   1.827  17.650  1.1294 -2.3625 -3.9473
  586TMC3    H1 8745   0.310   1.947   0.026 -1.1057  1.2536 -1.5792
  586TMC3    H2 8746   0.384   1.808  17.377 -0.3642  0.5008  0.4927
  586TMC3    C7 8747   0.203   1.885  17.553 -1.0573  0.1416  0.3873
  586TMC3    C8 8748   0.628   1.736  17.414  0.1484  0.3877  0.0601
  586TMC3    O1 8749   0.131   1.853  17.646  0.0575 -0.2913 -0.6378
  586TMC3    O2 8750   0.710   1.651  17.442 -0.0642 -0.0843  0.1708
  587TMC3    C1 8751   2.864   1.213  16.409  0.6239  0.2542  0.0327
  587TMC3    C2 8752   2.868   1.315  16.509 -0.2713 -0.1303  1.3008
  587TMC3    C3 8753   2.990   1.338  16.562 -0.9383 -0.0296  0.5245
  587TMC3    C4 8754   2.965   1.135  16.372  0.0307  0.5427 -0.3768
  587TMC3    C5 8755   3.079   1.165  16.429 -0.5979  0.1968  0.6277
  587TMC3    C6 8756   3.099   1.269  16.516 -0.0574 -0.1992 -0.8705
  587TMC3     C 8757   2.758   1.223  16.314 -0.9264  0.1115 -0.2356
  587TMC3     O 8758   2.780   1.207  16.197 -0.0270  0.2309  0.3799
  587TMC3     H 8759   2.790   1.383  16.542 -0.0979  0.4708  0.4860
  587TMC3    H1 8760   2.949   1.062  16.294  1.5947  0.2627 -0.4265
  587TMC3    H2 8761   3.197   1.309  16.540 -1.8771  2.5740  1.9118
  587TMC3    C7 8762   3.204   1.125  16.370 -0.3736 -0.0072 -0.2291
  587TMC3    C8 8763   3.007   1.439  16.663  0.8917  0.1217 -0.2613
  587TMC3    O1 8764   3.307   1.153  16.429  0.2120  0.4792  0.6215
  587TMC3    O2 8765   3.098   1.424  16.745  0.4388  0.3434 -0.1036
  588TMC3    C1 8766   4.424   3.511   9.611 -0.1083 -0.4175  0.4793
  588TMC3    C2 8767   4.388   3.397   9.678  0.1242 -0.2926 -0.0651
  588TMC3    C3 8768   4.489   3.329   9.743  0.5454 -0.1448 -0.1197
  588TMC3    C4 8769   4.556   3.556   9.617 -0.3377 -0.5278  0.5724
  588TMC3    C5 8770   4.647   3.489   9.695  0.5054 -0.5931  0.4032
  588TMC3    C6 8771   4.615   3.376   9.760  0.2261 -0.1418  1.1821
  588TMC3     C 8772   4.321   3.595   9.556 -0.5040 -0.2649  0.6465
  588TMC3     O 8773   4.208   3.557   9.573  0.2241 -0.3099  0.7130
  588TMC3     H 8774   4.289   3.355   9.671 -1.0950  2.5467  0.3653
  588TMC3    H1 8775   4.590   3.631   9.546 -2.1398 -1.0320 -0.8244
  588TMC3    H2 8776   4.687   3.323   9.820  1.0745  0.0338  0.3191
  588TMC3    C7 8777   0.029   3.559   9.732 -0.5057 -0.9563 -0.5606
  588TMC3    C8 8778   4.450   3.216   9.821  0.3324  0.3688 -0.4897
  588TMC3    O1 8779   0.111   3.499   9.799 -0.0499 -0.0301  0.3783
  588TMC3    O2 8780   4.366   3.144   9.770  0.0611 -0.6863  0.7134
  589TMC3    C1 8781   4.235   0.972   1.225 -0.5343 -0.0169  0.4858
  589TMC3    C2 8782   4.317   1.013   1.328 -1.1826  0.4493 -0.1423
  589TMC3    C3 8783   4.433   0.940   1.357  0.1702  0.5467 -0.2860
  589TMC3    C4 8784   4.265   0.859   1.165  0.3586  0.5747  0.0041
  589TMC3    C5 8785   4.382   0.793   1.177  0.1465 -0.0721  0.1971
  589TMC3    C6 8786   4.467   0.829   1.278 -0.0714 -0.0696  0.3630
  589TMC3     C 8787   4.124   1.062   1.185 -0.0398 -0.7632 -1.3935
  589TMC3     O 8788   4.074   1.018   1.085  0.2821 -0.4275  0.4402
  589TMC3     H 8789   4.304   1.109   1.374  2.1215 -0.7486  3.3065
  589TMC3    H1 8790   4.185   0.818   1.104  1.3235  0.7825 -1.4293
  589TMC3    H2 8791   4.557   0.772   1.293 -0.0127 -0.4983 -1.5911
  589TMC3    C7 8792   4.380   0.648   1.135  0.1115 -0.7732  0.3626
  589TMC3    C8 8793   4.542   1.017   1.425 -0.6620  0.0767 -0.2341
  589TMC3    O1 8794   4.272   0.618   1.086  0.0368 -0.2208  0.2096
  589TMC3    O2 8795   4.516   1.118   1.494 -0.7622  0.5958  0.0815
  590MPD2     C 8796   3.395   4.146  16.530  0.3703 -0.7058 -0.1541
  590MPD2    C1 8797   3.391   4.283  16.539 -0.1619 -0.3094 -1.0668
  590MPD2    C2 8798   3.503   4.354  16.497 -0.4982 -0.0499  0.4477
  590MPD2    C3 8799   3.600   4.293  16.419 -0.2616  0.3584 -0.8082
  590MPD2    C4 8800   3.586   4.161  16.386  0.2436 -0.4342 -0.1542
  590MPD2    C5 8801   3.485   4.087  16.445 -0.6451  0.4675 -0.0459
  590MPD2     H 8802   3.506   4.463  16.498  0.6055 -0.0729 -1.3034
  590MPD2    H1 8803   3.652   4.116  16.313  1.4293  1.7539 -0.4427
  590MPD2    H2 8804   3.315   4.092  16.581  0.8749 -1.0511  0.2717
  590MPD2    H3 8805   3.485   3.980  16.429  1.6747  0.0423  2.9307
  590MPD2     N 8806   3.694   4.366  16.345 -0.1085  0.0794  0.3287
  590MPD2    H5 8807   3.739   4.318  16.267  0.7858  0.1523  0.7942
  590MPD2    N1 8808   3.283   4.343  16.607  0.2986  0.6033 -0.1166
  590MPD2    H7 8809   3.209   4.277  16.628  0.9468 -0.5431 -1.4483
  591TMC3    C1 8810   3.811   4.569  16.273 -1.0927  0.1272 -0.3627
  591TMC3    C2 8811   3.822   4.502  16.152  0.3347  0.0568 -0.1050
  591TMC3    C3 8812   3.908   4.557  16.062  0.8465  0.1264 -0.1930
  591TMC3    C4 8813   3.893   4.669  16.311  0.1674 -0.1121 -0.0349
  591TMC3    C5 8814   3.972   4.724  16.214 -0.0350 -0.1727 -0.0734
  591TMC3    C6 8815   3.988   4.671  16.093 -0.4571  0.2476 -0.3353
  591TMC3     C 8816   3.729   4.500  16.370  0.6219  0.3017 -0.1085
  591TMC3     O 8817   3.711   4.557  16.477 -0.2558 -0.4997 -0.1201
  591TMC3     H 8818   3.760   4.421  16.115 -0.7192  1.9011 -2.3857
  591TMC3    H1 8819   3.883   4.712  16.410  0.6942 -2.9137  1.2457
  591TMC3    H2 8820   4.062   4.705  16.023  0.1006 -0.4654 -0.0874
  591TMC3    C7 8821   4.043   0.103  16.247 -0.4556 -0.2384 -0.1767
  591TMC3    C8 8822   3.919   4.494  15.928  0.6413 -0.2345 -0.0496
  591TMC3    O1 8823   4.065   0.137  16.360 -0.2955 -0.2267  0.0409
  591TMC3    O2 8824   3.883   4.377  15.926  0.3611 -0.1685  0.1752
  592MPD2     C 8825   4.037   1.607  11.514  0.5975 -0.4307 -0.4226
  592MPD2    C1 8826   4.008   1.654  11.635 -0.3590 -0.0556 -0.2608
  592MPD2    C2 8827   3.922   1.581  11.714 -0.4109 -1.0352 -0.9816
  592MPD2    C3 8828   3.874   1.461  11.673 -0.1103  0.2036  0.0069
  592MPD2    C4 8829   3.921   1.407  11.559  0.1832  0.5489  0.0724
  592MPD2    C5 8830   3.994   1.484  11.470  0.3447 -0.8305 -0.9766
  592MPD2     H 8831   3.881   1.614  11.809 -0.3893  0.3896 -1.4559
  592MPD2    H1 8832   3.907   1.305  11.523  0.5694 -0.6027  3.1821
  592MPD2    H2 8833   4.105   1.658  11.447 -0.3495  0.1356 -0.9669
  592MPD2    H3 8834   4.029   1.438  11.378 -0.7545 -0.4169 -1.6054
  592MPD2     N 8835   3.789   1.384  11.760 -0.0609 -0.2358 -0.3049
  592MPD2    H5 8836   3.763   1.429  11.848  1.2692  0.4381 -0.2465
  592MPD2    N1 8837   4.065   1.777  11.676 -0.9954 -0.6517 -0.1176
  592MPD2    H7 8838   4.125   1.825  11.610 -1.7924 -1.6141 -1.5568
  593TMC3    C1 8839   4.146   1.955  11.801 -0.2822  0.2039 -0.2098
  593TMC3    C2 8840   4.198   1.992  11.921 -0.3628 -0.5925 -0.0645
  593TMC3    C3 8841   4.276   2.110  11.929  0.6295 -0.1718  0.1223
  593TMC3    C4 8842   4.140   2.039  11.691  1.3111  1.1856 -0.4218
  593TMC3    C5 8843   4.205   2.160  11.712  0.1695  0.2615 -0.5906
  593TMC3    C6 8844   4.280   2.191  11.823 -0.2452 -0.1778  0.2066
  593TMC3     C 8845   4.071   1.826  11.806  0.1261 -0.8696 -0.0878
  593TMC3     O 8846   4.040   1.770  11.911 -0.0304  0.1039  0.4781
  593TMC3     H 8847   4.186   1.923  12.003 -2.0742 -1.6402 -1.2148
  593TMC3    H1 8848   4.079   2.020  11.604  0.6673 -0.3127  0.3474
  593TMC3    H2 8849   4.324   2.288  11.840  3.6910 -2.0067  0.4464
  593TMC3    C7 8850   4.207   2.264  11.603  0.4326  0.0653 -0.1876
  593TMC3    C8 8851   4.334   2.151  12.060  0.8939 -0.1500  0.1250
  593TMC3    O1 8852   4.259   2.370  11.635  0.2726  0.5444 -0.2469
  593TMC3    O2 8853   4.325   2.079  12.160  0.3593 -0.9507 -0.6118
  594MPD2     C 8854   3.109   0.423  14.865  0.1683 -0.1348 -0.6703
  594MPD2    C1 8855   3.016   0.432  14.768  0.2832 -0.6954 -0.0719
  594MPD2    C2 8856   3.040   0.499  14.653  0.0867  0.6429  0.1976
  594MPD2    C3 8857   3.165   0.557  14.631  0.0331 -1.1945 -0.4436
  594MPD2    C4 8858   3.262   0.547  14.735  0.9521  0.1869  0.5950
  594MPD2    C5 8859   3.224   0.486  14.849 -0.0997 -0.6430 -0.1531
  594MPD2     H 8860   2.970   0.487  14.571  0.4848 -0.9587  0.1052
  594MPD2    H1 8861   3.362   0.589  14.740  1.1123 -0.3081  1.5214
  594MPD2    H2 8862   3.088   0.390  14.967  1.1495 -0.7789 -0.6676
  594MPD2    H3 8863   3.293   0.471  14.931  1.1848 -0.2843 -1.1702
  594MPD2     N 8864   3.189   0.629  14.511  0.5271  0.3071  0.2883
  594MPD2    H5 8865   3.116   0.640  14.441 -0.7977 -0.5203  1.5409
  594MPD2    N1 8866   2.888   0.375  14.797  0.3643  0.1505  0.0556
  594MPD2    H7 8867   2.878   0.325  14.885  1.0722  0.3151  0.2350
  595TMC3    C1 8868   3.466   0.838  14.195 -0.4881  0.4587  0.5798
  595TMC3    C2 8869   3.448   0.732  14.283 -0.2523 -0.0015 -0.2098
  595TMC3    C3 8870   3.324   0.709  14.335 -0.1432 -0.6775 -0.0547
  595TMC3    C4 8871   3.367   0.925  14.165  0.4978  0.3501 -1.0779
  595TMC3    C5 8872   3.246   0.899  14.220 -0.7910 -0.4071  0.0499
  595TMC3    C6 8873   3.227   0.799  14.307 -0.1685 -0.8109  0.6677
  595TMC3     C 8874   3.591   0.901  14.205  0.1497 -0.7547  0.3182
  595TMC3     O 8875   3.585   1.019  14.217  0.1192 -0.2393  0.1349
  595TMC3     H 8876   3.537   0.680  14.319  0.1523  1.1596  0.4689
  595TMC3    H1 8877   3.387   1.008  14.099  1.1327  0.7458 -0.3889
  595TMC3    H2 8878   3.132   0.806  14.359 -1.3555 -0.1935 -1.5879
  595TMC3    C7 8879   3.166   1.015  14.241  0.0492 -0.5004 -0.1841
  595TMC3    C8 8880   3.323   0.645  14.465 -0.4392  0.2499 -0.2960
  595TMC3    O1 8881   3.116   1.030  14.350 -0.3263  0.5987 -0.5063
  595TMC3    O2 8882   3.425   0.606  14.521 -0.0215 -0.2850 -0.4831
  596MPD2     C 8883   2.142   3.335  16.802  0.0390 -0.4389  0.1265
  596MPD2    C1 8884   2.123   3.448  16.721 -0.1990 -0.3363 -0.3556
  596MPD2    C2 8885   2.115   3.432  16.585  0.4639 -0.1292 -0.0514
  596MPD2    C3 8886   2.111   3.301  16.534  0.2393  0.0016  0.0532
  596MPD2    C4 8887   2.134   3.194  16.607  0.1011 -0.2838  0.7010
  596MPD2    C5 8888   2.159   3.211  16.743  0.7946 -0.4793 -0.2522
  596MPD2     H 8889   2.109   3.520  16.522 -0.5412  0.3839  0.7674
  596MPD2    H1 8890   2.157   3.098  16.561  3.0993  0.8494 -0.1783
  596MPD2    H2 8891   2.155   3.334  16.909 -1.4159  0.0917  0.3089
  596MPD2    H3 8892   2.176   3.126  16.807  1.7305  0.6213  0.9771
  596MPD2     N 8893   2.112   3.275  16.391  0.4414  0.0980 -0.0181
  596MPD2    H5 8894   2.127   3.181  16.354  0.6238  0.1552 -0.0916
  596MPD2    N1 8895   2.098   3.583  16.765 -0.3111 -0.0288 -1.0186
  596MPD2    H7 8896   2.079   3.644  16.687  2.0428  0.5711 -1.1215
  597TMC3    C1 8897   2.006   3.749  16.906  0.7699 -0.9061  0.1910
  597TMC3    C2 8898   2.037   3.846  16.815 -0.0505  0.2534  0.0806
  597TMC3    C3 8899   1.951   3.944  16.793  0.3714  1.0009 -0.2749
  597TMC3    C4 8900   1.901   3.757  16.985 -0.6152 -1.0188  1.0892
  597TMC3    C5 8901   1.814   3.863  16.967 -0.3257 -0.3984  0.4361
  597TMC3    C6 8902   1.844   3.963  16.876 -0.2636 -0.9485  0.4596
  597TMC3     C 8903   2.069   3.620  16.898 -0.4291 -0.1505  0.1414
  597TMC3     O 8904   2.055   3.538  16.984 -0.6021 -0.0423  0.0314
  597TMC3     H 8905   2.130   3.842  16.760  0.1194  0.2721  0.3649
  597TMC3    H1 8906   1.882   3.676  17.055  1.8593 -1.7913  0.8876
  597TMC3    H2 8907   1.774   4.044  16.861  2.5458  1.3888  0.0069
  597TMC3    C7 8908   1.706   3.881  17.060  0.5477  0.3264 -1.0863
  597TMC3    C8 8909   1.971   4.043  16.688  0.2541  0.4658  0.2896
  597TMC3    O1 8910   1.661   3.784  17.114 -0.0793 -0.3223  0.1389
  597TMC3    O2 8911   1.905   4.146  16.701 -0.4003  0.8540 -0.1107
  598TMC3    C1 8912   4.671   0.111  15.354  0.0497 -0.0481  0.4479
  598TMC3    C2 8913   4.578   0.016  15.328  0.0317  0.4113  0.7898
  598TMC3    C3 8914   4.494   0.036  15.223  0.9055 -0.3152 -0.6806
  598TMC3    C4 8915   4.678   0.223  15.273  0.1073  0.1156  0.0283
  598TMC3    C5 8916   4.593   0.234  15.165  0.1184  0.0961  0.4918
  598TMC3    C6 8917   4.496   0.142  15.133 -0.3185  0.4148 -0.0642
  598TMC3     C 8918   0.042   0.108  15.450  0.2059 -0.7438 -0.3633
  598TMC3     O 8919   0.110   0.212  15.459  0.0035  0.2629  0.0527
  598TMC3     H 8920   4.578   4.661  15.386 -2.8929  0.1333  0.3220
  598TMC3    H1 8921   4.735   0.311  15.302 -0.6032  1.7517 -3.5038
  598TMC3    H2 8922   4.434   0.145  15.044 -0.0992 -0.2619 -0.2393
  598TMC3    C7 8923   4.630   0.334  15.061 -0.1780  0.5771 -0.0892
  598TMC3    C8 8924   4.433   4.643  15.181 -0.5180 -0.5243 -0.5685
  598TMC3    O1 8925   4.547   0.363  14.973 -0.5920 -0.2204 -0.6023
  598TMC3    O2 8926   4.400   4.563  15.270  0.3906  0.0943  0.4321
  599MPD2     C 8927   0.198   2.368  15.850 -0.5552  0.0820 -1.0601
  599MPD2    C1 8928   0.148   2.240  15.873  0.4576  0.4283 -0.2692
  599MPD2    C2 8929   0.037   2.219  15.950 -0.1452  0.6575  0.2608
  599MPD2    C3 8930   4.704   2.322  16.010 -1.1655  0.3739 -0.3136
  599MPD2    C4 8931   0.009   2.453  15.976 -0.0729  0.2006 -0.0953
  599MPD2    C5 8932   0.127   2.475  15.901 -0.0939  0.3783  0.0889
  599MPD2     H 8933   0.015   2.119  15.987 -1.5410  0.3595 -1.3969
  599MPD2    H1 8934   4.689   2.536  16.018 -1.7664 -0.4367 -1.1077
  599MPD2    H2 8935   0.280   2.395  15.784  1.7130 -2.4880  0.6965
  599MPD2    H3 8936   0.171   2.570  15.872 -3.1917  2.0379  0.7665
  599MPD2     N 8937   4.600   2.288  16.107 -0.0275  0.2431  0.1471
  599MPD2    H5 8938   4.566   2.363  16.166  0.1310  0.7789 -0.4442
  599MPD2    N1 8939   0.230   2.147  15.824  0.4564 -0.3599 -0.1800
  599MPD2    H7 8940   0.311   2.174  15.769 -0.7013 -1.3096 -2.3817
  600TMC3    C1 8941   4.449   2.165  16.232 -0.1362 -0.0134 -0.1500
  600TMC3    C2 8942   4.355   2.061  16.239  0.4965 -0.1203 -0.6675
  600TMC3    C3 8943   4.293   2.033  16.359  0.3475 -0.6978  0.5505
  600TMC3    C4 8944   4.490   2.229  16.351  0.6198 -0.1211  0.1857
  600TMC3    C5 8945   4.414   2.204  16.470 -0.0286 -0.5085  0.1378
  600TMC3    C6 8946   4.321   2.100  16.476  0.6518  0.3414  0.5468
  600TMC3     C 8947   4.550   2.159  16.131 -0.0326 -0.3644 -0.3419
  600TMC3     O 8948   4.572   2.052  16.080  0.3004  0.1047  0.0193
  600TMC3     H 8949   4.333   1.994  16.157 -2.5428  1.3817 -1.0576
  600TMC3    H1 8950   4.575   2.297  16.343  1.0563 -0.6834  0.0169
  600TMC3    H2 8951   4.288   2.054  16.569 -1.6365  0.1965 -0.3450
  600TMC3    C7 8952   4.473   2.239  16.602 -0.2862 -0.8060  0.2048
  600TMC3    C8 8953   4.183   1.950  16.340  0.0958 -0.8447  0.0274
  600TMC3    O1 8954   4.414   2.208  16.704 -0.1521  0.4102  0.0366
  600TMC3    O2 8955   4.128   1.961  16.233  0.1814 -0.4093  0.0915
  601MPD2     C 8956   2.307   0.951   0.407 -0.0304  0.2576 -0.5365
  601MPD2    C1 8957   2.240   0.945   0.285  0.3689 -0.3740 -0.0210
  601MPD2    C2 8958   2.254   0.826   0.215 -0.1614 -0.2230 -0.0582
  601MPD2    C3 8959   2.319   0.717   0.268  0.1255 -0.2393  0.3646
  601MPD2    C4 8960   2.368   0.720   0.398  0.5160  0.2773  0.1296
  601MPD2    C5 8961   2.361   0.837   0.469 -0.0724  0.7863 -0.0081
  601MPD2     H 8962   2.220   0.823   0.112  1.0307  1.4936 -0.5011
  601MPD2    H1 8963   2.416   0.634   0.443 -0.6389  0.4485  1.7080
  601MPD2    H2 8964   2.325   1.035   0.473  0.0419  1.8675 -2.6076
  601MPD2    H3 8965   2.412   0.843   0.564  3.0463  0.1825 -1.6514
  601MPD2     N 8966   2.343   0.609   0.189  0.5761  0.0868  0.4865
  601MPD2    H5 8967   2.408   0.536   0.216 -1.3181 -1.6896  0.2397
  601MPD2    N1 8968   2.177   1.055   0.225 -0.0306  0.3716  0.0744
  601MPD2    H7 8969   2.121   1.036   0.143  2.3738  0.9235 -1.7156
  602TMC3    C1 8970   2.079   1.275   0.225 -0.0817 -0.1392  0.4767
  602TMC3    C2 8971   2.098   1.415   0.233 -0.0860  0.2566 -0.2665
  602TMC3    C3 8972   1.994   1.501   0.222 -0.3343  0.1737  0.6807
  602TMC3    C4 8973   1.950   1.231   0.212 -0.2612 -0.7237  0.0553
  602TMC3    C5 8974   1.847   1.319   0.215  0.2957 -0.3736 -0.7997
  602TMC3    C6 8975   1.866   1.453   0.220 -0.7533 -0.2103 -0.5439
  602TMC3     C 8976   2.172   1.181   0.281 -0.3123 -0.3059 -1.1663
  602TMC3     O 8977   2.258   1.239   0.349 -0.3700 -0.3099 -0.5388
  602TMC3     H 8978   2.199   1.452   0.222 -0.1707  0.3684 -0.6775
  602TMC3    H1 8979   1.935   1.124   0.202 -2.3340 -0.1932 -2.6231
  602TMC3    H2 8980   1.779   1.515   0.234 -0.7914 -0.2315 -0.6779
  602TMC3    C7 8981   1.724   1.286   0.137  0.1121 -0.5654  0.2063
  602TMC3    C8 8982   2.008   1.609   0.130  0.4490 -0.6590  0.0503
  602TMC3    O1 8983   1.651   1.385   0.114 -0.4210  0.5677 -0.0590
  602TMC3    O2 8984   2.115   1.668   0.128  0.1840 -0.6046 -0.0248
  603TMC3    C1 8985   4.614   1.480  11.400  0.0546 -0.2710 -0.6046
  603TMC3    C2 8986   4.629   1.486  11.538  0.2905 -0.1735  0.2755
  603TMC3    C3 8987   4.667   1.606  11.599  0.7270  0.2593  1.0590
  603TMC3    C4 8988   4.645   1.589  11.322 -0.2699  0.4250  0.0367
  603TMC3    C5 8989   4.679   1.704  11.380  0.2565 -0.6848 -0.1925
  603TMC3    C6 8990   4.703   1.715  11.518 -0.6210  0.4562 -0.9325
  603TMC3     C 8991   4.624   1.344  11.344 -0.3924  0.1378  0.1488
  603TMC3     O 8992   4.612   1.334  11.224  0.2267 -0.3876  0.0481
  603TMC3     H 8993   4.577   1.417  11.602 -0.4593  0.4588  0.3453
  603TMC3    H1 8994   4.656   1.583  11.214 -0.7651  2.6042 -0.1419
  603TMC3    H2 8995   4.702   1.809  11.573 -1.8322  0.6594 -1.2916
  603TMC3    C7 8996   4.695   1.824  11.305  0.3284  0.3002 -0.0537
  603TMC3    C8 8997   4.733   1.593  11.724  0.4822 -0.0811  0.0416
  603TMC3    O1 8998   0.031   1.909  11.355 -0.3863 -0.4529 -0.9355
  603TMC3    O2 8999   4.699   1.498  11.790 -0.0298 -0.7789 -0.3230
  604MPD2     C 9000   1.415   0.052  16.375  0.5464 -0.1226  0.5382
  604MPD2    C1 9001   1.322   4.688  16.378  0.5134  0.7048 -0.4332
  604MPD2    C2 9002   1.315   4.608  16.266  0.0793  0.0227 -0.4228
  604MPD2    C3 9003   1.408   4.618  16.157 -0.0514  0.9319 -0.1682
  604MPD2    C4 9004   1.508   4.713  16.157 -0.0986  0.4822  0.0721
  604MPD2    C5 9005   1.505   0.054  16.273 -0.4500  0.3008 -0.6221
  604MPD2     H 9006   1.241   4.529  16.262  1.8511 -1.7799  2.0641
  604MPD2    H1 9007   1.574   0.010  16.078  0.8032 -1.6777 -0.0749
  604MPD2    H2 9008   1.407   0.130  16.450 -0.3633  1.0647 -0.7966
  604MPD2    H3 9009   1.581   0.131  16.272  0.4595 -0.5902 -1.2017
  604MPD2     N 9010   1.398   4.534  16.043  0.5104  0.1122  0.3998
  604MPD2    H5 9011   1.302   4.506  16.030  1.8020 -2.0094 -4.4795
  604MPD2    N1 9012   1.236   4.680  16.488  0.3601  0.0325 -0.1724
  604MPD2    H7 9013   1.249   0.009  16.565 -2.3805 -0.1578  0.4648
  605TMC3    C1 9014   1.092   4.599  16.649 -0.0847  0.0338 -0.5640
  605TMC3    C2 9015   1.152   4.693  16.721 -0.5028 -0.2592 -0.4132
  605TMC3    C3 9016   1.092   0.053  16.791 -0.1728  0.3930  0.0271
  605TMC3    C4 9017   0.956   4.599  16.645 -0.1270 -0.0009  0.5111
  605TMC3    C5 9018   0.892   4.704  16.713 -0.4010  0.2384 -0.1812
  605TMC3    C6 9019   0.959   0.058  16.790  0.5152 -0.1496  0.4936
  605TMC3     C 9020   1.140   4.586  16.512  0.5938 -0.4801 -0.0843
  605TMC3     O 9021   1.107   4.492  16.442 -0.1867  0.1526 -0.0858
  605TMC3     H 9022   1.260   4.696  16.732 -0.6016 -0.8448  0.6632
  605TMC3    H1 9023   0.902   4.545  16.568 -0.2058 -0.7915  1.1273
  605TMC3    H2 9024   0.906   0.126  16.855  0.7072 -0.7202  1.2517
  605TMC3    C7 9025   0.754   4.712  16.742 -0.2554 -0.3587  0.0030
  605TMC3    C8 9026   1.166   0.173  16.782 -1.2381  0.4318  0.1506
  605TMC3    O1 9027   0.702   0.087  16.750 -0.2124 -0.2101  0.1288
  605TMC3    O2 9028   1.251   0.171  16.694  0.8166  0.5166 -0.1964
  606TMC3    C1 9029   2.037   3.393  17.536  0.4763 -0.1876 -0.3891
  606TMC3    C2 9030   2.079   3.312  17.643 -0.4996  0.1726  0.5121
  606TMC3    C3 9031   2.065   3.178  17.633 -0.1582 -0.2269 -0.5988
  606TMC3    C4 9032   1.968   3.339  17.429 -0.2554 -0.6365  0.0715
  606TMC3    C5 9033   1.950   3.206  17.423 -0.5094  0.3983 -0.8476
  606TMC3    C6 9034   2.014   3.129  17.515  0.5199 -0.1447  0.5916
  606TMC3     C 9035   2.026   3.536  17.548 -0.1166  0.0255 -0.4943
  606TMC3     O 9036   2.073   3.601  17.452 -0.1041  0.2153 -0.4682
  606TMC3     H 9037   2.127   3.358  17.728 -1.7044  3.5085 -0.6032
  606TMC3    H1 9038   1.928   3.410  17.357  1.2525  1.3136  1.1601
  606TMC3    H2 9039   2.023   3.024  17.489 -2.1281 -0.0619 -0.6512
  606TMC3    C7 9040   1.933   3.134  17.294  0.1618 -0.5120 -0.1009
  606TMC3    C8 9041   2.180   3.108  17.694 -0.1852 -0.0218  0.3286
  606TMC3    O1 9042   1.998   3.186  17.202  0.1949 -0.1553  0.1655
  606TMC3    O2 9043   2.277   3.179  17.709  0.1926 -0.0287  0.2759
  607MPD2     C 9044   4.079   1.012  11.841  0.6774  0.2959 -0.2129
  607MPD2    C1 9045   4.068   1.081  11.957 -0.1616  0.4330 -0.1341
  607MPD2    C2 9046   4.043   1.006  12.070 -0.5439  0.5844  0.2461
  607MPD2    C3 9047   4.063   0.868  12.077  0.0322 -0.1885  1.3988
  607MPD2    C4 9048   4.083   0.804  11.959  0.7104 -0.2473 -0.5509
  607MPD2    C5 9049   4.082   0.877  11.844 -0.3782 -0.5078  0.1988
  607MPD2     H 9050   4.014   1.055  12.163 -1.1688  0.0100  0.3585
  607MPD2    H1 9051   4.075   0.697  11.949  0.6983 -0.2699 -0.2981
  607MPD2    H2 9052   4.088   1.059  11.744 -1.0164  0.1243 -0.4459
  607MPD2    H3 9053   4.079   0.824  11.749  1.6140 -0.3304  0.0372
  607MPD2     N 9054   4.055   0.804  12.204 -0.0915 -0.1988  0.3681
  607MPD2    H5 9055   4.027   0.862  12.282  3.3142  1.3383  0.4283
  607MPD2    N1 9056   4.063   1.223  11.975  0.7783 -0.0239 -0.3785
  607MPD2    H7 9057   4.044   1.259  12.068  0.5428 -0.1239 -0.3871
  608TMC3    C1 9058   4.125   1.450  11.934  0.2628 -0.3352  0.1065
  608TMC3    C2 9059   4.132   1.448  12.069  0.6449 -0.4933  0.1575
  608TMC3    C3 9060   4.229   1.518  12.128  0.4809  0.7726 -0.0578
  608TMC3    C4 9061   4.216   1.513  11.853  0.3725  0.1616  0.0877
  608TMC3    C5 9062   4.315   1.589  11.918  0.3150  0.8831  0.3554
  608TMC3    C6 9063   4.322   1.585  12.056 -0.3089 -1.0229 -0.8191
  608TMC3     C 9064   4.099   1.314  11.881 -0.4847  0.4989 -0.6751
  608TMC3     O 9065   4.144   1.287  11.771 -0.6588 -0.1617 -0.0517
  608TMC3     H 9066   4.053   1.401  12.126 -0.3239  0.9227 -0.0219
  608TMC3    H1 9067   4.220   1.502  11.745 -0.4153  1.3392 -0.0595
  608TMC3    H2 9068   4.394   1.637  12.118 -1.9764  0.7098 -0.3052
  608TMC3    C7 9069   4.401   1.677  11.836 -0.2378  0.5846  0.6416
  608TMC3    C8 9070   4.244   1.519  12.278  0.0569  0.2021  0.0361
  608TMC3    O1 9071   4.396   1.665  11.711 -0.0087  0.4007  0.2047
  608TMC3    O2 9072   4.300   1.610  12.331  0.6434 -0.2584 -0.9044
  609TMC3    C1 9073   2.676   1.329   9.732 -0.0704 -0.7368  0.7984
  609TMC3    C2 9074   2.660   1.413   9.623  0.3191 -0.8038 -0.0258
  609TMC3    C3 9075   2.753   1.396   9.520  0.1243  0.5170  0.2604
  609TMC3    C4 9076   2.771   1.230   9.725  0.8554  0.4252  0.1663
  609TMC3    C5 9077   2.847   1.213   9.617 -0.9100 -0.2945  0.3688
  609TMC3    C6 9078   2.840   1.295   9.511  0.5609 -0.1890 -0.7407
  609TMC3     C 9079   2.598   1.362   9.847 -0.9377 -0.3609  0.1646
  609TMC3     O 9080   2.549   1.474   9.854  0.6970  0.6929  0.5069
  609TMC3     H 9081   2.580   1.486   9.621  0.5933 -0.4965  0.0780
  609TMC3    H1 9082   2.789   1.151   9.796  0.1543 -0.3782 -0.5417
  609TMC3    H2 9083   2.905   1.278   9.426  0.6748  0.1524 -0.7216
  609TMC3    C7 9084   2.967   1.126   9.625  0.4986  0.4311  0.1979
  609TMC3    C8 9085   2.753   1.498   9.419  0.1816 -0.0656  0.3075
  609TMC3    O1 9086   3.019   1.121   9.734  0.6319  0.0722  0.4436
  609TMC3    O2 9087   2.789   1.460   9.308 -0.4545  0.0155  0.2147
  610TMC3    C1 9088   4.567   0.993  13.133  0.1440 -0.4271  0.0628
  610TMC3    C2 9089   4.549   1.094  13.043 -0.2026  0.0495 -0.1245
  610TMC3    C3 9090   4.648   1.098  12.950 -0.0816  0.6351 -0.1118
  610TMC3    C4 9091   4.670   0.906  13.136  0.0714 -0.2277  0.0034
  610TMC3    C5 9092   0.033   0.923  13.048 -0.2017 -0.1263 -0.7486
  610TMC3    C6 9093   0.032   1.022  12.952  0.9138 -0.3174  0.3110
  610TMC3     C 9094   4.481   0.992  13.249  0.7274 -0.4213  0.2891
  610TMC3     O 9095   4.494   0.901  13.333 -0.1833  0.0249 -0.2511
  610TMC3     H 9096   4.469   1.166  13.036 -1.9828 -2.0472 -1.4002
  610TMC3    H1 9097   4.675   0.826  13.208 -0.3739 -0.3565 -0.1051
  610TMC3    H2 9098   0.108   1.022  12.876  1.9852 -0.8747  1.3913
  610TMC3    C7 9099   0.131   0.811  13.040 -0.3062 -0.1185 -0.0042
  610TMC3    C8 9100   4.624   1.186  12.841  0.5606  0.0906  0.1049
  610TMC3    O1 9101   0.128   0.730  13.131  0.3647 -0.1201 -0.6065
  610TMC3    O2 9102   4.512   1.231  12.822  0.6026  0.7837  0.2385
  611MPD2     C 9103   3.692   1.675  10.833  0.2686 -0.2808 -0.2579
  611MPD2    C1 9104   3.694   1.681  10.696  0.3827 -0.8452 -0.3702
  611MPD2    C2 9105   3.806   1.733  10.634 -0.6811  0.1702  0.0791
  611MPD2    C3 9106   3.911   1.777  10.705  0.6066 -0.1239  0.7366
  611MPD2    C4 9107   3.908   1.766  10.841  0.3832  0.1294  0.5676
  611MPD2    C5 9108   3.807   1.698  10.901  0.0455 -0.5145 -0.5084
  611MPD2     H 9109   3.807   1.737  10.526  0.0887 -2.4316 -0.0042
  611MPD2    H1 9110   3.992   1.800  10.901  2.2188 -0.5361 -1.6487
  611MPD2    H2 9111   3.610   1.632  10.889 -1.6426  1.7499 -1.4944
  611MPD2    H3 9112   3.809   1.694  11.009 -2.0160  0.3082 -0.4485
  611MPD2     N 9113   4.020   1.848  10.649 -0.2570 -0.1161 -0.1879
  611MPD2    H5 9114   4.091   1.877  10.715  0.2733 -0.7654 -0.4790
  611MPD2    N1 9115   3.584   1.625  10.628  0.1057 -0.1535  0.3232
  611MPD2    H7 9116   3.506   1.584  10.679 -1.4846  1.3522 -0.8819
  612TMC3    C1 9117   4.173   1.944  10.488  0.1949  0.0601  0.8255
  612TMC3    C2 9118   4.269   1.956  10.587 -0.0973 -0.2871  0.5360
  612TMC3    C3 9119   4.372   2.031  10.551 -0.2162 -0.1902 -0.0781
  612TMC3    C4 9120   4.196   1.982  10.356  0.1423  0.4893  0.0599
  612TMC3    C5 9121   4.314   2.050  10.327  0.6673 -0.2221 -0.2857
  612TMC3    C6 9122   4.390   2.096  10.432  0.2405 -0.1870 -0.1432
  612TMC3     C 9123   4.041   1.879  10.514  0.5595 -0.5323  0.0585
  612TMC3     O 9124   3.971   1.858  10.414  0.3195 -0.9185 -0.2547
  612TMC3     H 9125   4.259   1.906  10.683  2.2191  0.7067  1.2924
  612TMC3    H1 9126   4.121   1.971  10.279  0.3872 -0.0599 -0.0974
  612TMC3    H2 9127   4.472   2.163  10.409  1.0869 -1.3966 -0.6669
  612TMC3    C7 9128   4.326   2.087  10.183  0.2747 -0.2231 -0.0471
  612TMC3    C8 9129   4.465   2.071  10.653  0.0505 -0.1786  0.8568
  612TMC3    O1 9130   4.222   2.100  10.115 -0.4954 -0.9277 -0.1825
  612TMC3    O2 9131   4.559   2.144  10.627  0.0167  0.5423 -0.6188
  613MPD2     C 9132   3.499   3.363  16.725 -0.0741 -0.5198 -0.0703
  613MPD2    C1 9133   3.589   3.326  16.627 -0.7766  0.1086  0.1580
  613MPD2    C2 9134   3.584   3.194  16.591  0.2599 -0.2794  0.4403
  613MPD2    C3 9135   3.491   3.108  16.640 -0.2288  0.0102 -0.4479
  613MPD2    C4 9136   3.407   3.149  16.740 -0.0726 -0.1378  0.8758
  613MPD2    C5 9137   3.409   3.276  16.781  0.1470 -0.4305  0.1817
  613MPD2     H 9138   3.654   3.153  16.519 -0.5454 -1.0064  0.0773
  613MPD2    H1 9139   3.339   3.079  16.788 -2.0080  2.4082  1.8594
  613MPD2    H2 9140   3.498   3.463  16.766  0.6395 -0.4436 -0.2289
  613MPD2    H3 9141   3.341   3.311  16.858 -2.1616 -2.5813 -0.8420
  613MPD2     N 9142   3.459   2.983  16.586  0.7219 -0.4709  0.5446
  613MPD2    H5 9143   3.378   2.938  16.628  0.0522  0.4436  0.2109
  613MPD2    N1 9144   3.685   3.402  16.556 -0.9829  0.0217 -0.2263
  613MPD2    H7 9145   3.729   3.349  16.482 -0.6615  0.3735 -0.2852
  614TMC3    C1 9146   3.834   3.570  16.473  0.6749  0.0665 -0.1718
  614TMC3    C2 9147   3.868   3.456  16.407 -0.0379  0.0084 -0.1770
  614TMC3    C3 9148   3.850   3.453  16.270  0.2291 -0.0752  0.4211
  614TMC3    C4 9149   3.794   3.684  16.404 -0.4337  0.4497 -0.8844
  614TMC3    C5 9150   3.776   3.676  16.269  0.0609  0.2754  0.1105
  614TMC3    C6 9151   3.812   3.564  16.196 -0.0840  0.0423  0.1874
  614TMC3     C 9152   3.723   3.532  16.567  0.2991  0.6948 -0.0876
  614TMC3     O 9153   3.679   3.613  16.648 -0.0893 -0.1506 -0.2727
  614TMC3     H 9154   3.919   3.378  16.463 -1.3047 -1.2342 -0.7176
  614TMC3    H1 9155   3.749   3.760  16.466 -2.6530 -1.1952 -0.4428
  614TMC3    H2 9156   3.791   3.564  16.089  0.6290 -0.6224  0.0426
  614TMC3    C7 9157   3.720   3.794  16.211  0.2784  0.6602  0.2081
  614TMC3    C8 9158   3.794   3.326  16.219 -0.7941 -0.0615 -0.2035
  614TMC3    O1 9159   3.772   3.898  16.242 -0.3062  0.1494  0.0743
  614TMC3    O2 9160   3.744   3.260  16.309 -0.0278  0.6416 -0.4702
  615MPD2     C 9161   2.745   0.256  15.951 -0.1751  0.7087  0.5665
  615MPD2    C1 9162   2.726   0.152  16.046 -0.0890  0.0750  0.7440
  615MPD2    C2 9163   2.639   0.050  16.003  0.0189 -0.2279  0.1546
  615MPD2    C3 9164   2.582   0.046  15.878 -1.0092 -0.6156  0.0391
  615MPD2    C4 9165   2.605   0.149  15.785 -0.1113 -0.2142 -0.1525
  615MPD2    C5 9166   2.685   0.253  15.826 -0.4395 -0.3815  0.0171
  615MPD2     H 9167   2.627   4.704  16.073  1.6001  1.2857  2.2017
  615MPD2    H1 9168   2.555   0.152  15.689  0.9259 -0.4150 -0.6924
  615MPD2    H2 9169   2.796   0.348  15.977 -0.9062  0.9469  1.1505
  615MPD2    H3 9170   2.695   0.340  15.762  1.8594 -0.4829  0.2491
  615MPD2     N 9171   2.502   4.676  15.837  0.2482 -0.3197 -0.0482
  615MPD2    H5 9172   2.471   4.685  15.740 -2.3752 -0.3462  0.8117
  615MPD2    N1 9173   2.775   0.155  16.181  0.2795  0.3179  0.2590
  615MPD2    H7 9174   2.739   0.093  16.253  0.9688 -0.2780  0.0988
  616TMC3    C1 9175   2.906   0.245  16.347 -0.1751  0.5283 -0.5655
  616TMC3    C2 9176   3.028   0.292  16.372  0.3485  0.0011  0.7382
  616TMC3    C3 9177   3.042   0.412  16.438  0.3274  0.1075 -0.3789
  616TMC3    C4 9178   2.791   0.304  16.397  0.5173  0.9391 -1.4956
  616TMC3    C5 9179   2.812   0.420  16.474 -0.0476  0.0200 -0.3043
  616TMC3    C6 9180   2.934   0.479  16.498 -0.3578  0.1578 -0.2607
  616TMC3     C 9181   2.899   0.209  16.204  0.3271 -0.1990  0.1656
  616TMC3     O 9182   2.987   0.247  16.127  0.7153  0.6855  0.4131
  616TMC3     H 9183   3.104   0.252  16.307  0.1037 -0.3235  0.6555
  616TMC3    H1 9184   2.696   0.252  16.404 -0.1165  2.2552 -0.3828
  616TMC3    H2 9185   2.951   0.578  16.538 -1.9391 -0.1468  1.1530
  616TMC3    C7 9186   2.705   0.475  16.539  0.1546 -0.2602 -0.0343
  616TMC3    C8 9187   3.155   0.492  16.406 -0.4491 -0.7713  0.1945
  616TMC3    O1 9188   2.738   0.544  16.638  0.2805 -0.5177 -0.3370
  616TMC3    O2 9189   3.137   0.614  16.412 -0.4526 -1.0317 -0.0723
  617MPD2     C 9190   0.783   3.323  13.951  0.5125  0.0567  0.9551
  617MPD2    C1 9191   0.793   3.211  14.039 -0.5129  0.6426 -0.2556
  617MPD2    C2 9192   0.679   3.145  14.077  0.0828  0.1378 -0.0258
  617MPD2    C3 9193   0.555   3.188  14.028 -0.6480  0.1335  0.5761
  617MPD2    C4 9194   0.555   3.277  13.927  0.8625 -0.5810  0.0824
  617MPD2    C5 9195   0.667   3.359  13.907 -0.2267  0.2529  0.0884
  617MPD2     H 9196   0.685   3.065  14.150 -1.2886  0.2996  0.2607
  617MPD2    H1 9197   0.459   3.302  13.884  0.4004 -1.2281  0.7572
  617MPD2    H2 9198   0.867   3.383  13.918 -0.9914  1.7657  0.2460
  617MPD2    H3 9199   0.651   3.444  13.842  1.3172  0.3102 -0.2362
  617MPD2     N 9200   0.426   3.134  14.067  0.6555  0.1085  0.4790
  617MPD2    H5 9201   0.339   3.168  14.027  0.5594  0.5073  1.0268
  617MPD2    N1 9202   0.928   3.172  14.078 -0.5211  0.9397 -0.6487
  617MPD2    H7 9203   1.009   3.226  14.049  0.9005 -0.7987  0.0511
  618TMC3    C1 9204   1.099   3.026  14.155 -0.2939 -0.1524  0.7146
  618TMC3    C2 9205   1.166   2.924  14.105 -0.2909  0.1550  0.9763
  618TMC3    C3 9206   1.304   2.933  14.082 -0.5718  0.1299  0.1279
  618TMC3    C4 9207   1.164   3.140  14.198  0.8944  0.0365 -0.0792
  618TMC3    C5 9208   1.296   3.144  14.178  0.0654 -1.0801 -0.2391
  618TMC3    C6 9209   1.371   3.047  14.119 -1.0733 -0.7433 -0.4369
  618TMC3     C 9210   0.956   3.047  14.135  0.3272 -0.4749  0.3659
  618TMC3     O 9211   0.884   2.947  14.146 -0.3309 -0.0911  0.0963
  618TMC3     H 9212   1.105   2.847  14.059 -0.4038  1.5951 -1.2946
  618TMC3    H1 9213   1.113   3.228  14.235 -3.1873 -1.7231 -1.3976
  618TMC3    H2 9214   1.479   3.052  14.108 -0.6769  0.8635  3.9516
  618TMC3    C7 9215   1.371   3.261  14.229  0.4712 -0.1149 -0.2444
  618TMC3    C8 9216   1.360   2.845  13.980  0.0090 -0.6498 -0.1013
  618TMC3    O1 9217   1.338   3.303  14.342  0.6150  0.0077  0.1805
  618TMC3    O2 9218   1.301   2.738  13.972  0.1924 -0.1152 -0.3042
  619MPD2     C 9219   2.387   0.084  13.710 -0.1467 -0.1163 -0.1621
  619MPD2    C1 9220   2.348   0.091  13.581  0.0960 -0.1791  0.1735
  619MPD2    C2 9221   2.234   0.013  13.549 -0.0534 -0.2834  0.5040
  619MPD2    C3 9222   2.174   4.674  13.646 -0.1125 -0.3512 -0.2883
  619MPD2    C4 9223   2.221   4.663  13.775 -0.0496  0.2786 -0.0936
  619MPD2    C5 9224   2.329   0.001  13.802 -0.1904  0.0969  0.4422
  619MPD2     H 9225   2.190   0.020  13.451 -0.1710  2.3786  0.7478
  619MPD2    H1 9226   2.173   4.598  13.847 -2.2840 -0.4252 -2.2363
  619MPD2    H2 9227   2.476   0.131  13.750 -0.2641 -0.0837  0.0568
  619MPD2    H3 9228   2.374   4.733  13.901  2.6591  0.1776 -0.8546
  619MPD2     N 9229   2.055   4.586  13.622  0.2217  0.1150  0.7571
  619MPD2    H5 9230   2.013   4.539  13.701 -1.1298 -1.4140 -0.8880
  619MPD2    N1 9231   2.424   0.155  13.482 -0.0839  0.2281 -0.3656
  619MPD2    H7 9232   2.403   0.137  13.385 -0.8475 -0.0415 -0.1498
  620TMC3    C1 9233   2.575   0.304  13.402 -0.0645 -0.6657  0.0297
  620TMC3    C2 9234   2.508   0.280  13.282 -0.5908 -0.0551 -0.4678
  620TMC3    C3 9235   2.465   0.384  13.205 -0.2876 -0.3259 -0.2597
  620TMC3    C4 9236   2.622   0.431  13.432 -0.1619  0.0856  0.0115
  620TMC3    C5 9237   2.597   0.533  13.342 -0.1073 -0.2355 -0.0832
  620TMC3    C6 9238   2.521   0.512  13.233  0.1155  0.0060 -0.2068
  620TMC3     C 9239   2.532   0.235  13.517  0.2812  0.5591  0.5600
  620TMC3     O 9240   2.564   0.286  13.621  0.2071 -0.4945  0.2612
  620TMC3     H 9241   2.467   0.183  13.260 -2.1789  0.3815  0.5363
  620TMC3    H1 9242   2.690   0.442  13.515 -0.1286 -0.6665  0.0811
  620TMC3    H2 9243   2.492   0.601  13.180  2.2278  0.4244 -0.6649
  620TMC3    C7 9244   2.573   0.660  13.404 -0.1328  0.4245 -0.4235
  620TMC3    C8 9245   2.324   0.389  13.237  0.5275 -0.6622  0.4635
  620TMC3    O1 9246   2.634   0.760  13.368 -0.1616 -0.0261 -0.6138
  620TMC3    O2 9247   2.292   0.487  13.302 -0.4758 -0.3136  0.1303
  621MPD2     C 9248   2.658   0.072   9.634  1.1409 -0.4800 -0.1194
  621MPD2    C1 9249   2.670   0.021   9.766  0.1949  0.4074 -0.1827
  621MPD2    C2 9250   2.750   0.097   9.856  0.6323 -1.0029  0.1301
  621MPD2    C3 9251   2.782   0.226   9.829  0.4861 -0.4088 -0.0641
  621MPD2    C4 9252   2.759   0.272   9.698  0.5833  0.1217  0.0701
  621MPD2    C5 9253   2.702   0.198   9.600 -0.3827 -0.9668 -0.0159
  621MPD2     H 9254   2.766   0.053   9.954  0.4161  1.3455  1.1992
  621MPD2    H1 9255   2.779   0.374   9.667  2.8139 -0.6120 -0.9255
  621MPD2    H2 9256   2.609   0.026   9.549 -1.4588  1.6819  0.2167
  621MPD2    H3 9257   2.676   0.230   9.500  2.6343 -0.1002 -0.5156
  621MPD2     N 9258   2.849   0.299   9.932 -0.3035  0.2807 -0.0635
  621MPD2    H5 9259   2.847   0.252  10.022 -0.2902 -1.4143 -0.9533
  621MPD2    N1 9260   2.602   4.639   9.806  0.4650 -0.0501 -0.0811
  621MPD2    H7 9261   2.616   4.617   9.904  0.8576 -0.0812 -0.1454
  622TMC3    C1 9262   2.465   4.456   9.786  0.3157  0.7796  0.5256
  622TMC3    C2 9263   2.446   4.450   9.919  0.2913  0.3139  0.1380
  622TMC3    C3 9264   2.415   4.336   9.978 -0.2965 -0.4372 -0.9365
  622TMC3    C4 9265   2.429   4.355   9.700  0.2875 -0.6417  0.3033
  622TMC3    C5 9266   2.393   4.237   9.771  0.4901 -0.5212  0.1534
  622TMC3    C6 9267   2.396   4.226   9.904  0.0610 -0.4343 -0.1570
  622TMC3     C 9268   2.516   4.574   9.719  0.0440  0.5148  0.5340
  622TMC3     O 9269   2.486   4.583   9.602 -0.0223  0.0773 -0.0998
  622TMC3     H 9270   2.456   4.539   9.981  4.0089  0.3731 -0.5719
  622TMC3    H1 9271   2.437   4.358   9.592 -0.1308 -1.0130  0.2605
  622TMC3    H2 9272   2.357   4.137   9.951 -1.6206 -0.0959 -0.9037
  622TMC3    C7 9273   2.330   4.131   9.695 -0.1107  0.1337 -0.3496
  622TMC3    C8 9274   2.334   4.345  10.098 -0.0043  0.4140  0.0996
  622TMC3    O1 9275   2.335   4.027   9.753 -0.2422 -0.5304 -0.1422
  622TMC3    O2 9276   2.266   4.443  10.104  0.4551  0.1631 -0.0044
  623MPD2     C 9277   1.290   0.692  15.714  0.0929 -0.3904  0.5395
  623MPD2    C1 9278   1.224   0.655  15.829 -0.3202 -0.7125  0.1104
  623MPD2    C2 9279   1.275   0.667  15.955  0.7334  0.0618 -0.0177
  623MPD2    C3 9280   1.405   0.713  15.969  0.1817  0.2531 -0.1106
  623MPD2    C4 9281   1.475   0.757  15.856  0.2564 -0.5574 -0.4007
  623MPD2    C5 9282   1.414   0.750  15.733 -0.1552 -0.2596  0.1680
  623MPD2     H 9283   1.211   0.626  16.033  2.7324 -0.7563  1.2210
  623MPD2    H1 9284   1.574   0.800  15.855 -0.5212  1.2657  1.6956
  623MPD2    H2 9285   1.245   0.692  15.615  1.3784 -0.8791 -0.0581
  623MPD2    H3 9286   1.464   0.792  15.646 -0.4336 -0.6831 -0.1955
  623MPD2     N 9287   1.455   0.711  16.100 -0.5801  0.5262  0.0745
  623MPD2    H5 9288   1.393   0.693  16.179 -1.3312 -0.5873 -0.7690
  623MPD2    N1 9289   1.099   0.590  15.822 -0.0925  0.3027  0.4189
  623MPD2    H7 9290   1.054   0.565  15.909  1.9239 -0.0232  1.3783
  624TMC3    C1 9291   1.720   0.813  16.471  0.1798 -0.3441 -0.2055
  624TMC3    C2 9292   1.625   0.750  16.542 -0.0639  0.5226 -0.1236
  624TMC3    C3 9293   1.528   0.673  16.484 -0.4241  0.1961  0.4034
  624TMC3    C4 9294   1.711   0.807  16.335  0.5008 -0.3432 -0.2862
  624TMC3    C5 9295   1.607   0.729  16.275  0.5357 -0.6962  0.3136
  624TMC3    C6 9296   1.521   0.650  16.348  0.4817 -0.1593 -0.2484
  624TMC3     C 9297   1.854   0.833  16.514  0.3953 -0.0791 -0.4208
  624TMC3     O 9298   1.867   0.815  16.635 -0.2938  0.0009 -0.2280
  624TMC3     H 9299   1.650   0.734  16.647  2.8727  0.4660 -0.8145
  624TMC3    H1 9300   1.786   0.841  16.264 -0.9761  2.2329 -0.6059
  624TMC3    H2 9301   1.441   0.589  16.307  0.1165 -0.5482  1.0408
  624TMC3    C7 9302   1.588   0.736  16.133  0.0150 -0.1117  0.2557
  624TMC3    C8 9303   1.441   0.590  16.558  0.2890  0.3142  0.6897
  624TMC3    O1 9304   1.683   0.754  16.060 -0.8660 -0.1419  0.4597
  624TMC3    O2 9305   1.395   0.495  16.497  0.4160  0.1740  0.0851
  625MPD2     C 9306   2.076   1.713   0.878 -0.0890  0.8450  0.6270
  625MPD2    C1 9307   2.015   1.814   0.946 -0.3688  0.3156 -0.1403
  625MPD2    C2 9308   2.077   1.881   1.052 -0.4409  0.7701  0.2908
  625MPD2    C3 9309   2.201   1.847   1.090 -0.1665 -0.0216  0.2480
  625MPD2    C4 9310   2.259   1.740   1.028 -0.6344  0.2377  0.1638
  625MPD2    C5 9311   2.201   1.678   0.919  0.4654 -0.7192  0.4152
  625MPD2     H 9312   2.019   1.957   1.103  1.7899  3.0790 -0.5865
  625MPD2    H1 9313   2.353   1.697   1.060 -0.0022  1.7558  0.3643
  625MPD2    H2 9314   2.040   1.660   0.790 -0.1411  1.1486  0.4659
  625MPD2    H3 9315   2.244   1.592   0.869  0.9299 -0.8461  1.0404
  625MPD2     N 9316   2.264   1.914   1.199 -0.2114 -0.8740 -0.0484
  625MPD2    H5 9317   2.209   1.985   1.249  0.6990 -0.2240  0.0254
  625MPD2    N1 9318   1.895   1.876   0.897 -0.1990 -0.3080 -0.0504
  625MPD2    H7 9319   1.860   1.959   0.943  0.8049 -0.6948  1.4057
  626TMC3    C1 9320   1.706   1.895   0.755  0.1793 -0.5734  0.5848
  626TMC3    C2 9321   1.670   1.871   0.621 -0.4112  0.1951 -0.5955
  626TMC3    C3 9322   1.600   1.968   0.552  0.3960 -0.0063  0.4791
  626TMC3    C4 9323   1.654   2.009   0.823  0.6796 -0.7787  0.5390
  626TMC3    C5 9324   1.565   2.088   0.749 -0.6032 -0.3647  0.7284
  626TMC3    C6 9325   1.534   2.066   0.618 -0.1144 -0.6583 -0.4827
  626TMC3     C 9326   1.815   1.813   0.801 -0.3169  0.1374 -0.6284
  626TMC3     O 9327   1.828   1.706   0.741 -0.0426 -0.2525 -0.0165
  626TMC3     H 9328   1.726   1.799   0.562  0.1072  1.2528 -1.3906
  626TMC3    H1 9329   1.664   2.021   0.930 -0.2855 -0.0401  0.5437
  626TMC3    H2 9330   1.482   2.143   0.562 -0.4197 -0.0628  0.6189
  626TMC3    C7 9331   1.492   2.190   0.819 -0.0852  0.0773  0.6946
  626TMC3    C8 9332   1.557   1.952   0.415 -0.0216 -0.2970  0.5429
  626TMC3    O1 9333   1.520   2.231   0.932 -0.4436 -0.1482  0.3678
  626TMC3    O2 9334   1.557   2.056   0.347  0.0946 -0.8188  0.3565
  627MPD2     C 9335   0.292   1.860  14.278 -0.1285  0.2267  1.1573
  627MPD2    C1 9336   0.243   1.810  14.397 -0.8741  0.3732  0.4824
  627MPD2    C2 9337   0.168   1.698  14.391 -0.0700 -0.0092  0.5723
  627MPD2    C3 9338   0.144   1.632  14.273 -0.5241 -0.3264 -0.0039
  627MPD2    C4 9339   0.197   1.680  14.149  0.1750 -0.2894 -0.5650
  627MPD2    C5 9340   0.267   1.796  14.157  0.9933  0.3368  1.0664
  627MPD2     H 9341   0.131   1.651  14.481 -1.5340  0.8255  0.4100
  627MPD2    H1 9342   0.180   1.641  14.050  1.4919 -0.0887 -0.8764
  627MPD2    H2 9343   0.362   1.943  14.277  1.1702 -0.8863 -1.0507
  627MPD2    H3 9344   0.310   1.851  14.074  1.8226 -1.6799  0.1559
  627MPD2     N 9345   0.059   1.519  14.273 -0.1738 -0.2610 -0.0652
  627MPD2    H5 9346   4.724   1.514  14.346  0.9253  0.1804  1.0478
  627MPD2    N1 9347   0.264   1.865  14.523  0.1815  0.0173 -0.4605
  627MPD2    H7 9348   0.211   1.831  14.603 -1.8836  0.0183 -1.8212
  628TMC3    C1 9349   0.334   2.006  14.689  0.4670  0.2370  0.0956
  628TMC3    C2 9350   0.438   2.003  14.772 -0.2481  0.8169  0.4641
  628TMC3    C3 9351   0.429   2.056  14.898 -0.8004  0.9393 -0.3485
  628TMC3    C4 9352   0.220   2.064  14.724  0.3409 -0.3780  0.2810
  628TMC3    C5 9353   0.218   2.131  14.840  0.2543  0.3105 -0.0094
  628TMC3    C6 9354   0.318   2.115  14.938  0.3159  0.0630 -0.2619
  628TMC3     C 9355   0.357   1.961  14.553 -0.3011 -0.2005  0.3358
  628TMC3     O 9356   0.443   2.017  14.481 -0.5688  0.2743  0.1974
  628TMC3     H 9357   0.536   1.961  14.752 -1.6292 -2.3977  0.4702
  628TMC3    H1 9358   0.148   2.083  14.645  2.6248  2.0585 -1.2363
  628TMC3    H2 9359   0.315   2.178  15.026  1.9298 -1.7415  1.0789
  628TMC3    C7 9360   0.172   2.271  14.841  0.4885  0.0380 -0.1841
  628TMC3    C8 9361   0.539   2.034  14.994 -0.3353  0.6929 -0.4759
  628TMC3    O1 9362   0.169   2.327  14.951 -0.3121  0.2161  0.0714
  628TMC3    O2 9363   0.633   1.965  14.958 -0.3583  0.1174  0.1575
  629MPD2     C 9364   3.589   0.584  16.167 -0.1903 -0.3060  0.1500
  629MPD2    C1 9365   3.618   0.488  16.265 -0.0341  0.0588  0.1207
  629MPD2    C2 9366   3.505   0.443  16.332 -0.3468 -1.0822 -0.6418
  629MPD2    C3 9367   3.376   0.491  16.316 -0.3354 -0.5166 -0.5135
  629MPD2    C4 9368   3.358   0.594  16.230  0.4018 -0.4600 -0.6925
  629MPD2    C5 9369   3.464   0.633  16.153 -0.4093  0.3304 -0.2489
  629MPD2     H 9370   3.521   0.363  16.403 -0.5927 -0.4031  0.1946
  629MPD2    H1 9371   3.262   0.643  16.217  1.2769  1.3607 -0.3358
  629MPD2    H2 9372   3.677   0.632  16.125  0.2250  0.9466  2.4762
  629MPD2    H3 9373   3.452   0.714  16.081  1.6371 -0.6458 -1.6914
  629MPD2     N 9374   3.265   0.426  16.368  0.3700 -0.5198  0.2618
  629MPD2    H5 9375   3.279   0.329  16.395  1.3706 -0.4898 -0.1271
  629MPD2    N1 9376   3.753   0.461  16.296 -0.5467 -0.1192  0.1159
  629MPD2    H7 9377   3.828   0.514  16.252 -0.5443  0.9032  1.3279
  630TMC3    C1 9378   3.939   0.444  16.454 -0.2811 -0.3592 -0.2447
  630TMC3    C2 9379   3.991   0.563  16.416 -0.1918 -0.3087  0.1276
  630TMC3    C3 9380   4.112   0.593  16.467  0.4613 -0.5099 -0.7009
  630TMC3    C4 9381   3.988   0.374  16.562  0.1079  0.2962 -0.3189
  630TMC3    C5 9382   4.100   0.417  16.629  0.4465 -0.3513  0.4071
  630TMC3    C6 9383   4.168   0.525  16.579  0.2478  0.7993 -0.2768
  630TMC3     C 9384   3.807   0.399  16.408 -0.1247  0.0442 -0.4977
  630TMC3     O 9385   3.738   0.332  16.483 -0.2301  0.3689  0.4993
  630TMC3     H 9386   3.938   0.633  16.353 -1.4802 -2.0094 -0.6822
  630TMC3    H1 9387   3.921   0.308  16.617  2.2120  0.6525  2.7255
  630TMC3    H2 9388   4.262   0.562  16.619  0.6248 -1.5237  0.9781
  630TMC3    C7 9389   4.114   0.396  16.769  0.8410 -1.0811  0.2530
  630TMC3    C8 9390   4.182   0.714  16.424  0.6435  0.4404 -0.2317
  630TMC3    O1 9391   4.030   0.323  16.823  0.4336  0.0917  0.8331
  630TMC3    O2 9392   4.264   0.755  16.503  0.3915  0.0468  0.5217
  631MPD2     C 9393   1.743   0.173  15.717  0.0721 -0.1529  0.1844
  631MPD2    C1 9394   1.823   0.179  15.611  0.4604 -0.1160  0.1284
  631MPD2    C2 9395   1.911   0.070  15.589 -0.2263 -0.1515 -1.0401
  631MPD2    C3 9396   1.910   4.695  15.665 -0.0533 -0.0061 -0.4032
  631MPD2    C4 9397   1.811   4.684  15.761  0.1297  0.6291 -0.1106
  631MPD2    C5 9398   1.734   0.055  15.789  0.3318 -0.0112 -0.3692
  631MPD2     H 9399   1.992   0.077  15.518  0.6233 -0.8090 -0.1471
  631MPD2    H1 9400   1.796   4.598  15.827  2.8954 -0.9105 -1.4583
  631MPD2    H2 9401   1.689   0.261  15.750  0.1622 -0.1573  0.3434
  631MPD2    H3 9402   1.662   0.052  15.870  1.8227 -1.7750  0.8841
  631MPD2     N 9403   2.014   4.596  15.650 -0.4385 -0.4407  0.0429
  631MPD2    H5 9404   2.086   4.623  15.584 -1.6429  2.7970  0.0250
  631MPD2    N1 9405   1.819   0.297  15.531  0.6853  0.7070 -0.6156
  631MPD2    H7 9406   1.754   0.369  15.559  0.7752 -0.0379  1.4872
  632TMC3    C1 9407   1.896   0.468  15.376 -0.0379  0.0985  0.6880
  632TMC3    C2 9408   1.774   0.533  15.382  0.2384 -0.4305 -0.2985
  632TMC3    C3 9409   1.774   0.655  15.331  0.3929  0.0627 -0.3244
  632TMC3    C4 9410   2.008   0.521  15.319  0.5376 -0.0937 -0.0244
  632TMC3    C5 9411   1.997   0.647  15.277  0.7366 -0.2143 -0.4328
  632TMC3    C6 9412   1.881   0.724  15.279  0.4418 -0.1707 -0.1111
  632TMC3     C 9413   1.907   0.332  15.432 -0.3678  0.5673 -0.1969
  632TMC3     O 9414   2.009   0.277  15.395 -0.6992  0.1244 -0.1631
  632TMC3     H 9415   1.687   0.487  15.427 -0.4894 -0.6791 -1.9618
  632TMC3    H1 9416   2.099   0.464  15.303  1.0825  0.1681  2.2288
  632TMC3    H2 9417   1.869   0.827  15.247 -0.0044  0.1926  1.2161
  632TMC3    C7 9418   2.110   0.708  15.206 -0.5268  0.2730  0.3803
  632TMC3    C8 9419   1.660   0.737  15.359  0.6474 -0.2716  0.4277
  632TMC3    O1 9420   2.220   0.661  15.223 -0.4176  0.5696 -0.2113
  632TMC3    O2 9421   1.581   0.693  15.445  0.3320  0.3949  0.2708
  633MPD2     C 9422   1.501   3.148  17.224 -0.0076 -0.2953  0.3046
  633MPD2    C1 9423   1.513   3.093  17.098  0.7606 -0.1459  0.1353
  633MPD2    C2 9424   1.436   2.980  17.068 -0.1244  0.5573 -0.2246
  633MPD2    C3 9425   1.345   2.929  17.161 -0.0391 -0.4039  0.0728
  633MPD2    C4 9426   1.333   2.981  17.284 -0.4482  0.5831  0.4592
  633MPD2    C5 9427   1.414   3.090  17.310  0.2485  0.1028 -0.5598
  633MPD2     H 9428   1.467   2.913  16.988  1.8373  1.3786 -0.1516
  633MPD2    H1 9429   1.264   2.947  17.360  0.4168 -0.3738  0.8151
  633MPD2    H2 9430   1.580   3.214  17.258 -0.3512  0.1654  0.2083
  633MPD2    H3 9431   1.418   3.127  17.412  3.1264 -1.0882 -0.2517
  633MPD2     N 9432   1.267   2.814  17.145 -0.0654 -0.1661  0.3490
  633MPD2    H5 9433   1.233   2.759  17.223 -1.7501 -0.8155 -0.8266
  633MPD2    N1 9434   1.604   3.151  17.007 -0.1101  0.3268 -0.0768
  633MPD2    H7 9435   1.604   3.109  16.914 -0.2788 -1.8505  0.9257
  634TMC3    C1 9436   1.742   3.312  16.909 -0.6033  0.2343 -0.3398
  634TMC3    C2 9437   1.776   3.209  16.824  0.2347  0.1379 -0.2762
  634TMC3    C3 9438   1.801   3.252  16.696  0.5404  0.6819  0.0127
  634TMC3    C4 9439   1.724   3.440  16.874 -0.2452 -1.1883 -0.5529
  634TMC3    C5 9440   1.751   3.478  16.746  0.1252 -1.0916  0.9000
  634TMC3    C6 9441   1.794   3.384  16.660 -0.2014  0.2598 -0.0384
  634TMC3     C 9442   1.670   3.271  17.028  0.6119 -0.4913 -0.5067
  634TMC3     O 9443   1.668   3.349  17.123  0.5762  0.4561 -0.2072
  634TMC3     H 9444   1.781   3.106  16.859 -0.8811  0.0407 -0.3848
  634TMC3    H1 9445   1.675   3.505  16.944  0.3855 -0.7290 -0.5316
  634TMC3    H2 9446   1.801   3.417  16.557 -1.6342 -3.6237 -1.3848
  634TMC3    C7 9447   1.708   3.604  16.683 -0.0879  0.4351  0.1209
  634TMC3    C8 9448   1.818   3.138  16.604 -0.1375 -0.1484  0.0935
  634TMC3    O1 9449   1.760   3.627  16.574  0.5601  0.2475  0.4634
  634TMC3    O2 9450   1.847   3.031  16.652 -0.4238 -0.5855  0.2446
  635TMC3    C1 9451   1.903   4.293  17.703  0.1733 -0.1378  0.2380
  635TMC3    C2 9452   1.897   4.181  17.624  0.0143  0.2626 -0.2264
  635TMC3    C3 9453   1.798   4.087  17.649  0.6235 -0.3300 -0.2765
  635TMC3    C4 9454   1.820   4.307   0.068 -1.2048 -0.0908  0.7440
  635TMC3    C5 9455   1.725   4.215   0.082  0.2618  0.1602 -0.4976
  635TMC3    C6 9456   1.712   4.099   0.013  0.3360 -0.2593 -0.2021
  635TMC3     C 9457   1.971   4.413  17.665 -0.3481  0.0712  0.8007
  635TMC3     O 9458   2.006   4.492   0.007 -0.1194  0.5369  0.3219
  635TMC3     H 9459   1.955   4.178  17.532  0.6250  0.4746  0.1521
  635TMC3    H1 9460   1.826   4.395   0.130  0.2786  1.9472 -2.2816
  635TMC3    H2 9461   1.635   4.030   0.045 -1.4943  0.4830 -2.9394
  635TMC3    C7 9462   1.645   4.221   0.203  0.1761  0.4801  0.2888
  635TMC3    C8 9463   1.785   3.969  17.566 -0.3619 -0.1622 -0.6585
  635TMC3    O1 9464   1.525   4.197   0.191  0.1927  0.1880 -0.4678
  635TMC3    O2 9465   1.807   3.974  17.446 -0.8058  0.2307 -0.1508
  636MPD2     C 9466   2.738   3.138  16.170  0.4327 -0.2208 -0.4534
  636MPD2    C1 9467   2.835   3.196  16.250 -0.1057  0.4380 -0.3909
  636MPD2    C2 9468   2.946   3.119  16.288 -0.1765 -0.4559  0.4187
  636MPD2    C3 9469   2.961   2.990  16.243  0.7193 -0.6695  0.1744
  636MPD2    C4 9470   2.854   2.924  16.184  0.5642 -0.5169 -0.5222
  636MPD2    C5 9471   2.746   3.001  16.145 -0.7164 -0.5110  0.0017
  636MPD2     H 9472   3.028   3.166  16.341 -0.1670  0.4544 -0.3976
  636MPD2    H1 9473   2.854   2.817  16.165 -3.3381 -0.2397 -2.1913
  636MPD2    H2 9474   2.645   3.184  16.143 -0.6640 -1.2826  1.4534
  636MPD2    H3 9475   2.657   2.948  16.113 -0.3664 -1.9458  1.4103
  636MPD2     N 9476   3.081   2.930  16.280  0.5800  0.3204  0.6784
  636MPD2    H5 9477   3.144   2.993  16.329  3.1932 -1.4149 -0.4319
  636MPD2    N1 9478   2.827   3.332  16.291 -0.3218 -0.0420  0.2399
  636MPD2    H7 9479   2.893   3.360  16.363 -0.9740  0.6033  0.5907
  637TMC3    C1 9480   3.270   2.779  16.272  0.2341 -0.1526 -0.0515
  637TMC3    C2 9481   3.317   2.830  16.396  0.2338 -0.0413 -0.1884
  637TMC3    C3 9482   3.453   2.817  16.416  0.7097  0.0846  0.3109
  637TMC3    C4 9483   3.352   2.721  16.180  0.4214  0.0905 -0.2305
  637TMC3    C5 9484   3.483   2.724  16.198  0.8236 -0.4528  0.0366
  637TMC3    C6 9485   3.531   2.764  16.317  0.5154  1.3419 -0.0301
  637TMC3     C 9486   3.134   2.813  16.224  0.0659  0.5445  0.1912
  637TMC3     O 9487   3.074   2.744  16.141  0.1357 -0.0693 -0.1500
  637TMC3     H 9488   3.254   2.861  16.478  0.1120 -1.1875  0.1482
  637TMC3    H1 9489   3.315   2.678  16.087  1.2724 -2.0355  0.4200
  637TMC3    H2 9490   3.636   2.750  16.336  0.6620  1.1212 -1.0071
  637TMC3    C7 9491   3.554   2.764  16.076 -0.4540 -0.1412  0.4670
  637TMC3    C8 9492   3.515   2.935  16.470 -0.3371 -0.7303  0.0204
  637TMC3    O1 9493   3.496   2.738  15.973  0.1027 -0.2758  0.2336
  637TMC3    O2 9494   3.604   2.980  16.399 -0.4108 -0.2196  0.1188
  638MPD2     C 9495   2.412   2.650  14.591 -0.3325  0.0907  0.0067
  638MPD2    C1 9496   2.470   2.532  14.548 -0.0052 -0.4042  0.3946
  638MPD2    C2 9497   2.475   2.419  14.625  0.4551 -0.2575 -0.0977
  638MPD2    C3 9498   2.424   2.417  14.750  0.7004 -0.4297 -0.2053
  638MPD2    C4 9499   2.357   2.532  14.795  0.2303 -0.1472 -0.3556
  638MPD2    C5 9500   2.351   2.653  14.718  0.1291 -0.2502  0.3284
  638MPD2     H 9501   2.521   2.329  14.586  1.0174  0.0280 -0.1018
  638MPD2    H1 9502   2.307   2.531  14.891 -0.1446 -0.4950 -0.5499
  638MPD2    H2 9503   2.393   2.731  14.522  0.8704  0.6157  0.2966
  638MPD2    H3 9504   2.294   2.740  14.749  3.0925  1.4093  1.1697
  638MPD2     N 9505   2.438   2.303  14.828 -0.3626  0.0275  0.0721
  638MPD2    H5 9506   2.478   2.220  14.785  0.8360  1.5544 -1.7279
  638MPD2    N1 9507   2.530   2.516  14.421 -0.4093 -0.4476 -0.5807
  638MPD2    H7 9508   2.569   2.426  14.394  1.1009  0.3192 -0.9795
  639TMC3    C1 9509   2.450   2.159  15.002 -0.8512 -0.0001  0.1473
  639TMC3    C2 9510   2.382   2.071  14.925  0.1694  0.2410  0.7347
  639TMC3    C3 9511   2.392   1.941  14.960 -0.1518  0.4604 -0.0977
  639TMC3    C4 9512   2.535   2.111  15.101 -0.8009 -0.3720  0.1531
  639TMC3    C5 9513   2.549   1.974  15.120  0.6395  0.2456 -0.4409
  639TMC3    C6 9514   2.475   1.885  15.049 -0.6395  0.1733  0.7019
  639TMC3     C 9515   2.437   2.292  14.963  0.0324  0.7588 -0.5656
  639TMC3     O 9516   2.420   2.377  15.051 -0.4410 -0.0752 -0.2360
  639TMC3     H 9517   2.308   2.106  14.854  1.6761  2.0656  0.0586
  639TMC3    H1 9518   2.591   2.187  15.154  1.2050 -2.6329  1.2695
  639TMC3    H2 9519   2.475   1.778  15.069  0.7197  0.1855  0.7814
  639TMC3    C7 9520   2.681   1.940  15.176  0.4188  0.0301 -0.0453
  639TMC3    C8 9521   2.312   1.857  14.881 -0.1428  0.3516  0.5325
  639TMC3    O1 9522   2.731   2.028  15.246 -0.4346 -0.5335  0.4621
  639TMC3    O2 9523   2.311   1.876  14.759 -0.0081 -0.4959 -0.0530
  640MPD2     C 9524   2.941   1.580   9.861 -0.0846  0.5611  0.2488
  640MPD2    C1 9525   2.975   1.716   9.845 -0.3957  0.5907 -0.0786
  640MPD2    C2 9526   2.944   1.807   9.943  0.2036  0.6076  0.2522
  640MPD2    C3 9527   2.872   1.765  10.055 -0.2973  0.3078 -0.5083
  640MPD2    C4 9528   2.836   1.635  10.066  0.5012 -0.1900 -0.0715
  640MPD2    C5 9529   2.868   1.542   9.973 -0.5427  0.4493  0.3419
  640MPD2     H 9530   2.987   1.906   9.944  1.4083  0.1022 -1.3775
  640MPD2    H1 9531   2.797   1.597  10.159 -0.3033 -0.6795 -0.6059
  640MPD2    H2 9532   2.979   1.502   9.797 -0.1642  1.4674 -0.9116
  640MPD2    H3 9533   2.830   1.441   9.981  0.6595 -0.0280 -0.0396
  640MPD2     N 9534   2.838   1.843  10.166  0.1128  0.4510 -0.0924
  640MPD2    H5 9535   2.795   1.796  10.245  0.5722 -0.9713 -0.6846
  640MPD2    N1 9536   3.059   1.753   9.739 -0.2758 -0.1642  1.1512
  640MPD2    H7 9537   3.108   1.672   9.702  0.2876  1.7759 -2.3888
  641TMC3    C1 9538   3.213   1.899   9.632 -0.4949 -0.7345  0.7054
  641TMC3    C2 9539   3.306   1.800   9.632 -0.1997  0.4453  0.1674
  641TMC3    C3 9540   3.436   1.836   9.640 -0.3535  0.4036  0.3901
  641TMC3    C4 9541   3.252   2.027   9.640 -0.0998 -0.4806  0.0590
  641TMC3    C5 9542   3.387   2.064   9.638  0.1295  0.3504 -0.4543
  641TMC3    C6 9543   3.482   1.968   9.628  0.1755  0.3122  0.4220
  641TMC3     C 9544   3.090   1.880   9.707  0.3585  0.1862 -0.2009
  641TMC3     O 9545   3.014   1.974   9.713  0.0499  0.1236 -0.3314
  641TMC3     H 9546   3.273   1.698   9.622 -0.1162  0.3558  0.8302
  641TMC3    H1 9547   3.177   2.105   9.649 -1.2160 -1.5679  0.1529
  641TMC3    H2 9548   3.586   1.989   9.605  0.4474 -0.2020  1.1574
  641TMC3    C7 9549   3.421   2.199   9.630  0.4937  0.2477 -0.4321
  641TMC3    C8 9550   3.526   1.724   9.637  0.1441  0.3926  1.0700
  641TMC3    O1 9551   3.331   2.283   9.601 -0.4065 -0.1013 -0.1758
  641TMC3    O2 9552   3.476   1.612   9.625  0.0881 -0.6191  0.4634
  642TMC3    C1 9553   4.012   2.073  12.469 -0.0708 -0.9619  0.1911
  642TMC3    C2 9554   4.129   2.120  12.529  0.7361 -0.5387  0.3453
  642TMC3    C3 9555   4.185   2.038  12.623 -0.7950  0.2269  0.5584
  642TMC3    C4 9556   3.952   1.952  12.498 -0.5441  0.0376  0.1556
  642TMC3    C5 9557   4.026   1.876  12.588  0.2591 -0.0425 -0.0634
  642TMC3    C6 9558   4.145   1.909  12.646  0.9043  0.8206  0.3727
  642TMC3     C 9559   3.937   2.181  12.420  0.5928 -0.7173 -0.2471
  642TMC3     O 9560   3.994   2.250  12.333 -0.3444 -0.2430  0.3018
  642TMC3     H 9561   4.170   2.217  12.502 -1.0855  0.2965  0.6039
  642TMC3    H1 9562   3.856   1.922  12.458 -0.7746  0.9629  0.0157
  642TMC3    H2 9563   4.203   1.840  12.706 -0.3332 -0.6646 -0.1367
  642TMC3    C7 9564   3.982   1.743  12.615  0.4175  0.2050  0.0307
  642TMC3    C8 9565   4.320   2.065  12.663  1.0636  0.7186  0.0858
  642TMC3    O1 9566   4.019   1.683  12.715 -0.3811  0.1502 -0.2399
  642TMC3    O2 9567   4.386   1.987  12.723  0.2184  0.2777 -0.7265
  643TMC3    C1 9568   3.484   1.026  17.681  0.1756 -0.3931 -1.1074
  643TMC3    C2 9569   3.375   1.072  17.622  0.3143  0.4976  0.3827
  643TMC3    C3 9570   3.349   1.036  17.495 -0.3288 -0.1949 -0.4425
  643TMC3    C4 9571   3.565   0.936  17.610  0.9036 -0.2245  0.2526
  643TMC3    C5 9572   3.537   0.903  17.480  0.3095  1.2091 -0.2650
  643TMC3    C6 9573   3.418   0.939  17.420 -0.4235 -0.0149  0.1091
  643TMC3     C 9574   3.504   1.044   0.079 -0.3202  0.0330 -0.0882
  643TMC3     O 9575   3.408   1.092   0.134  0.1618 -1.1383 -0.6558
  643TMC3     H 9576   3.309   1.127  17.687 -0.3173  0.4442 -0.2085
  643TMC3    H1 9577   3.646   0.887  17.662 -1.4093 -3.5509  0.7133
  643TMC3    H2 9578   3.396   0.890  17.326  0.1363 -1.5144  0.7558
  643TMC3    C7 9579   3.629   0.807  17.418  0.8531 -0.1943 -0.0920
  643TMC3    C8 9580   3.269   1.125  17.413  0.1660 -0.0541 -0.1087
  643TMC3    O1 9581   3.697   0.743  17.496  0.0074 -0.4838 -0.2573
  643TMC3    O2 9582   3.238   1.063  17.314 -0.1857  0.8746  0.6233
  644MPD2     C 9583   3.444   1.800   9.976  0.3060  0.8729 -0.6135
  644MPD2    C1 9584   3.564   1.863  10.008 -0.6172 -0.2114 -0.1812
  644MPD2    C2 9585   3.555   2.000  10.019  0.6088  0.4486  0.3746
  644MPD2    C3 9586   3.439   2.078  10.015 -0.4339 -0.1635  0.0828
  644MPD2    C4 9587   3.326   2.005   9.988 -0.1045 -0.6367 -0.3794
  644MPD2    C5 9588   3.323   1.864   9.979 -0.7365 -0.1143  0.0194
  644MPD2     H 9589   3.649   2.053  10.030  0.2470  0.9306  1.1693
  644MPD2    H1 9590   3.230   2.055   9.975 -0.1408 -0.4369  0.6122
  644MPD2    H2 9591   3.443   1.693   9.959  0.1339  0.5591  1.3840
  644MPD2    H3 9592   3.229   1.813   9.958  0.2815 -1.6196 -0.8596
  644MPD2     N 9593   3.449   2.217  10.029  0.2746 -0.2759  0.2874
  644MPD2    H5 9594   3.541   2.251  10.054 -0.2091  1.2617  0.0284
  644MPD2    N1 9595   3.677   1.781  10.011 -0.1143 -0.4361 -0.0473
  644MPD2    H7 9596   3.657   1.682  10.027  0.1919 -0.5544 -0.3981
  645TMC3    C1 9597   3.396   2.443  10.063 -0.3197 -0.1708 -0.2684
  645TMC3    C2 9598   3.515   2.456  10.127 -0.3660  0.2758  0.2379
  645TMC3    C3 9599   3.545   2.584  10.172 -0.5856 -0.9395  0.2260
  645TMC3    C4 9600   3.308   2.549  10.040 -0.0043 -0.4915 -0.1295
  645TMC3    C5 9601   3.358   2.670  10.079 -0.3627 -0.3157 -0.3732
  645TMC3    C6 9602   3.473   2.692  10.143  0.4463  0.2366  0.1871
  645TMC3     C 9603   3.348   2.310  10.029  0.3112 -0.1065  0.0411
  645TMC3     O 9604   3.225   2.295  10.018  0.3601  0.3161  0.1572
  645TMC3     H 9605   3.579   2.372  10.152  2.5159  2.1209 -0.9382
  645TMC3    H1 9606   3.205   2.548  10.007 -0.5945  0.2777  1.6666
  645TMC3    H2 9607   3.502   2.783  10.195 -0.9307  0.4648  0.5401
  645TMC3    C7 9608   3.282   2.792  10.062 -0.4567  0.5538  0.3361
  645TMC3    C8 9609   3.682   2.618  10.219 -0.2934 -0.3235  0.1489
  645TMC3    O1 9610   3.328   2.890  10.118 -0.1928 -0.1404 -0.4553
  645TMC3    O2 9611   3.702   2.727  10.269 -1.0739  0.3583 -0.3500
  646MPD2     C 9612   2.782   0.923  14.287 -0.3265  0.4106 -0.1139
  646MPD2    C1 9613   2.734   0.957  14.413  0.7313 -0.1973 -0.7161
  646MPD2    C2 9614   2.623   1.042  14.418  0.1083  0.3765  0.4449
  646MPD2    C3 9615   2.572   1.101  14.301 -0.4858  0.3579  0.0239
  646MPD2    C4 9616   2.636   1.080  14.184 -0.1255  0.2423 -0.1842
  646MPD2    C5 9617   2.737   0.993  14.178 -0.2667 -0.5309  0.1988
  646MPD2     H 9618   2.578   1.073  14.512 -1.8062  1.0908 -0.7067
  646MPD2    H1 9619   2.602   1.118  14.089 -1.9114 -0.7475  0.0700
  646MPD2    H2 9620   2.870   0.862  14.269  0.8048  2.0202  0.0228
  646MPD2    H3 9621   2.788   0.985  14.083 -0.6777  0.7482 -0.1178
  646MPD2     N 9622   2.462   1.182  14.312  0.0307 -0.5189  0.3811
  646MPD2    H5 9623   2.418   1.169  14.403  0.0723 -0.1302  0.4594
  646MPD2    N1 9624   2.797   0.897  14.530 -0.7370 -0.2074 -0.1076
  646MPD2    H7 9625   2.878   0.838  14.517  0.3428  1.5258 -1.1865
  647TMC3    C1 9626   2.849   0.832  14.746 -0.7690 -0.2215  0.2838
  647TMC3    C2 9627   2.790   0.782  14.857 -0.3039 -0.4082 -0.1105
  647TMC3    C3 9628   2.880   0.743  14.952  0.0062 -0.5174  0.8534
  647TMC3    C4 9629   2.987   0.843  14.725  0.4005  0.3930 -0.1997
  647TMC3    C5 9630   3.065   0.816  14.830 -0.1874  0.4052  0.2947
  647TMC3    C6 9631   3.018   0.770  14.946  0.3138 -0.2624  0.4590
  647TMC3     C 9632   2.754   0.917  14.655  0.1787  0.9241  0.4170
  647TMC3     O 9633   2.639   0.946  14.695  0.0526 -0.2282 -0.2661
  647TMC3     H 9634   2.682   0.783  14.871 -0.5291  1.9271 -2.0651
  647TMC3    H1 9635   3.028   0.880  14.632 -2.6531 -1.0723 -2.1107
  647TMC3    H2 9636   3.080   0.736  15.029  1.0894  0.7059  0.2792
  647TMC3    C7 9637   3.206   0.837  14.829 -0.4923 -0.0322 -0.4905
  647TMC3    C8 9638   2.836   0.641  15.044  0.7781  0.4292 -0.8821
  647TMC3    O1 9639   3.259   0.799  14.933 -0.2764 -0.3612 -0.3203
  647TMC3    O2 9640   2.916   0.603  15.129  0.1929 -0.2581  0.1919
  648TMC3    C1 9641   2.126   3.322  16.148  1.1367  0.3676  0.6695
  648TMC3    C2 9642   2.179   3.200  16.117  0.6339  0.7203 -0.3631
  648TMC3    C3 9643   2.179   3.166  15.985  0.1345 -0.1502 -0.3448
  648TMC3    C4 9644   2.063   3.397  16.045  0.0717 -0.0717 -0.0640
  648TMC3    C5 9645   2.067   3.360  15.920 -0.1640 -0.2819 -0.3174
  648TMC3    C6 9646   2.115   3.239  15.891  0.3953 -0.2419  0.4148
  648TMC3     C 9647   2.107   3.368  16.291 -0.9130  0.7992  0.3134
  648TMC3     O 9648   2.084   3.485  16.299  0.2440 -0.2340  0.1890
  648TMC3     H 9649   2.237   3.149  16.193  0.6668  1.5829  0.1899
  648TMC3    H1 9650   2.049   3.500  16.074  1.5669  0.3670 -0.9264
  648TMC3    H2 9651   2.109   3.208  15.787  1.0000  0.0101  0.3034
  648TMC3    C7 9652   2.024   3.452  15.813 -0.8526  0.4104  0.1151
  648TMC3    C8 9653   2.250   3.048  15.943  1.4858 -0.1778  0.5923
  648TMC3    O1 9654   2.065   3.435  15.698  0.2197 -0.5401  0.3943
  648TMC3    O2 9655   2.285   3.037  15.827  0.3293 -0.3526 -0.6634
  649TMC3    C1 9656   1.176   4.534  12.844 -0.0483  0.0944 -0.4958
  649TMC3    C2 9657   1.306   4.532  12.880  0.5677  0.1714  0.1901
  649TMC3    C3 9658   1.335   4.454  12.983  0.0110 -0.8757  0.4558
  649TMC3    C4 9659   1.079   4.481  12.925 -0.8291  0.8703 -0.0091
  649TMC3    C5 9660   1.116   4.400  13.025 -0.7688 -0.1000 -0.1353
  649TMC3    C6 9661   1.249   4.381  13.054  0.2299  0.0144 -0.3931
  649TMC3     C 9662   1.147   4.583  12.712  0.4620 -0.6297 -0.1751
  649TMC3     O 9663   1.036   4.630  12.693  0.0875 -0.1484  0.3351
  649TMC3     H 9664   1.377   4.601  12.835 -1.3775  1.4332 -0.9539
  649TMC3    H1 9665   0.975   4.504  12.907 -1.2101 -0.8557  0.0425
  649TMC3    H2 9666   1.282   4.341  13.149 -0.5128 -0.0716 -0.1739
  649TMC3    C7 9667   1.012   4.354  13.111  0.5835  1.1603 -0.2694
  649TMC3    C8 9668   1.475   4.455  13.036 -0.8357 -0.0697 -0.2787
  649TMC3    O1 9669   0.918   4.426  13.127 -0.5285 -0.3104 -0.0799
  649TMC3    O2 9670   1.497   4.425  13.152  0.3640  0.2708 -0.9651
  650TMC3    C1 9671   3.365   1.444  12.553 -0.3810 -0.1171 -0.2089
  650TMC3    C2 9672   3.245   1.494  12.594 -0.1405  0.4833 -0.1134
  650TMC3    C3 9673   3.146   1.513  12.508 -0.1361  0.1432 -0.3007
  650TMC3    C4 9674   3.391   1.410  12.424  0.2544 -0.5235  0.1852
  650TMC3    C5 9675   3.291   1.454  12.333  0.5959  0.4770 -0.5695
  650TMC3    C6 9676   3.161   1.487  12.379  0.4010 -0.0825  0.4412
  650TMC3     C 9677   3.455   1.422  12.663  0.1099  0.2397 -0.6782
  650TMC3     O 9678   3.447   1.490  12.762 -0.4683  0.4045 -0.0163
  650TMC3     H 9679   3.236   1.527  12.696  0.3225  1.7208 -0.4753
  650TMC3    H1 9680   3.490   1.379  12.391 -0.0465 -1.7692  0.4615
  650TMC3    H2 9681   3.082   1.509  12.308  0.8439  0.6846  0.1851
  650TMC3    C7 9682   3.334   1.537  12.229 -0.3050  0.8776 -0.3520
  650TMC3    C8 9683   3.070   1.630  12.537  1.0096  0.0937 -0.6596
  650TMC3    O1 9684   3.438   1.502  12.181 -0.1340  0.2471  0.2787
  650TMC3    O2 9685   3.065   1.713  12.445  0.1226  0.2686  0.9106
  651MPD2     C 9686   2.045   3.642  10.297  0.2480  0.3930  1.0617
  651MPD2    C1 9687   2.075   3.709  10.412  0.4763  0.1188  0.1688
  651MPD2    C2 9688   2.201   3.737  10.443  0.0351  0.1795 -0.2329
  651MPD2    C3 9689   2.302   3.699  10.368  0.4067 -0.2525  0.3905
  651MPD2    C4 9690   2.271   3.646  10.244 -0.9167 -0.2100 -0.5841
  651MPD2    C5 9691   2.141   3.615  10.208  0.8299 -0.2185  0.3312
  651MPD2     H 9692   2.210   3.782  10.541 -1.6097 -1.7014  0.8020
  651MPD2    H1 9693   2.351   3.638  10.171 -0.5722  0.4621 -0.2811
  651MPD2    H2 9694   1.948   3.606  10.265  0.4688  1.5221 -0.8234
  651MPD2    H3 9695   2.115   3.571  10.113 -1.8784 -0.0427  1.0081
  651MPD2     N 9696   2.427   3.736  10.415  0.0667 -0.1283 -0.0222
  651MPD2    H5 9697   2.427   3.760  10.513  0.5744  0.2248 -0.1081
  651MPD2    N1 9698   1.978   3.756  10.498  0.3219  0.3880 -0.0431
  651MPD2    H7 9699   2.010   3.821  10.570 -0.4584  2.3098 -1.4511
  652TMC3    C1 9700   2.892   3.814  10.454  0.3093 -0.1161  0.3556
  652TMC3    C2 9701   2.785   3.747  10.387  0.4508  0.6876  0.1275
  652TMC3    C3 9702   2.659   3.793  10.420  0.0962 -0.0357  0.2713
  652TMC3    C4 9703   2.872   3.907  10.556  0.7484 -0.3427 -0.1055
  652TMC3    C5 9704   2.740   3.928  10.594  0.2740 -0.8852 -0.3772
  652TMC3    C6 9705   2.631   3.872  10.534  0.4149 -0.1857 -0.4579
  652TMC3     C 9706   3.031   3.768  10.446 -0.1397  0.1840 -0.0618
  652TMC3     O 9707   3.081   3.757  10.556 -0.1861  0.2906  0.2663
  652TMC3     H 9708   2.801   3.696  10.293 -0.1057 -1.5773  1.2668
  652TMC3    H1 9709   2.953   3.954  10.609 -1.0114  0.1099  2.1870
  652TMC3    H2 9710   2.532   3.880  10.576  0.3335 -2.5693 -0.2366
  652TMC3    C7 9711   2.709   3.990  10.725  0.3278 -0.2877  0.0437
  652TMC3    C8 9712   2.548   3.728  10.349  0.3565 -0.0826  0.3534
  652TMC3    O1 9713   2.614   3.944  10.787  0.2431 -0.0086  0.0092
  652TMC3    O2 9714   2.570   3.669  10.242 -0.4665  0.3264  0.1726
  653MPD2     C 9715   1.374   3.299  17.726 -0.0194  0.3936 -0.2535
  653MPD2    C1 9716   1.273   3.380  17.675  0.2261  0.8206  0.1087
  653MPD2    C2 9717   1.167   3.321  17.609 -0.4001  0.5926 -0.1507
  653MPD2    C3 9718   1.152   3.186  17.595  0.5333 -0.5303 -0.4668
  653MPD2    C4 9719   1.256   3.112  17.647 -0.7164  0.2913 -0.3733
  653MPD2    C5 9720   1.367   3.168  17.712  0.0073  0.0956 -0.2858
  653MPD2     H 9721   1.084   3.386  17.584 -0.8229 -0.4727 -1.5224
  653MPD2    H1 9722   1.267   3.005  17.634 -1.0121  0.0631  1.1979
  653MPD2    H2 9723   1.465   3.335   0.028  0.6386  1.7477 -2.5814
  653MPD2    H3 9724   1.440   3.103   0.015 -0.6114 -1.1685 -1.0808
  653MPD2     N 9725   1.040   3.142  17.517 -0.0110 -0.1846  0.2989
  653MPD2    H5 9726   0.974   3.210  17.481  0.3542 -1.0508 -1.9995
  653MPD2    N1 9727   1.274   3.519  17.696  0.6310  0.0065  0.0172
  653MPD2    H7 9728   1.205   3.573  17.645  1.0668  0.6831  0.1489
  654TMC3    C1 9729   0.908   2.979  17.387 -0.3919 -0.3932 -0.6166
  654TMC3    C2 9730   0.824   3.080  17.344 -0.1089  0.5782 -1.3243
  654TMC3    C3 9731   0.776   3.071  17.213 -0.1081 -0.2676  0.2635
  654TMC3    C4 9732   0.912   2.858  17.325  0.4637  0.5127 -0.7822
  654TMC3    C5 9733   0.840   2.847  17.212  0.0431  0.5604 -0.0433
  654TMC3    C6 9734   0.785   2.950  17.150  0.4426  0.0002 -0.3030
  654TMC3     C 9735   1.028   3.010  17.470  0.3175 -0.9014  0.0243
  654TMC3     O 9736   1.083   2.909  17.517  0.1189 -0.4931  0.1608
  654TMC3     H 9737   0.806   3.169  17.402  2.2122 -1.0804  1.9829
  654TMC3    H1 9738   0.953   2.768  17.370 -2.1652 -0.3341 -0.0428
  654TMC3    H2 9739   0.716   2.936  17.067 -0.5580  1.2454  0.3245
  654TMC3    C7 9740   0.836   2.725  17.135 -0.0173  0.3680 -0.6857
  654TMC3    C8 9741   0.668   3.154  17.175 -0.1472 -0.8246  1.4534
  654TMC3    O1 9742   0.815   2.737  17.015 -0.4640 -0.4991 -0.3088
  654TMC3    O2 9743   0.615   3.223  17.260 -0.2770  0.2596  0.0755
  655MPD2     C 9744   2.712   3.388  15.613 -0.7838  0.1499  0.1044
  655MPD2    C1 9745   2.596   3.404  15.544  0.0109  0.2461 -0.0685
  655MPD2    C2 9746   2.548   3.315  15.455 -0.4168  0.2704  1.0884
  655MPD2    C3 9747   2.617   3.199  15.434 -0.5780  0.4101 -0.2759
  655MPD2    C4 9748   2.740   3.180  15.485  0.9227 -0.5807  0.1739
  655MPD2    C5 9749   2.787   3.280  15.569 -0.1844  0.1961 -0.3957
  655MPD2     H 9750   2.449   3.338  15.417 -1.3787 -2.1695  2.0936
  655MPD2    H1 9751   2.806   3.093  15.477 -2.0614 -2.9653  1.5132
  655MPD2    H2 9752   2.762   3.465  15.670  0.5556 -0.4360 -0.2731
  655MPD2    H3 9753   2.886   3.279  15.613 -0.2932 -1.5440 -0.2187
  655MPD2     N 9754   2.585   3.109  15.325 -0.1332  0.2584  0.4101
  655MPD2    H5 9755   2.660   3.050  15.288 -0.9196 -0.5460  0.0893
  655MPD2    N1 9756   2.503   3.504  15.577  0.2952  0.2421 -0.1843
  655MPD2    H7 9757   2.421   3.522  15.520  0.0713  0.1937  0.1219
  656TMC3    C1 9758   2.406   3.678  15.712 -0.1069 -0.1430  0.0303
  656TMC3    C2 9759   2.353   3.691  15.842 -0.2622  0.6304  0.5041
  656TMC3    C3 9760   2.260   3.783  15.861 -0.1038  0.4358  0.5120
  656TMC3    C4 9761   2.375   3.763  15.613  0.7731 -0.3758  0.3622
  656TMC3    C5 9762   2.268   3.852  15.638  0.0351 -0.4252 -0.2040
  656TMC3    C6 9763   2.213   3.868  15.764  0.2635 -0.4461  0.4007
  656TMC3     C 9764   2.507   3.579  15.695 -0.0322  0.4316  0.7213
  656TMC3     O 9765   2.575   3.552  15.795 -0.0487  0.7201  0.0713
  656TMC3     H 9766   2.378   3.631  15.929  1.0454 -0.2081 -0.4524
  656TMC3    H1 9767   2.408   3.754  15.510  1.3730 -1.3355  0.6406
  656TMC3    H2 9768   2.132   3.936  15.785  0.3056 -0.1246 -0.5061
  656TMC3    C7 9769   2.211   3.930  15.532 -0.3969  0.6217  0.2686
  656TMC3    C8 9770   2.173   3.768  15.978 -0.4275 -0.0312  0.0463
  656TMC3    O1 9771   2.230   3.897  15.420 -0.2019  0.0230 -0.1667
  656TMC3    O2 9772   2.203   3.673  16.051 -0.2942 -0.3421 -0.0011
  657TMC3    C1 9773   0.869   2.831  15.222  0.1112 -0.4110  0.4513
  657TMC3    C2 9774   0.849   2.900  15.341 -0.7578 -0.1476  0.0406
  657TMC3    C3 9775   0.812   3.029  15.330  0.0051  0.5487  0.1455
  657TMC3    C4 9776   0.850   2.894  15.097 -0.4898 -0.2693  0.5551
  657TMC3    C5 9777   0.794   3.021  15.100  0.0160  0.5347  0.0322
  657TMC3    C6 9778   0.788   3.091  15.213 -0.2238  0.6286  0.6583
  657TMC3     C 9779   0.833   2.686  15.210 -0.2789 -0.1256 -0.2318
  657TMC3     O 9780   0.739   2.636  15.273 -0.6618  0.1686  0.1036
  657TMC3     H 9781   0.852   2.846  15.435  0.3889 -0.4630 -0.1651
  657TMC3    H1 9782   0.852   2.826  15.012  1.1251 -0.0586  0.4180
  657TMC3    H2 9783   0.738   3.187  15.222 -3.3174 -0.9166  0.0004
  657TMC3    C7 9784   0.754   3.071  14.972 -0.2414 -0.1334  0.1407
  657TMC3    C8 9785   0.811   3.109  15.452 -0.0467 -0.0223  0.2427
  657TMC3    O1 9786   0.754   2.992  14.876  0.2519  0.5131  0.1265
  657TMC3    O2 9787   0.749   3.213  15.450  0.0743  0.0697 -0.0978
  658MPD2     C 9788   3.025   2.984  14.848 -0.1367  0.0594 -0.0934
  658MPD2    C1 9789   2.917   3.073  14.855  0.1940 -0.8421 -0.2227
  658MPD2    C2 9790   2.929   3.210  14.839 -0.3509 -0.1842 -0.4279
  658MPD2    C3 9791   3.050   3.265  14.815  0.0599 -0.1328 -0.6309
  658MPD2    C4 9792   3.156   3.181  14.802 -0.3215  0.5199  0.0201
  658MPD2    C5 9793   3.146   3.047  14.819  0.2085  0.4408 -0.3713
  658MPD2     H 9794   2.844   3.275  14.850  0.2696  0.6939 -0.8186
  658MPD2    H1 9795   3.254   3.218  14.776 -0.5935  0.2353 -1.3811
  658MPD2    H2 9796   3.011   2.877  14.848  2.4503 -0.2658  1.6081
  658MPD2    H3 9797   3.231   2.981  14.808  0.4736  0.3189  2.2380
  658MPD2     N 9798   3.048   3.403  14.789  0.3225 -0.2799  0.8250
  658MPD2    H5 9799   2.959   3.448  14.770  0.6842 -0.0711 -0.3525
  658MPD2    N1 9800   2.789   3.028  14.894  0.9780 -0.2225 -0.5597
  658MPD2    H7 9801   2.783   2.937  14.939 -0.9529  0.3971  0.4514
  659TMC3    C1 9802   2.558   3.041  14.920 -0.6359 -0.1094  0.5796
  659TMC3    C2 9803   2.579   3.037  15.059  0.7095  0.1950 -0.1327
  659TMC3    C3 9804   2.467   3.034  15.137 -0.0187  0.3956  0.1062
  659TMC3    C4 9805   2.437   3.054  14.869 -0.0349 -0.3469  0.0892
  659TMC3    C5 9806   2.328   3.036  14.950 -0.0714 -0.4903  0.2699
  659TMC3    C6 9807   2.340   3.015  15.084  0.5605 -0.7382  0.6470
  659TMC3     C 9808   2.674   3.081  14.842 -0.0313  0.4356  0.0339
  659TMC3     O 9809   2.661   3.174  14.761  0.1569  0.0824 -0.5015
  659TMC3     H 9810   2.675   3.061  15.104  1.4814 -1.1906 -1.0466
  659TMC3    H1 9811   2.424   3.049  14.761  0.6689  0.7885 -0.0472
  659TMC3    H2 9812   2.253   3.007  15.149 -1.9435 -0.0500 -2.6394
  659TMC3    C7 9813   2.201   3.059  14.886  0.5177 -1.2290  0.2049
  659TMC3    C8 9814   2.462   3.103  15.265  0.1973 -0.0402  0.6616
  659TMC3    O1 9815   2.118   3.007  14.957 -0.0014 -0.3157 -0.6943
  659TMC3    O2 9816   2.355   3.142  15.306  0.0753 -0.4463 -0.4737
  660MPD2     C 9817   0.505   2.707  12.764 -0.7044 -0.6183  0.0835
  660MPD2    C1 9818   0.449   2.628  12.665  0.0620  0.3388 -0.4996
  660MPD2    C2 9819   0.452   2.491  12.688 -0.3675  0.0632  0.0722
  660MPD2    C3 9820   0.497   2.437  12.813  0.1278  0.7557 -0.1083
  660MPD2    C4 9821   0.536   2.528  12.906  0.1108  0.1172 -0.7577
  660MPD2    C5 9822   0.553   2.661  12.884 -0.6635  0.1383  0.2911
  660MPD2     H 9823   0.419   2.433  12.603  0.6997 -1.7436  0.8908
  660MPD2    H1 9824   0.553   2.496  13.008  0.6491  2.7024 -0.0513
  660MPD2    H2 9825   0.509   2.813  12.745  1.7795 -0.6409  0.5383
  660MPD2    H3 9826   0.609   2.724  12.953 -0.5388 -0.4010  0.6799
  660MPD2     N 9827   0.486   2.305  12.851 -0.2428  0.7177 -0.1596
  660MPD2    H5 9828   0.515   2.283  12.946  1.0666 -0.4300 -0.8051
  660MPD2    N1 9829   0.382   2.694  12.552  0.1450  0.7424  0.1202
  660MPD2    H7 9830   0.375   2.795  12.553 -1.3524  0.6395 -0.5487
  661TMC3    C1 9831   0.253   2.715  12.368  0.5248 -0.2137  0.7093
  661TMC3    C2 9832   0.281   2.729  12.234 -0.2164 -0.3460  0.3275
  661TMC3    C3 9833   0.178   2.795  12.164 -0.0050  0.9822 -0.3951
  661TMC3    C4 9834   0.134   2.756  12.425  0.7229 -0.0544 -0.5225
  661TMC3    C5 9835   0.030   2.811  12.355 -0.3645 -0.1552  0.0002
  661TMC3    C6 9836   0.053   2.827  12.217  0.4654  0.5571 -0.0892
  661TMC3     C 9837   0.337   2.626  12.446 -0.6346 -0.0433 -0.0482
  661TMC3     O 9838   0.347   2.511  12.403 -0.1163  0.2380  0.5109
  661TMC3     H 9839   0.381   2.716  12.193  0.2966 -2.2836  2.1509
  661TMC3    H1 9840   0.115   2.730  12.528 -0.8378 -0.9646 -1.0217
  661TMC3    H2 9841   4.725   2.891  12.157 -1.0987 -0.2945  0.6723
  661TMC3    C7 9842   4.646   2.742  12.385  0.0116 -0.3430 -0.3872
  661TMC3    C8 9843   0.221   2.852  12.042 -0.5253 -0.2203 -0.0650
  661TMC3    O1 9844   4.616   2.741  12.504 -0.6761  0.2053  0.1908
  661TMC3    O2 9845   0.312   2.789  11.991 -0.7239  0.8168  0.3120
  662MPD2     C 9846   0.693   1.608  16.920 -0.1587  0.2028  0.2074
  662MPD2    C1 9847   0.708   1.528  17.032 -0.1142  0.2498  0.7943
  662MPD2    C2 9848   0.680   1.578  17.159 -0.0403  0.0496 -0.0989
  662MPD2    C3 9849   0.641   1.715  17.174  0.0173 -0.0954 -0.6843
  662MPD2    C4 9850   0.623   1.790  17.059 -0.7818 -0.6164 -0.0788
  662MPD2    C5 9851   0.647   1.740  16.931 -0.0644  0.2868  0.8469
  662MPD2     H 9852   0.687   1.517  17.248 -1.4296  1.2226  0.8123
  662MPD2    H1 9853   0.601   1.896  17.063 -1.2906 -0.7266  0.0397
  662MPD2    H2 9854   0.707   1.575  16.818  0.3877 -0.3264  0.4548
  662MPD2    H3 9855   0.647   1.797  16.839 -0.3558 -0.0616  0.6286
  662MPD2     N 9856   0.590   1.781  17.294  0.4364  0.1417 -0.3338
  662MPD2    H5 9857   0.533   1.864  17.283 -1.9617 -1.6774 -1.7518
  662MPD2    N1 9858   0.746   1.393  17.031 -0.8757 -0.3936  0.1041
  662MPD2    H7 9859   0.760   1.344  17.118 -0.7384  0.4319  0.5508
  663TMC3    C1 9860   0.829   1.183  16.951 -0.5509 -0.2962 -0.3714
  663TMC3    C2 9861   0.929   1.170  17.041 -0.3926  0.1293 -0.3339
  663TMC3    C3 9862   1.005   1.058  17.023  0.1315  0.3937 -0.5064
  663TMC3    C4 9863   0.784   1.092  16.860 -0.3349  0.7350 -0.2062
  663TMC3    C5 9864   0.834   0.968  16.878 -0.2391 -0.5189  0.5122
  663TMC3    C6 9865   0.946   0.949  16.956 -0.1928 -0.4316  0.2333
  663TMC3     C 9866   0.766   1.318  16.918 -0.3859 -0.5397 -0.3961
  663TMC3     O 9867   0.721   1.336  16.805  0.0658  0.3561  0.0397
  663TMC3     H 9868   0.978   1.260  17.075 -1.3999  0.8613 -0.8183
  663TMC3    H1 9869   0.699   1.103  16.794 -0.0922 -0.8315 -0.7866
  663TMC3    H2 9870   1.007   0.861  16.945 -1.3616 -1.3048  0.8004
  663TMC3    C7 9871   0.753   0.862  16.825  0.8240  0.6107 -0.0363
  663TMC3    C8 9872   1.067   1.022  17.149  0.0082  0.0576  0.6683
  663TMC3    O1 9873   0.679   0.892  16.732  0.2624  0.0775 -0.0145
  663TMC3    O2 9874   1.121   0.915  17.137 -0.2876  0.5436 -0.0391
  664MPD2     C 9875   3.655   4.492  17.599  0.5123 -0.6719  0.0440
  664MPD2    C1 9876   3.711   4.607  17.656  0.0506  0.0253  0.3320
  664MPD2    C2 9877   3.698   4.631   0.044  0.3459  0.2741  0.5108
  664MPD2    C3 9878   3.626   4.544   0.123  0.4836 -0.7128 -0.8052
  664MPD2    C4 9879   3.570   4.432   0.070  0.2038  0.2056 -0.8400
  664MPD2    C5 9880   3.591   4.408  17.680  0.4166 -0.5576  0.1284
  664MPD2     H 9881   3.738   4.726   0.078 -0.0156  1.4535 -2.3519
  664MPD2    H1 9882   3.517   4.352   0.121  1.9816 -0.0557  0.5993
  664MPD2    H2 9883   3.656   4.472  17.492 -0.3506  0.3162 -0.1423
  664MPD2    H3 9884   3.549   4.321  17.630  1.0018 -1.5208  1.3239
  664MPD2     N 9885   3.616   4.583   0.252 -0.1111 -0.2768 -0.2689
  664MPD2    H5 9886   3.667   4.664   0.287 -1.6263  2.2824 -4.0003
  664MPD2    N1 9887   3.779   4.705  17.578 -0.0350 -0.9860  0.0313
  664MPD2    H7 9888   3.829   0.042  17.626  2.7100 -2.0965 -1.0911
  665TMC3    C1 9889   3.544   4.585   0.472  0.4664 -0.1082 -0.4294
  665TMC3    C2 9890   3.440   4.625   0.540 -0.1143 -0.7285  0.0578
  665TMC3    C3 9891   3.462   4.690   0.657  0.8140  1.0068 -0.4116
  665TMC3    C4 9892   3.671   4.606   0.516  0.0689  0.7025 -0.4713
  665TMC3    C5 9893   3.689   4.674   0.628 -0.2587  0.0302 -0.0665
  665TMC3    C6 9894   3.588   4.716   0.705  0.0744  0.4504  0.9554
  665TMC3     C 9895   3.524   4.523   0.343 -0.2084 -0.1420  0.7631
  665TMC3     O 9896   3.429   4.450   0.321  0.2211  0.2360  0.1617
  665TMC3     H 9897   3.339   4.605   0.506 -1.5716 -0.8230  4.4486
  665TMC3    H1 9898   3.752   4.573   0.451 -0.4876 -1.5777 -0.0311
  665TMC3    H2 9899   3.602   0.034   0.797 -2.2797  2.5419  0.0574
  665TMC3    C7 9900   3.819   4.732   0.641  0.1507  0.1018 -0.2829
  665TMC3    C8 9901   3.341   0.008   0.720  0.1537 -0.3066 -0.2803
  665TMC3    O1 9902   3.897   4.720   0.547 -0.2892 -0.0399  0.3001
  665TMC3    O2 9903   3.241   0.020   0.651  0.5404  0.4473  0.2412
  666TMC3    C1 9904   2.978   0.474  10.031 -0.0170  0.2666  0.0666
  666TMC3    C2 9905   3.050   0.383  10.108 -0.5626  0.2281 -0.2352
  666TMC3    C3 9906   3.137   0.430  10.201  0.3690  0.3400  0.2942
  666TMC3    C4 9907   3.006   0.607  10.035 -0.2864 -1.0192  0.1388
  666TMC3    C5 9908   3.098   0.652  10.130 -0.2646 -0.2138  0.0168
  666TMC3    C6 9909   3.163   0.562  10.212  0.5155 -1.6765  0.5938
  666TMC3     C 9910   2.902   0.425   9.918 -0.0312  0.0243  0.1378
  666TMC3     O 9911   2.877   0.498   9.823  0.3843 -0.0946  0.1505
  666TMC3     H 9912   3.036   0.276  10.105 -0.6132  0.2406 -0.4771
  666TMC3    H1 9913   2.936   0.679   9.995  0.3222 -0.2171  0.5263
  666TMC3    H2 9914   3.220   0.592  10.300  1.1767  0.8555 -0.7038
  666TMC3    C7 9915   3.042   0.771  10.196  0.2542 -0.7861  0.2365
  666TMC3    C8 9916   3.189   0.325  10.295  0.4577 -0.0026 -0.0074
  666TMC3    O1 9917   2.973   0.757  10.294  0.0843  0.1421 -0.2539
  666TMC3    O2 9918   3.123   0.222  10.314  0.8691  0.3611  0.3316
  667MPD2     C 9919   4.213   0.612  14.688  0.1579 -0.3778  0.3004
  667MPD2    C1 9920   4.280   0.537  14.776  0.0794  0.1398 -0.3694
  667MPD2    C2 9921   4.240   0.406  14.807  0.2119 -0.9523 -0.0865
  667MPD2    C3 9922   4.114   0.372  14.772 -0.0485  1.2251  0.1958
  667MPD2    C4 9923   4.036   0.453  14.696 -0.2335  0.7544  0.1944
  667MPD2    C5 9924   4.092   0.565  14.647 -0.0849 -0.2318 -0.6794
  667MPD2     H 9925   4.312   0.359  14.873  0.6101  0.6667  0.6273
  667MPD2    H1 9926   3.938   0.429  14.657  0.2895  0.9604 -1.2561
  667MPD2    H2 9927   4.245   0.709  14.653 -0.3994 -0.5890 -0.8311
  667MPD2    H3 9928   4.038   0.631  14.579  0.8659 -0.0562 -1.2581
  667MPD2     N 9929   4.055   0.256  14.820 -0.8591  0.1278  0.4632
  667MPD2    H5 9930   3.968   0.229  14.775 -1.5498  1.2553  1.1199
  667MPD2    N1 9931   4.388   0.585  14.851  0.2094  0.2496  0.2961
  667MPD2    H7 9932   4.442   0.518  14.905 -0.5428  0.7722  1.6807
  668TMC3    C1 9933   4.548   0.742  14.935  0.3809  0.0858 -1.0370
  668TMC3    C2 9934   4.606   0.862  14.921 -0.7734 -0.4281 -0.4994
  668TMC3    C3 9935   4.673   0.906  15.031  0.4358  0.4910 -0.0338
  668TMC3    C4 9936   4.546   0.674  15.052 -0.1215  0.1094  0.0130
  668TMC3    C5 9937   4.613   0.729  15.159 -0.2607  0.3468 -0.4058
  668TMC3    C6 9938   4.684   0.850  15.150 -0.2193 -0.3876 -0.5209
  668TMC3     C 9939   4.440   0.718  14.842 -0.3356  0.6290  0.8623
  668TMC3     O 9940   4.393   0.821  14.791  0.1674  0.4698 -0.2213
  668TMC3     H 9941   4.600   0.917  14.828 -0.1930 -0.7499 -0.7315
  668TMC3    H1 9942   4.503   0.575  15.058 -1.8466  0.9396  1.7380
  668TMC3    H2 9943   0.008   0.882  15.234 -0.4605 -1.9286  0.2328
  668TMC3    C7 9944   4.613   0.648  15.288  0.4655 -0.2102  0.2223
  668TMC3    C8 9945   0.026   1.020  15.011 -0.8710 -0.3206  0.5772
  668TMC3    O1 9946   4.713   0.665  15.353  0.4142 -0.0597 -0.9637
  668TMC3    O2 9947   0.021   1.110  15.093  0.6830 -0.2224 -0.0695
  669TMC3    C1 9948   2.591   0.089  14.851 -0.4438 -0.5987 -0.3163
  669TMC3    C2 9949   2.462   0.119  14.808 -0.1588  0.1511  0.3895
  669TMC3    C3 9950   2.435   0.238  14.744  0.0517  0.7047 -0.2190
  669TMC3    C4 9951   2.699   0.178  14.829 -0.4295  0.1951  0.1668
  669TMC3    C5 9952   2.669   0.293  14.767  0.8349 -0.5605 -0.1109
  669TMC3    C6 9953   2.547   0.315  14.714 -0.0685 -0.1720  0.5202
  669TMC3     C 9954   2.605   4.719  14.941 -0.1673  0.8646  1.0132
  669TMC3     O 9955   2.501   4.663  14.980 -0.2786  0.0454  0.6982
  669TMC3     H 9956   2.380   0.055  14.837 -1.9840  1.5080 -1.7650
  669TMC3    H1 9957   2.801   0.144  14.846 -0.3556 -0.4815 -1.6131
  669TMC3    H2 9958   2.531   0.413  14.670 -0.0725 -0.8267 -0.9379
  669TMC3    C7 9959   2.782   0.371  14.715 -0.0378  0.3998  0.2839
  669TMC3    C8 9960   2.322   0.269  14.662  0.5045 -0.4790 -0.2279
  669TMC3    O1 9961   2.758   0.451  14.623 -0.0984 -0.5135  0.1776
  669TMC3    O2 9962   2.251   0.173  14.623  0.1457 -0.5254  0.0061
  670MPD2     C 9963   0.525   2.847  13.675 -0.7312  0.0682  0.1328
  670MPD2    C1 9964   0.604   2.899  13.776  0.1137 -0.5239 -0.1788
  670MPD2    C2 9965   0.608   2.836  13.900  0.1905  0.2777 -0.1284
  670MPD2    C3 9966   0.514   2.740  13.933 -0.1042  0.3815 -0.0001
  670MPD2    C4 9967   0.431   2.694  13.831 -0.9850  0.4849  0.0372
  670MPD2    C5 9968   0.431   2.750  13.707  0.6935  1.1550  0.5046
  670MPD2     H 9969   0.674   2.884  13.972  0.8676 -0.7710 -0.0568
  670MPD2    H1 9970   0.356   2.617  13.847  0.5178 -0.7301  1.1930
  670MPD2    H2 9971   0.530   2.885  13.574 -1.6303 -0.4269 -0.1005
  670MPD2    H3 9972   0.367   2.709  13.629  0.0988 -0.9980  2.1275
  670MPD2     N 9973   0.507   2.686  14.059  0.0386  0.3655  0.1854
  670MPD2    H5 9974   0.587   2.711  14.117 -0.4465  2.1914  0.0785
  670MPD2    N1 9975   0.706   2.992  13.748 -0.0251 -0.3256 -0.6457
  670MPD2    H7 9976   0.786   3.001  13.810 -0.2510 -0.3631 -0.3489
  671TMC3    C1 9977   0.429   2.507  14.213 -0.2562  0.5496 -0.8969
  671TMC3    C2 9978   0.553   2.498  14.274 -0.6906  0.1116  0.0636
  671TMC3    C3 9979   0.558   2.407  14.380 -0.1512  0.2530 -0.0865
  671TMC3    C4 9980   0.322   2.431  14.246  0.6255 -0.0417  0.6387
  671TMC3    C5 9981   0.333   2.353  14.353 -0.0369 -0.1527  0.3813
  671TMC3    C6 9982   0.451   2.333  14.414 -0.0069  0.1892  0.0671
  671TMC3     C 9983   0.404   2.604  14.101 -0.1925 -0.3728 -0.5441
  671TMC3     O 9984   0.288   2.607  14.057 -0.2803  0.2479  0.3341
  671TMC3     H 9985   0.643   2.534  14.226 -1.4220 -0.3722 -1.6938
  671TMC3    H1 9986   0.227   2.441  14.194  2.1424  1.7684 -1.8027
  671TMC3    H2 9987   0.455   2.254  14.488 -1.3179 -3.0988 -3.3696
  671TMC3    C7 9988   0.235   2.247  14.356  0.3015  0.2325  0.2411
  671TMC3    C8 9989   0.688   2.352  14.400  0.4332  0.0676 -0.0227
  671TMC3    O1 9990   0.149   2.236  14.445  0.0007 -0.0950  0.2808
  671TMC3    O2 9991   0.775   2.376  14.317 -0.1748  0.2486  0.0685
  672MPD2     C 9992   1.277   3.084   1.028 -0.0921 -0.4724  0.4891
  672MPD2    C1 9993   1.397   3.022   1.002  0.3950  0.2343  0.2698
  672MPD2    C2 9994   1.516   3.091   1.008 -0.5499 -0.3707 -0.4348
  672MPD2    C3 9995   1.516   3.229   1.018  0.9063  0.0355 -0.5902
  672MPD2    C4 9996   1.393   3.291   1.049  0.0264 -0.0441 -0.8585
  672MPD2    C5 9997   1.276   3.221   1.056 -0.4467  0.1534 -0.4627
  672MPD2     H 9998   1.608   3.037   0.987  0.4530  1.1673 -0.0254
  672MPD2    H1 9999   1.393   3.400   1.045  0.5369  0.0368  1.0685
  672MPD2    H210000   1.178   3.041   1.014 -0.9473  1.3566  0.8410
  672MPD2    H310001   1.181   3.271   1.070 -0.4301 -0.2928  1.2629
  672MPD2     N10002   1.630   3.309   1.006  0.6032 -0.1540  0.2323
  672MPD2    H510003   1.627   3.400   1.051 -0.5147 -0.4999  0.8410
  672MPD2    N110004   1.405   2.890   0.960 -0.1729  0.1657 -0.4665
  672MPD2    H710005   1.496   2.850   0.941  0.5580  0.8208  1.6836
  673TMC3    C110006   1.322   2.704   0.831  0.4100 -0.2637  0.0775
  673TMC3    C210007   1.448   2.650   0.820 -0.3482 -1.1082  0.0555
  673TMC3    C310008   1.476   2.591   0.702  0.0500 -0.1453  0.8519
  673TMC3    C410009   1.243   2.714   0.718  0.0311 -0.2072 -0.4862
  673TMC3    C510010   1.289   2.656   0.603 -0.2630 -0.0095  0.3112
  673TMC3    C610011   1.396   2.580   0.595  0.8083  0.1768 -0.7799
  673TMC3     C10012   1.296   2.811   0.928 -0.2849  0.3232 -0.3143
  673TMC3     O10013   1.186   2.812   0.982  0.1092  0.0494  0.0047
  673TMC3     H10014   1.513   2.653   0.908 -1.4022 -0.0796  0.7943
  673TMC3    H110015   1.153   2.774   0.722 -0.7061 -1.4246  1.2097
  673TMC3    H210016   1.435   2.537   0.504  0.0265  0.4338 -1.2386
  673TMC3    C710017   1.206   2.684   0.486  0.4952  0.2285  0.6407
  673TMC3    C810018   1.595   2.503   0.693  1.3995  0.1035  0.2962
  673TMC3    O110019   1.222   2.605   0.395 -0.4936 -0.0844 -0.0509
  673TMC3    O210020   1.615   2.439   0.591 -0.6867  0.1657  0.3231
  674MPD2     C10021   0.890   2.019  17.395  0.3939 -0.7462  0.2566
  674MPD2    C110022   0.926   2.002  17.527 -0.5051 -0.5013 -0.3272
  674MPD2    C210023   0.919   2.116  17.602  0.7116  0.1760  0.2426
  674MPD2    C310024   0.888   2.237  17.541  0.0243 -0.9002 -0.0476
  674MPD2    C410025   0.852   2.251  17.413  0.1222  1.4092  0.1825
  674MPD2    C510026   0.852   2.137  17.335  0.0804 -0.8110  0.0540
  674MPD2     H10027   0.933   2.112  17.709 -2.3334  1.5010  0.7007
  674MPD2    H110028   0.827   2.346  17.367 -2.3161  1.2457  1.1641
  674MPD2    H210029   0.896   1.932  17.330  1.4164 -0.1389 -0.4665
  674MPD2    H310030   0.834   2.143  17.229  0.0121  2.7489  0.2447
  674MPD2     N10031   0.905   2.352  17.625  0.1801  0.2835  0.2517
  674MPD2    H510032   0.930   2.336  17.722  0.5205 -0.3286  0.0649
  674MPD2    N110033   0.960   1.875  17.583 -0.1094 -0.0691 -0.9109
  674MPD2    H710034   0.929   1.795  17.528  0.4251 -0.1756 -1.0543
  675TMC3    C110035   1.002   1.713   0.013 -0.1232 -0.2351 -0.2776
  675TMC3    C210036   0.905   1.635  17.713  0.3435 -0.0963 -0.3554
  675TMC3    C310037   0.873   1.522   0.046 -0.0877  0.5247  0.6203
  675TMC3    C410038   1.073   1.685   0.123  0.2112  0.3449 -0.5492
  675TMC3    C510039   1.047   1.569   0.193 -0.3096  0.2898 -0.0733
  675TMC3    C610040   0.946   1.487   0.160  0.2066  0.3217 -0.1999
  675TMC3     C10041   1.012   1.855  17.708 -0.9221  0.4132 -0.5446
  675TMC3     O10042   1.059   1.933   0.047 -0.2428  0.3291  0.4333
  675TMC3     H10043   0.826   1.653  17.641 -1.1700 -2.5792  0.7093
  675TMC3    H110044   1.163   1.741   0.145 -0.0891  0.7647 -0.3934
  675TMC3    H210045   0.918   1.402   0.221  0.6825 -0.4072 -0.9899
  675TMC3    C710046   1.129   1.524   0.306 -0.2032  0.1334  0.3285
  675TMC3    C810047   0.732   1.517   0.070 -0.2324 -0.0099 -0.2421
  675TMC3    O110048   1.125   1.406   0.326  0.6271 -0.0969  0.3486
  675TMC3    O210049   0.655   1.502  17.722  0.0658 -0.6259  0.2625
  676MPD2     C10050   3.749   1.421  11.034  0.2227  0.0311 -0.1153
  676MPD2    C110051   3.620   1.417  11.075  0.7712 -0.1940  0.2238
  676MPD2    C210052   3.526   1.338  11.005 -0.5001 -0.6906 -0.7292
  676MPD2    C310053   3.558   1.273  10.891  0.9031 -0.2325  0.2068
  676MPD2    C410054   3.686   1.276  10.854  0.3026  0.2111 -0.4674
  676MPD2    C510055   3.778   1.349  10.917 -0.1761 -0.5322  0.2764
  676MPD2     H10056   3.423   1.338  11.037 -1.5271 -2.9948 -3.9901
  676MPD2    H110057   3.719   1.215  10.771 -0.9939  1.2764 -1.7654
  676MPD2    H210058   3.837   1.458  11.086 -1.3049  0.8874  1.8653
  676MPD2    H310059   3.876   1.344  10.870 -0.3945  0.2462 -0.2677
  676MPD2     N10060   3.472   1.186  10.823 -0.3638 -0.3849 -0.2045
  676MPD2    H510061   3.498   1.140  10.737 -1.5487 -0.5098 -0.4918
  676MPD2    N110062   3.577   1.492  11.188  0.4844 -0.1961  0.1185
  676MPD2    H710063   3.477   1.488  11.207 -0.3278  1.6952 -3.8946
  677TMC3    C110064   3.579   1.617  11.389 -0.0113 -0.4388  0.3744
  677TMC3    C210065   3.484   1.539  11.440  0.3188 -0.1482  0.0188
  677TMC3    C310066   3.427   1.560  11.565  0.1595 -0.1112  0.5094
  677TMC3    C410067   3.634   1.720  11.468  0.1492 -0.5516 -0.7493
  677TMC3    C510068   3.577   1.742  11.595 -0.5175 -0.2070  0.0929
  677TMC3    C610069   3.471   1.664  11.645  0.3560  0.3690  0.1011
  677TMC3     C10070   3.645   1.577  11.262 -0.1451  0.0211  0.9672
  677TMC3     O10071   3.751   1.639  11.248 -0.1925  0.2672  0.4436
  677TMC3     H10072   3.454   1.448  11.391  0.2446 -0.4405  0.6093
  677TMC3    H110073   3.728   1.765  11.439  0.1700  0.6015  1.0914
  677TMC3    H210074   3.436   1.676  11.746 -1.1794 -0.0656 -0.3771
  677TMC3    C710075   3.668   1.790  11.702 -0.1668 -0.2363 -0.6353
  677TMC3    C810076   3.406   1.437  11.641  0.4155 -0.4104  0.3097
  677TMC3    O110077   3.649   1.735  11.811  0.4910 -0.5144  0.1502
  677TMC3    O210078   3.466   1.339  11.602  0.4792  0.7122  0.1194
  678MPD2     C10079   0.291   1.159   1.422  0.3240 -0.0087 -0.2321
  678MPD2    C110080   0.286   1.038   1.357  0.3503 -0.4413  0.3057
  678MPD2    C210081   0.166   0.973   1.361 -0.2449  0.3212  0.1526
  678MPD2    C310082   0.052   1.031   1.415  0.6984  0.1209  0.7073
  678MPD2    C410083   0.067   1.150   1.492 -0.1098  0.9742 -0.2304
  678MPD2    C510084   0.186   1.209   1.493 -0.1297 -0.5074  0.6714
  678MPD2     H10085   0.162   0.886   1.296 -1.6531  1.6374 -1.5447
  678MPD2    H110086   4.719   1.196   1.541 -0.1662  1.3597 -0.6840
  678MPD2    H210087   0.378   1.223   1.419  1.4280 -1.4116  1.8727
  678MPD2    H310088   0.201   1.302   1.547  1.0337 -0.9254  1.0593
  678MPD2     N10089   4.663   0.975   1.383 -0.7053  0.6387 -0.2849
  678MPD2    H510090   4.669   0.888   1.330  1.5501  0.1088  0.8046
  678MPD2    N110091   0.406   0.991   1.303  0.4091 -0.0572  0.0265
  678MPD2    H710092   0.476   1.054   1.265 -1.9429  1.6680 -1.3773
  679TMC3    C110093   0.676   0.650   1.139 -0.2332 -0.0477  0.0075
  679TMC3    C210094   0.599   0.700   1.237 -0.0425  0.2149  0.6251
  679TMC3    C310095   0.553   0.829   1.223  0.4508  0.2475 -0.5719
  679TMC3    C410096   0.726   0.726   1.039 -0.3091  0.4671  0.1464
  679TMC3    C510097   0.683   0.860   1.030 -0.2667  0.3502 -0.4634
  679TMC3    C610098   0.588   0.907   1.118 -0.0738 -0.3231  0.1068
  679TMC3     C10099   0.761   0.537   1.163 -0.3663  0.0429 -0.0949
  679TMC3     O10100   0.869   0.532   1.109  0.0478 -0.5485  0.1562
  679TMC3     H10101   0.573   0.635   1.320 -2.0207  0.4587  0.1940
  679TMC3    H110102   0.775   0.673   0.959  0.1189  0.5506  0.3532
  679TMC3    H210103   0.570   1.013   1.105  0.6932 -0.2612 -0.4332
  679TMC3    C710104   0.733   0.945   0.924  1.1236  0.1559 -0.0674
  679TMC3    C810105   0.434   0.853   1.296 -0.5725  0.0321 -0.0434
  679TMC3    O110106   0.668   1.047   0.898  0.2838  0.0915  0.2621
  679TMC3    O210107   0.375   0.754   1.344 -1.2035 -0.2753 -0.0852
  680MPD2     C10108   0.416   0.204  13.676 -0.8535  0.6858 -0.1670
  680MPD2    C110109   0.431   0.111  13.780 -0.0408 -0.1062 -0.3224
  680MPD2    C210110   0.462   0.152  13.905 -0.2919 -0.1290  0.3456
  680MPD2    C310111   0.497   0.284  13.928  0.4885  0.1006 -0.0912
  680MPD2    C410112   0.493   0.376  13.826  0.1879 -0.1538 -0.2185
  680MPD2    C510113   0.452   0.331  13.707  0.0954 -0.2775 -0.4534
  680MPD2     H10114   0.463   0.074  13.981  0.2951 -0.5541 -0.1029
  680MPD2    H110115   0.506   0.482  13.842 -2.3956 -0.1020  1.5765
  680MPD2    H210116   0.377   0.179  13.578  0.8490  0.1150 -0.7117
  680MPD2    H310117   0.448   0.408  13.631  1.2617  0.6995  0.4819
  680MPD2     N10118   0.546   0.331  14.053  0.5762 -0.2099  0.2437
  680MPD2    H510119   0.559   0.431  14.059  0.6600 -0.1432 -1.0382
  680MPD2    N110120   0.401   4.709  13.764 -0.1332 -0.2292 -0.0793
  680MPD2    H710121   0.404   4.656  13.850 -1.2450 -0.5384 -0.2322
  681TMC3    C110122   0.403   4.495  13.668  0.0044 -0.2807 -0.8842
  681TMC3    C210123   0.323   4.444  13.761  0.2429  0.6871 -0.3846
  681TMC3    C310124   0.330   4.312  13.787 -0.4880  0.0365 -0.2903
  681TMC3    C410125   0.508   4.425  13.616  0.0878  0.1985 -0.3717
  681TMC3    C510126   0.511   4.292  13.654  0.1368  1.2527  0.5795
  681TMC3    C610127   0.423   4.229  13.735  0.6346 -0.0537 -1.3108
  681TMC3     C10128   0.400   4.639  13.648 -0.8123  0.5816 -0.2464
  681TMC3     O10129   0.413   4.684  13.537 -0.5705  0.3572 -0.5164
  681TMC3     H10130   0.240   4.503  13.797  0.3403 -0.7060  2.1347
  681TMC3    H110131   0.582   4.473  13.553  1.7440 -0.5359  1.0233
  681TMC3    H210132   0.438   4.126  13.768 -2.3076 -0.2208 -0.4736
  681TMC3    C710133   0.632   4.225  13.628  0.6644 -0.5601  0.2972
  681TMC3    C810134   0.277   4.272  13.913 -0.4632  0.5163  0.2995
  681TMC3    O110135   0.673   4.160  13.725 -0.6175 -0.4581 -0.4101
  681TMC3    O210136   0.252   4.358  13.994  0.1422  0.4504 -0.1343
  682MPD2     C10137   2.556   1.766  11.005 -0.1554 -0.0481 -0.0157
  682MPD2    C110138   2.505   1.639  11.018 -0.3146 -0.1336 -0.0438
  682MPD2    C210139   2.423   1.599  11.122  0.0053 -0.4741 -0.2418
  682MPD2    C310140   2.399   1.686  11.217  0.0461 -0.3108 -0.5952
  682MPD2    C410141   2.461   1.810  11.214  0.5938 -0.6415 -0.0854
  682MPD2    C510142   2.531   1.856  11.105 -0.4627  0.4678 -0.1069
  682MPD2     H10143   2.393   1.494  11.124  0.4143 -0.5569  1.5426
  682MPD2    H110144   2.445   1.881  11.294  0.2007 -0.2555 -0.5052
  682MPD2    H210145   2.616   1.795  10.920  2.6235 -0.4431  1.7909
  682MPD2    H310146   2.570   1.958  11.104  1.9222 -0.4568 -0.0577
  682MPD2     N10147   2.330   1.657  11.340  0.0094  0.1563 -0.1232
  682MPD2    H510148   2.322   1.731  11.409  0.6820  0.7798 -0.7093
  682MPD2    N110149   2.543   1.536  10.927  0.3284 -0.6932  0.1258
  682MPD2    H710150   2.504   1.443  10.938 -0.6873 -0.0658  1.8489
  683TMC3    C110151   2.201   1.578  11.732 -0.5796  0.7340  0.7910
  683TMC3    C210152   2.126   1.472  11.765 -0.4653  0.5584 -0.0343
  683TMC3    C310153   2.111   1.380  11.661 -0.1041 -0.1101  0.7251
  683TMC3    C410154   2.248   1.604  11.600  0.2141 -0.7323 -0.2064
  683TMC3    C510155   2.223   1.512  11.505  0.5866  0.5261  0.3281
  683TMC3    C610156   2.159   1.395  11.533 -0.5914  0.4845  0.7998
  683TMC3     C10157   2.259   1.653  11.842  0.4471 -0.2852 -0.6375
  683TMC3     O10158   2.327   1.755  11.828  0.2959  0.7711  0.0360
  683TMC3     H10159   2.072   1.470  11.859  0.9565  0.4858  0.7744
  683TMC3    H110160   2.308   1.693  11.587  0.5802 -1.0123 -0.4161
  683TMC3    H210161   2.136   1.330  11.450 -1.0034  0.5258  0.8804
  683TMC3    C710162   2.270   1.538  11.363 -0.2801  0.1289  0.2566
  683TMC3    C810163   1.998   1.297  11.674  0.7024  0.1886  0.3268
  683TMC3    O110164   2.223   1.456  11.286  0.1912 -0.4246  0.2986
  683TMC3    O210165   1.936   1.259  11.576 -0.1442 -0.3356  0.5047
  684MPD2     C10166   1.069   0.314  16.374 -0.2066  0.1621 -0.2978
  684MPD2    C110167   0.977   0.361  16.283  0.2548 -0.5707  0.1984
  684MPD2    C210168   0.912   0.476  16.312  0.0809 -0.3560 -0.3693
  684MPD2    C310169   0.917   0.547  16.434  0.6621  0.3807 -0.6287
  684MPD2    C410170   1.003   0.493  16.527  0.4996 -0.7542  0.2819
  684MPD2    C510171   1.075   0.380  16.496  0.5249  0.1271  0.3376
  684MPD2     H10172   0.845   0.521  16.240  0.9164 -1.4669 -1.8282
  684MPD2    H110173   1.002   0.551  16.618  2.2795 -0.9378  0.4149
  684MPD2    H210174   1.133   0.229  16.351 -0.9331 -0.0916 -1.3302
  684MPD2    H310175   1.147   0.344  16.568  0.2905 -3.8117 -1.4229
  684MPD2     N10176   0.863   0.673  16.463  0.2602 -0.1184 -0.7761
  684MPD2    H510177   0.885   0.717  16.552  1.0456 -0.6534 -0.7091
  684MPD2    N110178   0.957   0.300  16.156  0.4360 -0.3691  0.1439
  684MPD2    H710179   1.033   0.241  16.125  1.5491  1.6208 -0.8340
  685TMC3    C110180   0.875   0.293  15.933 -0.5940  0.5347  0.0647
  685TMC3    C210181   0.751   0.280  15.872 -0.1651  0.0162  0.5674
  685TMC3    C310182   0.735   0.337  15.751 -0.2227  0.1258 -0.6217
  685TMC3    C410183   0.960   0.384  15.882 -0.1172  0.1920  0.5730
  685TMC3    C510184   0.945   0.438  15.751 -0.7533  0.7326 -0.0753
  685TMC3    C610185   0.832   0.404  15.681  0.1399 -0.0176 -0.7856
  685TMC3     C10186   0.854   0.316  16.072  0.1337  0.4899  0.2136
  685TMC3     O10187   0.740   0.349  16.107  0.3706 -0.5491 -0.0900
  685TMC3     H10188   0.678   0.207  15.905 -0.4155  0.0888  0.1740
  685TMC3    H110189   1.057   0.390  15.929  0.1988 -0.2747 -0.0167
  685TMC3    H210190   0.796   0.463  15.597 -0.7496 -2.2192 -1.9525
  685TMC3    C710191   1.035   0.544  15.710  0.0792 -0.1721 -0.4505
  685TMC3    C810192   0.601   0.346  15.701 -0.1611 -0.2405  0.1960
  685TMC3    O110193   1.036   0.574  15.593 -0.1505  0.1028 -0.5764
  685TMC3    O210194   0.571   0.375  15.585  0.1773  0.1899 -0.3583
  686MPD2     C10195   2.202   0.032  15.237 -0.4721  0.7869 -0.5980
  686MPD2    C110196   2.261   0.025  15.369 -0.0597  1.2669  0.3204
  686MPD2    C210197   2.338   4.654  15.397  0.2907 -0.1962  0.1179
  686MPD2    C310198   2.328   4.538  15.317 -0.1799 -0.3225  0.6261
  686MPD2    C410199   2.260   4.543  15.199 -0.5218  0.4233 -0.1774
  686MPD2    C510200   2.187   4.649  15.163 -0.6690 -0.1369 -0.0649
  686MPD2     H10201   2.397   4.642  15.487  1.2069  0.2871 -0.4205
  686MPD2    H110202   2.255   4.462  15.127 -0.3330  0.3671 -0.1280
  686MPD2    H210203   2.161   0.129  15.209 -2.1161 -0.4465 -2.4714
  686MPD2    H310204   2.143   4.655  15.064 -2.2090 -0.0652  0.6214
  686MPD2     N10205   2.386   4.415  15.352  0.1767  0.9201 -0.0125
  686MPD2    H510206   2.405   4.344  15.282 -1.2263 -0.5529  1.1201
  686MPD2    N110207   2.238   0.125  15.462  0.5475  0.4133 -0.5376
  686MPD2    H710208   2.189   0.210  15.435 -0.3465 -0.0542 -0.3826
  687TMC3    C110209   2.367   4.433  15.593  0.3294 -0.0108  0.1926
  687TMC3    C210210   2.231   4.426  15.600 -0.5152 -0.1416  0.5948
  687TMC3    C310211   2.178   4.447  15.729  0.4244 -0.0412 -0.1524
  687TMC3    C410212   2.456   4.471  15.700 -0.6168 -0.2202 -0.0886
  687TMC3    C510213   2.396   4.480  15.821 -0.2077 -0.1098  1.1540
  687TMC3    C610214   2.261   4.464  15.836  0.3499 -0.9556  0.3582
  687TMC3     C10215   2.423   4.368  15.479  0.0069 -0.3626 -1.0541
  687TMC3     O10216   2.467   4.255  15.510  0.1013 -0.6074 -0.7172
  687TMC3     H10217   2.170   4.392  15.517  0.9408 -0.8936 -0.1747
  687TMC3    H110218   2.563   4.461  15.691 -0.4935  0.2403  0.8501
  687TMC3    H210219   2.213   4.478  15.932  0.9347 -0.1557  0.5330
  687TMC3    C710220   2.455   4.576  15.908 -0.5168  0.1572 -0.0943
  687TMC3    C810221   2.043   4.497  15.740  0.6168 -0.2748 -0.8137
  687TMC3    O110222   2.442   4.559  16.032  0.7112  0.7103  0.3581
  687TMC3    O210223   1.994   4.467  15.846  0.3291  0.2177 -0.2329
  688MPD2     C10224   1.387   4.173  17.347  0.1087  0.0447 -0.3118
  688MPD2    C110225   1.421   4.042  17.354  0.6772 -0.4495 -0.0807
  688MPD2    C210226   1.501   3.984  17.259 -0.5526 -0.0985  0.1139
  688MPD2    C310227   1.562   4.061  17.162 -0.5845  0.3979 -0.6108
  688MPD2    C410228   1.526   4.191  17.149  0.7701 -0.0233 -0.3293
  688MPD2    C510229   1.446   4.244  17.247 -0.0559  0.3612  0.5952
  688MPD2     H10230   1.523   3.878  17.254  2.1510  0.3730  2.1988
  688MPD2    H110231   1.559   4.258  17.070  1.4160 -0.4181 -0.3967
  688MPD2    H210232   1.305   4.210  17.408  0.5513  1.4626 -0.5981
  688MPD2    H310233   1.414   4.347  17.239  1.2957  0.8914  2.0363
  688MPD2     N10234   1.656   4.014  17.070 -0.0800 -0.4219  0.1700
  688MPD2    H510235   1.703   4.082  17.012  1.0240 -0.3952  1.1017
  688MPD2    N110236   1.369   3.965  17.464  0.1716  0.0614  0.6509
  688MPD2    H710237   1.383   3.865  17.456  3.3569  0.4437  1.7328
  689TMC3    C110238   1.312   3.925  17.691 -0.0577 -0.3304 -0.9222
  689TMC3    C210239   1.288   3.982   0.070 -0.0670  0.0511 -0.3989
  689TMC3    C310240   1.284   3.906   0.174  0.4724 -0.4887  0.2961
  689TMC3    C410241   1.329   3.793  17.685  0.5661  0.4679  0.1320
  689TMC3    C510242   1.324   3.720   0.054 -0.2853 -0.4296  0.0795
  689TMC3    C610243   1.294   3.774   0.174  0.0073 -0.2383 -0.0575
  689TMC3     C10244   1.329   4.019  17.582  0.0370 -0.1930 -0.0660
  689TMC3     O10245   1.334   4.133  17.623 -0.2325  0.1583  0.0373
  689TMC3     H10246   1.277   4.089   0.082 -2.9804 -0.5356  2.0241
  689TMC3    H110247   1.343   3.742  17.590 -0.7899 -0.2505  0.3098
  689TMC3    H210248   1.272   3.708   0.257  1.0111  1.7123  1.7595
  689TMC3    C710249   1.348   3.575   0.050 -0.1456 -0.1234 -0.2828
  689TMC3    C810250   1.239   3.958   0.301  0.3544 -0.3209 -0.9042
  689TMC3    O110251   1.389   3.522   0.151  0.2199 -0.4470  0.1674
  689TMC3    O210252   1.270   3.896   0.400  0.2191  0.3147 -0.1885
  690MPD2     C10253   4.071   1.154  15.686 -0.2053 -0.9668  0.0951
  690MPD2    C110254   3.989   1.146  15.578 -0.5498 -0.1269  0.1421
  690MPD2    C210255   4.033   1.210  15.462 -0.4415 -0.3450 -0.2659
  690MPD2    C310256   4.149   1.293  15.467  0.5036  0.4479 -0.1544
  690MPD2    C410257   4.238   1.281  15.574 -0.4206  0.1773 -0.3697
  690MPD2    C510258   4.198   1.206  15.683 -0.0283 -0.2049 -0.5601
  690MPD2     H10259   3.972   1.223  15.374  0.3336  0.6837 -0.6447
  690MPD2    H110260   4.331   1.336  15.580 -1.0395  1.1208  0.4895
  690MPD2    H210261   4.034   1.098  15.772  0.1292  1.3273  1.7236
  690MPD2    H310262   4.266   1.198  15.766  1.8367  0.0854 -2.0561
  690MPD2     N10263   4.174   1.367  15.354 -0.5712  0.1577  0.8653
  690MPD2    H510264   4.109   1.348  15.278  1.4364 -0.1028 -0.7769
  690MPD2    N110265   3.865   1.074  15.580  0.3192 -0.9528 -0.9193
  690MPD2    H710266   3.818   1.062  15.491 -1.2550 -1.7004  0.0164
  691TMC3    C110267   3.699   0.938  15.645  0.1442  1.3143 -0.8173
  691TMC3    C210268   3.634   0.957  15.528  0.3046  0.0614 -0.1547
  691TMC3    C310269   3.559   0.858  15.470  0.5082 -0.6539 -0.4359
  691TMC3    C410270   3.682   0.822  15.717  0.7605 -0.4013 -0.5436
  691TMC3    C510271   3.620   0.717  15.651  0.3529  0.4221  0.2693
  691TMC3    C610272   3.548   0.734  15.530  0.5031  0.1980 -0.5818
  691TMC3     C10273   3.804   1.026  15.690 -0.0608 -0.2862 -1.4850
  691TMC3     O10274   3.837   1.017  15.804  0.4188 -0.3581  0.1993
  691TMC3     H10275   3.623   1.052  15.476 -1.2840 -1.1553 -2.0324
  691TMC3    H110276   3.738   0.811  15.809 -0.6431  0.5220  0.4189
  691TMC3    H210277   3.492   0.654  15.482  1.0714 -0.5850  0.0675
  691TMC3    C710278   3.602   0.604  15.738 -0.6737  0.0125  0.7586
  691TMC3    C810279   3.452   0.882  15.373  0.1646  0.3282  0.2805
  691TMC3    O110280   3.682   0.601  15.834 -0.1160  0.3270  0.0098
  691TMC3    O210281   3.427   0.787  15.298 -0.4042 -0.1385 -0.3028
  692TMC3    C110282   0.324   1.935  15.797  0.1835 -0.2928 -0.5313
  692TMC3    C210283   0.441   1.988  15.851  0.0166  0.0937  0.2371
  692TMC3    C310284   0.545   1.903  15.888 -0.4243 -0.0629 -0.1636
  692TMC3    C410285   0.305   1.799  15.799  0.0785 -0.5035  0.1419
  692TMC3    C510286   0.407   1.720  15.841 -0.6473 -0.6805 -0.3563
  692TMC3    C610287   0.520   1.768  15.906  0.1445  0.3578 -0.1915
  692TMC3     C10288   0.208   2.013  15.823  0.3894  0.5187 -0.6881
  692TMC3     O10289   0.106   1.953  15.851 -0.0228 -0.9086 -0.4617
  692TMC3     H10290   0.456   2.095  15.835  2.4129 -0.1923  0.6668
  692TMC3    H110291   0.219   1.758  15.746  0.5941 -0.7284 -0.5272
  692TMC3    H210292   0.606   1.705  15.928 -0.8157 -1.0440 -0.4599
  692TMC3    C710293   0.395   1.583  15.813 -0.1427 -0.6520  0.4807
  692TMC3    C810294   0.625   1.955  15.998  0.1483 -0.5365  0.2413
  692TMC3    O110295   0.334   1.547  15.712 -0.2324  0.0882  0.5889
  692TMC3    O210296   0.677   1.874  16.075 -0.1100  0.1422 -0.0895
  693MPD2     C10297   4.591   0.781  11.000 -0.3625  0.1723  0.5170
  693MPD2    C110298   4.547   0.685  10.917  0.0618  0.4513  0.4790
  693MPD2    C210299   4.609   0.562  10.901  0.1809  0.3987  0.1331
  693MPD2    C310300   4.724   0.540  10.978 -0.3774  0.0363  0.8029
  693MPD2    C410301   0.042   0.647  11.049 -0.4127 -0.0589  0.3362
  693MPD2    C510302   4.716   0.768  11.050 -0.4163  0.4007 -0.9909
  693MPD2     H10303   4.569   0.476  10.848  0.6766  1.2711 -1.6327
  693MPD2    H110304   0.129   0.642  11.113  1.2094 -2.0598 -2.0450
  693MPD2    H210305   4.546   0.880  10.995  2.6093  1.4410 -0.8698
  693MPD2    H310306   0.021   0.854  11.101  1.7490 -0.1775 -1.7952
  693MPD2     N10307   0.050   0.411  10.995  0.4344  0.5915  0.5074
  693MPD2    H510308   0.130   0.409  11.057  0.0767  1.7331  1.0105
  693MPD2    N110309   4.427   0.716  10.846 -0.2301 -0.1914  0.3746
  693MPD2    H710310   4.375   0.797  10.878  1.5411  0.7955  0.7406
  694TMC3    C110311   4.245   0.582  10.794  0.3439  0.1115  0.9425
  694TMC3    C210312   4.185   0.505  10.702  0.2539 -0.0227 -0.3982
  694TMC3    C310313   4.067   0.443  10.735 -0.7822 -0.1300 -0.5060
  694TMC3    C410314   4.197   0.602  10.923  0.8385  0.4711 -0.0514
  694TMC3    C510315   4.079   0.541  10.950  0.2796  0.4990 -0.4221
  694TMC3    C610316   4.016   0.459  10.862 -0.1717 -0.0397  0.0306
  694TMC3     C10317   4.377   0.631  10.756 -0.4627  0.6411  0.0052
  694TMC3     O10318   4.443   0.582  10.667 -0.2666 -0.4001  0.2143
  694TMC3     H10319   4.224   0.506  10.601 -1.9981 -0.7476 -1.2672
  694TMC3    H110320   4.243   0.659  11.003  0.9258  1.5195 -0.8436
  694TMC3    H210321   3.948   0.389  10.910  1.4685 -2.1188 -0.6926
  694TMC3    C710322   4.060   0.541  11.092 -0.0331  0.2295 -0.4890
  694TMC3    C810323   3.999   0.352  10.642  0.2811 -0.0228  0.1242
  694TMC3    O110324   4.049   0.650  11.149 -0.4099 -0.3556  0.1649
  694TMC3    O210325   3.906   0.293  10.695 -0.2766  0.3237  0.1033
  695MPD2     C10326   0.966   1.865  13.492 -0.0199  0.7549  0.4231
  695MPD2    C110327   0.908   1.877  13.617 -0.4222  0.8914 -0.0189
  695MPD2    C210328   0.770   1.895  13.620 -0.4924  0.1500 -1.1462
  695MPD2    C310329   0.700   1.917  13.502 -0.2033  0.0370  0.1032
  695MPD2    C410330   0.762   1.899  13.380 -0.8461  0.1001  0.3069
  695MPD2    C510331   0.894   1.868  13.377  0.2871  0.4408  0.1990
  695MPD2     H10332   0.727   1.907  13.719  0.5733 -1.1579 -0.5114
  695MPD2    H110333   0.719   1.934  13.287 -0.8956  0.1345  0.3425
  695MPD2    H210334   1.070   1.833  13.484  0.1519  1.5603 -0.5197
  695MPD2    H310335   0.937   1.854  13.279  0.0028 -0.6473  0.2238
  695MPD2     N10336   0.563   1.964  13.518 -0.3112  0.9696 -0.3224
  695MPD2    H510337   0.523   1.944  13.609 -0.1893 -1.5611 -0.8048
  695MPD2    N110338   0.984   1.885  13.743 -1.1424  0.1986  0.1648
  695MPD2    H710339   0.935   1.872  13.831  0.0548 -0.4234  0.7508
  696TMC3    C110340   0.345   2.014  13.458  0.0461 -0.3779 -0.0546
  696TMC3    C210341   0.317   1.961  13.577 -0.4744  0.6522 -0.4980
  696TMC3    C310342   0.191   1.995  13.634  0.5014 -0.4788  0.6903
  696TMC3    C410343   0.261   2.105  13.390  0.3692 -0.0158  0.1328
  696TMC3    C510344   0.153   2.139  13.461  0.0722 -0.2450  0.0898
  696TMC3    C610345   0.109   2.083  13.575 -0.3533 -0.2618 -0.3992
  696TMC3     C10346   0.480   1.993  13.414 -0.2732  0.0337 -0.7791
  696TMC3     O10347   0.513   2.025  13.304  0.1229 -0.5600  0.1292
  696TMC3     H10348   0.374   1.889  13.636 -1.8566  0.6372  0.8212
  696TMC3    H110349   0.296   2.154  13.300 -1.9530  0.5221 -0.4910
  696TMC3    H210350   0.020   2.128  13.618 -0.5286  0.7356 -1.8151
  696TMC3    C710351   0.112   2.277  13.443 -0.0333  0.1816 -0.0242
  696TMC3    C810352   0.197   1.998  13.772 -0.5630 -0.4612 -0.0865
  696TMC3    O110353   0.112   2.323  13.332 -0.0804  0.0057 -0.0740
  696TMC3    O210354   0.306   1.981  13.828 -0.7438 -0.8237 -0.0621
  697MPD2     C10355   4.416   3.764  15.678 -0.4268  0.6336  0.0739
  697MPD2    C110356   4.445   3.692  15.563  0.3224  0.0537  0.7650
  697MPD2    C210357   4.480   3.764  15.448  0.2299 -0.4816  0.4811
  697MPD2    C310358   4.486   3.901  15.440  0.7489 -0.0282 -0.0039
  697MPD2    C410359   4.470   3.965  15.564 -0.7538  0.6112 -0.0304
  697MPD2    C510360   4.426   3.898  15.672 -0.2621  0.5394  0.3300
  697MPD2     H10361   4.525   3.712  15.365  0.4829 -0.2887  0.4972
  697MPD2    H110362   4.479   4.072  15.578  2.9907  0.3851 -0.6951
  697MPD2    H210363   4.364   3.717  15.761 -0.0576  0.2052  0.0618
  697MPD2    H310364   4.419   3.953  15.765 -0.3298  0.7436  0.2034
  697MPD2     N10365   4.526   3.963  15.322 -0.8549  0.3549  0.3656
  697MPD2    H510366   4.526   3.895  15.247 -2.0508 -0.0842  0.7694
  697MPD2    N110367   4.449   3.552  15.555  0.1473 -0.4399 -0.0765
  697MPD2    H710368   4.471   3.504  15.468 -0.1923  0.8208 -0.8428
  698TMC3    C110369   4.575   4.119  15.160  0.5955  0.5416  0.1076
  698TMC3    C210370   4.616   4.248  15.129  0.0010  0.1906  0.0809
  698TMC3    C310371   4.668   4.270  15.008  0.7405  0.6374 -0.3962
  698TMC3    C410372   4.563   4.023  15.061 -0.6324 -0.3401  0.4813
  698TMC3    C510373   4.595   4.062  14.924  0.2498  0.2371 -0.2743
  698TMC3    C610374   4.666   4.177  14.903 -0.3571 -0.8325  0.5598
  698TMC3     C10375   4.523   4.093  15.299 -0.2561 -0.4676  0.0758
  698TMC3     O10376   4.513   4.189  15.371  0.0251  0.5030 -0.1620
  698TMC3     H10377   4.609   4.320  15.211  1.2618 -0.7784  1.0412
  698TMC3    H110378   4.521   3.926  15.085 -4.1101  1.5445  2.1535
  698TMC3    H210379   4.708   4.203  14.807 -0.4377  2.3593  1.4016
  698TMC3    C710380   4.592   3.951  14.832  0.1991  0.4156  0.0626
  698TMC3    C810381   4.722   4.402  14.977  0.1308  0.0213 -0.5502
  698TMC3    O110382   4.580   3.844  14.888 -0.3734  0.1442 -0.1895
  698TMC3    O210383   0.020   4.408  14.857  0.1397  0.1677  0.1534
  699TMC3    C110384   0.401   2.096  12.867 -0.7469  0.3511 -0.0849
  699TMC3    C210385   0.507   2.025  12.910  0.6757 -0.0302  0.1459
  699TMC3    C310386   0.474   1.907  12.969 -0.0869  0.0442  0.9241
  699TMC3    C410387   0.267   2.062  12.885  0.1794  0.1926  0.6964
  699TMC3    C510388   0.241   1.934  12.922  0.1219 -0.2333  0.1626
  699TMC3    C610389   0.344   1.856  12.963 -0.4740  0.8977 -0.3515
  699TMC3     C10390   0.422   2.208  12.781  0.0783 -0.7392  0.1591
  699TMC3     O10391   0.366   2.219  12.669 -0.1929  0.1915  0.5450
  699TMC3     H10392   0.605   2.065  12.887  2.0165 -2.9339  0.7700
  699TMC3    H110393   0.190   2.126  12.844  2.1789  1.0842 -1.6768
  699TMC3    H210394   0.323   1.754  12.992  0.7616  0.7837  0.1425
  699TMC3    C710395   0.113   1.912  12.981 -0.0041 -0.4695 -0.4818
  699TMC3    C810396   0.585   1.823  13.008  0.4885 -0.3971 -0.0002
  699TMC3    O110397   0.082   1.797  12.998 -0.1029 -0.2187  0.0683
  699TMC3    O210398   0.706   1.842  12.985 -0.1611 -0.3702 -0.4439
  700TMC3    C110399   3.947   4.215  17.639 -0.6307 -0.1592 -0.8203
  700TMC3    C210400   4.005   4.094  17.623  0.0382 -0.2940 -0.1268
  700TMC3    C310401   4.128   4.076  17.689 -0.9650  0.1912 -0.8380
  700TMC3    C410402   4.006   4.316  17.712  0.0352 -0.7714 -0.2013
  700TMC3    C510403   4.116   4.291   0.043 -0.1875  0.5239  0.6532
  700TMC3    C610404   4.185   4.170   0.033 -0.3800  0.1293 -0.3598
  700TMC3     C10405   3.873   4.261  17.523  0.1244  0.9322 -0.5472
  700TMC3     O10406   3.807   4.185  17.457 -0.3547 -0.3374  0.5352
  700TMC3     H10407   3.963   4.028  17.549 -1.1111  0.5622 -0.2530
  700TMC3    H110408   3.947   4.407  17.725  2.0196  0.4830  0.0570
  700TMC3    H210409   4.285   4.158   0.075  0.5964 -0.9861 -3.0075
  700TMC3    C710410   4.199   4.406   0.087  0.7652  0.2472  0.4878
  700TMC3    C810411   4.209   3.957  17.648  0.5940 -0.0257 -0.0446
  700TMC3    O110412   4.305   4.382   0.141  0.2386  0.4119 -0.8918
  700TMC3    O210413   4.152   3.891  17.565 -0.0450  0.5633  0.1098
  701TMC3    C110414   3.986   2.752  15.880 -0.7072  0.3745 -0.5616
  701TMC3    C210415   4.018   2.657  15.789 -0.2421 -0.0523 -0.1483
  701TMC3    C310416   4.043   2.706  15.659 -0.5149 -0.2869  0.0701
  701TMC3    C410417   3.987   2.884  15.854 -0.0283  0.8043 -0.2302
  701TMC3    C510418   4.013   2.923  15.726  0.1616 -0.3906  0.5292
  701TMC3    C610419   4.045   2.839  15.626  0.4048 -0.5047  0.3319
  701TMC3     C10420   3.946   2.707  16.012  0.4156 -0.5623  0.2963
  701TMC3     O10421   3.945   2.796  16.099  0.6005 -0.3974  0.6016
  701TMC3     H10422   4.018   2.551  15.812 -4.2545  0.2358  1.2752
  701TMC3    H110423   3.968   2.947  15.940  0.5104  0.5292  0.0905
  701TMC3    H210424   4.067   2.867  15.523 -1.6607 -0.6224 -0.1319
  701TMC3    C710425   4.021   3.066  15.702 -0.0517  0.1635  0.0582
  701TMC3    C810426   4.082   2.601  15.560  0.0382  0.3894  0.6458
  701TMC3    O110427   4.018   3.096  15.584 -0.3486 -0.5391  0.4268
  701TMC3    O210428   4.145   2.505  15.608  0.5753  0.1407 -0.0208
  702MPD2     C10429   3.402   0.992  10.186  0.0801 -0.0681 -0.6613
  702MPD2    C110430   3.340   1.080  10.269  0.8218  0.1415  0.2463
  702MPD2    C210431   3.316   1.211  10.239 -0.4773  0.2783  0.5883
  702MPD2    C310432   3.371   1.260  10.122 -0.2107  0.1887  0.2883
  702MPD2    C410433   3.439   1.177  10.030  0.2574  0.1907  0.0639
  702MPD2    C510434   3.445   1.043  10.063 -0.3624  0.0747  0.3940
  702MPD2     H10435   3.246   1.269  10.298 -1.4038 -0.5468  0.3038
  702MPD2    H110436   3.478   1.210   9.934 -2.6047 -1.4259 -1.6626
  702MPD2    H210437   3.414   0.890  10.219 -0.9751  0.4401  1.2455
  702MPD2    H310438   3.473   0.978   9.981 -0.3873 -1.3207  1.4842
  702MPD2     N10439   3.354   1.392  10.076  0.1209 -0.2584  0.1709
  702MPD2    H510440   3.378   1.394   9.977 -1.1794  0.4392 -0.1259
  702MPD2    N110441   3.288   1.050  10.395  0.5114  0.0933  0.2695
  702MPD2    H710442   3.251   1.132  10.442  1.1065  0.9778 -0.8014
  703TMC3    C110443   3.317   1.524  10.271 -0.3748  0.0648 -0.2006
  703TMC3    C210444   3.215   1.514  10.357  0.1008  0.2011 -1.0612
  703TMC3    C310445   3.231   1.509  10.487  0.3531 -0.4317  0.4324
  703TMC3    C410446   3.446   1.532  10.312 -0.5225  0.2911 -0.6818
  703TMC3    C510447   3.464   1.540  10.453 -0.5004 -0.0968 -0.6384
  703TMC3    C610448   3.356   1.528  10.540 -0.4289 -0.0374 -0.6045
  703TMC3     C10449   3.288   1.493  10.133 -0.1266 -0.5779  0.0445
  703TMC3     O10450   3.217   1.579  10.084  0.2705 -0.2727  0.7466
  703TMC3     H10451   3.122   1.511  10.300 -0.3774  1.6870 -0.3766
  703TMC3    H110452   3.530   1.524  10.244 -0.8173 -0.5199 -0.9562
  703TMC3    H210453   3.363   1.504  10.645 -2.4390  0.6046 -0.3265
  703TMC3    C710454   3.586   1.600  10.492 -0.8630  0.0410  0.4742
  703TMC3    C810455   3.161   1.406  10.564  0.3200  0.6671  0.0035
  703TMC3    O110456   3.679   1.613  10.412  0.7002 -0.2952 -0.4818
  703TMC3    O210457   3.166   1.293  10.510  0.2640  0.2462 -0.8833
  704TMC3    C110458   0.949   3.960  12.384 -0.1409 -0.6045 -0.5869
  704TMC3    C210459   1.031   3.932  12.273 -0.3050 -0.7441  0.4344
  704TMC3    C310460   1.152   3.866  12.295 -0.0013  0.5160  0.0568
  704TMC3    C410461   0.990   3.934  12.507  0.4432 -0.2093 -0.5300
  704TMC3    C510462   1.110   3.866  12.523 -0.2726  0.1396  0.0068
  704TMC3    C610463   1.196   3.840  12.418 -0.0327 -0.2618 -0.2135
  704TMC3     C10464   0.822   4.018  12.366  0.2267 -0.9262 -0.4988
  704TMC3     O10465   0.740   4.025  12.460 -0.1073 -0.1254 -0.4162
  704TMC3     H10466   1.004   3.936  12.168  1.7027  1.7497  0.0137
  704TMC3    H110467   0.919   3.939  12.589  0.8596  0.1548 -0.1912
  704TMC3    H210468   1.287   3.781  12.426  1.5970  2.3578  0.4833
  704TMC3    C710469   1.144   3.827  12.657  0.1220 -0.7175 -0.2145
  704TMC3    C810470   1.223   3.818  12.176  1.0395  0.5256  0.1907
  704TMC3    O110471   1.062   3.800  12.746 -0.2832 -0.1068 -0.7487
  704TMC3    O210472   1.205   3.884  12.076 -0.0497  0.2633  0.1102
  705MPD2     C10473   0.862   1.620  16.510 -0.4026  0.1926  0.1095
  705MPD2    C110474   0.860   1.752  16.550 -1.2211 -0.0893 -0.0008
  705MPD2    C210475   0.744   1.812  16.575  0.0266 -0.3269  0.3469
  705MPD2    C310476   0.624   1.744  16.557  0.3937  0.5391 -0.3779
  705MPD2    C410477   0.622   1.610  16.523  0.3640  0.6165 -0.2295
  705MPD2    C510478   0.747   1.544  16.511  0.8035  0.4878  0.7610
  705MPD2     H10479   0.741   1.917  16.602  0.3719 -0.1493 -0.3068
  705MPD2    H110480   0.526   1.567  16.496 -0.2657  1.4276  0.6689
  705MPD2    H210481   0.955   1.569  16.489 -1.0966 -0.6471 -0.8852
  705MPD2    H310482   0.753   1.445  16.467 -1.9073  1.3227 -1.4500
  705MPD2     N10483   0.494   1.804  16.576  0.2597 -0.0664 -0.4735
  705MPD2    H510484   0.421   1.737  16.554 -1.8190  1.8434  0.5672
  705MPD2    N110485   0.980   1.832  16.554 -0.0231  0.7397 -0.0802
  705MPD2    H710486   0.967   1.926  16.590  1.4275  0.8905  0.0339
  706TMC3    C110487   1.363   1.927  16.327 -0.5833  0.3754 -0.2022
  706TMC3    C210488   1.310   2.043  16.305 -0.2199  0.1602  0.0932
  706TMC3    C310489   1.203   2.093  16.381 -0.6425 -0.7956  0.7028
  706TMC3    C410490   1.299   1.839  16.412  0.0461  0.0540  0.4012
  706TMC3    C510491   1.188   1.889  16.470  0.5235  0.1651  0.0144
  706TMC3    C610492   1.136   2.015  16.465  0.1633 -0.3622 -0.9071
  706TMC3     C10493   1.455   1.872  16.229  0.1967 -0.5476 -0.0735
  706TMC3     O10494   1.524   1.775  16.267 -0.0573  0.4533 -0.2697
  706TMC3     H10495   1.347   2.121  16.239 -2.3367  0.7523 -0.4028
  706TMC3    H110496   1.331   1.735  16.403 -0.5238 -0.1286  0.4702
  706TMC3    H210497   1.033   2.042  16.482  0.2332 -0.2661 -0.6478
  706TMC3    C710498   1.102   1.787  16.518  0.0527 -0.4448 -0.7784
  706TMC3    C810499   1.168   2.237  16.375  0.2448 -0.1150 -0.0886
  706TMC3    O110500   1.146   1.671  16.516 -0.0865 -0.0592  0.5312
  706TMC3    O210501   1.214   2.309  16.291 -0.6112  0.3960 -0.3694
  707TMC3    C110502   2.958   0.979  17.683  0.0840 -0.0348  0.8957
  707TMC3    C210503   2.911   1.010   0.064 -0.2501  0.0350 -0.0134
  707TMC3    C310504   2.842   1.127   0.073 -0.0889  0.0828 -0.0558
  707TMC3    C410505   2.939   1.059  17.576 -0.0108 -0.5031  1.3439
  707TMC3    C510506   2.858   1.162  17.594  0.2149  0.6937  0.0400
  707TMC3    C610507   2.814   1.207  17.711  0.7491  0.2257 -0.1524
  707TMC3     C10508   3.048   0.869  17.676 -0.5673  0.5683  0.5687
  707TMC3     O10509   3.101   0.829   0.036  0.0489  0.6599 -0.1236
  707TMC3     H10510   2.931   0.947   0.150 -2.1928 -2.2947 -1.2794
  707TMC3    H110511   2.987   1.031  17.483 -1.8867  0.1132  0.1854
  707TMC3    H210512   2.735   1.281  17.716  0.0121 -0.4547 -1.4371
  707TMC3    C710513   2.836   1.245  17.482  0.0327 -0.1591  0.3735
  707TMC3    C810514   2.772   1.161   0.196  0.1216 -0.3413  0.2551
  707TMC3    O110515   2.816   1.201  17.371  0.2121 -0.6817 -0.2431
  707TMC3    O210516   2.739   1.279   0.217  0.0534  0.5583  0.2444
  708MPD2     C10517   4.324   0.111  13.901 -0.5448  0.1144  0.3710
  708MPD2    C110518   4.337   0.247  13.901  0.1824 -0.0346  1.0412
  708MPD2    C210519   4.434   0.303  13.986  0.2449 -0.5500  0.0718
  708MPD2    C310520   4.511   0.225  14.067  0.5286 -0.4540  0.1749
  708MPD2    C410521   4.489   0.087  14.072 -0.2814  0.0200 -0.4022
  708MPD2    C510522   4.400   0.028  13.985  0.0166 -0.3096  0.3898
  708MPD2     H10523   4.446   0.411  13.990 -1.7994 -0.3309  0.3871
  708MPD2    H110524   4.546   0.026  14.141 -1.0922  0.3502  0.5602
  708MPD2    H210525   4.248   0.066  13.839  0.2630 -1.0467  0.2251
  708MPD2    H310526   4.395   4.657  13.984  1.2060 -0.3775  2.4726
  708MPD2     N10527   4.623   0.271  14.143 -0.4765 -0.7935  0.2861
  708MPD2    H510528   4.678   0.206  14.200 -0.6870 -0.8668  0.4043
  708MPD2    N110529   4.247   0.323  13.827 -0.2895 -0.0502 -0.3066
  708MPD2    H710530   4.182   0.276  13.766  0.8085  0.4443 -1.8462
  709TMC3    C110531   4.073   0.484  13.804 -1.1484 -0.4508  0.4457
  709TMC3    C210532   4.038   0.401  13.697  0.9641 -0.1485  0.1464
  709TMC3    C310533   3.929   0.338  13.716  0.1953 -0.0248 -0.8645
  709TMC3    C410534   3.993   0.514  13.904  0.0997  0.2646 -0.0062
  709TMC3    C510535   3.887   0.437  13.933  0.3934 -0.1355  0.1357
  709TMC3    C610536   3.849   0.356  13.826  1.0906 -0.3246  0.0017
  709TMC3     C10537   4.207   0.452  13.856 -0.4661 -0.4932  0.7354
  709TMC3     O10538   4.231   0.518  13.960 -0.5937  0.0676 -0.1929
  709TMC3     H10539   4.093   0.386  13.605  1.6899 -0.8951  0.7005
  709TMC3    H110540   4.016   0.592  13.976  2.6885 -0.0134 -0.5501
  709TMC3    H210541   3.766   0.286  13.835  0.4736  0.1749 -1.8822
  709TMC3    C710542   3.892   0.373  14.064  0.1101 -0.1848 -0.2764
  709TMC3    C810543   3.874   0.258  13.611 -0.1443 -0.2345 -0.5852
  709TMC3    O110544   3.806   0.289  14.085 -0.5524 -0.2406  0.8146
  709TMC3    O210545   3.821   0.150  13.634  0.3106 -0.3321 -0.3594
  710TMC3    C110546   0.448   1.214   0.167  0.3635 -0.0446  0.4545
  710TMC3    C210547   0.524   1.198   0.047 -0.4322 -0.2025  0.0711
  710TMC3    C310548   0.656   1.170   0.067  1.1975  0.2642 -0.4139
  710TMC3    C410549   0.505   1.214   0.290  0.3051  0.5693 -0.6693
  710TMC3    C510550   0.640   1.189   0.301  0.5225  0.3176  0.0114
  710TMC3    C610551   0.719   1.165   0.189  0.8967 -0.3257 -0.5730
  710TMC3     C10552   0.308   1.252   0.147 -0.4702  0.5556 -0.1763
  710TMC3     O10553   0.269   1.254   0.031 -0.4698 -0.0887 -0.0981
  710TMC3     H10554   0.468   1.189  17.699  0.4235  0.2593 -0.4854
  710TMC3    H110555   0.448   1.205   0.382  1.6463 -0.3233  0.0651
  710TMC3    H210556   0.825   1.150   0.200  0.6889 -0.6635  1.0636
  710TMC3    C710557   0.686   1.148   0.424 -0.3647  0.2537 -0.1737
  710TMC3    C810558   0.730   1.148  17.695  0.2640 -0.0769  0.3947
  710TMC3    O110559   0.612   1.174   0.517  0.2604  1.0419 -0.3716
  710TMC3    O210560   0.686   1.189  17.592 -0.6309 -0.2427  0.2981
  711TMC3    C110561   4.588   2.584  15.279  0.3069 -0.5561  0.4006
  711TMC3    C210562   4.593   2.658  15.399 -0.4972 -0.0783  0.0823
  711TMC3    C310563   4.693   2.622  15.481 -0.2912 -0.9994  0.4467
  711TMC3    C410564   4.678   2.494  15.243 -0.2785 -0.0196 -0.1963
  711TMC3    C510565   0.044   2.467  15.328  0.0529  0.2502 -1.0520
  711TMC3    C610566   0.048   2.526  15.452 -0.1802  0.5034  0.1119
  711TMC3     C10567   4.479   2.605  15.186 -0.1871 -0.5213  0.5606
  711TMC3     O10568   4.466   2.520  15.097 -0.0557  0.2585 -0.0978
  711TMC3     H10569   4.521   2.734  15.428  2.0962  2.2812  0.2595
  711TMC3    H110570   4.672   2.450  15.144 -0.6164 -0.1743 -0.1073
  711TMC3    H210571   0.123   2.498  15.525 -0.9369  0.6200  0.9499
  711TMC3    C710572   0.117   2.337  15.311  0.5021  0.3767  0.2388
  711TMC3    C810573   4.713   2.712  15.592  0.0600  0.9487  0.1218
  711TMC3    O110574   0.223   2.334  15.365  0.4403 -0.0486 -0.4420
  711TMC3    O210575   4.609   2.764  15.634 -0.4093 -0.2765 -0.2372
  712MPD2     C10576   1.764   3.883  14.037 -0.1398 -0.7976  0.4737
  712MPD2    C110577   1.664   3.898  13.945 -0.5419  0.7221  0.5085
  712MPD2    C210578   1.655   4.011  13.870 -0.4534  0.5598 -0.0112
  712MPD2    C310579   1.751   4.113  13.882 -0.7244  0.4854  0.1938
  712MPD2    C410580   1.849   4.090  13.977  0.3951  0.0633  0.2577
  712MPD2    C510581   1.853   3.979  14.048  0.2473  0.7478 -0.0682
  712MPD2     H10582   1.581   4.014  13.791  0.1626 -0.9148 -0.6435
  712MPD2    H110583   1.919   4.172  13.993 -0.3091  0.8081 -0.4569
  712MPD2    H210584   1.766   3.796  14.102  0.1720 -2.3940 -1.6883
  712MPD2    H310585   1.940   3.974  14.111 -0.7675  1.5468  1.4036
  712MPD2     N10586   1.764   4.224  13.799 -0.3005  0.3686 -0.4581
  712MPD2    H510587   1.850   4.276  13.811  0.7270 -1.4481  0.1005
  712MPD2    N110588   1.555   3.801  13.938 -0.8075  0.6284 -0.0932
  712MPD2    H710589   1.489   3.817  13.863 -0.7146  0.5762 -0.1866
  713TMC3    C110590   1.723   4.346  13.605 -0.1863  0.0394 -0.1195
  713TMC3    C210591   1.852   4.404  13.594 -0.6073  0.6506  0.4272
  713TMC3    C310592   1.865   4.510  13.508  0.6351  0.1722  0.7553
  713TMC3    C410593   1.619   4.411  13.534 -0.2167  0.6064 -0.9482
  713TMC3    C510594   1.642   4.510  13.444  0.2518  0.3427 -0.9410
  713TMC3    C610595   1.767   4.565  13.433  0.7830  0.1021 -0.2791
  713TMC3     C10596   1.675   4.255  13.704 -0.1743 -0.5071  0.1247
  713TMC3     O10597   1.568   4.208  13.673  0.4137 -0.2433 -0.4982
  713TMC3     H10598   1.941   4.356  13.633 -0.7101  0.4442  0.4050
  713TMC3    H110599   1.513   4.394  13.553 -0.1656  0.3112 -0.9323
  713TMC3    H210600   1.781   4.644  13.360 -0.0022 -0.8236 -1.4316
  713TMC3    C710601   1.541   4.611  13.437  0.7344 -0.6797  0.0932
  713TMC3    C810602   1.997   4.570  13.497 -0.2996  0.0419 -0.3466
  713TMC3    O110603   1.577   4.726  13.466  0.1328  0.2571 -0.2753
  713TMC3    O210604   2.032   4.609  13.389 -0.1393  0.2488  0.0009
  714MPD2     C10605   3.372   1.978   0.987 -0.6422 -0.2203 -0.6787
  714MPD2    C110606   3.463   2.064   1.058  0.2733  0.2992  0.2227
  714MPD2    C210607   3.419   2.191   1.099  0.8566 -0.3498 -0.3279
  714MPD2    C310608   3.296   2.241   1.057 -0.5342  0.3084  0.4811
  714MPD2    C410609   3.207   2.153   0.994  0.0309  0.1978  0.0722
  714MPD2    C510610   3.249   2.032   0.955 -0.0845  0.5558 -0.1671
  714MPD2     H10611   3.494   2.257   1.142 -0.1406  0.6150 -0.0676
  714MPD2    H110612   3.108   2.188   0.966 -0.1508 -0.3590  0.0340
  714MPD2    H210613   3.382   1.872   0.967  0.3070 -0.2478 -0.0888
  714MPD2    H310614   3.182   1.965   0.902 -0.1846  0.4111  0.1419
  714MPD2     N10615   3.257   2.369   1.103  0.4726 -0.3000 -0.6853
  714MPD2    H510616   3.325   2.399   1.173  1.1384 -3.7742  0.1455
  714MPD2    N110617   3.592   2.023   1.083  0.1275 -0.5093 -0.6216
  714MPD2    H710618   3.653   2.084   1.136  0.9205 -0.6336 -1.3825
  715TMC3    C110619   3.787   1.899   1.060 -0.6839  0.3698  0.0526
  715TMC3    C210620   3.850   1.788   1.000  0.6648  0.9254 -0.1783
  715TMC3    C310621   3.973   1.746   1.049 -0.0871 -0.6946  0.3482
  715TMC3    C410622   3.852   1.981   1.150 -0.4652 -0.7486 -0.2922
  715TMC3    C510623   3.981   1.939   1.190 -0.1004 -0.2247  0.1633
  715TMC3    C610624   4.038   1.819   1.139 -0.2265 -0.7048 -0.8450
  715TMC3     C10625   3.651   1.919   1.020  0.3708 -0.6501 -0.8539
  715TMC3     O10626   3.601   1.841   0.937  0.2834 -0.2236 -0.7297
  715TMC3     H10627   3.795   1.735   0.923  0.6444 -1.6041  1.5699
  715TMC3    H110628   3.806   2.066   1.199 -0.7056 -0.9149 -0.2344
  715TMC3    H210629   4.140   1.793   1.165 -0.6031 -0.5824  0.7085
  715TMC3    C710630   4.055   2.023   1.289  1.1619  0.0438  0.4159
  715TMC3    C810631   4.027   1.630   0.981  0.8504 -0.2309  0.1614
  715TMC3    O110632   4.167   1.983   1.309  0.2924 -0.0077 -0.2072
  715TMC3    O210633   3.983   1.588   0.876 -0.1714  0.2206  0.0048
  716MPD2     C10634   3.886   1.714   9.701 -0.1295  0.2033 -0.4563
  716MPD2    C110635   3.761   1.665   9.670 -0.0385  0.7789 -0.2787
  716MPD2    C210636   3.749   1.527   9.656  0.5266  0.5513 -0.3269
  716MPD2    C310637   3.855   1.442   9.670 -1.2468  0.3962  0.1620
  716MPD2    C410638   3.973   1.493   9.703 -0.3421  0.0940  0.1832
  716MPD2    C510639   3.987   1.625   9.712  0.1515  0.0287  0.1272
  716MPD2     H10640   3.660   1.478   9.618  0.6860  0.4150 -0.5210
  716MPD2    H110641   4.061   1.430   9.710 -1.2945 -1.2323  0.2558
  716MPD2    H210642   3.913   1.818   9.715  2.8262 -0.5575 -0.4723
  716MPD2    H310643   4.083   1.670   9.736 -0.5901  1.7040 -0.0879
  716MPD2     N10644   3.823   1.303   9.672 -0.4058  0.1114 -0.0225
  716MPD2    H510645   3.727   1.280   9.649 -0.1049 -1.4860  0.2710
  716MPD2    N110646   3.656   1.759   9.656 -0.3628 -0.3731  0.0014
  716MPD2    H710647   3.686   1.855   9.663 -0.1526 -0.6220  2.2511
  717TMC3    C110648   3.834   1.080   9.709 -0.6394  0.0005 -0.4314
  717TMC3    C210649   3.695   1.075   9.735 -0.2006 -0.4472  0.4962
  717TMC3    C310650   3.624   0.967   9.701  0.1057  0.0871  0.1194
  717TMC3    C410651   3.911   0.974   9.666 -0.1199 -0.6432  1.0256
  717TMC3    C510652   3.833   0.856   9.646  0.1966  0.4689  0.4605
  717TMC3    C610653   3.696   0.855   9.664 -0.2117  0.4169  0.7167
  717TMC3     C10654   3.907   1.202   9.700  0.0684  0.1906 -0.0349
  717TMC3     O10655   4.028   1.207   9.706 -0.4330 -0.3262 -0.6931
  717TMC3     H10656   3.644   1.164   9.770  0.5184 -0.8538  2.5649
  717TMC3    H110657   4.016   0.987   9.643 -0.3432  0.2782  0.5375
  717TMC3    H210658   3.644   0.760   9.655 -0.7066  0.9831 -2.7237
  717TMC3    C710659   3.891   0.740   9.586 -0.2723 -0.3667  0.2077
  717TMC3    C810660   3.490   0.984   9.653 -0.2080 -0.1538 -0.2032
  717TMC3    O110661   3.822   0.655   9.541  0.0712 -0.0193  0.0510
  717TMC3    O210662   3.442   1.097   9.668  0.0067  0.3390 -0.3239
  718MPD2     C10663   3.189   4.052  13.158 -0.6776 -0.3727 -0.2920
  718MPD2    C110664   3.094   4.115  13.083 -0.5795  0.7687 -0.6029
  718MPD2    C210665   2.982   4.160  13.149  0.0144 -0.6325  0.5791
  718MPD2    C310666   2.968   4.140  13.283  0.2349  0.1439  0.4659
  718MPD2    C410667   3.069   4.080  13.360  0.1392 -0.2753 -0.4719
  718MPD2    C510668   3.177   4.038  13.294 -0.2238 -0.2386 -0.0185
  718MPD2     H10669   2.904   4.209  13.093  0.6700  0.9567  1.0627
  718MPD2    H110670   3.077   4.063  13.467  0.2515 -1.7180 -0.7093
  718MPD2    H210671   3.276   4.003  13.115 -0.8509  0.6201 -1.7852
  718MPD2    H310672   3.257   3.993  13.352 -0.3524  0.5565  0.7831
  718MPD2     N10673   2.849   4.201  13.336 -0.4127 -0.3170 -0.2611
  718MPD2    H510674   2.778   4.224  13.268  1.0783 -1.0383 -2.0816
  718MPD2    N110675   3.091   4.125  12.943  0.0398 -0.0412  0.0781
  718MPD2    H710676   3.010   4.167  12.900  0.0949  1.6988  1.6584
  719TMC3    C110677   3.146   4.123  12.719 -0.4652  0.0797  0.4043
  719TMC3    C210678   3.018   4.163  12.715  0.4473  0.0602 -0.2483
  719TMC3    C310679   2.989   4.299  12.687  0.1602 -0.9260  0.1661
  719TMC3    C410680   3.237   4.205  12.670  0.5161 -0.2386 -0.1531
  719TMC3    C510681   3.204   4.325  12.620  0.4340  0.0079 -0.6972
  719TMC3    C610682   3.083   4.383  12.652  0.1869  0.7391 -0.3724
  719TMC3     C10683   3.185   4.079  12.850  0.4338  0.5565  0.2236
  719TMC3     O10684   3.293   4.029  12.870  0.9548  0.1219  0.2773
  719TMC3     H10685   2.941   4.091  12.737  0.9856  0.4194  2.6990
  719TMC3    H110686   3.341   4.173  12.664  0.4304 -0.7178  0.9466
  719TMC3    H210687   3.058   4.487  12.634  0.2220  0.4875 -1.9313
  719TMC3    C710688   3.304   4.434  12.604 -0.1735 -0.3979  0.1499
  719TMC3    C810689   2.884   4.341  12.777 -0.1719  0.3603 -0.1491
  719TMC3    O110690   3.271   4.545  12.558  0.1726  0.1351 -0.2949
  719TMC3    O210691   2.870   4.266  12.870 -0.3716  0.3188  0.6185
  720MPD2     C10692   1.354   1.130  14.045 -0.1634 -0.8302  0.0925
  720MPD2    C110693   1.443   1.116  13.935  0.1433 -0.5452 -0.3399
  720MPD2    C210694   1.577   1.087  13.966 -0.1249 -0.3480  0.0882
  720MPD2    C310695   1.625   1.071  14.106  0.0481 -0.6738  0.3673
  720MPD2    C410696   1.535   1.085  14.204 -0.3553 -0.5026  0.4782
  720MPD2    C510697   1.405   1.116  14.176 -0.4395  0.4355 -0.1400
  720MPD2     H10698   1.647   1.065  13.886 -0.3619 -2.5763  0.4761
  720MPD2    H110699   1.564   1.094  14.308 -0.8997  2.6159  0.3622
  720MPD2    H210700   1.251   1.152  14.021 -0.1127  1.1009  1.6369
  720MPD2    H310701   1.337   1.104  14.260 -0.8816  0.3010 -0.5226
  720MPD2     N10702   1.761   1.031  14.122 -0.0838 -0.1320  0.2745
  720MPD2    H510703   1.823   1.052  14.045  1.3425 -0.9387  1.2193
  720MPD2    N110704   1.399   1.137  13.801 -0.2981  0.4447  0.4790
  720MPD2    H710705   1.468   1.108  13.732 -0.2033 -0.7674  1.0816
  721TMC3    C110706   1.946   0.968  14.266  0.5513 -0.9016 -0.2848
  721TMC3    C210707   1.993   0.988  14.393 -0.3029  0.3669 -0.4609
  721TMC3    C310708   2.124   0.966  14.410 -0.1457 -0.2996  1.2504
  721TMC3    C410709   2.021   0.913  14.161  0.3489 -0.3685  0.5701
  721TMC3    C510710   2.145   0.878  14.188  0.5918 -0.4396  0.8291
  721TMC3    C610711   2.205   0.917  14.306 -0.1216  0.5917 -0.1041
  721TMC3     C10712   1.805   0.985  14.251 -0.4081  0.1271 -0.0656
  721TMC3     O10713   1.751   0.996  14.364 -0.0542  0.0475 -0.1224
  721TMC3     H10714   1.938   1.026  14.478  1.5568  0.0319  0.9002
  721TMC3    H110715   1.983   0.889  14.062 -0.0926 -3.2250  1.4287
  721TMC3    H210716   2.311   0.903  14.324 -0.0372  0.8024 -0.4373
  721TMC3    C710717   2.235   0.868  14.079 -0.1737 -0.3378  0.5960
  721TMC3    C810718   2.196   0.987  14.538 -0.3505  0.8896 -0.4363
  721TMC3    O110719   2.331   0.948  14.083 -0.2957 -0.6531  0.3242
  721TMC3    O210720   2.314   1.021  14.526  0.5527 -0.2715  0.7541
  722MPD2     C10721   0.288   4.220  13.319  0.1975 -0.3252 -0.5731
  722MPD2    C110722   0.267   4.318  13.226  0.2560 -0.9530  0.6351
  722MPD2    C210723   0.149   4.332  13.159 -0.9814  0.2580  0.8417
  722MPD2    C310724   0.045   4.243  13.180 -0.3284  0.0658 -0.8581
  722MPD2    C410725   0.070   4.137  13.267  0.9902 -0.0990 -0.6811
  722MPD2    C510726   0.189   4.127  13.331  1.0292 -0.0298 -0.9685
  722MPD2     H10727   0.124   4.416  13.096  0.5071  0.5114  0.6149
  722MPD2    H110728   4.731   4.064  13.291  0.9296  0.6935  1.5703
  722MPD2    H210729   0.377   4.219  13.380  0.3597  1.9547 -0.7746
  722MPD2    H310730   0.207   4.037  13.389  0.3879 -0.3435 -1.2480
  722MPD2     N10731   4.655   4.275  13.129  0.1226  0.5642 -0.0147
  722MPD2    H510732   4.641   4.362  13.078 -1.3199 -0.6218 -1.6405
  722MPD2    N110733   0.359   4.417  13.203 -0.1818  0.0158 -0.0158
  722MPD2    H710734   0.322   4.491  13.144 -0.5537 -1.2671 -1.4098
  723TMC3    C110735   4.428   4.263  13.083  0.3154  0.4982  0.4879
  723TMC3    C210736   4.337   4.181  13.022 -0.2382 -0.2033  0.3191
  723TMC3    C310737   4.226   4.242  12.963  0.6534 -0.4463  0.6313
  723TMC3    C410738   4.425   4.399  13.084  0.4615 -0.1197  0.5982
  723TMC3    C510739   4.323   4.452  13.018  0.3228 -0.1644 -0.4578
  723TMC3    C610740   4.220   4.380  12.956  0.5390 -0.2139  0.2674
  723TMC3     C10741   4.542   4.201  13.142 -0.1038  0.3933 -0.5180
  723TMC3     O10742   4.529   4.089  13.193 -0.3954 -0.0365 -0.2474
  723TMC3     H10743   4.345   4.077  13.049 -0.8802 -0.2619  0.2849
  723TMC3    H110744   4.499   4.454  13.141  2.2407  0.1129 -1.9032
  723TMC3    H210745   4.139   4.415  12.893 -0.2032 -1.0635  0.7501
  723TMC3    C710746   4.313   4.592  13.014  0.4344 -0.1995 -0.0643
  723TMC3    C810747   4.128   4.170  12.880  0.2025 -0.0215  0.1314
  723TMC3    O110748   4.345   4.652  13.116  0.5408 -0.1488 -0.3818
  723TMC3    O210749   4.021   4.228  12.853 -0.0930  0.4197 -0.0180
  724TMC3    C110750   0.175   2.684  11.103  0.3086 -0.0823  0.2509
  724TMC3    C210751   0.147   2.665  10.966 -0.0321  0.4852 -0.1904
  724TMC3    C310752   0.207   2.746  10.878 -0.4628 -0.3550  0.0683
  724TMC3    C410753   0.268   2.782  11.145 -0.1740  0.3885  0.4316
  724TMC3    C510754   0.315   2.866  11.048  0.2282 -0.2624  0.2607
  724TMC3    C610755   0.284   2.850  10.916 -0.2873 -0.4533  0.2690
  724TMC3     C10756   0.166   2.563  11.175  0.3586  0.3711 -0.3947
  724TMC3     O10757   0.099   2.473  11.129  0.3558  0.2754 -0.5472
  724TMC3     H10758   0.114   2.569  10.928 -2.2463  1.4154 -0.6177
  724TMC3    H110759   0.300   2.798  11.247 -0.7193 -0.2393  0.7014
  724TMC3    H210760   0.329   2.910  10.838  0.6233 -1.0271  0.3491
  724TMC3    C710761   0.409   2.970  11.082  0.5459  0.1652 -0.1901
  724TMC3    C810762   0.162   2.727  10.737  0.5810 -0.4197 -0.1104
  724TMC3    O110763   0.498   2.989  10.998 -0.6972 -0.5310  0.5548
  724TMC3    O210764   0.061   2.662  10.714 -0.8865  0.1451 -0.2892
  725TMC3    C110765   2.265   1.475  12.722  0.6574 -0.6154 -0.2271
  725TMC3    C210766   2.170   1.479  12.622  0.3550 -0.5301  0.4422
  725TMC3    C310767   2.176   1.379  12.533 -0.2053 -0.5363  0.4005
  725TMC3    C410768   2.359   1.380  12.733 -0.8982  0.0698  0.0863
  725TMC3    C510769   2.377   1.307  12.618  0.5587 -0.0373  0.4925
  725TMC3    C610770   2.277   1.297  12.529  0.0099 -0.3521  0.4391
  725TMC3     C10771   2.265   1.581  12.820 -0.3680 -0.0893  0.0887
  725TMC3     O10772   2.375   1.609  12.860  0.1396 -0.7803 -0.9410
  725TMC3     H10773   2.097   1.560  12.628 -1.7312 -2.3731 -0.3511
  725TMC3    H110774   2.429   1.379  12.816  0.2597  0.5823 -0.8863
  725TMC3    H210775   2.266   1.208  12.468 -1.5460 -0.6580  1.1421
  725TMC3    C710776   2.459   1.183  12.628  0.3309 -0.8956  0.6160
  725TMC3    C810777   2.070   1.378  12.426  0.3705  0.1145  0.1173
  725TMC3    O110778   2.514   1.141  12.525  0.1737  0.3736 -0.0340
  725TMC3    O210779   2.023   1.267  12.402 -0.1191 -0.2784  0.2842
  726MPD2     C10780   4.116   3.113  10.119  0.0035 -0.2795 -0.9140
  726MPD2    C110781   4.000   3.197  10.105 -0.1484 -0.1028  0.2437
  726MPD2    C210782   3.888   3.176  10.189 -1.0395  0.3092 -0.2398
  726MPD2    C310783   3.892   3.071  10.280  0.6706 -0.4159  0.1092
  726MPD2    C410784   4.012   3.001  10.304 -0.2842  0.2742 -0.6678
  726MPD2    C510785   4.120   3.020  10.222  0.5064 -0.1677 -0.4904
  726MPD2     H10786   3.813   3.254  10.181 -0.6099  0.9227  1.6187
  726MPD2    H110787   4.023   2.924  10.379  2.9802  0.3246 -1.0826
  726MPD2    H210788   4.199   3.110  10.050  0.0079  2.2823 -1.0442
  726MPD2    H310789   4.214   2.970  10.242  0.4663 -0.4750 -1.0808
  726MPD2     N10790   3.788   3.044  10.370  0.5186  0.2495  0.0976
  726MPD2    H510791   3.797   2.986  10.453 -2.8688 -2.2224 -1.2377
  726MPD2    N110792   3.997   3.307  10.012 -0.8781  0.2878  0.5573
  726MPD2    H710793   3.905   3.343   9.989 -1.2905  0.2774  2.1691
  727TMC3    C110794   4.095   3.501   9.923 -0.2917  0.3564 -0.1139
  727TMC3    C210795   4.209   3.569   9.907  0.5704 -0.9433  0.9283
  727TMC3    C310796   4.211   3.703   9.885 -0.2766 -0.7961 -0.0051
  727TMC3    C410797   3.983   3.566   9.916  0.2179 -0.5440 -0.0396
  727TMC3    C510798   3.985   3.695   9.875 -0.8212 -0.1209  0.4370
  727TMC3    C610799   4.097   3.768   9.872 -0.6056 -0.2142  0.2605
  727TMC3     C10800   4.106   3.364   9.967 -0.0245  0.5353  0.0911
  727TMC3     O10801   4.217   3.323   9.990  0.1339 -0.1580  0.0218
  727TMC3     H10802   4.306   3.521   9.906  0.4263 -1.1871 -1.9982
  727TMC3    H110803   3.886   3.520   9.931  0.6152 -1.6406 -0.8818
  727TMC3    H210804   4.086   3.872   9.846  0.6607 -0.0345  0.4443
  727TMC3    C710805   3.866   3.774   9.838 -0.1207 -0.0274 -0.5896
  727TMC3    C810806   4.342   3.770   9.892  0.8150  0.1335  0.3749
  727TMC3    O110807   3.870   3.892   9.846  0.3517 -0.5174  0.4772
  727TMC3    O210808   4.444   3.701   9.884 -0.7219 -0.0124  0.3641
  728TMC3    C110809   4.262   1.570  15.259 -0.1295 -0.0327  0.5820
  728TMC3    C210810   4.290   1.683  15.337 -0.0538 -0.5195 -0.2593
  728TMC3    C310811   4.238   1.804  15.287 -0.4154 -0.4002  0.1817
  728TMC3    C410812   4.185   1.570  15.149  0.4183 -0.6334 -0.5217
  728TMC3    C510813   4.140   1.691  15.107  0.3416  0.9161  0.2720
  728TMC3    C610814   4.164   1.812  15.174 -0.1603  0.6445  0.2209
  728TMC3     C10815   4.283   1.448  15.338  0.5984  0.5291  0.3558
  728TMC3     O10816   4.388   1.450  15.400  0.1740 -0.0246 -0.0093
  728TMC3     H10817   4.360   1.677  15.419 -1.2416  2.0612  0.9255
  728TMC3    H110818   4.163   1.481  15.091  0.6691 -1.3888  0.5452
  728TMC3    H210819   4.128   1.904  15.129  1.9811  0.9062 -0.9405
  728TMC3    C710820   4.129   1.695  14.964 -0.6300  0.1518 -0.1853
  728TMC3    C810821   4.269   1.934  15.352  0.1656 -0.0959 -0.2976
  728TMC3    O110822   4.198   1.614  14.903  0.3232  0.5692 -0.0816
  728TMC3    O210823   4.195   2.028  15.337  0.2654 -0.4906  0.2041
  729MPD2     C10824   1.598   2.031  16.518  0.0087 -0.1193 -0.1617
  729MPD2    C110825   1.581   2.163  16.502 -0.1901  0.2317  0.1916
  729MPD2    C210826   1.495   2.243  16.575  0.0208 -0.3540  0.1077
  729MPD2    C310827   1.425   2.185  16.682 -0.1994  0.3914 -0.5135
  729MPD2    C410828   1.430   2.046  16.690  0.1681 -0.2334  0.1796
  729MPD2    C510829   1.521   1.971  16.603 -0.0902  0.5390 -0.5276
  729MPD2     H10830   1.480   2.347  16.550 -0.7112 -1.0347 -2.2401
  729MPD2    H110831   1.375   2.001  16.772  0.5784 -0.7313  0.1761
  729MPD2    H210832   1.662   1.970  16.455  1.1327  1.2020 -0.3076
  729MPD2    H310833   1.532   1.864  16.616  2.2847  1.2639  3.3650
  729MPD2     N10834   1.332   2.246  16.775  0.1504  0.5242 -0.1719
  729MPD2    H510835   1.306   2.191  16.856 -0.1785 -0.3557 -0.8772
  729MPD2    N110836   1.659   2.223  16.400  0.2688  0.1083  0.2850
  729MPD2    H710837   1.732   2.164  16.363  0.4006 -0.6958  1.7941
  730TMC3    C110838   1.304   2.435  16.896 -0.2590 -0.1359  0.0975
  730TMC3    C210839   1.403   2.403  16.977  0.6755 -0.5861 -0.1613
  730TMC3    C310840   1.434   2.478  17.092 -0.3131  0.1733  0.2215
  730TMC3    C410841   1.228   2.546  16.919  0.1055 -0.3013  0.0984
  730TMC3    C510842   1.245   2.611  17.032 -0.2076 -0.0675  0.4740
  730TMC3    C610843   1.344   2.572  17.119  0.0699  0.5828 -0.1191
  730TMC3     C10844   1.308   2.382  16.770  1.2161 -0.1959  0.8880
  730TMC3     O10845   1.325   2.454  16.673 -0.0286 -0.1577  0.4053
  730TMC3     H10846   1.472   2.323  16.951  2.5547  0.8514  0.4049
  730TMC3    H110847   1.153   2.578  16.848  1.2716  0.0891 -0.9533
  730TMC3    H210848   1.356   2.620  17.216 -0.3453 -1.2023  0.8089
  730TMC3    C710849   1.247   2.755  17.022 -0.8395 -0.3452 -0.1359
  730TMC3    C810850   1.567   2.536  17.066  0.3239  0.0843 -0.2078
  730TMC3    O110851   1.252   2.804  16.910  0.0970 -0.2470 -0.3835
  730TMC3    O210852   1.628   2.490  16.971 -0.2130  0.5592 -0.3598
  731MPD2     C10853   1.705   1.204  12.492  0.4189 -0.0900  0.6791
  731MPD2    C110854   1.764   1.080  12.507 -0.3255 -0.4734 -0.0555
  731MPD2    C210855   1.684   0.982  12.563 -0.1822  0.7218 -0.6089
  731MPD2    C310856   1.559   1.000  12.612 -0.0032 -0.3948  0.0545
  731MPD2    C410857   1.504   1.125  12.593 -1.2920 -0.0815 -0.2586
  731MPD2    C510858   1.575   1.225  12.534  0.3817  0.3403 -0.1268
  731MPD2     H10859   1.722   0.880  12.568 -0.9351  0.5002  0.6288
  731MPD2    H110860   1.404   1.161  12.613 -0.6715  1.5348 -0.0554
  731MPD2    H210861   1.757   1.289  12.450  1.1546  0.0830  1.9412
  731MPD2    H310862   1.530   1.324  12.527 -2.2394 -0.9257 -0.9744
  731MPD2     N10863   1.480   0.887  12.652 -0.3694 -0.1600 -0.4083
  731MPD2    H510864   1.528   0.799  12.639 -0.6047 -0.7205  2.4925
  731MPD2    N110865   1.897   1.058  12.470  0.2366 -0.1471 -0.0152
  731MPD2    H710866   1.954   1.138  12.445  1.5725 -0.6222  1.4965
  732TMC3    C110867   2.106   0.945  12.471  0.6488  0.5719  0.1073
  732TMC3    C210868   2.157   0.845  12.546 -0.2589  0.6307  0.3113
  732TMC3    C310869   2.285   0.801  12.517 -0.1567 -0.5637 -0.2015
  732TMC3    C410870   2.160   1.000  12.354  0.3609 -0.5204 -0.4198
  732TMC3    C510871   2.286   0.955  12.334 -0.1279  0.1718  0.9515
  732TMC3    C610872   2.358   0.861  12.409 -0.3430 -0.0914 -0.4086
  732TMC3     C10873   1.962   0.932  12.473 -0.3958  0.5753 -0.5180
  732TMC3     O10874   1.929   0.814  12.470  0.0710 -0.7071 -0.1758
  732TMC3     H10875   2.113   0.816  12.641  1.3468  0.4344  0.9973
  732TMC3    H110876   2.126   1.087  12.300 -2.1944 -1.6617 -0.6552
  732TMC3    H210877   2.457   0.828  12.382  0.0196 -0.1764  1.0366
  732TMC3    C710878   2.365   1.029  12.234 -0.2376 -0.7576 -0.1004
  732TMC3    C810879   2.287   0.659  12.524  0.7773 -0.3789  0.1158
  732TMC3    O110880   2.311   1.081  12.136  0.0672 -0.0408 -0.3714
  732TMC3    O210881   2.391   0.597  12.521 -0.0245 -0.2047  0.3026
  733TMC3    C110882   2.467   4.341  13.525  0.0809  0.0602 -0.6474
  733TMC3    C210883   2.565   4.239  13.514  0.6591  0.0908 -0.3852
  733TMC3    C310884   2.688   4.286  13.474  0.7782  0.0085  0.4496
  733TMC3    C410885   2.484   4.465  13.476 -0.6095 -0.2171 -0.4436
  733TMC3    C510886   2.598   4.495  13.413  0.3105  1.0252 -0.0815
  733TMC3    C610887   2.705   4.408  13.412  0.6615  0.2826  0.1778
  733TMC3     C10888   2.330   4.297  13.511  0.1991 -0.6658  0.4808
  733TMC3     O10889   2.257   4.345  13.426  0.4358 -0.0856  0.5336
  733TMC3     H10890   2.565   4.138  13.554  0.2644  0.3401  0.2588
  733TMC3    H110891   2.403   4.534  13.456 -1.8257 -1.8113 -1.0004
  733TMC3    H210892   2.798   4.436  13.365  1.4693 -0.1584  1.5132
  733TMC3    C710893   2.584   4.583  13.302  0.1582 -0.4786  0.3039
  733TMC3    C810894   2.805   4.202  13.463 -0.6614 -0.2765  0.4024
  733TMC3    O110895   2.542   4.696  13.316 -0.2225 -0.6569  0.0933
  733TMC3    O210896   2.839   4.131  13.561 -0.1044 -0.5265  0.3753
  734MPD2     C10897   4.217   1.233  12.707  0.2347  0.1839 -0.5655
  734MPD2    C110898   4.190   1.154  12.595 -0.2182 -0.0400 -0.5394
  734MPD2    C210899   4.182   1.210  12.472 -0.5102 -0.3604 -0.1049
  734MPD2    C310900   4.207   1.344  12.464  0.2750 -0.0832  0.3565
  734MPD2    C410901   4.209   1.424  12.569  0.0925 -0.4136 -0.2476
  734MPD2    C510902   4.230   1.366  12.693  0.9638 -0.5154 -1.2829
  734MPD2     H10903   4.159   1.148  12.386 -2.9338 -1.2718  1.2093
  734MPD2    H110904   4.216   1.532  12.562  1.5702 -0.5459 -0.8086
  734MPD2    H210905   4.216   1.194  12.808  0.9326 -2.9141 -1.7486
  734MPD2    H310906   4.230   1.437  12.775  0.9210  1.2193 -2.7676
  734MPD2     N10907   4.213   1.394  12.326  0.7102 -0.4112  0.0031
  734MPD2    H510908   4.210   1.324  12.252  0.3185 -0.5145  0.1155
  734MPD2    N110909   4.151   1.015  12.617 -0.4589 -0.6515  0.2329
  734MPD2    H710910   4.184   0.970  12.702 -1.3801  0.2473  1.0650
  735TMC3    C110911   4.094   0.799  12.543 -0.2456  0.6039  0.6103
  735TMC3    C210912   4.035   0.738  12.440 -1.2012 -0.6778 -0.1831
  735TMC3    C310913   4.108   0.644  12.369  0.1796  0.2511 -0.2741
  735TMC3    C410914   4.222   0.766  12.585  0.0214 -0.6973  0.0285
  735TMC3    C510915   4.282   0.656  12.531 -0.3518 -0.1508  0.2547
  735TMC3    C610916   4.224   0.594  12.420  0.6352 -0.4875  0.3264
  735TMC3     C10917   4.082   0.938  12.526  0.5948 -0.2742  0.7064
  735TMC3     O10918   4.010   0.979  12.435 -0.4395  0.0680  0.0973
  735TMC3     H10919   3.936   0.772  12.412  0.0371  2.1803 -1.0638
  735TMC3    H110920   4.257   0.806  12.679 -1.3113 -1.1685  0.7252
  735TMC3    H210921   4.293   0.534  12.362  1.5719  0.4794  0.4374
  735TMC3    C710922   4.427   0.673  12.523  0.2735 -0.0369  0.8504
  735TMC3    C810923   4.113   0.679  12.227 -0.1588  0.5063  0.1750
  735TMC3    O110924   4.475   0.776  12.570  0.2933 -0.1281  0.0353
  735TMC3    O210925   4.167   0.602  12.154 -0.2609 -0.2890 -0.0249
  736MPD2     C10926   4.704   0.444  12.432  0.5670 -0.4889 -0.6961
  736MPD2    C110927   4.634   0.563  12.451  0.1834  1.1717  0.4012
  736MPD2    C210928   4.708   0.684  12.429  0.6633 -0.3167  0.5563
  736MPD2    C310929   0.108   0.678  12.387 -0.3567 -0.1083 -1.0680
  736MPD2    C410930   0.170   0.559  12.382  0.4544 -0.0822 -0.7087
  736MPD2    C510931   0.104   0.440  12.412 -0.4418  0.1108  0.0943
  736MPD2     H10932   4.654   0.778  12.427  0.4991 -0.4491 -1.0201
  736MPD2    H110933   0.277   0.556  12.362  0.5106  2.0490 -0.7245
  736MPD2    H210934   4.646   0.352  12.435 -2.4741  1.4718  0.4326
  736MPD2    H310935   0.153   0.343  12.412  1.7451  1.2060 -2.9934
  736MPD2     N10936   0.182   0.790  12.348 -0.6725  0.1037 -0.0697
  736MPD2    H510937   0.274   0.775  12.308 -0.1855  0.2594  0.9897
  736MPD2    N110938   4.497   0.564  12.473 -0.0872  0.2134  0.6314
  736MPD2    H710939   4.444   0.480  12.451  0.6094 -0.1210  0.2393
  737TMC3    C110940   0.237   1.014  12.302  0.3640  0.1884 -0.2824
  737TMC3    C210941   0.188   1.133  12.251  0.9741 -0.3482 -0.1341
  737TMC3    C310942   0.279   1.229  12.216  0.5795  0.0663 -0.2679
  737TMC3    C410943   0.368   0.990  12.318 -1.4766 -0.6237 -0.1774
  737TMC3    C510944   0.461   1.081  12.277 -0.5532 -0.6303 -0.1188
  737TMC3    C610945   0.419   1.198  12.225 -0.0726  0.4320  0.0900
  737TMC3     C10946   0.141   0.921  12.359 -0.4207 -0.4557 -0.5720
  737TMC3     O10947   0.035   0.972  12.392  0.3739  0.1721  0.5285
  737TMC3     H10948   0.081   1.151  12.249  0.9696 -0.2935  0.5413
  737TMC3    H110949   0.401   0.894  12.357  0.0639 -0.1450 -0.3212
  737TMC3    H210950   0.491   1.275  12.197  1.7710 -1.2759  0.1008
  737TMC3    C710951   0.587   1.013  12.229  0.6656 -0.1413  0.1998
  737TMC3    C810952   0.233   1.335  12.128  0.7256 -0.5637  0.4893
  737TMC3    O110953   0.613   0.904  12.274 -0.3049  0.3897 -0.1723
  737TMC3    O210954   0.130   1.307  12.067  0.0278  0.0969 -0.3488
  738MPD2     C10955   0.058   4.672  14.915  0.3241 -0.1250  0.0028
  738MPD2    C110956   0.071   4.619  15.043  0.3777  1.1868 -0.6630
  738MPD2    C210957   0.147   4.682  15.139 -0.1288  0.2881  0.1175
  738MPD2    C310958   0.223   0.060  15.104 -0.3642  0.2701  0.7161
  738MPD2    C410959   0.219   0.111  14.980 -0.3366 -0.3347 -0.1856
  738MPD2    C510960   0.134   0.053  14.886 -0.4911 -0.4595 -0.6965
  738MPD2     H10961   0.161   4.633  15.235 -1.1823  0.4935  0.3739
  738MPD2    H110962   0.273   0.195  14.938  0.6879  0.0300  1.8830
  738MPD2    H210963   0.009   4.625  14.831 -0.3229 -0.9332  0.8354
  738MPD2    H310964   0.118   0.096  14.788  1.4866 -0.4780 -1.0181
  738MPD2     N10965   0.317   0.126  15.187 -0.2258 -0.4570 -0.2038
  738MPD2    H510966   0.342   0.222  15.165 -0.6653 -0.9309 -2.8417
  738MPD2    N110967   0.023   4.491  15.075  0.3350 -0.1615  0.4898
  738MPD2    H710968   0.025   4.459  15.171  0.4155 -2.4376 -0.2925
  739TMC3    C110969   0.494   0.154  15.335 -0.0864 -0.4896  0.1772
  739TMC3    C210970   0.543   0.250  15.246 -0.2780 -0.0437  0.0761
  739TMC3    C310971   0.678   0.270  15.235 -0.3711 -0.6050 -1.0107
  739TMC3    C410972   0.572   0.096  15.425 -0.4095 -0.4033 -0.2960
  739TMC3    C510973   0.708   0.118  15.421  0.1560 -0.3263 -0.0338
  739TMC3    C610974   0.760   0.189  15.319  0.0565  0.1161 -0.5446
  739TMC3     C10975   0.377   0.077  15.300 -0.3895 -0.1199  0.3613
  739TMC3     O10976   0.357   4.709  15.366  0.1972 -0.2145 -0.4800
  739TMC3     H10977   0.480   0.304  15.176  0.3124  0.0922 -0.3515
  739TMC3    H110978   0.533   0.027  15.498 -0.0884  0.6709  0.8950
  739TMC3    H210979   0.866   0.182  15.296  0.1456 -1.2432  0.2704
  739TMC3    C710980   0.787   0.087  15.541 -0.5431 -0.4343  0.5256
  739TMC3    C810981   0.731   0.285  15.101  0.1676  0.2434  0.8055
  739TMC3    O110982   0.736   0.015  15.625 -0.8459  0.4285  0.0929
  739TMC3    O210983   0.652   0.253  15.014  0.0472 -0.0901  0.3093
  740TMC3    C110984   1.262   1.524  14.515 -0.3341 -0.1086  0.0734
  740TMC3    C210985   1.299   1.476  14.640 -0.1064  0.5653 -0.5496
  740TMC3    C310986   1.432   1.435  14.655 -0.9655  0.0637 -0.1138
  740TMC3    C410987   1.346   1.523  14.402 -0.2916  0.1344 -0.6349
  740TMC3    C510988   1.477   1.479  14.423 -0.2151 -0.1466  0.0767
  740TMC3    C610989   1.522   1.439  14.545  0.3824  1.4086  0.1943
  740TMC3     C10990   1.117   1.561  14.510 -0.8511 -0.3587 -0.0447
  740TMC3     O10991   1.085   1.648  14.429  0.2538  0.2091 -0.9313
  740TMC3     H10992   1.241   1.477  14.732 -1.2539  0.2692 -1.2718
  740TMC3    H110993   1.310   1.564  14.309 -0.8781  1.1443  0.0414
  740TMC3    H210994   1.624   1.408  14.563  0.1479  1.3824  1.4757
  740TMC3    C710995   1.569   1.465  14.317  0.5375 -0.1296  0.6990
  740TMC3    C810996   1.473   1.381  14.790  0.6683 -0.0664  0.0664
  740TMC3    O110997   1.687   1.442  14.345  0.0002  0.4744 -0.4840
  740TMC3    O210998   1.395   1.399  14.882  0.7936 -0.1922  0.8225
  741TMC3    C110999   0.908   0.674  14.501  0.6140 -0.3049 -0.2766
  741TMC3    C211000   0.786   0.669  14.447  1.2334 -0.7672 -0.2279
  741TMC3    C311001   0.677   0.658  14.528  0.6511 -0.8278 -0.4293
  741TMC3    C411002   0.908   0.673  14.638 -0.0510  0.5197 -0.1245
  741TMC3    C511003   0.798   0.664  14.716 -0.3866  0.1797  0.0889
  741TMC3    C611004   0.673   0.674  14.665  0.1720  0.2036  0.1855
  741TMC3     C11005   1.025   0.645  14.424  0.5564 -0.0780 -0.0520
  741TMC3     O11006   1.106   0.573  14.481 -0.1163 -0.1094  0.6206
  741TMC3     H11007   0.785   0.659  14.339  0.8092 -0.7679 -0.2258
  741TMC3    H111008   1.005   0.644  14.677 -0.0892  1.2202  0.4704
  741TMC3    H211009   0.577   0.676  14.716 -0.3939 -2.4451 -0.7824
  741TMC3    C711010   0.822   0.688  14.855 -0.0056  0.0677 -0.3667
  741TMC3    C811011   0.552   0.606  14.472  0.1616 -0.5661 -0.0979
  741TMC3    O111012   0.918   0.759  14.875 -0.3940  0.1699 -0.6203
  741TMC3    O211013   0.548   0.613  14.350 -0.4688 -0.1650 -0.1040
  742TMC3    C111014   0.567   3.825  15.233  1.0853  0.0510 -0.1221
  742TMC3    C211015   0.525   3.873  15.115 -0.1496 -0.2046 -0.5754
  742TMC3    C311016   0.615   3.898  15.018  0.2186  0.2769 -0.0363
  742TMC3    C411017   0.697   3.781  15.249 -0.2650 -0.6382 -0.8273
  742TMC3    C511018   0.785   3.795  15.145  0.2303  0.6775 -0.1745
  742TMC3    C611019   0.743   3.854  15.031  0.1028  0.0149  0.9037
  742TMC3     C11020   0.470   3.793  15.336  0.2054 -0.1190  0.0118
  742TMC3     O11021   0.501   3.799  15.453  0.3549 -0.0490  0.2255
  742TMC3     H11022   0.437   3.937  15.121  0.0923  0.0756 -0.0011
  742TMC3    H111023   0.728   3.741  15.345 -0.1929  2.0879  0.2856
  742TMC3    H211024   0.812   3.848  14.947 -0.6145 -0.9703  0.3999
  742TMC3    C711025   0.897   3.703  15.135 -0.4632  0.3411 -0.3375
  742TMC3    C811026   0.561   3.904  14.883 -0.4196  0.5634  0.2724
  742TMC3    O111027   0.990   3.734  15.057  0.3223 -0.4623  0.0463
  742TMC3    O211028   0.452   3.849  14.863 -0.0293  0.0116  0.2672
  743MPD2     C11029   2.901   1.050   1.351 -0.5252 -0.8206  0.1267
  743MPD2    C111030   2.977   0.958   1.283  0.2678  0.4459 -0.2584
  743MPD2    C211031   3.113   0.947   1.319  0.5227  0.5860  0.1748
  743MPD2    C311032   3.163   1.007   1.431  0.3989  0.4485  0.3413
  743MPD2    C411033   3.086   1.105   1.499  0.1902 -0.3332 -0.1709
  743MPD2    C511034   2.952   1.116   1.465  0.7007 -0.4735  0.2478
  743MPD2     H11035   3.185   0.887   1.264 -2.3163 -0.0291 -2.8589
  743MPD2    H111036   3.140   1.178   1.559 -0.5839  0.2797 -0.2236
  743MPD2    H211037   2.795   1.062   1.334 -0.2194 -2.1794 -2.7718
  743MPD2    H311038   2.878   1.175   1.518  1.9833  0.5494  0.9208
  743MPD2     N11039   3.295   0.975   1.458  0.2896 -0.3561  0.2733
  743MPD2    H511040   3.340   0.908   1.397 -0.0187  0.1364 -0.5008
  743MPD2    N111041   2.923   0.881   1.178  0.0468 -0.0331  0.1226
  743MPD2    H711042   2.827   0.893   1.147  0.0910 -0.7053 -0.2675
  744TMC3    C111043   2.919   0.697   1.022 -0.4374 -0.3058  0.0581
  744TMC3    C211044   2.833   0.752   0.931  0.1585 -0.2632 -0.2194
  744TMC3    C311045   2.785   0.670   0.836 -0.2383 -0.5314 -0.6959
  744TMC3    C411046   2.939   0.563   1.025  0.2179  0.4785 -0.1040
  744TMC3    C511047   2.891   0.485   0.924 -0.5850 -0.3348  0.4315
  744TMC3    C611048   2.814   0.532   0.826  0.3954  0.5148 -0.2387
  744TMC3     C11049   2.985   0.766   1.134 -0.0447 -0.3906  0.4135
  744TMC3     O11050   3.079   0.704   1.182  0.6425  0.3400 -0.1846
  744TMC3     H11051   2.812   0.859   0.936 -0.5549 -0.4173  0.0410
  744TMC3    H111052   2.996   0.519   1.107 -0.3256  1.6668  0.9126
  744TMC3    H211053   2.785   0.468   0.744 -0.3455  2.2495 -1.3290
  744TMC3    C711054   2.975   0.368   0.897 -0.2062  1.1889 -0.0319
  744TMC3    C811055   2.756   0.737   0.706 -0.2483 -0.6681 -0.6557
  744TMC3    O111056   3.022   0.350   0.786  0.4839 -0.6024  0.5160
  744TMC3    O211057   2.784   0.674   0.603 -0.3329  0.2532 -0.6576
  745TMC3    C111058   1.392   3.638  14.021 -0.0889  0.3756  0.2061
  745TMC3    C211059   1.321   3.595  14.133  0.5109  0.0797  0.0676
  745TMC3    C311060   1.197   3.551  14.106 -0.5876  0.7720 -1.1924
  745TMC3    C411061   1.327   3.656  13.903 -0.5324 -0.2588  1.0389
  745TMC3    C511062   1.202   3.613  13.886  0.3319 -0.0892  0.4026
  745TMC3    C611063   1.127   3.566  13.985  0.0035  0.3562 -0.1940
  745TMC3     C11064   1.521   3.708  14.040  0.0315 -0.1579 -0.4820
  745TMC3     O11065   1.574   3.680  14.144  1.0030  0.5716  0.7910
  745TMC3     H11066   1.373   3.590  14.228  0.6357 -1.7141 -0.0908
  745TMC3    H111067   1.393   3.686  13.822  0.9883  0.9009  2.7161
  745TMC3    H211068   1.027   3.525  13.982  0.8174 -1.6199 -0.6891
  745TMC3    C711069   1.141   3.613  13.753  0.1796  0.3292  0.4288
  745TMC3    C811070   1.112   3.539  14.226 -0.4158 -0.1703 -0.3877
  745TMC3    O111071   1.046   3.538  13.742 -0.4227  0.1910 -0.0758
  745TMC3    O211072   0.996   3.497  14.214 -0.5572 -0.2462  0.5580
  746TMC3    C111073   3.289   1.040  10.787 -0.2462  0.0640  0.8647
  746TMC3    C211074   3.306   1.031  10.651 -0.7042  0.8726  0.5215
  746TMC3    C311075   3.236   0.935  10.587 -0.2607  0.3037  0.3408
  746TMC3    C411076   3.203   0.956  10.861  0.7385  0.1464  0.0225
  746TMC3    C511077   3.164   0.842  10.792  0.1320  0.5688 -0.4096
  746TMC3    C611078   3.173   0.833  10.653 -0.6300 -0.2545 -0.1304
  746TMC3     C11079   3.351   1.152  10.871  0.0083  0.6370 -0.0030
  746TMC3     O11080   3.293   1.180  10.975  0.0923  0.7231  0.9079
  746TMC3     H11081   3.379   1.099  10.609  1.6813 -1.3098  1.1531
  746TMC3    H111082   3.185   0.966  10.967 -1.8891  0.4519 -0.4419
  746TMC3    H211083   3.126   0.757  10.591 -0.9695  0.0300 -0.2244
  746TMC3    C711084   3.071   0.748  10.849 -0.3406  0.2603 -0.0220
  746TMC3    C811085   3.267   0.920  10.444 -0.3293  0.0467 -0.2229
  746TMC3    O111086   2.983   0.695  10.783 -0.4318 -0.1819  0.0137
  746TMC3    O211087   3.281   0.808  10.397 -0.7889  0.2596 -0.1565
  747TMC3    C111088   0.923   1.504  11.512  0.4866 -0.4975  1.1279
  747TMC3    C211089   0.935   1.379  11.567 -0.4483 -0.0547  0.5841
  747TMC3    C311090   1.055   1.354  11.634  0.3257  0.3076 -0.6029
  747TMC3    C411091   1.018   1.596  11.531  0.8073 -0.6161  0.3699
  747TMC3    C511092   1.136   1.572  11.602 -0.2279 -0.2738 -0.1947
  747TMC3    C611093   1.155   1.445  11.657 -0.2158  0.1171  0.1196
  747TMC3     C11094   0.807   1.537  11.434 -0.0881  1.3857 -0.6381
  747TMC3     O11095   0.769   1.652  11.441  0.0278 -0.0350 -0.0578
  747TMC3     H11096   0.854   1.307  11.566  0.3101 -0.9233  1.0392
  747TMC3    H111097   1.002   1.699  11.502 -0.8423 -0.8815  0.3835
  747TMC3    H211098   1.240   1.419  11.719 -0.3090 -1.4693 -0.4329
  747TMC3    C711099   1.217   1.684  11.644 -0.1535  0.2370 -0.4370
  747TMC3    C811100   1.059   1.227  11.711 -0.3416  0.6497  0.3595
  747TMC3    O111101   1.181   1.797  11.608 -0.5664 -0.4054 -0.3951
  747TMC3    O211102   1.155   1.155  11.700 -0.5817  0.6070 -0.0402
  748MPD2     C11103   2.376   1.504   1.529  0.1758  0.0018  0.2301
  748MPD2    C111104   2.379   1.474   1.398  0.1169 -0.0448  0.2821
  748MPD2    C211105   2.507   1.453   1.336  0.0887 -0.1029 -0.0161
  748MPD2    C311106   2.623   1.444   1.409  0.2391 -0.1064  0.3306
  748MPD2    C411107   2.608   1.454   1.549  0.0674  0.0874 -0.8959
  748MPD2    C511108   2.490   1.490   1.609  0.0755 -0.2314  0.1510
  748MPD2     H11109   2.515   1.441   1.228  1.0921  2.7806 -0.2580
  748MPD2    H111110   2.692   1.435   1.616 -1.6416 -1.4553  0.8024
  748MPD2    H211111   2.279   1.520   1.574  0.2724  0.4216  0.2939
  748MPD2    H311112   2.481   1.499   1.717 -1.5507 -0.6070  0.0483
  748MPD2     N11113   2.748   1.431   1.346 -0.6926 -0.1501 -0.5168
  748MPD2    H511114   2.757   1.440   1.245 -0.3846 -1.2946 -0.5908
  748MPD2    N111115   2.253   1.470   1.325 -0.2684  0.2323 -0.1459
  748MPD2    H711116   2.179   1.475   1.394 -1.0953  2.9841 -1.2092
  749TMC3    C111117   2.991   1.445   1.321  0.0505 -0.3058 -0.4225
  749TMC3    C211118   3.109   1.435   1.390  0.6223 -0.5512 -0.4822
  749TMC3    C311119   3.221   1.408   1.311 -0.5290 -0.4845  0.2524
  749TMC3    C411120   2.975   1.440   1.181 -0.4030 -0.1791  0.3453
  749TMC3    C511121   3.094   1.442   1.111  0.0157 -0.1355 -0.0791
  749TMC3    C611122   3.218   1.432   1.175  0.4140 -0.0209  0.0085
  749TMC3     C11123   2.865   1.445   1.410 -0.7847 -0.0316  0.2724
  749TMC3     O11124   2.895   1.451   1.530 -0.1635  0.2465  0.0981
  749TMC3     H11125   3.115   1.462   1.495 -1.3235  1.8457 -0.9799
  749TMC3    H111126   2.881   1.439   1.126  0.2480  1.7338 -0.7801
  749TMC3    H211127   3.313   1.437   1.123 -0.5765 -0.5834 -1.8436
  749TMC3    C711128   3.100   1.430   0.965  0.0149 -0.1492  0.5166
  749TMC3    C811129   3.350   1.420   1.373 -0.3015 -0.5674  0.8339
  749TMC3    O111130   3.003   1.378   0.914 -0.3653  0.2267 -0.3839
  749TMC3    O211131   3.364   1.522   1.443 -0.1602 -0.8301 -0.1886
  750MPD2     C11132   3.406   2.897  11.425 -0.5724  0.5062  0.0042
  750MPD2    C111133   3.377   2.879  11.557  0.4110 -0.6222  0.0722
  750MPD2    C211134   3.395   2.752  11.609 -0.8134 -0.2459  0.1396
  750MPD2    C311135   3.424   2.646  11.525 -0.2303  1.0891 -0.3246
  750MPD2    C411136   3.443   2.671  11.387 -0.1685  0.1050  0.1963
  750MPD2    C511137   3.436   2.799  11.344 -0.1202 -0.3036  0.0810
  750MPD2     H11138   3.380   2.738  11.716  1.4597  2.6244  0.8320
  750MPD2    H111139   3.458   2.591  11.316 -0.6572 -0.9303  1.2628
  750MPD2    H211140   3.409   2.992  11.374  0.3621  2.4128  3.6134
  750MPD2    H311141   3.469   2.824  11.243 -0.2383  0.1088  0.1442
  750MPD2     N11142   3.445   2.512  11.565  0.1548  0.3553 -0.4334
  750MPD2    H511143   3.484   2.449  11.495  0.6117  0.6137 -0.4125
  750MPD2    N111144   3.346   2.993  11.626  0.3064  1.0270  0.3320
  750MPD2    H711145   3.347   3.085  11.583 -1.0162  0.7527 -0.2896
  751TMC3    C111146   3.398   2.309  11.674 -0.3931 -0.1891 -0.0614
  751TMC3    C211147   3.303   2.242  11.749  0.2244 -0.4039  0.5184
  751TMC3    C311148   3.309   2.104  11.738 -0.1619  0.4082 -0.4629
  751TMC3    C411149   3.492   2.252  11.596 -0.4669  0.1968  0.0989
  751TMC3    C511150   3.483   2.121  11.579 -0.8668  0.5599  0.1020
  751TMC3    C611151   3.402   2.047  11.658  0.4259  0.4587 -0.4451
  751TMC3     C11152   3.389   2.455  11.676  0.0070  0.4938  0.0071
  751TMC3     O11153   3.323   2.506  11.765 -0.4660  0.1127  0.2195
  751TMC3     H11154   3.219   2.297  11.789  0.1119 -0.6491  0.6199
  751TMC3    H111155   3.572   2.300  11.541  0.3191  0.2700  1.3093
  751TMC3    H211156   3.426   1.941  11.652 -2.4334 -0.2060 -0.3244
  751TMC3    C711157   3.487   2.080  11.441  0.5216  0.2052 -0.3747
  751TMC3    C811158   3.179   2.044  11.726  0.2514  0.0127  0.2384
  751TMC3    O111159   3.559   2.144  11.366  0.2546  0.4762 -0.7228
  751TMC3    O211160   3.183   1.951  11.648  0.1009 -0.1075  0.5216
  752TMC3    C111161   1.887   2.564  17.297  0.0586  0.3854 -0.0876
  752TMC3    C211162   1.792   2.469  17.313 -0.2966  0.6337  0.3954
  752TMC3    C311163   1.710   2.471  17.424  0.4689  0.6931  0.4293
  752TMC3    C411164   1.921   2.653  17.395  0.5792  0.1367  0.4710
  752TMC3    C511165   1.839   2.652  17.507  0.0074 -0.1436  1.2354
  752TMC3    C611166   1.727   2.571  17.516 -0.3444  0.7760  1.0372
  752TMC3     C11167   1.997   2.547  17.204 -0.1960 -0.8623 -0.3661
  752TMC3     O11168   2.110   2.579  17.247  0.2138  0.1747 -0.0473
  752TMC3     H11169   1.768   2.387  17.247  0.1290  0.1737  0.8130
  752TMC3    H111170   1.995   2.731  17.383  1.5013 -0.8557 -0.3177
  752TMC3    H211171   1.668   2.584  17.606  0.8553  0.9749  1.8068
  752TMC3    C711172   1.869   2.746  17.609  0.4102 -0.1806 -0.3045
  752TMC3    C811173   1.599   2.382  17.436 -0.7493  0.1590 -0.4478
  752TMC3    O111174   1.931   2.849  17.583 -0.0667 -0.6904  0.4403
  752TMC3    O211175   1.532   2.341  17.341  0.3525  0.0634 -0.3105
  753TMC3    C111176   4.029   3.200  13.105  0.5270 -0.3760  0.3745
  753TMC3    C211177   4.052   3.228  13.239  0.9580 -0.5590 -0.2137
  753TMC3    C311178   4.099   3.125  13.316  0.0332 -0.1547 -0.5390
  753TMC3    C411179   4.050   3.080  13.040 -0.2865 -0.1037  0.4600
  753TMC3    C511180   4.092   2.978  13.127  0.3708 -0.8869 -0.0554
  753TMC3    C611181   4.118   2.995  13.265  0.6186  0.1143 -0.6702
  753TMC3     C11182   3.976   3.308  13.020  0.2680 -0.3572 -0.2247
  753TMC3     O11183   3.933   3.285  12.910 -0.0705  0.0526 -0.6696
  753TMC3     H11184   4.014   3.323  13.275 -0.7566 -1.5130  0.5238
  753TMC3    H111185   4.046   3.068  12.932  1.7376 -1.7911  0.5774
  753TMC3    H211186   4.146   2.908  13.322 -0.4005 -0.3252 -0.8300
  753TMC3    C711187   4.110   2.843  13.079 -0.2198  0.3054 -0.3636
  753TMC3    C811188   4.131   3.145  13.461 -0.6557  0.3358 -0.0600
  753TMC3    O111189   4.041   2.805  12.984  0.0273  0.6994 -0.5809
  753TMC3    O211190   4.151   3.040  13.524  0.0872  0.4369 -0.5871
  754MPD2     C11191   3.189   2.444  13.441  0.5660 -0.0334  0.0253
  754MPD2    C111192   3.165   2.314  13.412  0.2204 -0.2732 -0.1870
  754MPD2    C211193   3.081   2.288  13.303 -0.8544  0.0832  0.2730
  754MPD2    C311194   3.005   2.388  13.240  0.2974 -0.5406  0.6177
  754MPD2    C411195   3.028   2.521  13.273 -0.5140  0.5789  0.0823
  754MPD2    C511196   3.130   2.546  13.365 -0.5052  1.2141 -0.0441
  754MPD2     H11197   3.081   2.192  13.253  3.2244 -0.1084  0.6077
  754MPD2    H111198   2.973   2.608  13.240 -1.5890 -0.1842 -0.1440
  754MPD2    H211199   3.257   2.490  13.512 -1.4409  2.2481  0.4757
  754MPD2    H311200   3.144   2.651  13.384  0.8989  0.5725  2.3823
  754MPD2     N11201   2.892   2.354  13.165 -0.3853  0.2104 -0.6605
  754MPD2    H511202   2.837   2.434  13.136  0.1208  1.4998  1.9339
  754MPD2    N111203   3.240   2.214  13.483  0.7873  0.2878 -0.6403
  754MPD2    H711204   3.303   2.247  13.556  2.1568 -0.3683 -1.5349
  755MPD2     C11205   2.367   2.999  13.172  0.3721  0.1629 -0.2153
  755MPD2    C111206   2.273   2.899  13.183  0.0223 -0.1206  0.1895
  755MPD2    C211207   2.314   2.765  13.187 -0.2037 -0.3788  0.1535
  755MPD2    C311208   2.443   2.731  13.188 -0.2254  0.0848  0.4375
  755MPD2    C411209   2.539   2.825  13.172 -0.5833  0.0597  0.8525
  755MPD2    C511210   2.498   2.957  13.153 -0.5283 -0.5787 -0.4559
  755MPD2     H11211   2.236   2.693  13.210 -0.8584  0.0605 -0.7043
  755MPD2    H111212   2.642   2.795  13.162 -1.0601 -0.6624 -1.8082
  755MPD2    H211213   2.345   3.105  13.169 -2.9595 -0.4636  2.7068
  755MPD2    H311214   2.576   3.029  13.137 -0.5395 -0.9125 -1.9533
  755MPD2     N11215   2.493   2.603  13.188 -0.2061 -0.2940  0.1250
  755MPD2    H511216   2.594   2.597  13.178 -0.1955  1.0551 -0.6060
  755MPD2    N111217   2.136   2.931  13.189  0.2053 -0.2995 -0.0010
  755MPD2    H711218   2.072   2.857  13.217  0.1087 -0.5023 -0.7635
  756MPD2     C11219   3.052   3.524   9.658 -0.8934 -0.2729 -0.4126
  756MPD2    C111220   2.952   3.464   9.734  0.4285  0.0008  0.1225
  756MPD2    C211221   2.830   3.446   9.672  0.2587  0.2246 -0.2977
  756MPD2    C311222   2.813   3.449   9.532 -0.4630  0.1189  0.1858
  756MPD2    C411223   2.920   3.505   9.454  0.3018  1.0152 -0.1662
  756MPD2    C511224   3.031   3.541   9.522  0.0730  0.1554 -0.8539
  756MPD2     H11225   2.751   3.395   9.726 -0.0002  2.5724  1.5507
  756MPD2    H111226   2.915   3.518   9.347 -0.0251 -0.2580 -0.2995
  756MPD2    H211227   3.148   3.552   9.699 -0.6110  0.1904 -1.3933
  756MPD2    H311228   3.106   3.589   9.459  1.5931  2.2590  2.5705
  756MPD2     N11229   2.694   3.398   9.472 -0.1843  0.0325 -0.5468
  756MPD2    H511230   2.634   3.348   9.537 -0.6729  2.9173  1.2709
  756MPD2    N111231   2.972   3.446   9.877  0.0631  0.4468 -0.0744
  756MPD2    H711232   2.893   3.444   9.941 -0.8436 -0.3647 -1.1992
  757MPD2     C11233   2.163   2.792   9.836 -0.7887 -0.3924  0.1714
  757MPD2    C111234   2.300   2.815   9.835  0.0379 -0.6067  0.0633
  757MPD2    C211235   2.357   2.912   9.747 -0.1750 -0.1792 -0.6277
  757MPD2    C311236   2.280   2.970   9.649  0.4011 -0.1016  0.5022
  757MPD2    C411237   2.142   2.942   9.650  0.1842  0.0762 -0.1657
  757MPD2    C511238   2.082   2.855   9.738 -0.4006 -0.1794 -0.0307
  757MPD2     H11239   2.465   2.921   9.750 -0.0928 -0.8483 -2.0182
  757MPD2    H111240   2.067   2.989   9.587 -0.5850 -0.3682  0.4149
  757MPD2    H211241   2.113   2.725   9.905  0.9340  1.1204  2.8570
  757MPD2    H311242   1.976   2.834   9.745 -0.4968  1.0589  2.2361
  757MPD2     N11243   2.341   3.059   9.556 -0.0757 -0.2381 -0.0745
  757MPD2    H511244   2.437   3.088   9.570 -0.2630 -0.3409  1.4866
  757MPD2    N111245   2.370   2.743   9.932  0.1899 -0.1003  0.3147
  757MPD2    H711246   2.316   2.667   9.973 -1.9548  1.5849  0.6100
  758MPD2     C11247   2.955   1.355  15.774  0.2134 -0.4897 -0.3323
  758MPD2    C111248   3.037   1.422  15.857  0.1822 -0.2140 -0.0793
  758MPD2    C211249   2.989   1.527  15.935  0.4876 -0.1450 -0.7022
  758MPD2    C311250   2.854   1.562  15.935  0.3761  0.1161 -0.0289
  758MPD2    C411251   2.769   1.486  15.866  0.1887  0.2860  0.4430
  758MPD2    C511252   2.823   1.391  15.778  0.1675 -0.2453 -0.3097
  758MPD2     H11253   3.050   1.574  16.012 -0.1443  0.6555 -0.6918
  758MPD2    H111254   2.662   1.504  15.855  0.1239  0.4942  1.4183
  758MPD2    H211255   2.990   1.269  15.718  0.4090 -0.4263 -0.3067
  758MPD2    H311256   2.756   1.344  15.707 -0.4303 -0.5644  0.4601
  758MPD2     N11257   2.807   1.671  16.023 -0.2260  0.4137 -0.2049
  758MPD2    H511258   2.718   1.659  16.071  1.0553 -0.1968  2.0374
  758MPD2    N111259   3.174   1.383  15.854  0.0191 -0.1140 -0.5197
  758MPD2    H711260   3.208   1.330  15.774 -0.6701  2.6083 -2.6026
  759MPD2     C11261   1.695   0.309  10.635 -0.4113  0.2841  0.3400
  759MPD2    C111262   1.774   0.268  10.531 -0.0977 -0.1178 -0.3323
  759MPD2    C211263   1.887   0.343  10.498 -0.1417  0.6615 -0.5155
  759MPD2    C311264   1.922   0.459  10.568  0.2521  0.1676  0.2699
  759MPD2    C411265   1.846   0.496  10.671  1.1430  0.3516 -0.3122
  759MPD2    C511266   1.738   0.423  10.697  0.4588  0.2270 -0.5182
  759MPD2     H11267   1.944   0.308  10.413 -1.1143  1.4052 -1.4714
  759MPD2    H111268   1.863   0.585  10.731  0.8792  0.1345  0.0864
  759MPD2    H211269   1.605   0.262  10.674  0.1430  0.1485  1.4475
  759MPD2    H311270   1.678   0.452  10.783  0.1884  1.6410 -1.1899
  759MPD2     N11271   2.035   0.531  10.525 -0.1610  0.0171 -0.0058
  759MPD2    H511272   2.081   0.491  10.444 -1.1133 -0.8482 -0.1152
  759MPD2    N111273   1.751   0.149  10.463 -0.5950 -0.0574  0.3462
  759MPD2    H711274   1.820   0.120  10.394  0.6414 -0.7072  1.8667
  760MPD2     C11275   1.404   2.462  11.592 -0.7389 -0.0105 -0.9093
  760MPD2    C111276   1.530   2.510  11.627  0.1966 -0.2803  0.1747
  760MPD2    C211277   1.630   2.416  11.641 -0.3764 -0.5335 -0.4554
  760MPD2    C311278   1.610   2.279  11.624 -0.3145 -0.1660 -0.7406
  760MPD2    C411279   1.476   2.240  11.599 -0.5476  0.4476 -0.7094
  760MPD2    C511280   1.381   2.330  11.576  0.3592 -0.6025 -0.7983
  760MPD2     H11281   1.731   2.452  11.654 -0.5859 -0.0157 -0.2545
  760MPD2    H111282   1.442   2.137  11.611 -0.3015  0.5428  0.8080
  760MPD2    H211283   1.326   2.533  11.567 -0.9597  0.6463  1.6947
  760MPD2    H311284   1.283   2.290  11.550  0.3754  0.0949 -1.9502
  760MPD2     N11285   1.712   2.174  11.632 -0.0701  0.3128  0.0714
  760MPD2    H511286   1.679   2.083  11.602  1.3089  0.1347 -0.8847
  760MPD2    N111287   1.575   2.642  11.657 -0.4848  0.0541  0.0971
  760MPD2    H711288   1.671   2.650  11.690 -0.3125 -0.2530 -0.3295
  761MPD2     C11289   2.675   1.998  11.780 -0.6011  0.0731  0.4965
  761MPD2    C111290   2.764   1.940  11.691 -0.6204 -0.3810 -0.3178
  761MPD2    C211291   2.897   1.975  11.702  0.7502  0.1394 -0.4430
  761MPD2    C311292   2.944   2.066  11.798 -0.3774 -0.9256 -0.0061
  761MPD2    C411293   2.856   2.116  11.888  0.4532 -0.0033 -0.3235
  761MPD2    C511294   2.722   2.084  11.879  0.0453 -0.3142 -0.4584
  761MPD2     H11295   2.962   1.925  11.631 -1.0714 -3.3280  0.3478
  761MPD2    H111296   2.886   2.189  11.962 -3.2285  1.4414 -0.2184
  761MPD2    H211297   2.572   1.966  11.792 -1.0099  1.2102  0.0067
  761MPD2    H311298   2.651   2.117  11.954  1.3930  1.3077  0.1054
  761MPD2     N11299   3.077   2.104  11.804 -0.3871  0.5592  0.1122
  761MPD2    H511300   3.101   2.176  11.871 -0.1838 -1.0879  1.8007
  761MPD2    N111301   2.711   1.853  11.599  0.0305 -1.1674  0.1132
  761MPD2    H711302   2.610   1.842  11.599 -0.2738  1.5504  2.3946
  762MPD2     C11303   2.871   1.214  10.939  1.3138  0.3732  0.8641
  762MPD2    C111304   2.912   1.340  10.969 -0.0869 -0.1807 -0.2317
  762MPD2    C211305   3.011   1.410  10.895 -0.0179 -0.4063  0.3333
  762MPD2    C311306   3.047   1.354  10.770  0.4210  0.0572 -0.4479
  762MPD2    C411307   3.004   1.236  10.740 -0.7577  0.1175 -0.7361
  762MPD2    C511308   2.916   1.162  10.822 -0.3914  0.1067  0.0020
  762MPD2     H11309   3.023   1.515  10.920 -4.0324  0.1653 -0.1126
  762MPD2    H111310   3.035   1.182  10.652  1.6751  1.2105 -0.5519
  762MPD2    H211311   2.804   1.160  11.005  1.1217 -0.0238  0.3429
  762MPD2    H311312   2.896   1.060  10.793 -1.4519  0.7887 -1.6612
  762MPD2     N11313   3.122   1.437  10.690 -0.1799 -0.8193 -0.6424
  762MPD2    H511314   3.140   1.532  10.723  2.6363 -1.6389  0.1421
  762MPD2    N111315   2.842   1.399  11.077  0.0563  0.0804 -0.2514
  762MPD2    H711316   2.782   1.335  11.128  0.4172  1.7467  2.2391
  763MPD2     C11317   0.313   1.876  16.254  0.5893  0.1708 -0.7586
  763MPD2    C111318   0.193   1.941  16.209 -0.3264 -0.0151  0.0367
  763MPD2    C211319   0.179   2.080  16.233 -0.3801 -0.2888 -0.9796
  763MPD2    C311320   0.286   2.149  16.285  0.3412  0.0799  0.4469
  763MPD2    C411321   0.402   2.087  16.314  0.0596  0.1304 -0.0977
  763MPD2    C511322   0.414   1.954  16.294  0.3108  0.3780 -0.0029
  763MPD2     H11323   0.095   2.137  16.196  0.7531  1.4191 -0.8787
  763MPD2    H111324   0.490   2.138  16.352 -0.4737  0.3965  0.7981
  763MPD2    H211325   0.338   1.770  16.249  0.9211  0.1882  0.4625
  763MPD2    H311326   0.512   1.910  16.309 -0.7406 -1.7514  0.6088
  763MPD2     N11327   0.280   2.289  16.302  0.1785 -0.5087  0.7106
  763MPD2    H511328   0.373   2.330  16.297  0.0374 -0.3333 -0.5025
  763MPD2    N111329   0.093   1.870  16.141  0.9398  0.1867  0.5422
  763MPD2    H711330   0.030   1.935  16.095  1.0176  0.6484  1.0865
  764MPD2     C11331   2.739   3.704  17.566  0.5274 -0.3224  0.2285
  764MPD2    C111332   2.752   3.599  17.474  0.6749 -0.2857  0.7107
  764MPD2    C211333   2.807   3.483  17.531  0.2557 -0.0208 -0.7113
  764MPD2    C311334   2.833   3.474  17.665 -0.3718  0.1554 -0.2487
  764MPD2    C411335   2.815   3.585   0.002 -0.9217 -0.3252 -1.0088
  764MPD2    C511336   2.776   3.697  17.690  0.5256  0.3352  0.5093
  764MPD2     H11337   2.820   3.396  17.467 -0.2284 -0.7933  0.2479
  764MPD2    H111338   2.834   3.593   0.108  0.5095 -0.1774 -1.2692
  764MPD2    H211339   2.710   3.804  17.535 -0.4361 -0.6168  0.1628
  764MPD2    H311340   2.765   3.784   0.009 -1.0275  1.0167 -0.7235
  764MPD2     N11341   2.890   3.350  17.715 -0.1773  0.2348 -0.5782
  764MPD2    H511342   2.901   3.281  17.641  2.0749 -2.5276  2.3343
  764MPD2    N111343   2.712   3.606  17.337  0.1138  0.1877 -0.7100
  764MPD2    H711344   2.717   3.523  17.278 -0.8279 -0.1882 -0.2591
  765MPD2     C11345   3.098   1.204  15.176 -0.2814  0.5094 -0.1884
  765MPD2    C111346   3.146   1.259  15.299 -0.0865 -0.3475  0.2540
  765MPD2    C211347   3.246   1.193  15.370  0.5829 -0.9981 -0.5403
  765MPD2    C311348   3.298   1.073  15.321 -0.3719  0.0025  0.5956
  765MPD2    C411349   3.231   1.013  15.219 -0.5944 -0.0576  0.1960
  765MPD2    C511350   3.135   1.078  15.143  0.2896  0.9078  0.4179
  765MPD2     H11351   3.282   1.239  15.462 -0.6930  1.6243 -1.3411
  765MPD2    H111352   3.265   0.917  15.183 -1.3324  0.0676 -0.8372
  765MPD2    H211353   3.028   1.256  15.112  1.7762  4.0545  0.4544
  765MPD2    H311354   3.094   1.027  15.056  0.1409 -0.0817  1.0653
  765MPD2     N11355   3.402   1.011  15.387 -0.1732 -0.5539 -0.0331
  765MPD2    H511356   3.437   1.063  15.466 -1.2077  1.3180 -0.8085
  765MPD2    N111357   3.087   1.377  15.345 -0.2236  0.0145 -0.2926
  765MPD2    H711358   3.006   1.408  15.291 -0.6412  1.9838  1.4788
  766MPD2     C11359   2.412   1.510  15.299 -0.0425  0.5099 -0.5696
  766MPD2    C111360   2.530   1.520  15.232 -0.7323  0.3947 -0.2360
  766MPD2    C211361   2.532   1.509  15.095 -0.4276  0.0517  0.4326
  766MPD2    C311362   2.427   1.460  15.020  0.2677  0.2389 -0.1756
  766MPD2    C411363   2.310   1.438  15.086 -0.3726  0.1874 -0.2915
  766MPD2    C511364   2.304   1.481  15.219  0.0095  0.3932  0.3920
  766MPD2     H11365   2.628   1.536  15.054 -0.9545 -0.8869 -1.4111
  766MPD2    H111366   2.219   1.403  15.039  0.7861 -1.7202 -1.1457
  766MPD2    H211367   2.397   1.518  15.407 -0.0094 -1.4052 -0.4087
  766MPD2    H311368   2.208   1.467  15.268 -0.1949  1.3901  0.2769
  766MPD2     N11369   2.447   1.419  14.882 -0.0420 -0.2045  0.9539
  766MPD2    H511370   2.371   1.375  14.830 -0.3445  0.8285  0.5176
  766MPD2    N111371   2.649   1.546  15.298  0.6111  0.2659  0.4360
  766MPD2    H711372   2.733   1.526  15.246  0.1385 -1.4527  0.3250
  767MPD2     C11373   2.058   1.603  14.986 -0.2841  0.1526  0.4059
  767MPD2    C111374   2.147   1.674  14.903  1.0894  0.0095 -0.6775
  767MPD2    C211375   2.155   1.632  14.771  0.3653  0.2391  0.4795
  767MPD2    C311376   2.078   1.526  14.724 -0.0787 -0.4719 -0.0239
  767MPD2    C411377   1.991   1.454  14.814 -0.1129  0.8921  0.0317
  767MPD2    C511378   1.982   1.498  14.945  0.1988  0.1370  0.5022
  767MPD2     H11379   2.222   1.681  14.702 -0.5064 -0.4283 -0.8550
  767MPD2    H111380   1.922   1.378  14.779  1.2191 -0.5094  0.4505
  767MPD2    H211381   2.029   1.645  15.082  0.5424  0.6154  0.4483
  767MPD2    H311382   1.928   1.450  15.026 -1.3075 -2.0341 -1.8129
  767MPD2     N11383   2.089   1.493  14.583  0.3950  0.7774  0.2885
  767MPD2    H511384   2.149   1.550  14.523  1.0565 -0.4083 -0.1769
  767MPD2    N111385   2.241   1.771  14.955 -0.3460 -0.1599 -0.2801
  767MPD2    H711386   2.229   1.787  15.055  1.5374  3.7203 -0.6867
  768MPD2     C11387   3.036   0.297  10.669 -0.0097  0.1545  0.6574
  768MPD2    C111388   3.009   0.233  10.797  0.0268  0.4558  0.1270
  768MPD2    C211389   3.101   0.239  10.901 -0.0577  0.0276 -0.4128
  768MPD2    C311390   3.220   0.309  10.874 -0.5874 -0.1309  0.0002
  768MPD2    C411391   3.237   0.385  10.760  0.2463  0.0119 -0.0751
  768MPD2    C511392   3.152   0.375  10.655 -0.1325 -0.8404  0.5702
  768MPD2     H11393   3.087   0.183  10.993 -1.0542  1.0976  0.0735
  768MPD2    H111394   3.333   0.432  10.742 -0.2370 -0.1638 -3.1610
  768MPD2    H211395   2.974   0.309  10.581  2.1793  0.1803 -0.8601
  768MPD2    H311396   3.166   0.435  10.566  1.1972 -1.2170  0.5209
  768MPD2     N11397   3.323   0.330  10.967  0.2004 -0.1294 -0.0845
  768MPD2    H511398   3.402   0.387  10.941 -0.6800  1.0926 -0.1127
  768MPD2    N111399   2.876   0.194  10.835  0.0979  0.2993  0.0256
  768MPD2    H711400   2.854   0.199  10.934  1.3304  1.0959  0.2623
  769MPD2     C11401   4.011   2.328  15.134  0.4072 -0.3601 -0.2829
  769MPD2    C111402   3.907   2.418  15.147  0.6023  0.2618  0.1149
  769MPD2    C211403   3.900   2.514  15.251 -0.4378 -0.4867  0.6962
  769MPD2    C311404   4.010   2.522  15.335  0.1362  1.3773 -0.4264
  769MPD2    C411405   4.117   2.437  15.315  0.4745 -0.5009 -0.1966
  769MPD2    C511406   4.123   2.340  15.216  0.0460 -0.1298 -0.3644
  769MPD2     H11407   3.820   2.586  15.264  2.7489  2.7255  2.3201
  769MPD2    H111408   4.205   2.442  15.378 -0.0989  0.1794  0.5452
  769MPD2    H211409   3.997   2.249  15.062 -0.9221  0.4118 -0.8745
  769MPD2    H311410   4.204   2.270  15.202  0.8905  1.2374 -2.3016
  769MPD2     N11411   4.005   2.609  15.443  0.4591  0.0391 -0.3381
  769MPD2    H511412   3.925   2.671  15.441 -0.4433 -1.1292 -0.0540
  769MPD2    N111413   3.801   2.396  15.054 -0.2525  0.4335  0.4799
  769MPD2    H711414   3.815   2.331  14.977  0.5039 -0.0983  1.0717
  770MPD2     C11415   3.683   1.731  14.518 -0.6091  0.6858 -0.7096
  770MPD2    C111416   3.582   1.733  14.608 -0.2989 -0.5894 -0.1317
  770MPD2    C211417   3.556   1.854  14.672 -0.5144  0.4340 -0.3473
  770MPD2    C311418   3.613   1.973  14.632  0.4535 -0.2645 -0.0947
  770MPD2    C411419   3.717   1.968  14.545 -0.2430  0.1485 -0.3246
  770MPD2    C511420   3.754   1.848  14.493  0.1778 -0.0662  0.1910
  770MPD2     H11421   3.470   1.870  14.736 -0.3939 -0.5670  0.0674
  770MPD2    H111422   3.782   2.048  14.513  0.6462 -1.3782 -2.3642
  770MPD2    H211423   3.726   1.640  14.478 -1.5884 -1.0239  2.1615
  770MPD2    H311424   3.840   1.851  14.426 -0.7656 -1.5042 -1.0787
  770MPD2     N11425   3.576   2.099  14.693 -0.2267  0.1211 -0.2042
  770MPD2    H511426   3.512   2.103  14.771 -1.9661  0.2424 -1.6477
  770MPD2    N111427   3.529   1.606  14.640 -0.3397  0.4331  0.1372
  770MPD2    H711428   3.572   1.531  14.586  2.8094 -0.2769  3.6292
  771MPD2     C11429   0.221   0.687  13.619 -0.2651  0.2449 -0.3774
  771MPD2    C111430   0.134   0.792  13.596  0.7283  0.2358  0.5402
  771MPD2    C211431   0.017   0.772  13.531 -0.5655  0.3294 -0.4273
  771MPD2    C311432   4.728   0.650  13.471  0.3469  0.3287  0.3174
  771MPD2    C411433   0.083   0.545  13.481 -0.2012 -0.3565  0.3493
  771MPD2    C511434   0.198   0.567  13.557 -0.2932  0.1018 -0.3897
  771MPD2     H11435   4.683   0.854  13.522 -1.3863 -0.4313 -0.8656
  771MPD2    H111436   0.075   0.456  13.420  2.1502 -0.8008  0.7188
  771MPD2    H211437   0.304   0.700  13.687  0.2883  0.4413 -1.0928
  771MPD2    H311438   0.264   0.483  13.575  0.5704  1.0131  0.6903
  771MPD2     N11439   4.612   0.644  13.394 -0.3550  1.0722  0.3933
  771MPD2    H511440   4.550   0.724  13.394 -1.5510  0.1427 -1.6140
  771MPD2    N111441   0.148   0.917  13.660 -0.1714 -0.4629  0.5893
  771MPD2    H711442   0.072   0.983  13.649  0.3738  0.1683  0.6431
  772MPD2     C11443   4.639   1.579  13.903  0.7057 -0.4168  0.0629
  772MPD2    C111444   4.622   1.452  13.848 -0.1416 -0.3523  0.6218
  772MPD2    C211445   4.496   1.389  13.857 -0.0182 -0.1514  0.2719
  772MPD2    C311446   4.392   1.449  13.925  0.5903  0.0558 -0.3390
  772MPD2    C411447   4.413   1.575  13.976  0.0154  0.1332  0.3357
  772MPD2    C511448   4.538   1.639  13.961 -0.0166 -0.5708 -0.2332
  772MPD2     H11449   4.489   1.284  13.830 -1.6033 -0.0185  0.2124
  772MPD2    H111450   4.336   1.636  14.021  0.2550  0.8505 -0.2319
  772MPD2    H211451   4.734   1.631  13.901  0.1012  0.7323  1.5573
  772MPD2    H311452   4.548   1.743  13.989  1.1664 -1.0218  1.0055
  772MPD2     N11453   4.272   1.389  13.955 -0.2619 -0.7708  0.0898
  772MPD2    H511454   4.216   1.448  14.017  1.6278  0.1316  0.9326
  772MPD2    N111455   4.724   1.375  13.790 -0.0246  0.2725 -0.4693
  772MPD2    H711456   4.696   1.288  13.747  0.7259 -0.2529  0.1065
  773MPD2     C11457   3.658   2.140   0.101  0.1103  0.1138  0.1133
  773MPD2    C111458   3.582   2.027   0.088  0.0209  0.2019 -0.7272
  773MPD2    C211459   3.603   1.928   0.182 -0.1232  0.3750 -0.7986
  773MPD2    C311460   3.706   1.937   0.279 -0.1610  0.0944  0.0795
  773MPD2    C411461   3.780   2.054   0.284  0.2202 -0.4089 -0.8237
  773MPD2    C511462   3.747   2.162   0.201  0.5177 -0.0431  0.0385
  773MPD2     H11463   3.546   1.836   0.170  1.0382 -0.3037 -1.1433
  773MPD2    H111464   3.856   2.077   0.357 -0.0203  3.4140 -1.7353
  773MPD2    H211465   3.651   2.220   0.028 -1.0219 -0.1864 -0.1172
  773MPD2    H311466   3.817   2.244   0.198  0.0125  0.3483 -1.4037
  773MPD2     N11467   3.738   1.829   0.367  0.0754  0.6744 -0.9609
  773MPD2    H511468   3.665   1.759   0.372 -0.0220  0.9479  1.5509
  773MPD2    N111469   3.484   2.010  17.735 -0.6621 -0.2349 -0.7658
  773MPD2    H711470   3.440   1.919  17.733 -0.2986 -0.4268  0.1848
  774MPD2     C11471   2.955   1.220  13.216 -0.1557  0.2693 -0.1811
  774MPD2    C111472   2.909   1.246  13.345  0.0567 -0.4536  0.1716
  774MPD2    C211473   2.868   1.373  13.376 -0.5874  0.6959  0.4576
  774MPD2    C311474   2.887   1.485  13.288  0.2973 -0.2423 -0.7152
  774MPD2    C411475   2.935   1.451  13.164 -0.2488 -0.1671 -0.0550
  774MPD2    C511476   2.969   1.322  13.128  0.0935 -0.0983  0.2835
  774MPD2     H11477   2.856   1.392  13.482  1.7382  0.2486  0.7872
  774MPD2    H111478   2.968   1.526  13.093  2.4719  0.0728  1.4848
  774MPD2    H211479   2.988   1.122  13.182  0.6429  1.3093 -2.3698
  774MPD2    H311480   3.012   1.304  13.030 -1.3748 -0.2508 -0.3353
  774MPD2     N11481   2.889   1.622  13.332  0.5460 -0.8785  0.1758
  774MPD2    H511482   2.867   1.637  13.430  2.6346  0.5791  0.4328
  774MPD2    N111483   2.896   1.141  13.439  0.8362 -0.3429 -0.2844
  774MPD2    H711484   2.934   1.050  13.411 -0.2019 -0.4002 -1.4900
  775MPD2     C11485   4.342   2.548  16.012 -0.3412 -1.0407  0.1169
  775MPD2    C111486   4.324   2.675  16.078  0.3680  0.0189 -0.2679
  775MPD2    C211487   4.331   2.784  16.002  0.0331  0.0965 -1.3039
  775MPD2    C311488   4.343   2.781  15.864  0.1889 -0.4134 -0.5480
  775MPD2    C411489   4.369   2.654  15.811 -0.2939 -1.0304 -0.3610
  775MPD2    C511490   4.371   2.535  15.886 -0.2864  0.2167 -0.8621
  775MPD2     H11491   4.319   2.878  16.054 -1.5542 -0.4363 -0.7131
  775MPD2    H111492   4.372   2.642  15.703 -1.5658  1.2282 -0.6331
  775MPD2    H211493   4.331   2.464  16.080  0.0383 -0.5743  0.7486
  775MPD2    H311494   4.379   2.440  15.834  2.0730 -1.4191  2.5012
  775MPD2     N11495   4.387   2.890  15.786  0.2948 -0.1656  0.4280
  775MPD2    H511496   4.444   2.876  15.704 -0.0889 -3.0771  0.6540
  775MPD2    N111497   4.284   2.671  16.212 -0.8159 -0.0356  0.2202
  775MPD2    H711498   4.288   2.574  16.245  2.7410 -0.0714 -0.3736
  776MPD2     C11499   2.887   3.657  11.584 -0.1926 -0.8621  0.0441
  776MPD2    C111500   3.018   3.621  11.592  0.2694  0.5850  0.2605
  776MPD2    C211501   3.106   3.696  11.514 -0.6952 -0.9711 -0.2990
  776MPD2    C311502   3.070   3.798  11.424 -0.1586  0.5854 -0.2262
  776MPD2    C411503   2.936   3.823  11.403 -0.3244 -0.3408  0.0921
  776MPD2    C511504   2.853   3.761  11.494 -0.0807 -0.2087  0.1783
  776MPD2     H11505   3.213   3.680  11.526 -0.4802  2.0390  1.9983
  776MPD2    H111506   2.915   3.905  11.335  1.5221 -0.4381 -0.5880
  776MPD2    H211507   2.811   3.606  11.642 -1.4651  0.9886  0.0049
  776MPD2    H311508   2.747   3.786  11.492 -0.2035 -0.7577 -0.2152
  776MPD2     N11509   3.155   3.860  11.335  0.3964 -0.3405  0.3996
  776MPD2    H511510   3.132   3.902  11.246  0.1571  2.5129  1.8234
  776MPD2    N111511   3.046   3.509  11.673  0.4998  0.1369  0.8338
  776MPD2    H711512   2.967   3.467  11.721  0.7915  0.3620  1.5087
  777MPD2     C11513   4.146   0.339   0.852 -0.3557  0.0703  0.9241
  777MPD2    C111514   4.016   0.372   0.900  0.1672  0.4143 -0.0535
  777MPD2    C211515   3.912   0.295   0.847  0.0029 -0.3153  0.4447
  777MPD2    C311516   3.936   0.178   0.776  0.7898 -0.4542  0.0343
  777MPD2    C411517   4.063   0.153   0.725 -0.1208  0.3339  0.0303
  777MPD2    C511518   4.160   0.240   0.755 -0.1060 -0.8643  1.2435
  777MPD2     H11519   3.811   0.324   0.876  0.4423  0.2592  1.3943
  777MPD2    H111520   4.076   0.064   0.663  0.3999  0.1068  0.4633
  777MPD2    H211521   4.239   0.389   0.876  0.3066 -0.3933 -0.6559
  777MPD2    H311522   4.259   0.225   0.714 -0.8057  1.7710 -1.4473
  777MPD2     N11523   3.824   0.094   0.737 -0.2578 -0.2506  0.2664
  777MPD2    H511524   3.733   0.122   0.773 -0.1581  1.2860 -0.6739
  777MPD2    N111525   4.007   0.472   0.997  0.4449  0.0667  0.2582
  777MPD2    H711526   4.098   0.506   1.028  0.5744 -0.5120  0.5162
  778MPD2     C11527   0.130   1.263  14.872  0.2373  0.6045 -0.4452
  778MPD2    C111528   0.158   1.132  14.841 -0.1263  0.5865 -0.2780
  778MPD2    C211529   0.245   1.114  14.737 -0.0766 -0.2052 -0.0276
  778MPD2    C311530   0.300   1.223  14.673  0.1244 -0.9886  0.6953
  778MPD2    C411531   0.270   1.352  14.711  0.6316  0.7445 -0.3581
  778MPD2    C511532   0.179   1.374  14.806  0.8749 -0.5030  0.7431
  778MPD2     H11533   0.262   1.016  14.694 -0.1764  0.5153 -1.7097
  778MPD2    H111534   0.305   1.439  14.656 -0.7506  0.0313 -2.3797
  778MPD2    H211535   0.063   1.282  14.956  0.7443 -1.0819  0.3583
  778MPD2    H311536   0.156   1.473  14.843 -1.6375 -0.7590 -0.1243
  778MPD2     N11537   0.393   1.194  14.566 -0.4888  0.0500 -0.6495
  778MPD2    H511538   0.425   1.098  14.557 -0.5572  0.1517 -2.0295
  778MPD2    N111539   0.091   1.019  14.893 -0.6046  0.1094  0.9546
  778MPD2    H711540   0.085   0.936  14.835  0.0367  1.8765 -1.6340
  779MPD2     C11541   4.733   4.304  13.558 -0.2161 -0.1131  0.1062
  779MPD2    C111542   4.711   4.313  13.693 -0.3203  0.1382 -0.2912
  779MPD2    C211543   4.719   4.437  13.749 -0.7056 -0.3772 -0.0496
  779MPD2    C311544   0.020   4.552  13.682  0.0374 -0.1361  0.1020
  779MPD2    C411545   0.033   4.546  13.543  0.0260  0.1501 -0.2918
  779MPD2    C511546   0.020   4.424  13.488 -0.0993 -0.8786 -0.0735
  779MPD2     H11547   4.699   4.446  13.855  0.8813  2.5278  0.0026
  779MPD2    H111548   0.068   4.628  13.481  2.9308  0.8853  2.3082
  779MPD2    H211549   4.732   4.211  13.503 -1.0896  0.2534 -0.4984
  779MPD2    H311550   0.031   4.424  13.380 -0.7155 -1.6642 -0.1313
  779MPD2     N11551   0.037   4.677  13.741  0.5074  0.1438  0.2749
  779MPD2    H511552   0.048   0.018  13.676 -0.6050 -0.0113 -0.1053
  779MPD2    N111553   4.668   4.199  13.780 -0.4067 -0.1564  0.5680
  779MPD2    H711554   4.647   4.220  13.877 -1.8306 -1.1130  0.4746
  780MPD2     C11555   4.130   4.237   1.328  0.0167  0.4288 -0.1311
  780MPD2    C111556   4.161   4.131   1.254 -0.3713 -0.0668  0.3282
  780MPD2    C211557   4.202   4.149   1.127  0.6608 -0.1825  0.5168
  780MPD2    C311558   4.251   4.273   1.088 -0.0937 -0.0589 -0.1272
  780MPD2    C411559   4.238   4.382   1.167  0.1339 -0.4827 -0.0347
  780MPD2    C511560   4.174   4.362   1.289  0.0622 -0.4316 -0.0252
  780MPD2     H11561   4.204   4.060   1.066 -0.9755 -0.3104  0.6357
  780MPD2    H111562   4.274   4.479   1.135 -1.9656  1.0264  2.1307
  780MPD2    H211563   4.075   4.226   1.421 -2.7354  2.0181 -1.5619
  780MPD2    H311564   4.168   4.446   1.357 -1.1589  0.1737 -0.8760
  780MPD2     N11565   4.297   4.286   0.954 -0.0217  0.0867  0.0002
  780MPD2    H511566   4.275   4.204   0.898 -1.2096  2.1803 -2.6150
  780MPD2    N111567   4.102   4.010   1.292 -0.6937  0.1798  0.3525
  780MPD2    H711568   4.038   4.014   1.371  1.5750 -0.7974  2.2573
  781MPD2     C11569   0.738   1.751  12.289 -0.1168 -0.0195  0.2241
  781MPD2    C111570   0.871   1.749  12.326  0.0193  0.7824  0.7101
  781MPD2    C211571   0.941   1.868  12.309 -0.0550 -1.0687  0.2538
  781MPD2    C311572   0.885   1.987  12.258  0.0183  0.0187  0.7303
  781MPD2    C411573   0.756   1.979  12.221  0.1335  0.1447 -0.4415
  781MPD2    C511574   0.684   1.862  12.230 -0.7888 -0.4922 -1.1620
  781MPD2     H11575   1.049   1.863  12.323 -0.2323  1.4261  2.5642
  781MPD2    H111576   0.698   2.063  12.184  1.1890  0.2669 -1.8376
  781MPD2    H211577   0.668   1.669  12.288 -0.7945  0.5603  0.2504
  781MPD2    H311578   0.577   1.864  12.215 -1.3533  1.2132  3.0690
  781MPD2     N11579   0.962   2.105  12.229 -0.2581 -0.2600 -0.4380
  781MPD2    H511580   0.927   2.176  12.166 -0.3613  1.0173  1.0589
  781MPD2    N111581   0.940   1.633  12.382 -0.1217 -0.6362 -0.5323
  781MPD2    H711582   1.033   1.633  12.423 -0.1325 -0.0260 -0.5119
  782MPD2     C11583   3.235   2.391  10.359  0.1172  0.0054 -0.3467
  782MPD2    C111584   3.359   2.405  10.420 -0.2318 -0.1918  0.7856
  782MPD2    C211585   3.402   2.525  10.473 -0.2558  0.1993 -0.0636
  782MPD2    C311586   3.315   2.634  10.466  0.1464  0.0151  0.1475
  782MPD2    C411587   3.189   2.619  10.412  0.1524 -0.2042 -0.5870
  782MPD2    C511588   3.143   2.497  10.359 -0.0600 -0.1169 -0.1955
  782MPD2     H11589   3.496   2.534  10.526  0.6721  2.9199 -2.1583
  782MPD2    H111590   3.116   2.698  10.402 -0.9703 -1.4322 -2.0475
  782MPD2    H211591   3.211   2.306  10.296  0.6350 -1.5109  1.5438
  782MPD2    H311592   3.040   2.495  10.325  0.2694  1.1467 -1.2546
  782MPD2     N11593   3.359   2.748  10.536  0.3267 -0.1696  0.7571
  782MPD2    H511594   3.450   2.739  10.581 -0.0368 -0.1361  1.4874
  782MPD2    N111595   3.434   2.282  10.443 -0.3482 -0.1122  0.1247
  782MPD2    H711596   3.389   2.191  10.445 -0.5583 -0.0188 -0.3237
  783MPD2     C11597   3.234   1.867  11.279  0.1502  0.5404 -0.4859
  783MPD2    C111598   3.354   1.934  11.297  0.0240  0.3595  0.3827
  783MPD2    C211599   3.422   1.971  11.185 -0.4995 -0.1989 -0.3803
  783MPD2    C311600   3.379   1.941  11.060 -0.5857  0.4781  0.3026
  783MPD2    C411601   3.261   1.870  11.037 -0.0119 -0.2974  0.6086
  783MPD2    C511602   3.193   1.835  11.151  0.4874 -0.7529 -0.6414
  783MPD2     H11603   3.522   2.012  11.189 -0.7729  0.5400 -1.1430
  783MPD2    H111604   3.219   1.848  10.940 -0.8017  1.1155  0.6330
  783MPD2    H211605   3.172   1.832  11.361 -2.3096  2.0777 -1.7022
  783MPD2    H311606   3.101   1.781  11.133 -0.7082  1.4912 -1.3160
  783MPD2     N11607   3.464   1.987  10.958 -0.7564 -1.1401 -0.4936
  783MPD2    H511608   3.540   2.044  10.994 -0.2851 -1.2844 -1.2507
  783MPD2    N111609   3.390   1.983  11.421  0.2477  0.7513  0.1498
  783MPD2    H711610   3.320   1.961  11.490 -0.1836  0.1481 -0.4749
  784MPD2     C11611   2.021   2.271   0.866  0.4125  0.1899 -0.7304
  784MPD2    C111612   1.994   2.391   0.940 -0.3509  0.4858  0.4123
  784MPD2    C211613   1.875   2.459   0.923  0.5891  0.2378 -0.3868
  784MPD2    C311614   1.793   2.437   0.813  0.1987  0.1109  0.1301
  784MPD2    C411615   1.826   2.327   0.741  0.1373 -0.3919  0.4434
  784MPD2    C511616   1.931   2.250   0.763  0.2491  0.8731  0.0892
  784MPD2     H11617   1.850   2.544   0.986  3.8485  0.4538  0.5918
  784MPD2    H111618   1.769   2.301   0.652  2.3750  1.5759 -1.5770
  784MPD2    H211619   2.114   2.217   0.876  0.6219  0.8976  1.2494
  784MPD2    H311620   1.938   2.157   0.708 -3.0023 -0.4922  1.9958
  784MPD2     N11621   1.687   2.528   0.791 -0.1642 -0.3863 -0.3370
  784MPD2    H511622   1.671   2.608   0.852 -0.9517 -1.0617  0.3485
  784MPD2    N111623   2.085   2.442   1.028 -0.8469 -0.2378  0.2503
  784MPD2    H711624   2.074   2.535   1.066 -2.1253 -0.0415 -0.6238
  785MPD2     C11625   1.726   2.223  11.258 -0.3627  0.3516  0.5685
  785MPD2    C111626   1.619   2.140  11.273  0.1689  0.0672 -0.6310
  785MPD2    C211627   1.634   2.012  11.317  0.0461 -0.2299 -0.5090
  785MPD2    C311628   1.761   1.965  11.342  0.2591 -0.0782  0.2163
  785MPD2    C411629   1.870   2.044  11.322 -0.0691  0.0778  0.1221
  785MPD2    C511630   1.852   2.176  11.284  0.0065  0.4565 -0.4059
  785MPD2     H11631   1.548   1.947  11.321  0.7883 -1.0469  2.0510
  785MPD2    H111632   1.973   2.021  11.346  0.4098  1.3204 -0.7798
  785MPD2    H211633   1.710   2.326  11.230  1.4082  0.0927 -1.4874
  785MPD2    H311634   1.938   2.238  11.261  0.2930  0.6114  1.0666
  785MPD2     N11635   1.775   1.833  11.381  0.1770 -0.7940 -0.7174
  785MPD2    H511636   1.691   1.779  11.399  0.7618 -1.2017  0.7564
  785MPD2    N111637   1.496   2.169  11.215  0.2440 -0.2184  0.4067
  785MPD2    H711638   1.421   2.100  11.215  0.0253  0.0324  2.6928
  786MPD2     C11639   0.644   3.913  14.377 -0.0793 -0.2460  1.0095
  786MPD2    C111640   0.554   3.850  14.449  0.2550  1.1710  0.4785
  786MPD2    C211641   0.557   3.853  14.587  0.6487 -0.3691  0.3513
  786MPD2    C311642   0.646   3.939  14.652  1.3990  0.0183 -0.1043
  786MPD2    C411643   0.743   4.006  14.578  0.9469  0.1416  0.4497
  786MPD2    C511644   0.741   3.988  14.438 -0.6001  0.7335 -0.1701
  786MPD2     H11645   0.498   3.787  14.650  1.5952  0.0870  1.7398
  786MPD2    H111646   0.820   4.066  14.624  0.6343  0.0440  1.0957
  786MPD2    H211647   0.650   3.908  14.269 -0.7253  0.4716  0.9458
  786MPD2    H311648   0.822   4.032  14.382 -0.5781  0.9358  0.0216
  786MPD2     N11649   0.658   3.951  14.797  0.1640 -0.3525  0.0048
  786MPD2    H511650   0.742   3.995  14.834  0.1202  0.1634 -0.5007
  786MPD2    N111651   0.460   3.763  14.393  0.1594 -0.5543  0.2183
  786MPD2    H711652   0.390   3.729  14.458 -0.4504  0.0369 -0.1292
  787MPD2     C11653   0.241   3.376  14.810 -0.9305 -0.6149 -0.4357
  787MPD2    C111654   0.251   3.312  14.691 -0.0026  0.1823 -0.0925
  787MPD2    C211655   0.305   3.183  14.700 -0.4994  0.6345 -0.4536
  787MPD2    C311656   0.334   3.120  14.826 -1.2838  0.1295  0.1900
  787MPD2    C411657   0.295   3.183  14.938  0.0935  0.8094 -0.4781
  787MPD2    C511658   0.251   3.312  14.925 -0.4191 -0.3203  0.2428
  787MPD2     H11659   0.307   3.131  14.604 -0.8443 -2.6719  1.3184
  787MPD2    H111660   0.310   3.143  15.038 -0.6482  0.1049 -0.6556
  787MPD2    H211661   0.199   3.476  14.819 -0.0812 -0.5232  2.5860
  787MPD2    H311662   0.224   3.359  15.018  0.3894  2.0319 -0.7028
  787MPD2     N11663   0.398   2.995  14.804  0.6456 -0.2129  0.2115
  787MPD2    H511664   0.433   2.970  14.712  1.0078  2.3766 -0.3527
  787MPD2    N111665   0.243   3.389  14.580 -0.3220  0.0975  0.0007
  787MPD2    H711666   0.249   3.490  14.595 -2.1917 -0.0837  1.8773
  788MPD2     C11667   2.693   2.520   1.324  0.1594  0.4839  0.4795
  788MPD2    C111668   2.629   2.424   1.246  0.0476 -0.2520  0.7325
  788MPD2    C211669   2.606   2.447   1.110 -0.5436 -0.1608  0.6255
  788MPD2    C311670   2.637   2.572   1.054  0.3280  0.3859 -0.2296
  788MPD2    C411671   2.715   2.655   1.130  0.1671 -0.4002 -0.6016
  788MPD2    C511672   2.742   2.634   1.264 -0.0663  0.6064  0.1554
  788MPD2     H11673   2.560   2.367   1.053  0.8115  0.0854 -0.7842
  788MPD2    H111674   2.761   2.743   1.087 -1.7917  0.0468 -1.7952
  788MPD2    H211675   2.701   2.505   1.431 -4.6145  2.1164  1.0561
  788MPD2    H311676   2.793   2.715   1.313  1.2918 -1.0819  1.5062
  788MPD2     N11677   2.603   2.604   0.922 -0.0847 -0.4041  0.3958
  788MPD2    H511678   2.627   2.691   0.877  2.8864 -0.1975  2.3698
  788MPD2    N111679   2.583   2.294   1.300  0.4575 -0.1093  0.1279
  788MPD2    H711680   2.547   2.224   1.235  2.6812 -1.5091  0.3990
  789MPD2     C11681   2.990   1.675  16.855  0.3354 -0.5309 -0.3493
  789MPD2    C111682   2.896   1.647  16.753 -0.4590  0.5298  0.3321
  789MPD2    C211683   2.791   1.737  16.737 -0.2813 -0.2659  0.5312
  789MPD2    C311684   2.778   1.851  16.811  0.4624 -0.0787  0.3668
  789MPD2    C411685   2.869   1.870  16.913 -0.7264 -0.8225 -0.5484
  789MPD2    C511686   2.972   1.785  16.937 -0.2441  0.2995 -0.1527
  789MPD2     H11687   2.726   1.710  16.654 -0.6681 -1.2497  1.1620
  789MPD2    H111688   2.857   1.958  16.976  0.9719 -0.2539 -1.0253
  789MPD2    H211689   3.081   1.620  16.877  0.1022 -2.1891 -3.5017
  789MPD2    H311690   3.036   1.800  17.023 -1.5185  0.5685  0.7435
  789MPD2     N11691   2.670   1.940  16.794 -0.0501  0.0561  0.1127
  789MPD2    H511692   2.669   2.016  16.861  0.0551 -1.4078  1.7774
  789MPD2    N111693   2.904   1.540  16.667 -0.1180 -0.4072 -0.0977
  789MPD2    H711694   2.843   1.544  16.587  0.2893  1.9406 -0.2966
  790MPD2     C11695   3.460   3.446  13.605  0.1274 -0.0201 -0.1152
  790MPD2    C111696   3.519   3.322  13.603  0.2461  0.5377 -0.5286
  790MPD2    C211697   3.509   3.238  13.495  0.2710  0.3453  0.7164
  790MPD2    C311698   3.428   3.281  13.389  0.4173 -0.0854 -0.0558
  790MPD2    C411699   3.376   3.413  13.393  0.5144  0.4308  0.1005
  790MPD2    C511700   3.402   3.495  13.498  0.8381  0.1015  0.2252
  790MPD2     H11701   3.553   3.138  13.497  2.0032  1.0840 -0.1556
  790MPD2    H111702   3.323   3.461  13.312 -0.6693 -3.3442 -1.3621
  790MPD2    H211703   3.447   3.499  13.699 -1.7837 -0.0971 -0.3222
  790MPD2    H311704   3.356   3.593  13.504  0.4000 -0.1357  0.7366
  790MPD2     N11705   3.397   3.185  13.295  0.2726  0.4243 -0.2470
  790MPD2    H511706   3.434   3.093  13.317 -0.3883  0.6508  1.8257
  790MPD2    N111707   3.570   3.277  13.728  0.2989 -0.0794  0.0971
  790MPD2    H711708   3.555   3.338  13.808 -0.2883 -0.0683 -0.0216
  791MPD2     C11709   2.799   3.205  12.867 -0.0288  0.2427  0.1453
  791MPD2    C111710   2.826   3.071  12.887 -0.0354 -0.5157  0.1540
  791MPD2    C211711   2.723   2.976  12.871  0.4105 -0.0802  0.7277
  791MPD2    C311712   2.601   3.015  12.821  0.4808 -0.6051 -0.1541
  791MPD2    C411713   2.576   3.155  12.788  0.1472  0.3303  0.4729
  791MPD2    C511714   2.678   3.247  12.812  0.3993 -0.0817 -0.0131
  791MPD2     H11715   2.743   2.872  12.897  0.9281 -0.7789 -2.4967
  791MPD2    H111716   2.486   3.194  12.741  1.6204 -0.4959 -3.0955
  791MPD2    H211717   2.881   3.275  12.881 -0.5967  0.9031  0.1829
  791MPD2    H311718   2.664   3.353  12.795  0.9266 -0.2303 -1.3530
  791MPD2     N11719   2.494   2.923  12.822 -0.2738 -0.4677  0.3195
  791MPD2    H511720   2.524   2.835  12.862  1.3201  0.1546  0.5182
  791MPD2    N111721   2.952   3.039  12.936 -0.1045  0.3511  0.1820
  791MPD2    H711722   3.020   3.113  12.921  0.7828 -0.7712 -1.3568
  792MPD2     C11723   3.697   3.566  11.266 -0.6562 -0.5453  0.0635
  792MPD2    C111724   3.615   3.590  11.156 -0.1392  0.2189 -0.0184
  792MPD2    C211725   3.473   3.576  11.169 -0.1371 -0.1554 -0.2699
  792MPD2    C311726   3.422   3.540  11.284 -0.2275 -0.3892  0.1633
  792MPD2    C411727   3.503   3.517  11.392 -0.2525 -0.1189 -0.7021
  792MPD2    C511728   3.636   3.536  11.388  0.1170  0.1917  0.1141
  792MPD2     H11729   3.412   3.603  11.083 -0.0124  1.3026  0.0943
  792MPD2    H111730   3.463   3.487  11.488 -1.3955  0.2745 -1.0664
  792MPD2    H211731   3.804   3.572  11.248 -1.1250  1.5948 -1.9826
  792MPD2    H311732   3.694   3.516  11.477  0.5061 -1.2931 -0.4842
  792MPD2     N11733   3.285   3.505  11.300 -0.2087 -0.4770 -0.1546
  792MPD2    H511734   3.254   3.468  11.389  0.1777 -0.8907 -0.1937
  792MPD2    N111735   3.677   3.636  11.039  0.2177 -0.0732 -0.2731
  792MPD2    H711736   3.778   3.637  11.033  0.1671  2.9211 -0.3932
  793MPD2     C11737   2.653   3.449  10.572 -0.4018  0.2400  0.3489
  793MPD2    C111738   2.791   3.447  10.594 -0.3942  0.3940 -0.2096
  793MPD2    C211739   2.833   3.445  10.727 -0.7090  0.3481 -0.3911
  793MPD2    C311740   2.747   3.446  10.839 -0.9676  0.9079  0.4762
  793MPD2    C411741   2.611   3.453  10.812 -0.3580  0.1116  0.0837
  793MPD2    C511742   2.566   3.448  10.678  0.0617 -0.6044  0.2933
  793MPD2     H11743   2.939   3.446  10.749 -1.0818  0.6828  1.4350
  793MPD2    H111744   2.532   3.457  10.886 -1.4411  0.7035 -1.1050
  793MPD2    H211745   2.607   3.446  10.473 -3.5238  1.2411  1.7663
  793MPD2    H311746   2.461   3.460  10.654 -0.2299 -1.4852  1.1225
  793MPD2     N11747   2.804   3.456  10.967 -0.1523 -0.0187 -0.8330
  793MPD2    H511748   2.905   3.463  10.968 -0.1517 -0.2874  0.4803
  793MPD2    N111749   2.890   3.441  10.491  0.3711 -0.6216  0.4534
  793MPD2    H711750   2.984   3.453  10.528 -0.1398 -0.8206  1.8326
  794MPD2     C11751   2.891   2.503  17.354  0.9335 -0.4222 -0.8951
  794MPD2    C111752   2.970   2.436  17.263  0.2454  1.0024 -0.8499
  794MPD2    C211753   2.972   2.482  17.131  0.0982 -0.5077 -0.0472
  794MPD2    C311754   2.895   2.592  17.090  0.4929 -0.0518  0.5814
  794MPD2    C411755   2.831   2.664  17.185  0.1752  0.1306 -0.8176
  794MPD2    C511756   2.827   2.616  17.314  0.8506  0.0378  0.0819
  794MPD2     H11757   3.038   2.432  17.062 -0.3908 -1.8984  0.4901
  794MPD2    H111758   2.777   2.755  17.162 -1.9753 -1.6318 -2.6574
  794MPD2    H211759   2.892   2.486  17.461  1.1226 -2.0310 -1.1519
  794MPD2    H311760   2.779   2.676  17.391 -0.0037  3.2339 -2.9725
  794MPD2     N11761   2.887   2.645  16.958  0.1235  0.5576 -0.2081
  794MPD2    H511762   2.820   2.718  16.937  1.6695  1.3229 -2.4383
  794MPD2    N111763   3.045   2.326  17.294  0.0110 -0.0030 -0.2746
  794MPD2    H711764   3.102   2.284  17.221  0.4121  1.5714 -0.8872
  795MPD2     C11765   1.068   0.066  13.415 -0.3051  0.5030  0.1746
  795MPD2    C111766   1.061   4.685  13.344 -0.4349 -0.3738 -0.0191
  795MPD2    C211767   1.170   4.603  13.351  0.1489 -1.0264  0.8855
  795MPD2    C311768   1.292   4.646  13.411  0.1147 -0.3077  0.4230
  795MPD2    C411769   1.292   0.025  13.483 -0.0591 -0.2704 -0.3976
  795MPD2    C511770   1.177   0.105  13.482  0.6650 -0.4447 -0.0741
  795MPD2     H11771   1.177   4.509  13.298  2.5963 -0.6599  0.5686
  795MPD2    H111772   1.374   0.051  13.549  0.5503 -1.9678 -0.4838
  795MPD2    H211773   0.987   0.137  13.428 -0.9154 -0.4693  1.6836
  795MPD2    H311774   1.175   0.199  13.536 -1.0389  0.3311 -1.5088
  795MPD2     N11775   1.407   4.567  13.406  0.1218  0.2050  0.3609
  795MPD2    H511776   1.392   4.473  13.370 -1.1935  0.2070  0.9007
  795MPD2    N111777   0.947   4.652  13.273 -0.5687 -0.2517 -0.5031
  795MPD2    H711778   0.938   4.558  13.236 -1.6985  0.3106 -1.6520
  796MPD2     C11779   0.526   1.107  15.913  0.0312  0.4300 -0.0058
  796MPD2    C111780   0.580   1.190  16.015  0.6269 -0.2314  0.4342
  796MPD2    C211781   0.541   1.323  16.016 -0.0445 -0.4977  0.1359
  796MPD2    C311782   0.462   1.369  15.913  0.2563  0.6626  0.6617
  796MPD2    C411783   0.409   1.285  15.815  0.4416  0.0985 -0.7540
  796MPD2    C511784   0.445   1.157  15.816  0.6394 -0.0432  0.7963
  796MPD2     H11785   0.579   1.398  16.085 -0.3495 -0.2287  0.0084
  796MPD2    H111786   0.339   1.326  15.742 -1.4849 -1.4773  0.2016
  796MPD2    H211787   0.554   1.003  15.911  0.3869  0.5200  0.4152
  796MPD2    H311788   0.410   1.092  15.736  2.0725  0.1984 -0.0257
  796MPD2     N11789   0.447   1.507  15.919 -0.3776 -0.0374 -0.4891
  796MPD2    H511790   0.481   1.558  16.000  0.0885 -1.6471  0.3336
  796MPD2    N111791   0.656   1.127  16.115  0.3283  0.6019 -0.0381
  796MPD2    H711792   0.650   1.026  16.119 -1.0766  0.7085  0.6491
  797MPD2     C11793   1.606   0.980  17.736 -0.5730 -0.4577  0.0652
  797MPD2    C111794   1.615   1.115   0.011  0.0251  0.3486 -0.3879
  797MPD2    C211795   1.544   1.194  17.668 -0.4476  0.1092 -0.2202
  797MPD2    C311796   1.472   1.152  17.554 -0.0450 -0.8952 -0.3190
  797MPD2    C411797   1.462   1.018  17.543  0.4721 -0.3530  0.1473
  797MPD2    C511798   1.530   0.932  17.632  0.0502  0.0983 -0.0445
  797MPD2     H11799   1.567   1.299  17.655  1.8457 -0.3973 -0.3339
  797MPD2    H111800   1.409   0.982  17.455  0.2047 -1.0370  0.5823
  797MPD2    H211801   1.655   0.919   0.067  0.5433 -0.0957 -0.3740
  797MPD2    H311802   1.498   0.829  17.618 -1.7940  0.7705 -0.7963
  797MPD2     N11803   1.423   1.239  17.454 -0.0509 -0.1827  0.4691
  797MPD2    H511804   1.436   1.339  17.465  2.4720 -0.4889  0.3015
  797MPD2    N111805   1.704   1.156   0.105  0.5122 -0.2431  0.1191
  797MPD2    H711806   1.763   1.091   0.156 -1.6312 -2.6886 -0.4704
  798MPD2     C11807   1.873   1.782  17.405  0.2851 -0.0592  0.4730
  798MPD2    C111808   1.768   1.709  17.449 -0.6462 -0.1224 -0.5621
  798MPD2    C211809   1.782   1.658  17.575 -0.1638  0.4974 -0.1262
  798MPD2    C311810   1.897   1.672  17.654 -0.0482  0.1358  0.7053
  798MPD2    C411811   1.987   1.764  17.605  0.0104 -0.8675 -0.3352
  798MPD2    C511812   1.982   1.800  17.478  0.4466 -0.2065 -0.3133
  798MPD2     H11813   1.704   1.596  17.618  2.2366 -2.5418 -0.1272
  798MPD2    H111814   2.074   1.787  17.666 -0.8704 -0.4523  0.7545
  798MPD2    H211815   1.871   1.827  17.306 -1.8320 -0.0527  0.5058
  798MPD2    H311816   2.066   1.855  17.438  0.4833  0.3126  0.4713
  798MPD2     N11817   1.907   1.607   0.036 -0.2205 -0.7606 -0.5100
  798MPD2    H511818   1.829   1.543   0.049 -1.0851  0.4417  0.2991
  798MPD2    N111819   1.661   1.680  17.365 -0.1390 -0.0954 -0.3310
  798MPD2    H711820   1.673   1.718  17.272 -0.0562  1.6453  0.4011
  799MPD2     C11821   0.096   2.552  14.830 -0.1484  0.0474  0.0899
  799MPD2    C111822   0.138   2.482  14.716 -0.3332  0.0488  0.4783
  799MPD2    C211823   0.164   2.543  14.596 -0.2808 -0.1267 -0.2849
  799MPD2    C311824   0.138   2.681  14.592  0.6436 -0.5050  0.1242
  799MPD2    C411825   0.110   2.752  14.707 -0.0686  0.7013  0.2376
  799MPD2    C511826   0.102   2.689  14.825  0.3914 -0.3034  0.2425
  799MPD2     H11827   0.197   2.485  14.511  0.5314 -1.3923  0.8998
  799MPD2    H111828   0.097   2.859  14.700  0.8469  0.8693  1.0894
  799MPD2    H211829   0.062   2.506  14.922  0.1512  0.1544  0.2555
  799MPD2    H311830   0.072   2.748  14.911 -2.0435  1.9892 -2.1569
  799MPD2     N11831   0.146   2.758  14.473  0.2287 -0.7769  0.0136
  799MPD2    H511832   0.152   2.859  14.482  1.0592 -0.9817  1.7943
  799MPD2    N111833   0.162   2.341  14.722  0.2576 -0.3225 -0.1585
  799MPD2    H711834   0.173   2.285  14.638 -0.4969  0.9675 -1.1179
  800MPD2     C11835   0.985   3.765  14.676  0.7925  0.4185  0.1884
  800MPD2    C111836   1.120   3.795  14.652 -1.1765 -0.3640  0.0586
  800MPD2    C211837   1.168   3.746  14.532  0.3116  0.8082 -0.6860
  800MPD2    C311838   1.103   3.656  14.449 -0.6500 -0.2066 -0.3083
  800MPD2    C411839   0.969   3.626  14.481  0.9079  0.0313 -0.6066
  800MPD2    C511840   0.913   3.688  14.589 -0.4303 -0.6984  0.5659
  800MPD2     H11841   1.269   3.777  14.508  0.2681  0.8232 -0.8520
  800MPD2    H111842   0.905   3.566  14.416 -0.0002 -0.4332  0.7110
  800MPD2    H211843   0.929   3.801  14.761  2.3568  1.3726  0.8119
  800MPD2    H311844   0.810   3.667  14.616 -0.6433  1.4796  1.4055
  800MPD2     N11845   1.164   3.623  14.327 -0.5577  0.0191 -0.3855
  800MPD2    H511846   1.236   3.686  14.294 -1.4487  0.4364 -1.5603
  800MPD2    N111847   1.187   3.887  14.729  0.2393  0.4422 -0.1232
  800MPD2    H711848   1.139   3.929  14.808  1.2864  0.2996  0.5858
  801MPD2     C11849   1.040   4.378  14.456 -1.0934  0.2690 -0.2496
  801MPD2    C111850   1.021   4.366  14.587  0.3732  0.1243 -0.2237
  801MPD2    C211851   0.887   4.347  14.630  0.5670  0.2189 -0.3739
  801MPD2    C311852   0.779   4.337  14.546  0.3040 -1.1349 -1.2990
  801MPD2    C411853   0.808   4.346  14.415  0.3912 -0.0039  0.1307
  801MPD2    C511854   0.937   4.372  14.372  0.1803 -0.2186 -0.7324
  801MPD2     H11855   0.863   4.323  14.733 -0.0447 -0.7820 -0.7575
  801MPD2    H111856   0.730   4.351  14.340  2.1982 -0.6631 -1.7814
  801MPD2    H211857   1.143   4.378  14.422 -0.1173  0.8230  2.6324
  801MPD2    H311858   0.963   4.369  14.267  1.3042 -1.2780 -0.4176
  801MPD2     N11859   0.641   4.318  14.583  0.8728  0.2937 -0.7449
  801MPD2    H511860   0.574   4.307  14.507 -0.9541  2.3041  0.5516
  801MPD2    N111861   1.120   4.345  14.686 -0.6009  0.1905  0.3662
  801MPD2    H711862   1.093   4.328  14.783 -1.9829  2.3753  0.3727
  802MPD2     C11863   0.569   0.420   0.408  0.8713  0.4173  0.2252
  802MPD2    C111864   0.508   0.342   0.500  0.8708 -0.5954 -0.4974
  802MPD2    C211865   0.546   0.207   0.510 -0.0414 -0.3389 -0.1642
  802MPD2    C311866   0.637   0.152   0.424  0.1711  0.3947 -0.0956
  802MPD2    C411867   0.703   0.235   0.339  0.1129  0.0382 -0.0974
  802MPD2    C511868   0.677   0.369   0.341  0.2385 -0.0992 -0.0931
  802MPD2     H11869   0.490   0.142   0.576  0.0570  1.1029  1.3681
  802MPD2    H111870   0.784   0.214   0.270 -0.2323  0.3227 -0.5894
  802MPD2    H211871   0.565   0.529   0.408  1.0611  0.4247 -0.3416
  802MPD2    H311872   0.733   0.431   0.272  2.0217  0.9431  2.2929
  802MPD2     N11873   0.650   0.015   0.409  0.0476  0.4600 -0.1836
  802MPD2    H511874   0.592   4.690   0.465 -0.5101  3.3882  2.4392
  802MPD2    N111875   0.405   0.381   0.593 -0.4843 -0.5709  0.6459
  802MPD2    H711876   0.367   0.306   0.650 -2.2645 -0.7269 -0.7498
  803MPD2     C11877   0.815   2.908  12.427 -0.8452  0.1537  0.6675
  803MPD2    C111878   0.941   2.978  12.420  0.3059  0.6753 -0.3118
  803MPD2    C211879   0.999   3.018  12.532  0.0253 -0.3826 -0.0981
  803MPD2    C311880   0.938   2.990  12.658  0.0620  0.6436  0.5303
  803MPD2    C411881   0.827   2.917  12.661  0.0886 -0.0453  0.5148
  803MPD2    C511882   0.758   2.883  12.553  0.3562 -0.7498  0.0945
  803MPD2     H11883   1.101   3.054  12.523  0.7435 -1.2432  4.5333
  803MPD2    H111884   0.776   2.901  12.756  0.6675 -1.1430  0.6413
  803MPD2    H211885   0.761   2.882  12.337 -1.7366  0.4192  1.1236
  803MPD2    H311886   0.661   2.835  12.553 -0.0903  0.1471 -1.6269
  803MPD2     N11887   1.003   3.018  12.779  0.1896 -1.1214  1.2493
  803MPD2    H511888   0.956   2.977  12.859 -1.1850 -0.2683  0.8753
  803MPD2    N111889   1.014   2.990  12.298  0.5666  0.6433 -0.6120
  803MPD2    H711890   1.086   3.060  12.292  0.4997  0.5924 -1.9494
  804MPD2     C11891   1.321   4.392  16.788 -0.3292 -0.1987 -0.7037
  804MPD2    C111892   1.290   4.397  16.918  0.3802  0.3426  0.2218
  804MPD2    C211893   1.352   4.499  16.995 -0.0947  0.1966 -0.3053
  804MPD2    C311894   1.447   4.594  16.947 -0.2610  0.4788 -0.8758
  804MPD2    C411895   1.478   4.593  16.812  0.7368  0.2369 -0.1758
  804MPD2    C511896   1.413   4.487  16.741  0.2508  0.8022 -1.0088
  804MPD2     H11897   1.311   4.516  17.094 -0.2220  0.7070 -0.4444
  804MPD2    H111898   1.547   4.662  16.764  1.0294  0.0823  0.0241
  804MPD2    H211899   1.292   4.313  16.720 -2.0192 -0.2334  0.0764
  804MPD2    H311900   1.442   4.471  16.638  1.6261 -2.5087 -0.1058
  804MPD2     N11901   1.506   4.679  17.047  0.2443 -0.0564  0.4998
  804MPD2    H511902   1.478   4.669  17.144 -2.4758 -2.4664 -0.5440
  804MPD2    N111903   1.199   4.307  16.984 -0.0061 -0.0561 -0.2990
  804MPD2    H711904   1.180   4.339  17.078  1.7449  0.2174 -0.0316
  805MPD2     C11905   0.063   2.868  15.828 -0.1578 -0.0616  0.0516
  805MPD2    C111906   0.150   2.808  15.737 -0.1464  0.6844 -0.2385
  805MPD2    C211907   0.291   2.816  15.757 -0.0602 -1.0434 -0.3195
  805MPD2    C311908   0.343   2.875  15.870 -0.1171  0.3683 -0.1018
  805MPD2    C411909   0.252   2.933  15.953 -0.3019 -0.6716  0.0655
  805MPD2    C511910   0.115   2.939  15.931 -0.3622 -0.2924  0.7312
  805MPD2     H11911   0.358   2.777  15.682  1.3198 -1.6737  1.2280
  805MPD2    H111912   0.281   2.988  16.042 -3.0597  0.5089  0.2415
  805MPD2    H211913   4.692   2.866  15.816 -0.4113 -2.9618  2.7851
  805MPD2    H311914   0.044   3.005  15.979 -2.4293 -3.1140  1.5258
  805MPD2     N11915   0.483   2.874  15.886 -0.5431  0.6224  0.4286
  805MPD2    H511916   0.533   2.819  15.816 -0.9730 -0.1927  0.7540
  805MPD2    N111917   0.105   2.736  15.623 -0.6485 -0.0224  0.2032
  805MPD2    H711918   0.177   2.696  15.563 -1.6859  0.5066 -1.3837
  806MPD2     C11919   0.360   1.739   0.354 -0.5423 -0.0118 -0.3052
  806MPD2    C111920   0.484   1.769   0.411  0.2177 -0.2395  0.2576
  806MPD2    C211921   0.602   1.714   0.354  0.9050 -0.2744  0.4879
  806MPD2    C311922   0.594   1.634   0.243  0.2365 -0.4008 -0.3199
  806MPD2    C411923   0.469   1.611   0.188 -1.1032  0.3027 -0.5730
  806MPD2    C511924   0.352   1.657   0.242 -0.1536  0.0421  0.6491
  806MPD2     H11925   0.699   1.715   0.401  0.6632  0.6411  0.9581
  806MPD2    H111926   0.450   1.543   0.106 -0.5578  0.6057 -0.9523
  806MPD2    H211927   0.273   1.785   0.398 -0.7100 -0.0187 -0.6273
  806MPD2    H311928   0.257   1.626   0.201 -0.8678  1.7820  0.9857
  806MPD2     N11929   0.717   1.584   0.196  0.0488 -0.5710  0.5522
  806MPD2    H511930   0.802   1.619   0.238 -0.1642 -0.8516  1.2174
  806MPD2    N111931   0.485   1.857   0.521  0.1017  0.3851  0.0974
  806MPD2    H711932   0.398   1.891   0.562 -0.2312 -0.4122  0.0611
  807MPD2     C11933   0.380   1.688   1.175 -0.2465  0.1048  0.0223
  807MPD2    C111934   0.496   1.718   1.094 -0.4745 -0.0430 -0.4535
  807MPD2    C211935   0.600   1.623   1.083 -0.2900 -0.5558  0.7895
  807MPD2    C311936   0.594   1.501   1.151 -0.5954 -0.2194 -0.3807
  807MPD2    C411937   0.480   1.472   1.234  0.3455  0.0411 -0.3500
  807MPD2    C511938   0.376   1.564   1.232  0.0688  0.3490  0.6432
  807MPD2     H11939   0.686   1.656   1.027  0.4775 -1.7330  1.2919
  807MPD2    H111940   0.484   1.391   1.305 -0.4787 -0.2248 -0.6036
  807MPD2    H211941   0.290   1.749   1.178 -0.8756 -0.8658  0.9184
  807MPD2    H311942   0.294   1.534   1.297 -0.9839 -2.5940 -2.0397
  807MPD2     N11943   0.699   1.411   1.136 -0.0886 -0.1935  1.1317
  807MPD2    H511944   0.785   1.439   1.090 -0.5619 -2.5701 -1.2072
  807MPD2    N111945   0.516   1.841   1.032  0.2223  0.2648  0.0270
  807MPD2    H711946   0.612   1.861   1.006  0.6568 -2.1128 -0.2043
  808MPD2     C11947   0.887   3.308   9.739 -0.3933 -0.7572  0.4939
  808MPD2    C111948   0.820   3.415   9.790  0.5175 -0.8332 -0.4772
  808MPD2    C211949   0.874   3.543   9.760 -0.9577 -0.8601  0.6162
  808MPD2    C311950   0.975   3.566   9.676 -0.8112 -1.7337 -0.3614
  808MPD2    C411951   1.036   3.455   9.618  0.0241 -0.2204 -0.1104
  808MPD2    C511952   0.980   3.328   9.639 -0.6572 -0.8647  0.1898
  808MPD2     H11953   0.827   3.631   9.801  1.8833  1.6642 -1.5759
  808MPD2    H111954   1.114   3.466   9.543  2.0145  3.3311  2.5017
  808MPD2    H211955   0.868   3.206   9.771  2.1012 -1.4575 -0.2426
  808MPD2    H311956   1.017   3.245   9.580 -0.2471 -0.0592 -0.6801
  808MPD2     N11957   1.029   3.694   9.645 -0.2173 -0.4556 -0.0964
  808MPD2    H511958   1.114   3.698   9.590 -0.5500  1.2822 -0.4651
  808MPD2    N111959   0.723   3.400   9.887 -0.5973  0.2544 -0.2432
  808MPD2    H711960   0.698   3.489   9.928  0.2892  0.4728 -0.1658
  809MPD2     C11961   1.380   4.086   8.906  0.6319  0.2219 -0.1528
  809MPD2    C111962   1.452   4.147   9.010 -0.0299  0.6462 -0.4307
  809MPD2    C211963   1.427   4.131   9.148 -0.7247  0.3639  0.3588
  809MPD2    C311964   1.318   4.050   9.178 -0.3577  0.4239 -0.7251
  809MPD2    C411965   1.243   4.001   9.074 -0.3778 -0.0551  0.0875
  809MPD2    C511966   1.262   4.023   8.943  0.0940  0.0730  0.1374
  809MPD2     H11967   1.485   4.181   9.224 -0.8565  1.2036 -0.0932
  809MPD2    H111968   1.176   3.918   9.094  0.2779 -1.0023 -1.6445
  809MPD2    H211969   1.411   4.099   8.803 -2.4435  0.5512 -1.0391
  809MPD2    H311970   1.204   3.978   8.863 -0.4636 -0.7756  1.0181
  809MPD2     N11971   1.268   4.014   9.306 -0.7496  0.1575 -0.1376
  809MPD2    H511972   1.177   3.969   9.313 -1.9937  2.7011  0.2833
  809MPD2    N111973   1.566   4.218   8.983  0.1493  0.4383 -0.6133
  809MPD2    H711974   1.613   4.267   9.059 -1.0049 -0.2358  0.5359
  810MPD2     C11975   0.427   3.532  10.788  0.6092 -0.7842  0.5312
  810MPD2    C111976   0.356   3.504  10.674  0.5670  0.2277 -0.3254
  810MPD2    C211977   0.346   3.601  10.581  0.4364 -0.0059 -0.3804
  810MPD2    C311978   0.416   3.719  10.594 -1.3087  0.0612 -0.0035
  810MPD2    C411979   0.495   3.737  10.701 -0.2302  0.1259  0.1740
  810MPD2    C511980   0.501   3.646  10.800 -0.1701  0.2622  0.1204
  810MPD2     H11981   0.281   3.568  10.501  0.0711 -1.7003  0.6116
  810MPD2    H111982   0.539   3.835  10.712 -0.8289  0.4358 -0.2086
  810MPD2    H211983   0.430   3.462  10.872 -2.7765 -1.0860  0.3970
  810MPD2    H311984   0.561   3.658  10.889 -1.3671  2.5586  0.6149
  810MPD2     N11985   0.404   3.821  10.495  0.0013  0.0005 -0.3141
  810MPD2    H511986   0.469   3.899  10.498 -0.0654 -0.0220  1.4853
  810MPD2    N111987   0.278   3.386  10.661 -0.4860  0.6867  0.5574
  810MPD2    H711988   0.215   3.390  10.581 -0.9680 -1.1231  0.8382
  811MPD2     C11989   4.481   2.894  10.218  0.5549 -0.7469  0.2686
  811MPD2    C111990   4.546   3.008  10.258 -0.9787  0.3603  0.0507
  811MPD2    C211991   4.543   3.117  10.173  0.2834 -0.0466  0.1212
  811MPD2    C311992   4.492   3.107  10.044  0.7107  0.1001  0.4272
  811MPD2    C411993   4.430   2.988  10.008 -0.0167 -0.0827  0.2120
  811MPD2    C511994   4.420   2.890  10.094  0.3250  0.1131  0.0286
  811MPD2     H11995   4.590   3.212  10.196  1.3205 -0.0841 -1.8729
  811MPD2    H111996   4.393   2.967   9.909 -0.2052 -1.5865  0.6010
  811MPD2    H211997   4.488   2.801  10.273  1.2856  0.4519  2.1901
  811MPD2    H311998   4.382   2.794  10.064 -0.2665  0.0445  1.0143
  811MPD2     N11999   4.506   3.214   9.950 -0.5374 -0.6804 -0.3676
  811MPD2    H512000   4.562   3.295   9.972 -0.4118 -0.5233 -1.2518
  811MPD2    N112001   4.617   2.999  10.379  0.1445 -0.0463  0.3402
  811MPD2    H712002   4.614   2.915  10.435 -0.4230 -0.8109 -0.8390
  812MPD2     C12003   4.092   3.008  11.864  0.6810 -0.1227 -0.3171
  812MPD2    C112004   4.060   3.101  11.956 -0.5073 -0.0187  0.2379
  812MPD2    C212005   4.025   3.057  12.084 -0.0841 -0.8250  0.4371
  812MPD2    C312006   4.030   2.927  12.121 -0.3719  0.6660 -0.0342
  812MPD2    C412007   4.036   2.834  12.022  0.2188  0.2935 -0.4097
  812MPD2    C512008   4.066   2.879  11.893 -0.0470 -0.2667 -0.2892
  812MPD2     H12009   3.996   3.131  12.158 -2.1196 -0.4205 -0.7934
  812MPD2    H112010   4.020   2.728  12.038 -0.0280  0.1172 -1.7991
  812MPD2    H212011   4.150   3.025  11.774 -1.0496 -0.4451 -1.4897
  812MPD2    H312012   4.079   2.805  11.815 -0.1234  0.0421 -0.5935
  812MPD2     N12013   4.022   2.897  12.259 -0.5576  1.1812  0.2384
  812MPD2    H512014   4.019   2.980  12.318 -0.4705  0.3680  1.4029
  812MPD2    N112015   4.075   3.239  11.922 -0.0028 -0.9516 -0.5186
  812MPD2    H712016   4.100   3.256  11.825  0.7827  0.9154 -0.0032
  813MPD2     C12017   3.640   0.129  12.801 -0.1907  0.2504 -0.1305
  813MPD2    C112018   3.614   0.262  12.826  0.2011 -0.0676 -0.0380
  813MPD2    C212019   3.529   0.299  12.922 -0.0268  0.1621 -0.3046
  813MPD2    C312020   3.477   0.207  13.011 -0.7535  0.4618 -0.2822
  813MPD2    C412021   3.504   0.077  12.993 -0.5425  0.1029  1.0837
  813MPD2    C512022   3.584   0.035  12.886 -0.4189  0.2254 -0.2821
  813MPD2     H12023   3.497   0.400  12.943 -0.5942 -0.2611  0.8451
  813MPD2    H112024   3.450   4.735  13.044 -1.2350  0.2618  0.6006
  813MPD2    H212025   3.711   0.102  12.723 -1.0292  1.7772 -1.4216
  813MPD2    H312026   3.597   4.666  12.866  2.5913  0.5761 -0.0955
  813MPD2     N12027   3.405   0.267  13.123 -0.3939  0.1185 -0.0066
  813MPD2    H512028   3.402   0.367  13.137 -3.3150 -0.1239  0.9948
  813MPD2    N112029   3.682   0.369  12.766  0.2453  0.4041 -0.5006
  813MPD2    H712030   3.665   0.467  12.786  1.7311  0.1306  2.0704
  814MPD2     C12031   3.836   1.284  12.426 -0.2571  0.2784  0.2719
  814MPD2    C112032   3.770   1.383  12.353 -0.4270  0.6869 -0.4651
  814MPD2    C212033   3.791   1.514  12.380  0.5154  0.3309  0.1913
  814MPD2    C312034   3.869   1.551  12.494 -0.1228  0.4547 -0.6422
  814MPD2    C412035   3.902   1.453  12.585  0.3382  0.0322  0.2914
  814MPD2    C512036   3.882   1.324  12.553 -0.1273  0.4546  0.7429
  814MPD2     H12037   3.749   1.598  12.326 -1.5186  0.2507  1.6386
  814MPD2    H112038   3.945   1.476  12.682 -0.6437  0.1198  0.7134
  814MPD2    H212039   3.845   1.178  12.407 -1.4432  0.4777 -1.4146
  814MPD2    H312040   3.926   1.252  12.622 -1.1854 -0.3488  0.5807
  814MPD2     N12041   3.888   1.691  12.521 -0.5371 -0.3599 -0.0257
  814MPD2    H512042   3.847   1.755  12.453 -0.4842 -2.7870 -2.3573
  814MPD2    N112043   3.714   1.346  12.229 -0.0787  0.1885 -0.5933
  814MPD2    H712044   3.664   1.416  12.176 -0.7977 -1.3165 -1.9312
  815MPD2     C12045   4.485   0.198  11.820  0.1245 -0.4910  0.6368
  815MPD2    C112046   4.361   0.181  11.760 -0.8103  0.5366 -0.3715
  815MPD2    C212047   4.249   0.198  11.836 -0.4729  0.5400  0.2387
  815MPD2    C312048   4.265   0.240  11.964 -0.3437 -0.1346  0.0621
  815MPD2    C412049   4.391   0.268  12.017 -0.2902 -0.9364  0.4452
  815MPD2    C512050   4.501   0.239  11.948  0.1612  0.2006 -1.1297
  815MPD2     H12051   4.150   0.183  11.794  0.2324 -0.6599 -1.0292
  815MPD2    H112052   4.409   0.312  12.115  0.6711 -1.2792  0.4219
  815MPD2    H212053   4.579   0.190  11.766 -0.1538  1.5978 -0.1888
  815MPD2    H312054   4.601   0.263  11.983 -0.1385 -0.4047  0.1578
  815MPD2     N12055   4.142   0.266  12.040 -0.0088 -0.2428  0.7114
  815MPD2    H512056   4.053   0.244  11.996 -0.1397 -0.7675  1.2522
  815MPD2    N112057   4.359   0.122  11.630 -0.0725  0.2880  0.8082
  815MPD2    H712058   4.443   0.110  11.575 -1.7180 -1.2318 -1.3741
  816MPD2     C12059   4.503   3.791   0.029 -0.3308  0.0516  0.3181
  816MPD2    C112060   4.408   3.822  17.680  0.3953  1.3845  0.3633
  816MPD2    C212061   4.418   3.764  17.555  0.1077 -0.5519  0.3873
  816MPD2    C312062   4.519   3.670  17.528  0.2675 -0.7054  0.2432
  816MPD2    C412063   4.599   3.626  17.632  0.0758  0.6195  0.1864
  816MPD2    C512064   4.586   3.687   0.007  0.0944 -0.0781  0.0280
  816MPD2     H12065   4.347   3.791  17.478  0.7518  0.4987  0.1593
  816MPD2    H112066   4.665   3.541  17.625 -2.4176 -1.1422 -1.7129
  816MPD2    H212067   4.509   3.838   0.127 -2.5990 -1.1602  1.0298
  816MPD2    H312068   4.643   3.658   0.095 -0.6497 -3.4297 -0.6039
  816MPD2     N12069   4.528   3.632  17.395  0.4994 -0.7877  0.0330
  816MPD2    H512070   4.464   3.674  17.329  2.3015 -1.7995 -2.3803
  816MPD2    N112071   4.321   3.926  17.713 -0.3462 -0.4958 -0.3693
  816MPD2    H712072   4.347   3.981   0.050 -0.1977 -1.1465  0.0231
  817MPD2     C12073   4.537   1.742  10.546 -0.2622  0.2159 -0.6254
  817MPD2    C112074   4.428   1.660  10.572 -0.2202 -0.3602  0.6828
  817MPD2    C212075   4.342   1.628  10.471 -0.6697  0.6469 -1.1158
  817MPD2    C312076   4.356   1.664  10.344 -0.8209 -1.5347  0.1732
  817MPD2    C412077   4.456   1.753  10.311 -0.1010  0.6667  0.1487
  817MPD2    C512078   4.544   1.784  10.416  0.6667 -0.2269  0.0171
  817MPD2     H12079   4.276   1.545  10.494  1.5715  0.1593  3.4797
  817MPD2    H112080   4.473   1.791  10.211 -1.6095 -1.5743 -0.9697
  817MPD2    H212081   4.614   1.764  10.620 -1.2321 -2.7145  1.2381
  817MPD2    H312082   4.635   1.838  10.394  0.8865 -1.0404 -1.0528
  817MPD2     N12083   4.253   1.627  10.258 -0.7679  0.3348  0.1950
  817MPD2    H512084   4.185   1.561  10.294  0.8539 -2.8577 -2.6589
  817MPD2    N112085   4.397   1.606  10.701 -0.1245  0.6859 -0.0503
  817MPD2    H712086   4.310   1.556  10.711 -0.0565  0.4141 -0.8543
  818MPD2     C12087   2.947   1.285  10.171  0.4650 -0.4580 -0.6308
  818MPD2    C112088   2.914   1.193  10.262  0.3211 -0.1564  0.0379
  818MPD2    C212089   2.953   1.056  10.246 -0.1561  0.6537  0.5771
  818MPD2    C312090   3.020   1.015  10.139  0.1171 -0.6094 -1.0822
  818MPD2    C412091   3.049   1.110  10.042  0.4220  0.1121  0.4502
  818MPD2    C512092   3.015   1.246  10.059  0.0618  0.3468  0.0625
  818MPD2     H12093   2.954   0.985  10.327 -1.1867  1.7431  1.5369
  818MPD2    H112094   3.107   1.076   9.956  1.3664  2.6784  0.0653
  818MPD2    H212095   2.934   1.388  10.203  1.0109 -0.6303  0.1502
  818MPD2    H312096   3.040   1.319   9.984 -1.4345  0.2509 -0.5385
  818MPD2     N12097   3.046   0.879  10.112  0.0820  0.1427 -0.0978
  818MPD2    H512098   3.095   0.875  10.024  2.0023  0.0537  0.9710
  818MPD2    N112099   2.851   1.221  10.388  0.1043  0.0234 -1.0891
  818MPD2    H712100   2.843   1.156  10.466  2.3049 -0.6344 -1.3946
  819MPD2     C12101   0.861   2.233  15.887 -0.7421  0.3921  0.1119
  819MPD2    C112102   0.915   2.151  15.790  0.5222 -0.2129 -0.4769
  819MPD2    C212103   1.056   2.150  15.772 -0.1056  0.5978  0.7643
  819MPD2    C312104   1.144   2.188  15.870 -0.4812  1.0958 -0.1431
  819MPD2    C412105   1.084   2.258  15.971  0.2494 -0.1716 -0.5322
  819MPD2    C512106   0.945   2.282  15.977  0.1244 -0.0724 -0.3470
  819MPD2     H12107   1.091   2.114  15.676 -1.3222 -0.4660  0.7211
  819MPD2    H112108   1.138   2.289  16.059 -0.0171 -1.3894  0.0612
  819MPD2    H212109   0.760   2.270  15.890 -0.2377  1.5525  2.7059
  819MPD2    H312110   0.906   2.336  16.062 -4.0491 -1.7128 -1.2516
  819MPD2     N12111   1.284   2.174  15.869  0.1855  0.8225  0.3183
  819MPD2    H512112   1.314   2.111  15.795 -0.3302  1.5619 -0.5188
  819MPD2    N112113   0.822   2.075  15.716 -0.1481 -0.0722  0.0327
  819MPD2    H712114   0.724   2.096  15.733 -0.3111 -0.2915 -0.6252
  820MPD2     C12115   0.051   2.021  15.106 -0.3533  0.1837 -0.0428
  820MPD2    C112116   0.102   2.103  15.203 -0.5392  0.3774 -0.6048
  820MPD2    C212117   0.196   2.043  15.284 -0.0888  0.3175  0.0811
  820MPD2    C312118   0.254   1.919  15.258  0.4559 -0.2955 -0.1827
  820MPD2    C412119   0.208   1.843  15.150 -0.2624  0.7679 -0.4891
  820MPD2    C512120   0.096   1.893  15.082 -0.0242 -0.4683  0.5114
  820MPD2     H12121   0.216   2.088  15.380 -1.4125  1.2005 -0.0477
  820MPD2    H112122   0.236   1.743  15.119 -0.6452  0.5993 -0.2987
  820MPD2    H212123   4.711   2.053  15.036 -0.2222  2.7047  0.9914
  820MPD2    H312124   0.060   1.826  15.005 -3.0559 -0.4304  1.8505
  820MPD2     N12125   0.361   1.868  15.334 -0.6115  0.4178  0.0450
  820MPD2    H512126   0.395   1.779  15.300  1.9469  0.7316  1.8246
  820MPD2    N112127   0.062   2.240  15.225 -0.7424  0.3452 -0.1707
  820MPD2    H712128   4.713   2.260  15.175 -0.4400  1.6021 -0.1768
  821MPD2     C12129   1.089   3.649  13.456 -0.0800 -0.4373 -0.0703
  821MPD2    C112130   1.192   3.708  13.525  0.1533  0.1344 -0.0471
  821MPD2    C212131   1.279   3.792  13.457 -0.1207 -0.3730  0.6026
  821MPD2    C312132   1.267   3.805  13.318  0.6951  0.0717  0.0056
  821MPD2    C412133   1.171   3.738  13.251  0.5370 -0.3912  0.2782
  821MPD2    C512134   1.082   3.661  13.321 -0.0597 -0.2960 -0.3854
  821MPD2     H12135   1.361   3.837  13.511 -0.3479 -0.6556  1.1811
  821MPD2    H112136   1.154   3.746  13.144 -0.8629  4.0674  0.8535
  821MPD2    H212137   1.014   3.583  13.499  0.4847 -0.7721  0.3928
  821MPD2    H312138   1.010   3.598  13.271 -1.8487  1.7837 -0.4215
  821MPD2     N12139   1.339   3.911  13.247  0.0916 -0.2231  0.4258
  821MPD2    H512140   1.337   3.915  13.146 -0.4983 -0.6650  0.4194
  821MPD2    N112141   1.215   3.694  13.667  0.5925  0.0152  0.5779
  821MPD2    H712142   1.293   3.749  13.702  0.5315  1.0610 -0.9437
  822MPD2     C12143   1.938   3.708  15.674  0.0809 -0.0380  0.4818
  822MPD2    C112144   1.893   3.665  15.798  0.1909 -0.4839 -0.2402
  822MPD2    C212145   1.809   3.744  15.866 -0.3388 -0.6965 -0.5019
  822MPD2    C312146   1.769   3.868  15.819  0.6500  0.2586 -0.0698
  822MPD2    C412147   1.810   3.903  15.693  0.5024 -0.5550  0.1272
  822MPD2    C512148   1.899   3.825  15.620  0.3070 -0.3688  0.2847
  822MPD2     H12149   1.773   3.713  15.964 -1.2300 -2.6137 -1.4412
  822MPD2    H112150   1.788   4.000  15.649 -2.1354 -1.1389  0.1661
  822MPD2    H212151   2.009   3.644  15.622 -0.4873 -0.1390 -0.1742
  822MPD2    H312152   1.925   3.859  15.521  0.9058  1.1684  0.9662
  822MPD2     N12153   1.711   3.956  15.908  0.5925 -0.3877 -0.1900
  822MPD2    H512154   1.670   3.916  15.992  0.5391 -1.8598 -0.9239
  822MPD2    N112155   1.937   3.548  15.862  0.1733  0.0196  0.1749
  822MPD2    H712156   1.907   3.526  15.957 -1.8164 -1.1618 -0.7311
  823MPD2     C12157   1.407   4.041  16.665  0.8042  0.1778 -0.5162
  823MPD2    C112158   1.459   3.963  16.559 -0.1984 -0.5231 -0.1543
  823MPD2    C212159   1.539   3.847  16.589  0.3743  0.3521  0.6486
  823MPD2    C312160   1.540   3.788  16.715  0.0381 -0.0227  0.9885
  823MPD2    C412161   1.475   3.865  16.816 -0.0782 -0.0422  1.0228
  823MPD2    C512162   1.416   3.987  16.791 -0.0818 -0.1215  0.1307
  823MPD2     H12163   1.585   3.800  16.503 -0.2465  1.3352 -0.2214
  823MPD2    H112164   1.478   3.835  16.920 -1.5715  0.1394  1.1198
  823MPD2    H212165   1.369   4.141  16.649  3.1417  1.2571  0.5990
  823MPD2    H312166   1.366   4.036  16.874 -3.1027  1.5490 -2.7275
  823MPD2     N12167   1.610   3.672  16.750 -0.4518  0.2613  0.2936
  823MPD2    H512168   1.586   3.635  16.841 -1.1316  1.7331  0.7114
  823MPD2    N112169   1.451   4.031  16.433  0.0784 -0.8328  0.0759
  823MPD2    H712170   1.426   4.129  16.439 -1.9265 -1.3785  0.8315
  824MPD2     C12171   2.329   2.755  16.131 -0.1315 -1.1399 -0.2084
  824MPD2    C112172   2.355   2.853  16.044 -0.3745 -0.0150  0.0739
  824MPD2    C212173   2.471   2.856  15.970 -0.5505 -0.2128 -1.0585
  824MPD2    C312174   2.554   2.745  15.971  0.3465 -0.8812 -0.1532
  824MPD2    C412175   2.527   2.645  16.063  0.2511  0.6321  0.6283
  824MPD2    C512176   2.418   2.649  16.145  0.0213 -0.1375  0.4294
  824MPD2     H12177   2.495   2.945  15.913  0.7202 -1.4778 -2.4765
  824MPD2    H112178   2.593   2.561  16.083  0.3464  0.4270 -0.5328
  824MPD2    H212179   2.246   2.758  16.201 -0.3486 -0.8803 -0.4741
  824MPD2    H312180   2.397   2.573  16.219 -2.1191  2.2329  2.2787
  824MPD2     N12181   2.678   2.750  15.900  0.5706 -0.0189 -0.1139
  824MPD2    H512182   2.706   2.838  15.857  3.5499 -1.5128 -1.1967
  824MPD2    N112183   2.268   2.961  16.046  0.4068 -0.0590 -0.4779
  824MPD2    H712184   2.210   2.963  16.129 -0.8942 -3.0124 -1.3277
  825MPD2     C12185   3.118   3.033  15.295  0.3728  0.2487 -0.3505
  825MPD2    C112186   3.091   3.059  15.424 -0.9543 -0.4813  0.2031
  825MPD2    C212187   3.082   3.192  15.455 -0.8199 -0.4519 -0.5375
  825MPD2    C312188   3.078   3.299  15.371  0.5528  0.9477  0.1076
  825MPD2    C412189   3.091   3.262  15.240  0.1744  0.1487  0.0818
  825MPD2    C512190   3.113   3.131  15.203 -0.1326  0.0768  0.3993
  825MPD2     H12191   3.068   3.209  15.561  0.8349 -0.4091 -0.3198
  825MPD2    H112192   3.079   3.335  15.160  1.7117  0.7658  0.4147
  825MPD2    H212193   3.127   2.930  15.262  3.0281  0.8709 -1.6115
  825MPD2    H312194   3.132   3.114  15.097  0.4706 -0.3921  0.5820
  825MPD2     N12195   3.072   3.438  15.403 -0.3732  0.2921  0.4892
  825MPD2    H512196   3.062   3.500  15.323 -0.4401  1.6044  1.5186
  825MPD2    N112197   3.082   2.953  15.513 -0.2687 -0.1169  0.5092
  825MPD2    H712198   3.111   2.863  15.477 -1.9515 -1.5638  2.7258
  826MPD2     C12199   2.131   3.070  13.721 -0.3475  0.3955  0.2988
  826MPD2    C112200   2.234   3.152  13.700  0.0630  0.3150 -0.1370
  826MPD2    C212201   2.227   3.291  13.742  0.0599  0.0984  0.1854
  826MPD2    C312202   2.123   3.335  13.824 -0.3931 -0.1568 -0.0392
  826MPD2    C412203   2.018   3.253  13.842 -0.2517  0.0975 -0.4549
  826MPD2    C512204   2.026   3.125  13.792  0.7485 -0.4591  0.2888
  826MPD2     H12205   2.309   3.359  13.722  0.4690 -0.8908 -1.5086
  826MPD2    H112206   1.925   3.286  13.887  0.4656  1.8121 -0.2377
  826MPD2    H212207   2.134   2.966  13.693  0.5041  0.5862 -0.3221
  826MPD2    H312208   1.941   3.059  13.808 -0.1399  0.5080 -0.4030
  826MPD2     N12209   2.127   3.462  13.890  0.3456  0.0516  0.2479
  826MPD2    H512210   2.052   3.476  13.957 -0.2981 -2.9804  0.1876
  826MPD2    N112211   2.347   3.089  13.636  0.7088 -0.3653  0.3758
  826MPD2    H712212   2.337   2.989  13.623  1.3880 -0.3164 -0.5799
  827MPD2     C12213   3.325   0.108  10.059 -0.1881  0.2762  0.4820
  827MPD2    C112214   3.318   4.708  10.084  0.4854 -0.2113  0.5792
  827MPD2    C212215   3.238   4.635   9.989 -0.1902  0.0861 -0.0189
  827MPD2    C312216   3.175   4.699   9.888  0.6808 -1.1390  0.6990
  827MPD2    C412217   3.187   0.097   9.874 -0.4140 -0.4281  0.1133
  827MPD2    C512218   3.247   0.173   9.969 -0.4253 -0.2217 -0.4594
  827MPD2     H12219   3.238   4.527   9.997  2.3646  0.0932 -0.0423
  827MPD2    H112220   3.134   0.153   9.797  2.4765  2.1033 -0.0123
  827MPD2    H212221   3.391   0.170  10.118  2.2200 -0.0902 -1.8141
  827MPD2    H312222   3.265   0.279   9.959 -0.9957 -0.0649  0.1936
  827MPD2     N12223   3.099   4.619   9.797 -0.2861 -0.2826  0.7144
  827MPD2    H512224   3.092   4.519   9.811  1.2288 -0.6959 -1.3930
  827MPD2    N112225   3.393   4.648  10.185 -0.2343 -0.8612 -0.1628
  827MPD2    H712226   3.460   4.704  10.238 -0.4787 -1.1292  0.4269
  828MPD2     C12227   1.543   3.981  12.309  0.6148  0.2169 -0.0013
  828MPD2    C112228   1.469   4.075  12.242 -0.2332 -1.1634  0.2282
  828MPD2    C212229   1.481   4.085  12.105 -0.0369 -0.0796  0.3794
  828MPD2    C312230   1.587   4.021  12.043  0.1943  0.2091  0.9675
  828MPD2    C412231   1.675   3.947  12.116  0.5337  0.3021 -0.2785
  828MPD2    C512232   1.638   3.915  12.244 -0.1262  0.7077  0.5291
  828MPD2     H12233   1.410   4.144  12.050  0.9112  0.4443 -0.2784
  828MPD2    H112234   1.763   3.898  12.077  0.4416  0.2953 -0.4773
  828MPD2    H212235   1.539   3.961  12.415  1.2720  0.0038 -0.0119
  828MPD2    H312236   1.684   3.835  12.301 -0.2257 -1.2176 -2.1017
  828MPD2     N12237   1.613   4.019  11.905  0.0425  0.2472 -0.3175
  828MPD2    H512238   1.685   3.955  11.875  1.4275  0.9630  1.4866
  828MPD2    N112239   1.370   4.151  12.301 -0.2631 -0.0718  1.0021
  828MPD2    H712240   1.312   4.215  12.248  0.9607  0.1919 -0.0047
  829MPD2     C12241   0.868   4.650  11.857  0.3897  0.4144 -0.3196
  829MPD2    C112242   0.796   4.654  11.973 -0.6022  0.8345  0.9810
  829MPD2    C212243   0.841   4.589  12.079 -0.1908  0.4292  0.1248
  829MPD2    C312244   0.953   4.504  12.074 -1.2203 -0.7061 -0.1186
  829MPD2    C412245   1.028   4.501  11.952  0.7600  0.4477 -0.2538
  829MPD2    C512246   0.980   4.573  11.846 -0.4494 -0.3271  0.2151
  829MPD2     H12247   0.783   4.589  12.170 -0.3432 -1.0454  0.0276
  829MPD2    H112248   1.117   4.441  11.940  1.2845  1.1613  0.0904
  829MPD2    H212249   0.830   4.701  11.769  0.8529  0.9401 -0.2190
  829MPD2    H312250   1.037   4.572  11.754  2.0635 -1.3854  1.7870
  829MPD2     N12251   1.004   4.429  12.180  0.0756  0.2186  0.0233
  829MPD2    H512252   1.076   4.365  12.148  1.9556  2.2403  0.1829
  829MPD2    N112253   0.671   4.719  11.972 -0.1501 -0.8186 -0.2487
  829MPD2    H712254   0.637   0.015  11.882  0.5059 -0.6361 -0.4306
  830MPD2     C12255   1.907   1.856  15.471  0.0725 -0.4759 -0.4102
  830MPD2    C112256   1.808   1.949  15.479  0.1162  0.1428 -0.2333
  830MPD2    C212257   1.736   1.975  15.363  0.1954 -0.5518  0.8898
  830MPD2    C312258   1.765   1.910  15.245 -0.3291 -0.2502 -0.0488
  830MPD2    C412259   1.877   1.830  15.235 -0.0284  0.0317  0.0832
  830MPD2    C512260   1.946   1.813  15.349 -0.5765 -0.3007  0.0709
  830MPD2     H12261   1.657   2.048  15.366  1.3149  0.6395  1.5565
  830MPD2    H112262   1.901   1.782  15.141 -1.1605 -0.6760  0.1637
  830MPD2    H212263   1.962   1.814  15.554 -1.7097 -0.8593  0.5516
  830MPD2    H312264   2.023   1.738  15.345  0.3781  0.6309  1.0615
  830MPD2     N12265   1.705   1.952  15.123  0.2059 -0.6309 -0.3078
  830MPD2    H512266   1.740   1.921  15.033 -1.4327  1.9464 -1.8720
  830MPD2    N112267   1.783   2.008  15.605 -0.0763 -0.0033  0.6177
  830MPD2    H712268   1.833   1.975  15.687 -0.9529 -0.5855  0.9199
  831MPD2     C12269   2.004   4.009  16.183  0.1431 -0.0121  0.2134
  831MPD2    C112270   2.028   3.888  16.124 -0.8118  1.0404 -0.5042
  831MPD2    C212271   1.949   3.781  16.156 -0.2591 -0.0189 -0.4638
  831MPD2    C312272   1.841   3.797  16.241  0.6443 -0.2814 -0.0005
  831MPD2    C412273   1.821   3.913  16.313 -0.4287 -0.2798  0.1105
  831MPD2    C512274   1.904   4.016  16.276  0.3116 -0.3805  0.0341
  831MPD2     H12275   1.970   3.685  16.109  0.2663  0.2237 -0.7264
  831MPD2    H112276   1.746   3.923  16.391  0.2393  0.5406  0.6379
  831MPD2    H212277   2.063   4.098  16.169  1.1679 -0.6041  0.7481
  831MPD2    H312278   1.897   4.110  16.329  2.9862  0.1679 -0.5759
  831MPD2     N12279   1.753   3.696  16.271 -0.1464  0.2628  0.0776
  831MPD2    H512280   1.683   3.730  16.336  2.4838  1.9981  1.9809
  831MPD2    N112281   2.127   3.887  16.030  0.3565 -0.0690 -0.4766
  831MPD2    H712282   2.165   3.973  15.992  0.5232  1.0006  2.1376
  832MPD2     C12283   0.229   4.698  17.644 -0.8093 -0.2731 -0.1263
  832MPD2    C112284   0.263   0.032  17.533  0.8625  0.3441 -0.7423
  832MPD2    C212285   0.155   0.080  17.454  0.0708  0.1481 -0.0071
  832MPD2    C312286   0.027   0.053  17.489 -0.3345  0.6250  0.3629
  832MPD2    C412287   0.003   4.711  17.599 -0.1640 -0.0146  0.7960
  832MPD2    C512288   0.104   4.669  17.675  0.1079  0.1367 -0.4582
  832MPD2     H12289   0.169   0.117  17.353  0.5759  1.6322  0.5958
  832MPD2    H112290   4.638   4.694  17.633 -0.5726  2.0623  0.6263
  832MPD2    H212291   0.304   4.660  17.713 -0.7827 -0.7411 -0.4135
  832MPD2    H312292   0.086   4.609   0.019 -0.3438  0.9376 -0.0047
  832MPD2     N12293   4.653   0.101  17.424  0.2022  0.5666  0.3179
  832MPD2    H512294   4.562   0.067  17.453  1.4709 -2.4137  0.7761
  832MPD2    N112295   0.394   0.074  17.504 -0.1023 -0.6286 -0.4553
  832MPD2    H712296   0.464   0.038  17.568  0.5233  1.5517  0.1077
  833MPD2     C12297   1.639   2.466  12.923 -0.8601  0.0705  0.5236
  833MPD2    C112298   1.652   2.522  12.802  0.1103  0.6884  0.1732
  833MPD2    C212299   1.765   2.489  12.724  0.0931 -0.5487 -0.9541
  833MPD2    C312300   1.865   2.403  12.778  0.3538 -0.1742  1.0363
  833MPD2    C412301   1.849   2.359  12.906  0.1916 -0.4653  0.2217
  833MPD2    C512302   1.739   2.395  12.981  0.6617  0.6244 -0.0480
  833MPD2     H12303   1.780   2.529  12.624 -3.7828  0.1980 -1.2325
  833MPD2    H112304   1.918   2.285  12.946  3.0005  1.5051 -1.0480
  833MPD2    H212305   1.551   2.487  12.983  0.1440 -1.0071  2.3823
  833MPD2    H312306   1.713   2.362  13.081 -1.0291  0.3462 -0.5803
  833MPD2     N12307   1.978   2.357  12.695  0.1784 -0.0440 -0.0202
  833MPD2    H512308   2.046   2.298  12.743  0.7602  1.7867  1.4035
  833MPD2    N112309   1.544   2.601  12.761  0.6043 -0.3220  0.1885
  833MPD2    H712310   1.468   2.615  12.827  0.6687  2.6655 -0.3806
  834MPD2     C12311   2.304   1.556  12.193  0.2514  0.2618  0.7873
  834MPD2    C112312   2.268   1.643  12.091  0.5593 -0.1396 -0.1052
  834MPD2    C212313   2.269   1.777  12.114  0.1542 -0.3392  0.7616
  834MPD2    C312314   2.269   1.823  12.240 -0.5572  0.3203 -0.4034
  834MPD2    C412315   2.294   1.737  12.344  0.2707 -0.0815  0.2379
  834MPD2    C512316   2.333   1.609  12.319  0.3662  0.3523  0.2053
  834MPD2     H12317   2.242   1.838  12.029 -2.6382 -2.0465  0.4219
  834MPD2    H112318   2.298   1.771  12.447 -2.3814 -1.7240  0.8911
  834MPD2    H212319   2.329   1.452  12.175 -1.5072  0.2696 -1.6582
  834MPD2    H312320   2.349   1.541  12.402 -1.2558 -0.0509  0.1870
  834MPD2     N12321   2.242   1.960  12.257  0.4462  1.0817  0.2542
  834MPD2    H512322   2.243   2.021  12.176 -1.6767 -0.3634 -0.8677
  834MPD2    N112323   2.251   1.587  11.964 -0.4265 -0.3804  0.2885
  834MPD2    H712324   2.239   1.486  11.971  1.4023 -0.6369 -0.2414
  835MPD2     C12325   2.459   4.681  10.729  0.2377 -0.1148 -0.2595
  835MPD2    C112326   2.365   4.699  10.825  0.1097 -0.2603 -0.1943
  835MPD2    C212327   2.397   4.664  10.954  0.1470  0.2981 -1.2163
  835MPD2    C312328   2.516   4.596  10.985  0.8799  0.5937 -0.1723
  835MPD2    C412329   2.606   4.573  10.880  0.2420 -0.0881  0.4200
  835MPD2    C512330   2.574   4.615  10.752 -0.9310 -0.3573  0.3434
  835MPD2     H12331   2.331   4.696  11.034  0.7817  1.1208 -1.0176
  835MPD2    H112332   2.697   4.515  10.892 -0.5343 -1.4351 -0.1140
  835MPD2    H212333   2.445   4.720  10.629 -2.4814  1.9009  0.9130
  835MPD2    H312334   2.637   4.601  10.665 -2.6846  1.2255 -1.1673
  835MPD2     N12335   2.554   4.554  11.109 -0.1074 -0.3702  0.5201
  835MPD2    H512336   2.648   4.519  11.124 -0.2757 -1.5774 -1.1684
  835MPD2    N112337   2.240   0.031  10.797  0.1203  0.8873 -0.3999
  835MPD2    H712338   2.176   0.027  10.875  0.1432  1.3641 -0.3534
  836MPD2     C12339   1.966   4.395  11.434 -0.3246  0.1024 -0.5004
  836MPD2    C112340   2.055   4.394  11.538  0.4514 -0.3410  0.4042
  836MPD2    C212341   2.008   4.359  11.666 -0.5489  0.1280 -0.3749
  836MPD2    C312342   1.870   4.353  11.684  0.4423 -0.2573 -0.0139
  836MPD2    C412343   1.784   4.368  11.579  0.7170  0.0783  0.5727
  836MPD2    C512344   1.831   4.384  11.451  0.0308 -0.6858 -0.1248
  836MPD2     H12345   2.068   4.373  11.755 -1.2659  0.4241  0.0598
  836MPD2    H112346   1.676   4.361  11.586  0.5542  0.6504 -1.3033
  836MPD2    H212347   2.000   4.427  11.336  1.0874 -2.1500 -0.7283
  836MPD2    H312348   1.762   4.410  11.372  2.3645 -0.0523 -1.9621
  836MPD2     N12349   1.805   4.348  11.803  0.7870 -0.1300 -0.3250
  836MPD2    H512350   1.704   4.342  11.800  0.8008  0.0501 -1.1794
  836MPD2    N112351   2.195   4.416  11.518 -0.2948 -0.0561 -0.0497
  836MPD2    H712352   2.224   4.430  11.422  0.0663 -1.2998 -0.1258
  837MPD2     C12353   0.237   3.757   9.774 -0.4358 -0.4369  0.0394
  837MPD2    C112354   0.108   3.800   9.740 -0.1675 -0.8311  0.2911
  837MPD2    C212355   0.078   3.931   9.713  0.0743 -0.2712  0.1055
  837MPD2    C312356   0.169   4.036   9.727  0.6015 -0.0901  0.8857
  837MPD2    C412357   0.290   3.997   9.778 -0.1162  0.0826  0.2288
  837MPD2    C512358   0.321   3.866   9.787 -0.1936  0.6839  0.6040
  837MPD2     H12359   4.714   3.953   9.678 -0.6933 -1.1262  1.7510
  837MPD2    H112360   0.372   4.068   9.786 -0.6562  0.7238  0.1224
  837MPD2    H212361   0.276   3.658   9.795  1.8180  0.4097 -0.1401
  837MPD2    H312362   0.420   3.839   9.822 -1.3571 -2.3092  1.5152
  837MPD2     N12363   0.131   4.174   9.711  0.5726  0.2612 -0.5686
  837MPD2    H512364   0.209   4.236   9.730 -0.1794  1.0535 -0.0519
  837MPD2    N112365   0.009   3.698   9.727 -0.0245 -0.2235  0.0387
  837MPD2    H712366   4.654   3.737   9.706  1.1727  2.7524  0.3998
  838MPD2     C12367   3.586   2.877  12.054  0.0190  0.3822 -0.0927
  838MPD2    C112368   3.577   2.755  11.996  0.4963  0.2872 -0.1585
  838MPD2    C212369   3.507   2.657  12.057  0.9037 -0.5406 -0.0349
  838MPD2    C312370   3.424   2.685  12.166 -0.2022  0.3967 -0.7272
  838MPD2    C412371   3.422   2.814  12.215  0.2280 -0.1162 -0.0666
  838MPD2    C512372   3.497   2.911  12.155 -0.1344 -0.6896 -0.6271
  838MPD2     H12373   3.516   2.556  12.019  1.1372 -0.5728  0.1086
  838MPD2    H112374   3.365   2.847  12.302  0.3300  3.8196 -1.4601
  838MPD2    H212375   3.645   2.961  12.018 -0.0896  0.5868  0.2022
  838MPD2    H312376   3.500   3.009  12.201 -0.3939 -1.2969  0.6870
  838MPD2     N12377   3.350   2.579  12.229  0.5441 -0.4619 -0.1508
  838MPD2    H512378   3.351   2.493  12.175 -3.2127  0.0430 -1.0282
  838MPD2    N112379   3.653   2.727  11.879 -0.2256  0.4167 -0.1656
  838MPD2    H712380   3.652   2.632  11.844 -1.4731 -0.1191  1.3175
  839MPD2     C12381   3.799   1.990  11.884 -0.8270 -0.2826 -0.0934
  839MPD2    C112382   3.778   2.014  11.749 -0.3321 -0.0194 -0.0829
  839MPD2    C212383   3.807   2.133  11.695  0.5657 -0.7243 -0.3940
  839MPD2    C312384   3.875   2.223  11.773  0.5085 -0.4507  0.7353
  839MPD2    C412385   3.909   2.192  11.903  0.3169  0.4658  0.4143
  839MPD2    C512386   3.863   2.081  11.962  0.6240 -0.7715 -0.5777
  839MPD2     H12387   3.768   2.158  11.596  0.6704 -0.0623 -0.2704
  839MPD2    H112388   3.973   2.254  11.965 -0.6107 -0.3041  2.1359
  839MPD2    H212389   3.752   1.902  11.928  1.2986 -1.0227  0.7157
  839MPD2    H312390   3.861   2.079  12.070  0.1645 -0.6803 -0.5860
  839MPD2     N12391   3.897   2.356  11.726  0.6890  0.1710  0.1434
  839MPD2    H512392   3.950   2.416  11.790 -1.3086  3.3456 -1.1631
  839MPD2    N112393   3.715   1.914  11.669 -0.3902  0.5183  0.0171
  839MPD2    H712394   3.720   1.931  11.569 -1.4655 -0.5417 -0.2169
  840MPD2     C12395   3.975   0.078  10.217 -0.3610  0.5910  0.5699
  840MPD2    C112396   3.922   0.058  10.343 -0.5247 -0.6961  0.3774
  840MPD2    C212397   3.956   0.138  10.449 -0.4941 -0.4521  0.4858
  840MPD2    C312398   4.034   0.251  10.419 -0.7698  0.1388  0.6540
  840MPD2    C412399   4.098   0.265  10.298 -0.0031  0.4636 -0.1993
  840MPD2    C512400   4.069   0.175  10.198  0.2924  0.1915 -0.2268
  840MPD2     H12401   3.906   0.132  10.546 -0.4868 -0.8679  0.4612
  840MPD2    H112402   4.167   0.346  10.279  2.2689 -1.8949 -2.0122
  840MPD2    H212403   3.942   0.012  10.137 -1.3690 -0.9680  2.2727
  840MPD2    H312404   4.098   0.192  10.095 -0.0450 -1.7434 -0.6349
  840MPD2     N12405   4.058   0.346  10.517  0.2937  0.1041  0.0320
  840MPD2    H512406   4.117   0.426  10.500 -0.7576  1.2140  1.5882
  840MPD2    N112407   3.828   4.690  10.346  0.7798 -0.5307  0.2407
  840MPD2    H712408   3.809   4.638  10.261 -0.7945  1.0764 -0.3963
  841MPD2     C12409   3.431   4.325  15.223  0.6454 -0.5527 -0.2054
  841MPD2    C112410   3.516   4.260  15.136  0.1706  0.2289  0.0599
  841MPD2    C212411   3.605   4.324  15.054 -0.3399  0.0997 -0.7818
  841MPD2    C312412   3.609   4.464  15.062 -0.0001  0.4703  0.1143
  841MPD2    C412413   3.525   4.525  15.139 -0.0545  0.2912  0.5873
  841MPD2    C512414   3.432   4.460  15.221  0.1691  0.0019  0.0849
  841MPD2     H12415   3.664   4.269  14.983  2.2185  2.6917 -0.6639
  841MPD2    H112416   3.530   4.633  15.149  1.9966  0.1323  1.3087
  841MPD2    H212417   3.383   4.279  15.308 -0.3960  0.5758 -0.1746
  841MPD2    H312418   3.368   4.511  15.291  1.3612  0.1341  1.0829
  841MPD2     N12419   3.705   4.529  14.982  0.0854  0.0024 -0.2241
  841MPD2    H512420   3.765   4.465  14.931  0.8130  0.8330 -0.4051
  841MPD2    N112421   3.525   4.122  15.119  0.3231  0.2650  0.1418
  841MPD2    H712422   3.598   4.100  15.052 -0.6407 -0.6624 -0.6144
  842MPD2     C12423   4.318   0.555  17.036 -0.2399  0.2836  0.1861
  842MPD2    C112424   4.228   0.469  16.981 -0.1535  0.3104  0.4342
  842MPD2    C212425   4.154   0.397  17.079 -0.2513  0.4530 -0.0036
  842MPD2    C312426   4.161   0.418  17.212 -0.3695 -0.5104  0.3300
  842MPD2    C412427   4.242   0.516  17.267 -0.3264  0.2212 -0.1315
  842MPD2    C512428   4.323   0.577  17.171  0.8071 -0.1199  0.0735
  842MPD2     H12429   4.104   0.309  17.040 -0.2033  0.9525 -1.1709
  842MPD2    H112430   4.245   0.546  17.371  0.5440 -1.6971  0.3927
  842MPD2    H212431   4.384   0.611  16.970 -0.4141  2.2521  1.6617
  842MPD2    H312432   4.400   0.649  17.197 -0.9995  1.7605  0.2365
  842MPD2     N12433   4.073   0.341  17.290 -0.5947 -0.8415 -0.5649
  842MPD2    H512434   4.005   0.285  17.240  0.0342 -1.1336 -1.1012
  842MPD2    N112435   4.209   0.470  16.837  0.4203 -0.3613 -0.0169
  842MPD2    H712436   4.255   0.538  16.778 -1.1874 -0.6960 -1.6840
  843MPD2     C12437   2.033   0.880   0.648  0.1924  0.2077 -0.5136
  843MPD2    C112438   1.940   0.957   0.585 -0.4396 -0.4399 -0.3700
  843MPD2    C212439   1.959   1.091   0.573  0.2587  0.4828  0.3848
  843MPD2    C312440   2.073   1.152   0.633  0.2681 -0.3737 -0.4242
  843MPD2    C412441   2.165   1.070   0.698  0.1585  0.0912 -0.8444
  843MPD2    C512442   2.142   0.937   0.707 -0.6198 -0.2897  0.2492
  843MPD2     H12443   1.878   1.157   0.544  1.2685  1.6182  0.1667
  843MPD2    H112444   2.263   1.106   0.728  0.1727 -1.3792  0.8260
  843MPD2    H212445   2.013   0.773   0.654  1.1489  0.0590  0.1702
  843MPD2    H312446   2.226   0.877   0.740  0.4756  0.4271 -1.2307
  843MPD2     N12447   2.099   1.294   0.618 -0.7138 -0.0236 -0.1625
  843MPD2    H512448   2.195   1.315   0.641 -0.6085 -3.6449  2.6927
  843MPD2    N112449   1.817   0.903   0.537 -1.2515 -0.0362 -0.1572
  843MPD2    H712450   1.804   0.808   0.571 -0.6357  0.1869  0.6972
  844MPD2     C12451   4.142   4.302  17.077  0.0474 -0.4558 -0.1788
  844MPD2    C112452   4.202   4.346  16.958  0.4275 -0.0164 -0.5018
  844MPD2    C212453   4.326   4.407  16.958  0.4373 -0.6716  0.2965
  844MPD2    C312454   4.387   4.438  17.070  0.6214 -0.2444 -0.0471
  844MPD2    C412455   4.322   4.415  17.189 -0.6878 -0.3040  0.2802
  844MPD2    C512456   4.207   4.346  17.191 -0.2576 -0.1102  0.2391
  844MPD2     H12457   4.376   4.444  16.869  1.7946 -2.0215  0.4917
  844MPD2    H112458   4.364   4.438  17.287 -0.2316  0.1862 -0.0345
  844MPD2    H212459   4.053   4.241  17.082 -0.6087  0.4840 -0.2984
  844MPD2    H312460   4.171   4.315  17.289  1.4877 -1.0386  0.5771
  844MPD2     N12461   4.516   4.493  17.068 -0.6662 -0.6635  0.2130
  844MPD2    H512462   4.573   4.492  16.984 -0.8989  0.0749  0.0444
  844MPD2    N112463   4.153   4.310  16.825 -0.2667 -0.5143 -0.4464
  844MPD2    H712464   4.218   4.328  16.749 -1.5145  0.3410 -1.3153
  845MPD2     C12465   0.315   0.607  16.943  0.2995 -0.4931 -0.1296
  845MPD2    C112466   0.378   0.544  17.055 -0.0228 -0.3067 -0.2820
  845MPD2    C212467   0.338   0.411  17.079 -0.2045 -0.0284 -0.8472
  845MPD2    C312468   0.251   0.342  17.000 -0.2377  0.9774  0.5448
  845MPD2    C412469   0.198   0.411  16.890  0.4924 -1.4477 -0.3219
  845MPD2    C512470   0.224   0.541  16.858 -0.3886 -0.3936  0.0489
  845MPD2     H12471   0.376   0.355  17.164  0.8596 -2.9417 -3.2605
  845MPD2    H112472   0.141   0.362  16.812  0.3318 -1.3548 -0.2635
  845MPD2    H212473   0.347   0.708  16.919  1.4100 -1.2212 -1.6907
  845MPD2    H312474   0.175   0.584  16.772 -1.5783  0.1437  0.9985
  845MPD2     N12475   0.225   0.208  17.035 -0.3746  0.9292 -0.3312
  845MPD2    H512476   0.273   0.183  17.121 -0.0187  1.3059 -0.4209
  845MPD2    N112477   0.471   0.618  17.137  0.2520  0.0973 -0.0892
  845MPD2    H712478   0.500   0.705  17.094  2.3908 -0.7436 -0.3540
  846MPD2     C12479   1.723   1.399  13.833 -0.3338 -0.3489 -0.1756
  846MPD2    C112480   1.592   1.446  13.831  0.1653 -0.6450 -0.3781
  846MPD2    C212481   1.525   1.460  13.952 -0.2027 -0.0512  0.6171
  846MPD2    C312482   1.589   1.435  14.071 -0.2037  0.0739  0.1790
  846MPD2    C412483   1.722   1.387  14.075  0.8488  0.0603  0.0329
  846MPD2    C512484   1.782   1.365  13.951  0.2049  0.1358  0.0598
  846MPD2     H12485   1.423   1.495  13.944  0.1478  0.3675 -2.0070
  846MPD2    H112486   1.771   1.354  14.166  0.5707 -0.3038  0.0540
  846MPD2    H212487   1.781   1.379  13.744  0.1556  0.3840 -0.0168
  846MPD2    H312488   1.886   1.335  13.948  0.1150 -0.0108 -1.5659
  846MPD2     N12489   1.516   1.465  14.188  0.3071 -0.8522 -0.0103
  846MPD2    H512490   1.421   1.496  14.173  0.3639 -0.4587  0.4351
  846MPD2    N112491   1.525   1.501  13.717  0.8498 -0.3551  0.4723
  846MPD2    H712492   1.433   1.541  13.729 -0.1590 -3.0520  1.6970
  847MPD2     C12493   1.323   2.061  14.441  0.1889 -0.1447 -0.0095
  847MPD2    C112494   1.437   2.102  14.378 -0.2476  0.5124  0.0430
  847MPD2    C212495   1.548   2.021  14.387 -0.1677  0.9835  0.3188
  847MPD2    C312496   1.546   1.908  14.467 -0.0067 -0.3512 -0.0617
  847MPD2    C412497   1.430   1.872  14.533 -0.9533  0.1665 -0.9013
  847MPD2    C512498   1.320   1.952  14.527  0.4769 -0.1642  0.2194
  847MPD2     H12499   1.640   2.048  14.336  0.5075  0.9612  1.5271
  847MPD2    H112500   1.415   1.784  14.593  3.1701  0.7371  0.9525
  847MPD2    H212501   1.229   2.115  14.431  0.8295  1.3947  2.2327
  847MPD2    H312502   1.229   1.927  14.580  0.3881 -0.8733 -0.2616
  847MPD2     N12503   1.666   1.838  14.478 -0.3816  0.8104  0.3933
  847MPD2    H512504   1.742   1.881  14.428  1.0543 -1.8461  0.2771
  847MPD2    N112505   1.447   2.223  14.311 -1.1527  0.5029 -0.4450
  847MPD2    H712506   1.534   2.224  14.259 -1.4729  1.1501 -0.9744
  848MPD2     C12507   4.450   0.302  16.622  1.0658  0.9032  0.6478
  848MPD2    C112508   4.513   0.374  16.724  0.4286  0.6366  0.4424
  848MPD2    C212509   4.597   0.482  16.686 -0.1442 -0.2190  0.1641
  848MPD2    C312510   4.607   0.531  16.549  0.4532 -0.1829  0.1389
  848MPD2    C412511   4.537   0.461  16.459  0.5380  0.1743  0.3946
  848MPD2    C512512   4.475   0.342  16.494 -0.2622  0.2193 -0.4488
  848MPD2     H12513   4.650   0.540  16.760 -0.2925 -1.0462  0.9171
  848MPD2    H112514   4.543   0.490  16.354 -0.4384  2.2742  0.9083
  848MPD2    H212515   4.380   0.222  16.640  0.6369  1.8113  3.0758
  848MPD2    H312516   4.423   0.281  16.422  1.5770 -3.7245  1.5487
  848MPD2     N12517   4.669   0.655  16.503  0.4201 -0.3594  0.4124
  848MPD2    H512518   4.670   0.672  16.402 -0.0118 -1.7154  0.1753
  848MPD2    N112519   4.526   0.319  16.853 -0.0647  1.2177  0.0620
  848MPD2    H712520   4.569   0.370  16.930  0.3286 -0.7296  1.1354
  849MPD2     C12521   3.994   0.216  14.299 -0.7647 -0.1862 -0.2364
  849MPD2    C112522   4.061   0.322  14.243 -0.0716 -0.3966  0.9667
  849MPD2    C212523   4.179   0.367  14.300 -0.1684  0.2724 -0.1749
  849MPD2    C312524   4.240   0.308  14.404  0.1300  0.7515  0.1586
  849MPD2    C412525   4.178   0.204  14.467 -0.4786  0.1082 -0.2811
  849MPD2    C512526   4.055   0.159  14.415 -0.2280 -0.2899 -0.1313
  849MPD2     H12527   4.222   0.458  14.261  1.8739 -1.2481 -1.4616
  849MPD2    H112528   4.221   0.160  14.556 -2.2655 -2.5175 -0.7100
  849MPD2    H212529   3.905   0.169  14.259 -0.5477 -1.2080  0.4716
  849MPD2    H312530   4.005   0.082  14.472  2.9087 -0.2887  2.5754
  849MPD2     N12531   4.354   0.366  14.461 -0.2109 -0.2842 -0.6462
  849MPD2    H512532   4.374   0.458  14.422 -2.7343  0.5964  0.1383
  849MPD2    N112533   4.014   0.394  14.131 -0.7670  0.4505  0.8760
  849MPD2    H712534   4.081   0.463  14.100 -2.4757  1.3202 -0.8247
  850MPD2     C12535   1.872   3.375  14.644 -0.0149 -0.0700  0.8229
  850MPD2    C112536   1.849   3.272  14.740 -0.3276  0.1915 -0.1189
  850MPD2    C212537   1.958   3.204  14.790 -0.2483  0.2465 -0.5449
  850MPD2    C312538   2.087   3.232  14.744 -0.0666  0.1108 -0.6325
  850MPD2    C412539   2.102   3.331  14.649  0.9443  0.3547  0.3409
  850MPD2    C512540   1.995   3.397  14.602  0.0095  0.3430  0.8402
  850MPD2     H12541   1.950   3.121  14.859 -0.9592  1.1986  0.5164
  850MPD2    H112542   2.199   3.369  14.617  0.0677  0.7219 -1.8487
  850MPD2    H212543   1.788   3.420  14.593 -0.1070 -0.9036  0.2275
  850MPD2    H312544   2.007   3.483  14.537  0.0156  0.1324  0.5629
  850MPD2     N12545   2.203   3.161  14.791 -0.2930 -0.5313 -1.2613
  850MPD2    H512546   2.295   3.184  14.756  0.5049 -2.1852 -0.2115
  850MPD2    N112547   1.726   3.217  14.763  0.2392  0.5311  0.5629
  850MPD2    H712548   1.726   3.123  14.803 -0.4280  0.6182  0.7560
  851MPD2     C12549   1.812   2.696  14.627 -0.2261  0.3132 -0.3937
  851MPD2    C112550   1.673   2.705  14.652  0.3895 -0.4930  0.2486
  851MPD2    C212551   1.603   2.589  14.683 -0.5055 -0.3843 -0.3284
  851MPD2    C312552   1.668   2.461  14.683 -0.4350 -0.1359  1.0841
  851MPD2    C412553   1.804   2.460  14.664 -0.5869  0.2541  0.1669
  851MPD2    C512554   1.874   2.571  14.628 -0.0276 -1.0096 -0.0903
  851MPD2     H12555   1.495   2.591  14.683 -0.4643  1.3817  2.4505
  851MPD2    H112556   1.855   2.365  14.657  0.3716  0.8250 -0.4634
  851MPD2    H212557   1.868   2.784  14.600  1.6840 -0.2159  1.8022
  851MPD2    H312558   1.981   2.565  14.609 -0.1428  3.3102 -2.0216
  851MPD2     N12559   1.589   2.349  14.695  0.0847  0.4770  0.7708
  851MPD2    H512560   1.490   2.370  14.702 -0.1628 -0.4722  0.1027
  851MPD2    N112561   1.611   2.831  14.661  0.2248 -0.1975 -0.1256
  851MPD2    H712562   1.664   2.910  14.625 -2.0917  1.6830  0.5580
  852MPD2     C12563   1.881   1.183  11.013 -0.0253 -0.0976 -0.1761
  852MPD2    C112564   1.872   1.320  11.020  0.3845 -0.2310 -0.8910
  852MPD2    C212565   1.888   1.389  10.900 -0.7189  0.5845 -0.5051
  852MPD2    C312566   1.915   1.326  10.781 -0.6063  0.2194 -0.2791
  852MPD2    C412567   1.918   1.194  10.771  0.6326  0.3854 -0.1699
  852MPD2    C512568   1.904   1.119  10.890 -0.0315 -0.0526  0.2036
  852MPD2     H12569   1.888   1.497  10.902  0.2284  0.6140 -1.9158
  852MPD2    H112570   1.938   1.152  10.673  0.1503 -1.8080  0.6682
  852MPD2    H212571   1.878   1.127  11.105  1.2043  2.6873  1.5536
  852MPD2    H312572   1.912   1.011  10.881  0.9076 -0.0337  0.8248
  852MPD2     N12573   1.929   1.413  10.669 -0.3608 -0.6824  0.1600
  852MPD2    H512574   1.913   1.511  10.688  1.3147 -0.3076 -0.3410
  852MPD2    N112575   1.858   1.384  11.142 -0.4590  0.2001 -0.0648
  852MPD2    H712576   1.859   1.485  11.133 -0.6095  0.3899  2.0055
  853MPD2     C12577   3.458   0.640  12.423 -0.7662  0.3335 -1.0533
  853MPD2    C112578   3.388   0.750  12.382  0.0556  0.2432  0.3413
  853MPD2    C212579   3.343   0.749  12.244 -0.9897  0.9856  0.0067
  853MPD2    C312580   3.333   0.630  12.177  0.5249 -0.1593 -0.2923
  853MPD2    C412581   3.408   0.521  12.216 -0.5255  0.0528 -0.0186
  853MPD2    C512582   3.465   0.529  12.342  0.8851  0.3879 -0.1496
  853MPD2     H12583   3.284   0.828  12.198  0.3744  0.3422 -2.8713
  853MPD2    H112584   3.407   0.425  12.166 -1.0816  1.3485 -2.4762
  853MPD2    H212585   3.486   0.629  12.527 -0.0994 -1.4766 -1.4312
  853MPD2    H312586   3.515   0.436  12.369 -1.2979  0.0894  2.9333
  853MPD2     N12587   3.264   0.620  12.052 -0.0954  0.0449 -0.1904
  853MPD2    H512588   3.280   0.546  11.985  2.1293  1.0367 -0.7455
  853MPD2    N112589   3.381   0.854  12.474 -0.4260 -0.0706  0.5093
  853MPD2    H712590   3.412   0.844  12.571  1.9948  0.0325 -0.2532
  854MPD2     C12591   0.326   0.708  12.738 -0.1072 -0.1238 -0.4781
  854MPD2    C112592   0.300   0.725  12.877 -0.2654 -0.2349 -0.9013
  854MPD2    C212593   0.398   0.685  12.971  0.6614 -0.8955 -0.1302
  854MPD2    C312594   0.517   0.628  12.923  0.5389  0.1803 -0.5232
  854MPD2    C412595   0.544   0.623  12.790 -0.1378  0.3991 -0.1056
  854MPD2    C512596   0.448   0.664  12.701 -0.8830 -0.2811 -0.5139
  854MPD2     H12597   0.376   0.688  13.077 -1.4134 -0.3085 -0.5784
  854MPD2    H112598   0.636   0.583  12.750 -1.0366 -0.8437 -0.9353
  854MPD2    H212599   0.246   0.720  12.667 -0.7219 -1.2910  0.0273
  854MPD2    H312600   0.479   0.657  12.598  0.0062  2.1145 -0.3981
  854MPD2     N12601   0.613   0.561  13.005  0.4355 -0.1334 -0.5857
  854MPD2    H512602   0.691   0.530  12.948 -0.3792 -1.3732 -1.0195
  854MPD2    N112603   0.179   0.795  12.911  0.0441 -0.5257  0.6279
  854MPD2    H712604   0.134   0.848  12.838  1.9974  0.2696  0.0012
  855MPD2     C12605   1.212   0.409  13.907 -0.8285 -0.4640 -0.0059
  855MPD2    C112606   1.081   0.450  13.904 -0.5286 -0.2539  0.8926
  855MPD2    C212607   1.025   0.464  13.778  0.2628  0.5163  0.5172
  855MPD2    C312608   1.108   0.461  13.664  0.0870 -0.0586  0.2226
  855MPD2    C412609   1.241   0.438  13.675 -0.8688  0.0064 -0.9810
  855MPD2    C512610   1.288   0.397  13.793  0.9101 -0.6500  0.4461
  855MPD2     H12611   0.917   0.476  13.772  0.2734 -0.8026 -1.9289
  855MPD2    H112612   1.308   0.430  13.590  2.1422  0.7517  1.2963
  855MPD2    H212613   1.269   0.395  13.998 -0.9638 -1.2130 -0.0412
  855MPD2    H312614   1.391   0.366  13.803  0.9873 -0.5992 -0.1604
  855MPD2     N12615   1.065   0.481  13.532  0.1799 -0.1667  0.1525
  855MPD2    H512616   1.130   0.465  13.455 -2.3758 -0.3351 -1.9802
  855MPD2    N112617   0.987   0.455  14.015 -0.3766 -0.0409 -0.1101
  855MPD2    H712618   0.895   0.494  13.994 -1.5095 -1.1185  2.9151
  856MPD2     C12619   2.389   1.774  13.740 -0.1828 -0.9172 -0.4214
  856MPD2    C112620   2.462   1.875  13.781 -0.0483 -0.0308 -0.5935
  856MPD2    C212621   2.413   2.003  13.773  0.3988 -0.1684 -0.2177
  856MPD2    C312622   2.281   2.036  13.735  0.4161 -0.5710  0.1220
  856MPD2    C412623   2.210   1.932  13.689  0.6980  0.2560  0.6006
  856MPD2    C512624   2.260   1.808  13.707  0.3938  0.3245 -0.0149
  856MPD2     H12625   2.475   2.084  13.808  0.8022 -0.4771 -0.2180
  856MPD2    H112626   2.104   1.939  13.666  1.2627  0.7903 -1.8047
  856MPD2    H212627   2.419   1.670  13.744  0.5195 -0.6317  1.4985
  856MPD2    H312628   2.196   1.724  13.683  1.7135  0.2630 -3.2128
  856MPD2     N12629   2.220   2.159  13.756  0.4637  0.2492  0.2366
  856MPD2    H512630   2.129   2.169  13.713  0.2070 -1.5123  0.3628
  856MPD2    N112631   2.591   1.851  13.829  0.7177 -0.6603 -0.5067
  856MPD2    H712632   2.644   1.932  13.859  2.6245 -1.9174 -0.4528
  857MPD2     C12633   3.967   3.814  12.550 -0.0711  0.0444 -0.3447
  857MPD2    C112634   4.060   3.756  12.644 -0.3373  0.5463  0.1133
  857MPD2    C212635   4.127   3.840  12.732 -0.3587  0.2621 -0.5463
  857MPD2    C312636   4.097   3.976  12.745 -0.1355  0.0637 -0.0267
  857MPD2    C412637   3.996   4.027  12.665  0.7778  0.1306  0.3374
  857MPD2    C512638   3.935   3.947  12.567  0.6682 -0.0571  0.4448
  857MPD2     H12639   4.192   3.797  12.807  1.6710  0.6560 -2.0893
  857MPD2    H112640   3.959   4.129  12.664 -2.8667 -1.2221  0.5017
  857MPD2    H212641   3.924   3.770  12.461 -1.6810 -2.4894  1.6801
  857MPD2    H312642   3.874   3.999  12.494  2.7440  1.5448 -0.1826
  857MPD2     N12643   4.166   4.046  12.848 -0.6052  0.3308  1.1592
  857MPD2    H512644   4.246   3.997  12.887 -0.0725  0.1381 -0.1507
  857MPD2    N112645   4.082   3.617  12.634  0.4287 -0.6072 -0.1887
  857MPD2    H712646   4.029   3.570  12.561 -1.6501  0.7780  0.4141
  858MPD2     C12647   4.732   2.831  16.772 -0.0925 -0.0916 -0.0620
  858MPD2    C112648   0.120   2.777  16.773 -0.5834 -0.3677 -0.5606
  858MPD2    C212649   0.213   2.827  16.869  0.0289  0.5041 -0.5559
  858MPD2    C312650   0.169   2.912  16.973  0.1024 -0.2666 -0.3502
  858MPD2    C412651   0.044   2.970  16.962 -0.2249  0.2481 -0.0672
  858MPD2    C512652   4.693   2.936  16.855  0.4068  0.4027 -0.7470
  858MPD2     H12653   0.317   2.797  16.872 -0.7178 -1.9077  1.1765
  858MPD2    H112654   0.008   3.051  17.025 -1.3078  0.5823 -1.1154
  858MPD2    H212655   4.660   2.804  16.696 -2.2504  0.8259  1.6845
  858MPD2    H312656   4.601   2.989  16.835 -0.5414 -2.2319 -3.2578
  858MPD2     N12657   0.247   2.947  17.089  0.4529  0.0124 -0.3636
  858MPD2    H512658   0.210   3.001  17.166 -1.5854  0.8783 -1.9433
  858MPD2    N112659   0.161   2.706  16.656 -0.4317  0.3734 -0.2737
  858MPD2    H712660   0.085   2.664  16.603 -0.4612 -1.7875  1.5142
  859MPD2     C12661   3.547   0.429  15.281  0.3806  1.0640 -0.2160
  859MPD2    C112662   3.671   0.370  15.248  0.0099 -0.3695 -0.0520
  859MPD2    C212663   3.704   0.248  15.300 -0.5227  0.1640  0.3414
  859MPD2    C312664   3.622   0.187  15.384 -0.7556 -0.2608 -0.4150
  859MPD2    C412665   3.501   0.248  15.434  0.0410 -0.1119  0.1268
  859MPD2    C512666   3.473   0.369  15.372 -0.4813 -0.5008 -0.4444
  859MPD2     H12667   3.789   0.202  15.250 -0.9068  0.0213 -0.1818
  859MPD2    H112668   3.439   0.193  15.503 -2.6432  0.6746 -1.6595
  859MPD2    H212669   3.514   0.525  15.246 -1.3063  0.3113 -0.7090
  859MPD2    H312670   3.375   0.408  15.399  0.8012  1.2226  1.6989
  859MPD2     N12671   3.654   0.058  15.436 -0.0416 -0.3719 -0.2894
  859MPD2    H512672   3.584   0.020  15.500 -0.2965  2.3770  1.0645
  859MPD2    N112673   3.756   0.443  15.163 -0.7516 -0.7159 -0.0703
  859MPD2    H712674   3.718   0.527  15.120  0.9656  0.0826 -0.0292
  860MPD2     C12675   2.190   0.374  12.502  0.0283 -0.3066  0.2829
  860MPD2    C112676   2.112   0.484  12.482 -0.2605  0.0585 -0.0785
  860MPD2    C212677   1.980   0.461  12.451  0.0568  0.5812 -0.8276
  860MPD2    C312678   1.936   0.326  12.424  0.0065  0.2302  0.2467
  860MPD2    C412679   2.022   0.216  12.431  0.0280 -0.1421  0.4735
  860MPD2    C512680   2.145   0.244  12.479 -0.0121 -0.5506 -0.1904
  860MPD2     H12681   1.908   0.542  12.457 -0.0552  0.5184 -1.2700
  860MPD2    H112682   1.990   0.118  12.400  0.1667 -0.0823  0.1404
  860MPD2    H212683   2.291   0.388  12.537  0.3266 -1.1538 -0.2322
  860MPD2    H312684   2.220   0.167  12.494  1.2548  0.6020 -0.5939
  860MPD2     N12685   1.803   0.295  12.393  0.2428  1.1117  0.1733
  860MPD2    H512686   1.778   0.197  12.380 -0.9179  1.4245  0.0816
  860MPD2    N112687   2.156   0.614  12.511 -0.4232 -0.0582 -0.1415
  860MPD2    H712688   2.080   0.681  12.504 -0.2743  0.0905 -0.3398
  861MPD2     C12689   0.126   3.721  10.905  0.0571  0.0753 -0.0928
  861MPD2    C112690   0.109   3.846  10.948 -0.4992  0.5604  0.0128
  861MPD2    C212691   0.075   3.946  10.850 -0.1392  0.3971  0.3294
  861MPD2    C312692   0.047   3.913  10.718  0.6480 -0.6769  0.1560
  861MPD2    C412693   0.077   3.786  10.677  0.4722  0.0770  0.1773
  861MPD2    C512694   0.108   3.692  10.769  0.2133  0.9831  0.0628
  861MPD2     H12695   0.063   4.049  10.881 -1.1308  0.5635 -0.5932
  861MPD2    H112696   0.065   3.760  10.572 -0.9664 -0.4181  0.4709
  861MPD2    H212697   0.160   3.634  10.961 -1.2746 -1.5087 -1.7682
  861MPD2    H312698   0.132   3.592  10.735  0.4584  1.5335 -1.3480
  861MPD2     N12699   0.001   3.998  10.618 -0.7211  0.3657 -0.6260
  861MPD2    H512700   4.693   3.949  10.541 -0.7135 -1.0606  0.2818
  861MPD2    N112701   0.131   3.868  11.087 -0.4039  0.1569  0.4182
  861MPD2    H712702   0.098   3.953  11.133  0.3555  1.3960 -1.3129
  862MPD2     C12703   4.135   4.020  10.182  0.4077 -0.2850 -0.3316
  862MPD2    C112704   4.250   3.955  10.230  0.5709 -0.5132  0.0857
  862MPD2    C212705   4.253   3.818  10.256 -0.2050 -0.9288 -0.3875
  862MPD2    C312706   4.135   3.752  10.227  0.2772 -0.0370 -0.5769
  862MPD2    C412707   4.019   3.810  10.183 -0.5706 -0.1113  0.3510
  862MPD2    C512708   4.024   3.945  10.153 -0.8896  0.1666  0.2940
  862MPD2     H12709   4.348   3.775  10.288 -0.5222 -0.9633  0.5046
  862MPD2    H112710   3.930   3.752  10.164 -0.8548 -0.1801  1.9226
  862MPD2    H212711   4.126   4.123  10.153 -0.7661 -0.2963  0.0044
  862MPD2    H312712   3.935   3.987  10.107 -1.3672  0.1332  1.1639
  862MPD2     N12713   4.123   3.614  10.245  0.4624 -0.0150  0.6784
  862MPD2    H512714   4.034   3.565  10.244  0.3159  0.2838 -1.8441
  862MPD2    N112715   4.366   4.024  10.277  0.1085  0.2984  0.8777
  862MPD2    H712716   4.440   3.960  10.302 -0.4138 -0.7384 -0.2419
  863MPD2     C12717   3.341   1.566  16.379 -0.2675  0.0940 -0.0094
  863MPD2    C112718   3.265   1.633  16.472  0.1667  0.1616  0.0644
  863MPD2    C212719   3.314   1.637  16.602  0.6113  0.8380  0.2008
  863MPD2    C312720   3.424   1.573  16.642  0.8288  0.8275  0.5189
  863MPD2    C412721   3.493   1.500  16.547 -0.1165 -0.6204  0.0836
  863MPD2    C512722   3.455   1.505  16.417  0.4108  0.2104  0.4208
  863MPD2     H12723   3.253   1.693  16.672  0.5680  0.4019  0.5101
  863MPD2    H112724   3.570   1.429  16.576 -0.2544 -0.0367  1.8982
  863MPD2    H212725   3.314   1.546  16.276 -0.1210  1.0753 -0.2379
  863MPD2    H312726   3.503   1.439  16.346 -0.1092 -0.5190  0.7499
  863MPD2     N12727   3.473   1.573  16.773  0.8689  0.5252 -0.0106
  863MPD2    H512728   3.547   1.506  16.791  0.8486 -0.0720 -2.1436
  863MPD2    N112729   3.146   1.702  16.424  0.2916  0.5096  0.0754
  863MPD2    H712730   3.125   1.678  16.328  0.3770 -0.1355  0.2161
  864MPD2     C12731   3.814   2.671  17.582 -0.0864  0.4760  0.0249
  864MPD2    C112732   3.848   2.577  17.489  0.9280 -0.0010 -0.1411
  864MPD2    C212733   3.975   2.582  17.428  0.4995 -0.1732  0.6710
  864MPD2    C312734   4.064   2.685  17.457  0.2568  0.3879 -0.4137
  864MPD2    C412735   4.037   2.771  17.552  0.7592 -0.3340 -0.0383
  864MPD2    C512736   3.909   2.766  17.606  0.7203 -0.5235  0.6200
  864MPD2     H12737   4.020   2.513  17.357 -0.0730 -1.1686  1.2877
  864MPD2    H112738   4.103   2.854  17.576 -0.7838  0.4948  1.3616
  864MPD2    H212739   3.722   2.679  17.639 -0.2933  1.5343 -0.4637
  864MPD2    H312740   3.870   2.851  17.661 -1.4336 -1.4777  0.5401
  864MPD2     N12741   4.184   2.708  17.391  0.0674 -0.0875 -0.0798
  864MPD2    H512742   4.248   2.781  17.420  1.0173 -1.7119  1.9224
  864MPD2    N112743   3.760   2.468  17.464 -0.4461 -0.8110 -0.0533
  864MPD2    H712744   3.670   2.470  17.510 -1.0517  0.8996 -1.3262
  865MPD2     C12745   4.207   3.128  16.880 -0.1608  0.2810 -0.6382
  865MPD2    C112746   4.290   3.021  16.891  0.5603  0.6834  0.1082
  865MPD2    C212747   4.371   3.010  17.001 -0.2412  0.2903 -0.1452
  865MPD2    C312748   4.355   3.098  17.116  0.0876 -0.4976 -0.3172
  865MPD2    C412749   4.264   3.201  17.108  0.1725  0.3266 -0.0505
  865MPD2    C512750   4.201   3.218  16.986 -1.0509 -0.2125 -0.9543
  865MPD2     H12751   4.439   2.926  17.008 -0.7269  0.1725  3.4522
  865MPD2    H112752   4.237   3.281  17.175 -0.8732 -1.4201  1.6221
  865MPD2    H212753   4.137   3.135  16.797 -0.9934 -1.6122 -0.0966
  865MPD2    H312754   4.122   3.292  16.979  0.3312  1.6148  3.0566
  865MPD2     N12755   4.438   3.108  17.225  0.4792 -0.4776 -0.3511
  865MPD2    H512756   4.431   3.181  17.295  0.5434 -1.3669  0.5878
  865MPD2    N112757   4.281   2.922  16.790 -0.3358  0.3719  0.5623
  865MPD2    H712758   4.215   2.941  16.714 -1.6047 -0.7488  1.3773
  866MPD2     C12759   0.639   4.061  11.549  0.3585 -0.2128  0.2768
  866MPD2    C112760   0.662   4.091  11.415  0.4302  0.0359 -0.6641
  866MPD2    C212761   0.551   4.137  11.343  0.3241 -0.3009 -0.7377
  866MPD2    C312762   0.429   4.164  11.407  0.2435 -0.5229 -0.1516
  866MPD2    C412763   0.418   4.145  11.541  0.2183 -0.5064  0.0809
  866MPD2    C512764   0.521   4.095  11.614  0.1920 -0.0300 -0.3073
  866MPD2     H12765   0.567   4.148  11.236 -0.0785  0.8170 -0.6810
  866MPD2    H112766   0.334   4.182  11.598  1.5603 -0.0959  1.8014
  866MPD2    H212767   0.725   4.028  11.605  0.2995  0.3172  0.6749
  866MPD2    H312768   0.512   4.088  11.722 -1.5767 -1.3436 -0.5339
  866MPD2     N12769   0.316   4.219  11.338 -0.4487 -0.3497  0.4235
  866MPD2    H512770   0.234   4.252  11.389  0.2757  1.2465  0.5612
  866MPD2    N112771   0.787   4.068  11.360 -0.1734  0.7555 -0.4512
  866MPD2    H712772   0.854   4.016  11.415 -1.4351  1.1568  1.4274
  867MPD2     C12773   2.545   3.150  16.440  0.1203  0.0177 -0.0419
  867MPD2    C112774   2.634   3.127  16.541  0.6109  0.9578 -0.3129
  867MPD2    C212775   2.647   3.223  16.638 -0.0198  0.4849 -0.0448
  867MPD2    C312776   2.569   3.340  16.639  0.9115 -0.0707  0.3009
  867MPD2    C412777   2.481   3.357  16.533 -0.8507 -0.1572 -0.4451
  867MPD2    C512778   2.472   3.263  16.440  0.2863 -0.5357 -0.3453
  867MPD2     H12779   2.720   3.217  16.717  0.7107  2.7613 -0.5362
  867MPD2    H112780   2.415   3.443  16.531 -0.8681 -0.1764 -0.7285
  867MPD2    H212781   2.532   3.067  16.371  0.5623  0.4284 -0.6206
  867MPD2    H312782   2.393   3.285  16.369 -0.6837 -0.2434  0.8434
  867MPD2     N12783   2.554   3.437  16.742  0.0016 -0.4189  0.1062
  867MPD2    H512784   2.490   3.513  16.721 -2.1409 -2.8118 -1.9747
  867MPD2    N112785   2.707   3.011  16.539  0.5887  0.1025 -0.0492
  867MPD2    H712786   2.688   2.949  16.462 -3.5097 -0.6217  1.5250
  868MPD2     C12787   4.614   1.913  13.161 -0.5615 -0.1174  0.0384
  868MPD2    C112788   4.676   2.031  13.112 -1.0391  0.1853  0.0531
  868MPD2    C212789   4.623   2.153  13.164  0.2742  0.3576 -0.7495
  868MPD2    C312790   4.512   2.167  13.243  0.3429  0.7102 -0.4810
  868MPD2    C412791   4.457   2.049  13.283 -0.3420 -0.1041  0.6032
  868MPD2    C512792   4.506   1.924  13.241  0.4929  0.5007  0.3705
  868MPD2     H12793   4.677   2.244  13.141  1.9513 -0.6552 -0.7995
  868MPD2    H112794   4.373   2.042  13.350 -0.9277 -1.9130 -0.3204
  868MPD2    H212795   4.644   1.811  13.137  0.0917  0.5731 -2.0455
  868MPD2    H312796   4.452   1.839  13.280  1.2687 -0.2900 -0.2742
  868MPD2     N12797   4.478   2.290  13.297 -0.4092  0.1413  0.0746
  868MPD2    H512798   4.543   2.363  13.269  0.8959 -1.8131 -1.9664
  868MPD2    N112799   0.060   2.030  13.030  0.1817  0.6653  0.2404
  868MPD2    H712800   0.111   2.116  13.012  2.7950 -0.8018  0.5726
  869MPD2     C12801   1.190   4.508   0.477 -0.2158 -0.0470 -0.6754
  869MPD2    C112802   1.128   4.586   0.576  0.7697  0.4230 -0.1824
  869MPD2    C212803   1.139   4.555   0.714 -0.0880  0.7277 -0.0849
  869MPD2    C312804   1.251   4.486   0.750  0.8356  0.3224 -0.1742
  869MPD2    C412805   1.319   4.412   0.655 -0.1765 -0.5171  0.0510
  869MPD2    C512806   1.276   4.419   0.521  0.0865 -0.2680 -0.1831
  869MPD2     H12807   1.086   4.620   0.784 -0.5429  0.3249 -0.0563
  869MPD2    H112808   1.405   4.351   0.680  0.3523  0.3476  0.3304
  869MPD2    H212809   1.162   4.509   0.372 -2.3177  0.6125 -0.1071
  869MPD2    H312810   1.327   4.350   0.454  2.9537  1.0468  0.6347
  869MPD2     N12811   1.299   4.479   0.884 -0.0225 -0.0783  0.5026
  869MPD2    H512812   1.396   4.449   0.897  0.2351 -1.3062 -3.9437
  869MPD2    N112813   1.028   4.682   0.532  0.1503 -0.3573  0.2200
  869MPD2    H712814   1.032   4.705   0.433  2.1251 -1.4322  0.0653
  870MPD2     C12815   1.320   3.606   1.703  0.6207 -0.1032  0.7642
  870MPD2    C112816   1.248   3.548   1.592  1.7481  0.2068 -0.2190
  870MPD2    C212817   1.126   3.609   1.550  0.3939 -0.8033 -0.1252
  870MPD2    C312818   1.092   3.730   1.600  0.1088  0.3363 -0.1883
  870MPD2    C412819   1.167   3.787   1.705 -0.5741 -0.1455  0.6039
  870MPD2    C512820   1.282   3.725   1.752  0.1918  0.2445 -0.5194
  870MPD2     H12821   1.070   3.574   1.465 -0.1708  0.8286 -0.4260
  870MPD2    H112822   1.150   3.887   1.743 -1.7416  0.5349 -1.7257
  870MPD2    H212823   1.408   3.554   1.739  2.6697  1.7742 -1.4743
  870MPD2    H312824   1.343   3.771   1.829  0.4638 -1.5508  0.3389
  870MPD2     N12825   0.978   3.797   1.547  0.0498  0.1716 -0.4619
  870MPD2    H512826   0.929   3.764   1.464 -0.8110 -1.1216  0.5506
  870MPD2    N112827   1.300   3.425   1.549  0.3318 -0.2725 -0.2716
  870MPD2    H712828   1.381   3.390   1.598  0.9269  2.9855  1.0806
  871MPD2     C12829   1.817   3.164  16.235  0.3391 -0.6044  0.6010
  871MPD2    C112830   1.811   3.101  16.355  0.0600 -0.1503  0.8148
  871MPD2    C212831   1.833   2.962  16.354 -0.1847  0.2445 -0.8991
  871MPD2    C312832   1.863   2.899  16.235  0.4021  0.8697  0.4233
  871MPD2    C412833   1.873   2.964  16.114 -0.1752  0.0271  0.0895
  871MPD2    C512834   1.833   3.090  16.120 -0.4022  0.4474 -0.1143
  871MPD2     H12835   1.818   2.908  16.447 -1.3241 -0.2652 -1.3723
  871MPD2    H112836   1.891   2.924  16.015  1.4174  0.0532  0.3784
  871MPD2    H212837   1.799   3.271  16.223  0.1579 -0.6176  0.7646
  871MPD2    H312838   1.853   3.144  16.028  0.9845 -0.5760 -0.4025
  871MPD2     N12839   1.871   2.760  16.242 -0.4059  0.0045 -0.1350
  871MPD2    H512840   1.853   2.713  16.330  0.3334  0.5765  0.3181
  871MPD2    N112841   1.798   3.180  16.470  0.0566  0.5167 -0.1346
  871MPD2    H712842   1.786   3.281  16.462 -0.1280  0.6151  1.3632
  872MPD2     C12843   2.520   0.564  13.789 -0.7782 -0.5241 -0.1961
  872MPD2    C112844   2.532   0.699  13.814 -0.0314 -0.3516  0.4528
  872MPD2    C212845   2.435   0.767  13.883  0.2055 -0.5908  0.1178
  872MPD2    C312846   2.327   0.694  13.934 -0.0414 -0.1896 -1.0982
  872MPD2    C412847   2.313   0.562  13.903  1.4488 -0.2423  0.1576
  872MPD2    C512848   2.398   0.497  13.815  0.6200 -0.2395  0.1910
  872MPD2     H12849   2.452   0.873  13.899 -1.8585 -0.0426 -1.4323
  872MPD2    H112850   2.227   0.510  13.943  0.7354  0.7268 -0.1396
  872MPD2    H212851   2.592   0.512  13.727  0.8201  0.0099  1.2323
  872MPD2    H312852   2.383   0.397  13.777 -0.3245  0.0110 -0.0919
  872MPD2     N12853   2.230   0.747  14.025  0.3130 -0.3291 -0.2930
  872MPD2    H512854   2.152   0.690  14.057  0.8538 -0.1946  1.2214
  872MPD2    N112855   2.645   0.769  13.765 -0.1517 -0.4519 -0.0060
  872MPD2    H712856   2.635   0.869  13.775 -0.0914 -0.6664  2.1525
  873MPD2     C12857   4.614   0.384   1.026 -0.8616  0.1806 -0.5181
  873MPD2    C112858   4.494   0.434   1.078 -0.0039 -0.0732  0.1628
  873MPD2    C212859   4.385   0.354   1.102  0.5638  0.1383  0.0270
  873MPD2    C312860   4.391   0.216   1.059 -0.5311 -0.3179 -0.6939
  873MPD2    C412861   4.502   0.173   0.998 -0.1276 -0.2894 -1.1098
  873MPD2    C512862   4.616   0.253   0.985 -0.1483  0.0886  0.1301
  873MPD2     H12863   4.293   0.398   1.138  1.0852  1.5506 -0.3713
  873MPD2    H112864   4.512   0.071   0.964 -0.9091 -0.1289 -1.8058
  873MPD2    H212865   4.701   0.443   1.001  1.0187 -2.3014  0.1112
  873MPD2    H312866   4.706   0.213   0.939 -0.3533  0.9511 -1.0022
  873MPD2     N12867   4.279   0.121   1.068 -0.0837  0.4527 -0.7625
  873MPD2    H512868   4.292   0.028   1.030  2.7677  0.4592  0.1742
  873MPD2    N112869   4.492   0.571   1.122  1.2012  0.5534 -0.8515
  873MPD2    H712870   4.583   0.616   1.126  1.3247  0.2022  0.4757
  874MPD2     C12871   4.194   0.826  16.078 -0.2549  0.5197  0.3272
  874MPD2    C112872   4.213   0.833  16.211  0.0825  0.4759 -0.1962
  874MPD2    C212873   4.321   0.907  16.254 -0.2131  0.7001  0.1392
  874MPD2    C312874   4.406   0.972  16.168  0.2652 -0.4559  0.5102
  874MPD2    C412875   4.395   0.951  16.033  0.2081 -0.3743  0.1796
  874MPD2    C512876   4.288   0.881  15.987  0.4409  0.1674 -0.8074
  874MPD2     H12877   4.343   0.920  16.359  0.8389  1.1659 -0.1406
  874MPD2    H112878   4.461   0.993  15.958  0.0006 -1.9208 -0.8795
  874MPD2    H212879   4.103   0.774  16.051  1.8520 -1.8534 -2.2236
  874MPD2    H312880   4.282   0.874  15.879  1.7247 -1.9410 -0.7416
  874MPD2     N12881   4.520   1.048  16.209 -0.4478 -0.4158 -0.0512
  874MPD2    H512882   4.590   1.061  16.136  2.0189 -0.6266  2.2941
  874MPD2    N112883   4.144   0.747  16.292  0.3902  0.3053 -0.1265
  874MPD2    H712884   4.080   0.687  16.241 -1.4255  0.2132  2.2412
  875MPD2     C12885   4.678   3.704  14.395 -0.5658 -0.2794  0.1444
  875MPD2    C112886   4.625   3.835  14.374  0.0427  0.2515  0.5679
  875MPD2    C212887   4.604   3.929  14.472 -0.4037  0.5007  0.1009
  875MPD2    C312888   4.632   3.889  14.601  0.5940 -0.9409  0.3952
  875MPD2    C412889   4.678   3.760  14.628 -0.0470  0.2896  0.2977
  875MPD2    C512890   4.712   3.671  14.525 -0.6801  0.6467 -0.1145
  875MPD2     H12891   4.549   4.021  14.459 -4.1829 -1.8351 -0.3362
  875MPD2    H112892   4.709   3.732  14.728 -1.2220  0.9898  0.8639
  875MPD2    H212893   4.693   3.631  14.316 -0.4454 -0.8486  0.6980
  875MPD2    H312894   0.020   3.575  14.546 -1.5771 -0.3237 -2.6098
  875MPD2     N12895   4.602   3.985  14.703  0.3081 -0.2065  0.2559
  875MPD2    H512896   4.589   4.080  14.671  1.6621  0.8494  2.9177
  875MPD2    N112897   4.595   3.887  14.245 -0.5896 -0.7729  0.5221
  875MPD2    H712898   4.555   3.980  14.248  3.8227  1.1718  0.4625
  876MPD2     C12899   4.326   0.507  16.081  0.5261  1.0279  0.6354
  876MPD2    C112900   4.262   0.454  15.972  0.4167 -0.2935  0.2770
  876MPD2    C212901   4.170   0.354  15.994 -0.5569  0.2695 -0.0514
  876MPD2    C312902   4.152   0.296  16.121 -0.8730  0.1923  0.9217
  876MPD2    C412903   4.216   0.355  16.231  0.2544  0.3473  0.0154
  876MPD2    C512904   4.299   0.461  16.206  0.2807  0.5112 -0.5686
  876MPD2     H12905   4.101   0.324  15.915 -1.0263 -1.0647  0.8701
  876MPD2    H112906   4.215   0.324  16.335  1.4073 -0.5340 -0.2335
  876MPD2    H212907   4.396   0.589  16.070  0.1328  1.4878  1.4786
  876MPD2    H312908   4.355   0.496  16.292 -0.2123 -0.8870  0.3217
  876MPD2     N12909   4.068   0.182  16.133  0.2599  0.0815 -0.2201
  876MPD2    H512910   4.026   0.155  16.044  0.6713 -1.0323 -0.0697
  876MPD2    N112911   4.264   0.505  15.841 -0.0134  0.3230 -0.4104
  876MPD2    H712912   4.193   0.468  15.779 -1.2849  0.9138  0.7098
  877MPD2     C12913   3.814   0.842  15.273 -0.8943 -0.4285 -0.2329
  877MPD2    C112914   3.935   0.915  15.274  0.3191  0.0515 -0.0490
  877MPD2    C212915   3.966   1.013  15.188 -0.2063 -0.4910  0.1281
  877MPD2    C312916   3.879   1.035  15.083  0.4868 -0.1643  0.5746
  877MPD2    C412917   3.760   0.968  15.086  0.0240 -0.9796 -0.2676
  877MPD2    C512918   3.725   0.872  15.172 -0.8293 -0.5654  0.5604
  877MPD2     H12919   4.061   1.061  15.210  0.0635 -0.3113 -1.4060
  877MPD2    H112920   3.689   0.994  15.009  1.0578 -1.5559 -1.4156
  877MPD2    H212921   3.793   0.754  15.332  0.6684 -1.9786 -1.9990
  877MPD2    H312922   3.630   0.824  15.152 -1.1753 -0.3167  1.6586
  877MPD2     N12923   3.917   1.115  14.968  0.4087 -0.2450  0.6143
  877MPD2    H512924   3.855   1.118  14.888  2.5624 -0.2771 -1.0507
  877MPD2    N112925   4.033   0.891  15.369  0.4989 -0.3015 -0.0982
  877MPD2    H712926   4.121   0.940  15.355  1.1894 -1.6443 -0.4757
  878MPD2     C12927   3.850   0.160  13.107 -0.1695 -0.0886 -0.3835
  878MPD2    C112928   3.884   0.289  13.122 -1.1478 -0.8854  0.4750
  878MPD2    C212929   3.899   0.331  13.253 -0.1083 -1.0003  0.6199
  878MPD2    C312930   3.866   0.261  13.367  0.4890 -0.0624 -0.5998
  878MPD2    C412931   3.806   0.137  13.341 -0.4917  0.4302 -0.1085
  878MPD2    C512932   3.811   0.088  13.216  0.4332  0.3033 -0.1967
  878MPD2     H12933   3.925   0.434  13.271  0.2593 -1.0835  0.5592
  878MPD2    H112934   3.764   0.076  13.420  2.1389 -1.0576  0.1350
  878MPD2    H212935   3.847   0.107  13.012  1.0730  2.5534 -1.8822
  878MPD2    H312936   3.765   4.728  13.195 -0.3463  0.2787  1.6314
  878MPD2     N12937   3.884   0.318  13.488 -0.5506  0.6795  0.4083
  878MPD2    H512938   3.910   0.416  13.491 -0.8219  0.6907  2.1692
  878MPD2    N112939   3.897   0.371  13.009 -0.5408 -0.2954 -0.3671
  878MPD2    H712940   3.887   0.331  12.916  0.9639 -0.8071 -0.3096
  879MPD2     C12941   3.821   1.646  16.957 -0.1764 -0.7681  0.7490
  879MPD2    C112942   3.870   1.545  17.038  0.6088 -0.5004  0.3513
  879MPD2    C212943   3.880   1.414  16.996 -0.0565  0.8224  0.2475
  879MPD2    C312944   3.838   1.383  16.863 -0.6413 -0.1399 -0.0546
  879MPD2    C412945   3.789   1.494  16.784 -0.1481 -0.8884 -0.1903
  879MPD2    C512946   3.793   1.621  16.827  0.1957 -0.1228 -0.5374
  879MPD2     H12947   3.929   1.336  17.055  3.2889  0.7383 -2.6851
  879MPD2    H112948   3.764   1.480  16.680  1.7264 -0.3423 -0.7056
  879MPD2    H212949   3.807   1.745  17.000 -1.7723 -1.3177  1.5134
  879MPD2    H312950   3.762   1.702  16.761 -1.3795  0.4158  0.8796
  879MPD2     N12951   3.864   1.260  16.798 -0.5769 -0.7823  0.3560
  879MPD2    H512952   3.847   1.252  16.698 -0.4042  0.4443  0.2334
  879MPD2    N112953   3.916   1.591  17.155 -0.1431 -0.2947 -0.3329
  879MPD2    H712954   3.910   1.689  17.178 -1.5956  0.0786 -2.3862
  880MPD2     C12955   1.010   3.067   0.186  0.3541 -0.7898  0.4221
  880MPD2    C112956   1.015   3.110   0.322 -0.2881  0.5525  0.5642
  880MPD2    C212957   1.063   3.026   0.418 -0.1877 -0.2873  0.5550
  880MPD2    C312958   1.107   2.894   0.386  0.4805 -0.4302  0.2695
  880MPD2    C412959   1.111   2.857   0.255 -0.1366  0.0598 -0.1377
  880MPD2    C512960   1.066   2.946   0.160  0.9992  0.3367  0.1289
  880MPD2     H12961   1.067   3.055   0.522 -0.3929  0.5924  0.3195
  880MPD2    H112962   1.141   2.758   0.220  0.5792  0.4027 -0.5092
  880MPD2    H212963   0.994   3.138   0.106 -1.2875 -3.3729 -1.5392
  880MPD2    H312964   1.049   2.908   0.059 -1.5554  1.2887  0.2020
  880MPD2     N12965   1.158   2.814   0.491  0.1883  0.1720 -0.3286
  880MPD2    H512966   1.191   2.858   0.576 -2.3096 -1.0578  1.2700
  880MPD2    N112967   0.988   3.247   0.348  0.2816 -0.1040  0.6520
  880MPD2    H712968   0.964   3.303   0.267  0.7841  0.8243  1.1479
  881MPD2     C12969   0.852   4.122  17.626 -0.0216 -0.1914 -0.2681
  881MPD2    C112970   0.936   4.016  17.590  0.3164 -0.0594 -0.2357
  881MPD2    C212971   0.950   3.902  17.672  0.1787  0.4442  0.1398
  881MPD2    C312972   0.890   3.903   0.056 -0.1108  0.3651 -0.7573
  881MPD2    C412973   0.811   4.011   0.091 -0.0108 -0.1617 -0.0672
  881MPD2    C512974   0.798   4.115   0.002 -0.5336 -0.5987 -0.0960
  881MPD2     H12975   1.006   3.815  17.643  0.8766  1.3653 -1.2703
  881MPD2    H112976   0.771   4.017   0.191  0.7805  0.4728  0.2084
  881MPD2    H212977   0.823   4.192  17.549 -1.1008 -0.2946  0.0512
  881MPD2    H312978   0.727   4.194   0.024 -0.2029 -0.1122 -0.7538
  881MPD2     N12979   0.894   3.801   0.154 -0.2132 -0.2754 -0.5604
  881MPD2    H512980   0.844   3.825   0.239 -2.0002 -3.3464 -0.7482
  881MPD2    N112981   0.979   3.999  17.459  0.2546 -0.3118  0.2235
  881MPD2    H712982   1.014   3.907  17.437 -0.9158 -1.4561  3.2150
  882MPD2     C12983   4.075   0.874  14.388  0.0603  1.0289  0.7901
  882MPD2    C112984   3.983   0.978  14.394  0.5021 -0.3240 -0.1149
  882MPD2    C212985   3.863   0.970  14.325 -0.3074 -0.8104 -0.7030
  882MPD2    C312986   3.826   0.848  14.272 -0.0081  0.1753 -0.1478
  882MPD2    C412987   3.912   0.739  14.278  0.6855 -0.5210  1.0129
  882MPD2    C512988   4.036   0.748  14.336 -0.2068 -0.5810  0.2847
  882MPD2     H12989   3.792   1.051  14.323  0.9081  0.3291  1.7751
  882MPD2    H112990   3.879   0.643  14.241 -1.7463  0.8156 -0.3216
  882MPD2    H212991   4.176   0.870  14.426  0.8449  0.7613 -1.3199
  882MPD2    H312992   4.093   0.657  14.351 -0.5714 -0.9846 -0.8001
  882MPD2     N12993   3.698   0.821  14.211 -0.5837  0.0718  0.3176
  882MPD2    H512994   3.686   0.726  14.177 -1.6489  0.1078  0.5953
  882MPD2    N112995   4.021   1.088  14.476  0.0395 -0.5988 -0.0201
  882MPD2    H712996   4.112   1.079  14.518  0.1846 -0.5423 -0.3235
  883MPD2     C12997   1.248   0.940  16.332 -0.7713  0.0157  0.4672
  883MPD2    C112998   1.318   1.016  16.239 -0.7684  0.2175  0.0748
  883MPD2    C212999   1.440   1.073  16.272 -0.0683 -0.3598  0.1488
  883MPD2    C313000   1.497   1.068  16.401 -0.4405 -0.2603 -0.0626
  883MPD2    C413001   1.414   1.002  16.500 -0.1842  0.6057 -0.3913
  883MPD2    C513002   1.297   0.943  16.460  0.1605 -0.2585 -0.4571
  883MPD2     H13003   1.506   1.114  16.196  1.0323 -1.0545  0.7398
  883MPD2    H113004   1.441   0.998  16.604 -0.5687 -1.5405 -0.3734
  883MPD2    H213005   1.161   0.877  16.322  0.3709 -1.2843 -1.2631
  883MPD2    H313006   1.246   0.880  16.532 -0.0584  2.0009  1.3301
  883MPD2     N13007   1.610   1.146  16.437 -0.2168  0.7227  0.2521
  883MPD2    H513008   1.641   1.202  16.358 -0.5907  2.3409  1.2520
  883MPD2    N113009   1.264   1.023  16.107  0.9430  0.4734 -0.1791
  883MPD2    H713010   1.320   1.077  16.041 -1.4680 -1.1999 -3.6188
  884MPD2     C13011   3.132   1.716  15.191  0.2002  0.5740  0.7462
  884MPD2    C113012   3.054   1.645  15.103 -0.3791 -0.4446 -0.0206
  884MPD2    C213013   2.921   1.675  15.088  0.0872 -1.0277 -0.0741
  884MPD2    C313014   2.868   1.786  15.154  0.3539  0.1883  0.8429
  884MPD2    C413015   2.950   1.852  15.248  0.2119 -0.4216  0.7672
  884MPD2    C513016   3.079   1.816  15.264 -0.3969  0.9222 -0.0138
  884MPD2     H13017   2.864   1.623  15.011  0.1254 -1.5307  0.2355
  884MPD2    H113018   2.926   1.946  15.297  0.8964  0.8030 -1.2342
  884MPD2    H213019   3.237   1.693  15.210  0.0993 -0.8256 -0.4382
  884MPD2    H313020   3.130   1.871  15.342  1.6651 -0.4979 -0.3754
  884MPD2     N13021   2.733   1.826  15.126  0.2141 -0.2041  0.6226
  884MPD2    H513022   2.694   1.780  15.045  0.0343 -0.0082  0.5977
  884MPD2    N113023   3.107   1.532  15.030 -0.2598 -0.0718  0.4076
  884MPD2    H713024   3.041   1.483  14.969 -1.5838  1.4665  0.6240
  885MPD2     C13025   1.467   1.649   0.221 -0.2050  0.4513  0.0728
  885MPD2    C113026   1.493   1.782   0.246  0.4670 -0.1623  0.0073
  885MPD2    C213027   1.474   1.874   0.141  0.5521 -0.0706  0.1192
  885MPD2    C313028   1.427   1.827   0.024  0.2001  0.5300  0.8960
  885MPD2    C413029   1.391   1.696   0.001  0.6354  0.2733 -0.5240
  885MPD2    C513030   1.425   1.607   0.101 -0.5793 -0.1918 -0.2001
  885MPD2     H13031   1.498   1.978   0.161  4.1510 -1.3780  2.5934
  885MPD2    H113032   1.360   1.658  17.648  0.3101  1.1729 -0.7800
  885MPD2    H213033   1.490   1.571   0.294 -0.2028 -0.8166 -1.2833
  885MPD2    H313034   1.414   1.499   0.089 -1.0346 -0.0976 -0.6135
  885MPD2     N13035   1.432   1.915  17.652  0.0308  0.4827 -0.2982
  885MPD2    H513036   1.459   2.012  17.662 -2.2358  1.5320 -4.1457
  885MPD2    N113037   1.545   1.821   0.369  0.1286 -0.0282  0.3618
  885MPD2    H713038   1.561   1.738   0.425  1.0471  0.1588  0.3814
  886MPD2     C13039   2.535   0.252  15.190  0.2050  0.3589  0.3814
  886MPD2    C113040   2.670   0.279  15.209 -0.1713 -0.0495 -0.7323
  886MPD2    C213041   2.723   0.387  15.146 -0.6093 -0.3767  0.0138
  886MPD2    C313042   2.656   0.474  15.065  0.4220  0.0477 -0.3374
  886MPD2    C413043   2.529   0.440  15.031 -0.0188  0.3310  0.8460
  886MPD2    C513044   2.472   0.328  15.092 -0.1857 -0.0722 -0.3891
  886MPD2     H13045   2.828   0.404  15.169 -1.3204  1.0408  2.1245
  886MPD2    H113046   2.474   0.501  14.960 -0.7215  1.7516  2.5902
  886MPD2    H213047   2.486   0.163  15.226 -1.6351  0.3366 -2.1670
  886MPD2    H313048   2.367   0.309  15.074 -0.7414  0.8299  1.9274
  886MPD2     N13049   2.715   0.587  15.009 -0.2583  0.1359  0.0424
  886MPD2    H513050   2.671   0.628  14.928  0.7140  0.0860 -0.5065
  886MPD2    N113051   2.754   0.198  15.285 -0.2739 -0.3378 -0.1296
  886MPD2    H713052   2.855   0.209  15.290 -0.3178  1.2988 -2.9700
  887MPD2     C13053   3.307   0.220  15.927 -0.4179  0.9093 -0.1734
  887MPD2    C113054   3.270   0.240  15.798  0.3094  0.4676  0.6650
  887MPD2    C213055   3.343   0.331  15.720 -0.5166 -0.1787 -0.3547
  887MPD2    C313056   3.440   0.414  15.780 -0.6919  0.4804 -0.7582
  887MPD2    C413057   3.468   0.393  15.911 -0.4951 -0.0796  0.5081
  887MPD2    C513058   3.416   0.284  15.976 -0.3337  0.5181 -0.1467
  887MPD2     H13059   3.306   0.356  15.622  2.5421  3.0880 -0.6838
  887MPD2    H113060   3.552   0.439  15.961 -1.1930  0.9317  0.7775
  887MPD2    H213061   3.256   0.155  15.997  0.9878 -0.3691 -0.3576
  887MPD2    H313062   3.433   0.270  16.083 -0.5202  0.0662 -0.1773
  887MPD2     N13063   3.494   0.521  15.702  0.4864  0.2440 -0.1421
  887MPD2    H513064   3.443   0.541  15.616  0.4495  1.7448  0.2292
  887MPD2    N113065   3.156   0.171  15.749  0.1842  0.0199  0.5189
  887MPD2    H713066   3.111   0.104  15.810  0.6405 -0.1415  0.6762
  888MPD2     C13067   0.055   0.459  14.848 -0.0743 -0.1753  0.4003
  888MPD2    C113068   0.083   0.475  14.978 -0.6825  0.0402 -0.0789
  888MPD2    C213069   0.180   0.568  15.021  0.0854 -0.4537  0.0966
  888MPD2    C313070   0.250   0.640  14.928  0.1704 -0.4450  0.6236
  888MPD2    C413071   0.233   0.615  14.795  0.0544  1.0422  0.2548
  888MPD2    C513072   0.143   0.515  14.760 -0.1255  0.1726  0.1488
  888MPD2     H13073   0.193   0.576  15.129 -2.6323 -0.0573  0.4098
  888MPD2    H113074   0.286   0.657  14.711 -0.5709  0.0234 -0.6471
  888MPD2    H213075   4.725   0.382  14.811 -3.6774  4.0840 -1.9461
  888MPD2    H313076   0.134   0.490  14.655  2.1564  0.2115 -0.0596
  888MPD2     N13077   0.336   0.744  14.978  0.0391  0.5570  0.5408
  888MPD2    H513078   0.332   0.762  15.078  1.4844  2.0819  0.3335
  888MPD2    N113079   0.013   0.401  15.082  0.3305 -0.2045 -0.2500
  888MPD2    H713080   0.061   0.391  15.171  0.3595 -1.6126 -0.4209
  889MPD2     C13081   4.169   0.050  12.733 -0.1820  0.0544 -0.8338
  889MPD2    C113082   4.207   0.032  12.861 -0.2234  0.1474 -0.6527
  889MPD2    C213083   4.250   0.136  12.938  0.0149  0.9656  0.2514
  889MPD2    C313084   4.237   0.265  12.883 -0.1322  0.3461 -0.1043
  889MPD2    C413085   4.216   0.286  12.746 -0.2527  0.1971  0.2732
  889MPD2    C513086   4.182   0.172  12.675 -1.2009 -0.8101 -0.1606
  889MPD2     H13087   4.266   0.112  13.043  1.3694 -0.8751 -0.3577
  889MPD2    H113088   4.233   0.384  12.702 -2.8537  0.5164  0.0126
  889MPD2    H213089   4.176   4.697  12.673  2.2010 -0.1951 -0.1890
  889MPD2    H313090   4.179   0.182  12.567  0.5329 -1.1489 -0.2550
  889MPD2     N13091   4.278   0.368  12.970  0.2062  0.2851  0.0899
  889MPD2    H513092   4.296   0.338  13.065  2.0281 -1.1030 -0.6765
  889MPD2    N113093   4.243   4.636  12.896 -0.0046  0.1100  0.2822
  889MPD2    H713094   4.218   4.565  12.828 -3.1186 -0.8213  2.4464
  890MPD2     C13095   4.086   1.949  14.526 -0.3757  0.2346 -0.2813
  890MPD2    C113096   4.031   2.023  14.627  0.0798 -0.1743 -0.4753
  890MPD2    C213097   4.012   1.962  14.750  0.1206  0.4072 -0.3830
  890MPD2    C313098   4.059   1.835  14.773  0.3700 -0.3479  0.1523
  890MPD2    C413099   4.135   1.773  14.677 -0.1960  0.1699  0.2408
  890MPD2    C513100   4.141   1.826  14.553  0.0680 -0.0599 -0.1826
  890MPD2     H13101   3.969   2.008  14.839  1.7147 -0.6147  0.9044
  890MPD2    H113102   4.185   1.677  14.683  0.5516  0.4025 -2.4003
  890MPD2    H213103   4.102   1.985  14.425 -1.6628 -2.2566 -1.3787
  890MPD2    H313104   4.178   1.770  14.468 -2.4878 -1.3239 -0.4551
  890MPD2     N13105   4.062   1.801  14.914  0.2593 -0.2757  0.3685
  890MPD2    H513106   3.998   1.861  14.965  0.2907 -1.3627  1.6779
  890MPD2    N113107   4.014   2.160  14.616  0.8056  0.2756  0.2464
  890MPD2    H713108   4.038   2.205  14.528  2.6871 -2.3252 -0.5767
  891MPD2     C13109   2.139   0.989  16.362  0.5214 -0.2485 -0.8766
  891MPD2    C113110   2.073   0.939  16.469  0.7285 -0.4950  0.4616
  891MPD2    C213111   2.145   0.897  16.576 -0.0445 -0.7347 -0.0543
  891MPD2    C313112   2.279   0.914  16.571  0.5575 -0.7054 -0.6427
  891MPD2    C413113   2.350   0.972  16.467 -0.5528 -0.7196 -0.3019
  891MPD2    C513114   2.274   1.011  16.357 -0.2429 -0.3482  0.4707
  891MPD2     H13115   2.103   0.840  16.658  1.1666 -1.1202  0.3011
  891MPD2    H113116   2.455   1.000  16.467 -0.8075  0.2216  0.8743
  891MPD2    H213117   2.086   1.000  16.268  2.7813  1.3856 -1.9659
  891MPD2    H313118   2.320   1.054  16.269 -0.3167 -1.3917 -0.0747
  891MPD2     N13119   2.354   0.867  16.679 -1.0465 -0.0589  1.3942
  891MPD2    H513120   2.296   0.819  16.747 -1.2647 -2.6098 -0.5700
  891MPD2    N113121   1.932   0.912  16.434 -0.5988  0.6048  0.1828
  891MPD2    H713122   1.892   0.943  16.346 -0.5465 -1.2762 -0.5200
  892MPD2     C13123   2.923   1.436  14.066 -0.6290  0.2592  0.0437
  892MPD2    C113124   2.916   1.372  14.189 -0.4198  0.6413  0.4828
  892MPD2    C213125   2.993   1.261  14.208  0.2026  0.4509 -0.1726
  892MPD2    C313126   3.073   1.204  14.110 -0.4872 -0.2686 -0.2065
  892MPD2    C413127   3.084   1.277  13.992  1.2428  0.0789 -0.2897
  892MPD2    C513128   3.014   1.393  13.975 -0.4596  0.3201  0.9264
  892MPD2     H13129   2.975   1.204  14.299 -2.3690 -1.1751 -1.6963
  892MPD2    H113130   3.150   1.242  13.914 -0.0339 -0.1406 -1.2651
  892MPD2    H213131   2.869   1.529  14.059 -1.9132 -0.4429  0.7791
  892MPD2    H313132   3.017   1.445  13.881  1.5646 -2.7580 -0.7171
  892MPD2     N13133   3.161   1.091  14.133 -0.1908  0.1758  0.5046
  892MPD2    H513134   3.205   1.056  14.049  0.7881 -0.2254  1.1908
  892MPD2    N113135   2.825   1.428  14.286  0.0459 -0.3652 -0.1023
  892MPD2    H713136   2.762   1.499  14.250 -0.5294 -1.6915 -1.7250
  893MPD2     C13137   0.264   0.388   1.985  0.4422 -0.5822  0.2779
  893MPD2    C113138   0.178   0.347   1.884 -0.0196 -0.2461  0.2916
  893MPD2    C213139   0.052   0.410   1.874  0.0246 -0.0322  0.0341
  893MPD2    C313140   0.011   0.494   1.975 -0.0627  0.1052  0.4327
  893MPD2    C413141   0.101   0.537   2.069  0.4160  0.2786 -0.2923
  893MPD2    C513142   0.233   0.486   2.071  0.0945 -0.1865 -0.8161
  893MPD2     H13143   4.720   0.383   1.795 -0.9764  1.9119  0.2500
  893MPD2    H113144   0.076   0.600   2.153 -0.4370 -1.1652  0.5483
  893MPD2    H213145   0.366   0.351   1.997 -0.3866 -2.9540 -0.0043
  893MPD2    H313146   0.299   0.516   2.151 -0.8528  2.6383 -1.0955
  893MPD2     N13147   4.615   0.536   1.995 -0.8203 -0.1674  0.2674
  893MPD2    H513148   4.596   0.608   2.063  1.5716 -1.1694  2.0037
  893MPD2    N113149   0.233   0.268   1.782 -0.9523  0.2464  0.8689
  893MPD2    H713150   0.321   0.222   1.803  1.3182  3.8502 -0.6701
  894MPD2     C13151   3.236   2.517   1.983  0.5354  0.4645 -0.0624
  894MPD2    C113152   3.144   2.436   1.922  0.0839  0.4764  0.2780
  894MPD2    C213153   3.136   2.457   1.785  0.3509  0.3556  0.1695
  894MPD2    C313154   3.217   2.539   1.706 -0.5306  0.3502 -0.0017
  894MPD2    C413155   3.302   2.623   1.769 -0.0294 -0.5427  0.5653
  894MPD2    C513156   3.313   2.606   1.907 -0.2304 -0.0978 -0.5206
  894MPD2     H13157   3.052   2.409   1.736 -0.6525 -0.8645  3.1262
  894MPD2    H113158   3.365   2.699   1.724  0.9912 -1.6240  0.1775
  894MPD2    H213159   3.257   2.512   2.089 -1.2081 -0.5745  0.2248
  894MPD2    H313160   3.381   2.678   1.952 -0.6033 -0.7001  0.9976
  894MPD2     N13161   3.187   2.555   1.561  0.4133 -0.1935  0.2312
  894MPD2    H513162   3.128   2.488   1.513  0.7532 -1.2048  1.2277
  894MPD2    N113163   3.047   2.350   1.987  0.0042  0.0754  0.1956
  894MPD2    H713164   3.008   2.283   1.922  2.6209 -1.8720  0.6645
  895MPD2     C13165   2.189   0.925  13.611  0.6642 -0.5231  0.1820
  895MPD2    C113166   2.150   0.795  13.586  0.0814 -0.1502  0.6204
  895MPD2    C213167   2.247   0.708  13.549  0.4576 -0.0065  0.7509
  895MPD2    C313168   2.374   0.750  13.514 -0.1500  0.0277 -0.4482
  895MPD2    C413169   2.415   0.887  13.533  0.1435  0.0844  0.1306
  895MPD2    C513170   2.317   0.973  13.576 -0.0166 -0.6167 -0.1878
  895MPD2     H13171   2.228   0.602  13.537  1.1645  0.0315 -0.7753
  895MPD2    H113172   2.518   0.920  13.518 -0.3551  1.4797 -0.2489
  895MPD2    H213173   2.115   0.999  13.639  0.2240 -0.8739 -0.0436
  895MPD2    H313174   2.347   1.076  13.591 -0.0642 -0.2660 -2.6073
  895MPD2     N13175   2.461   0.649  13.473  0.0478 -0.7834  0.6982
  895MPD2    H513176   2.420   0.557  13.488 -1.6579 -0.5981 -2.9462
  895MPD2    N113177   2.029   0.736  13.615 -0.1436 -0.2000  0.5333
  895MPD2    H713178   2.021   0.636  13.596  0.4907 -0.2448  0.5032
  896MPD2     C13179   0.126   2.845   1.357 -0.0011 -0.2954  0.3048
  896MPD2    C113180   0.106   2.752   1.259  0.6283  0.2793  0.5015
  896MPD2    C213181   4.717   2.710   1.233 -0.0642 -0.1861 -0.4289
  896MPD2    C313182   4.609   2.730   1.314  0.1653  0.8347 -0.6997
  896MPD2    C413183   4.629   2.820   1.421  0.2359  0.1757 -0.6063
  896MPD2    C513184   0.019   2.873   1.436 -0.4156  0.0839  0.4300
  896MPD2     H13185   4.693   2.647   1.148 -0.7607 -2.0501  1.1457
  896MPD2    H113186   4.555   2.838   1.498  1.4725  0.3619  0.5361
  896MPD2    H213187   0.224   2.889   1.374 -0.2591  0.5269 -0.3667
  896MPD2    H313188   0.040   2.946   1.513  1.6876 -0.0717 -0.0100
  896MPD2     N13189   4.488   2.665   1.289  0.6899 -0.9888 -0.7884
  896MPD2    H513190   4.483   2.619   1.199  2.1025  0.1420 -1.4493
  896MPD2    N113191   0.219   2.727   1.184 -0.2474  0.8498 -0.0665
  896MPD2    H713192   0.308   2.762   1.219 -0.6273 -0.2464  2.0049
  897MPD2     C13193   0.776   0.414  10.833  0.4784 -0.1533 -0.4680
  897MPD2    C113194   0.693   0.496  10.909 -0.0785  0.3417  0.2899
  897MPD2    C213195   0.600   0.440  10.992  0.1776  0.3927 -0.7679
  897MPD2    C313196   0.586   0.304  10.997  0.1555 -0.1108 -0.3364
  897MPD2    C413197   0.672   0.224  10.925 -0.3534 -0.1792  0.3712
  897MPD2    C513198   0.760   0.279  10.834 -0.6206  0.1412 -0.8999
  897MPD2     H13199   0.521   0.504  11.029  0.5994  0.5278 -0.1013
  897MPD2    H113200   0.672   0.116  10.933 -2.8475 -0.1730  0.7122
  897MPD2    H213201   0.855   0.451  10.769 -1.1872  1.0360 -1.8343
  897MPD2    H313202   0.827   0.211  10.783 -0.6410  0.8482 -1.8519
  897MPD2     N13203   0.486   0.251  11.078 -0.2198  0.2289  0.5750
  897MPD2    H513204   0.430   0.320  11.126  1.0384 -0.5622  3.2247
  897MPD2    N113205   0.688   0.632  10.865  0.4949  0.6776  0.1970
  897MPD2    H713206   0.748   0.661  10.789  0.3463 -0.7248 -0.4587
  898MPD2     C13207   2.683   0.704   0.045  0.3778  0.5101 -0.3078
  898MPD2    C113208   2.719   0.684  17.660 -0.1944  0.7084 -0.2434
  898MPD2    C213209   2.671   0.774  17.566  0.0179 -0.0176 -0.0863
  898MPD2    C313210   2.598   0.886  17.599  0.5260 -0.1000  0.0329
  898MPD2    C413211   2.567   0.905  17.737  1.1350  0.3586  0.3418
  898MPD2    C513212   2.609   0.809   0.087  0.1562 -1.1053 -0.0570
  898MPD2     H13213   2.683   0.757  17.459 -2.1915 -1.0152 -0.1815
  898MPD2    H113214   2.526   0.998   0.031 -1.9032 -0.0368 -1.9415
  898MPD2    H213215   2.713   0.634   0.122 -0.2829 -0.4014 -0.8836
  898MPD2    H313216   2.588   0.820   0.192  0.4681 -0.9953 -0.0086
  898MPD2     N13217   2.576   0.981  17.503 -0.2780 -0.1041  0.5987
  898MPD2    H513218   2.609   0.950  17.412 -0.6685  3.4768 -0.7676
  898MPD2    N113219   2.823   0.589  17.620  0.2131 -0.6703 -0.6136
  898MPD2    H713220   2.841   0.576  17.521 -0.1406 -1.0041 -0.6307
  899MPD2     C13221   3.517   0.994  16.957 -0.6242  0.3292  0.8901
  899MPD2    C113222   3.543   1.070  17.068  0.7451  0.3260  0.8419
  899MPD2    C213223   3.588   0.999  17.176 -0.3258  0.3737  0.9467
  899MPD2    C313224   3.598   0.857  17.176  0.3355  0.0913 -0.7857
  899MPD2    C413225   3.573   0.793  17.058  0.3669 -0.1549  0.4692
  899MPD2    C513226   3.551   0.862  16.943 -0.5501  0.1581  0.1258
  899MPD2     H13227   3.610   1.055  17.267 -2.7404  0.3851  1.5168
  899MPD2    H113228   3.572   0.685  17.047 -1.2637 -0.2501  1.6456
  899MPD2    H213229   3.480   1.040  16.866  2.9478 -0.5858 -1.0697
  899MPD2    H313230   3.523   0.816  16.849 -0.1644 -2.5517  1.3446
  899MPD2     N13231   3.634   0.778  17.286  0.8630 -0.4170 -0.1844
  899MPD2    H513232   3.681   0.695  17.251  0.3387 -0.1256 -1.5606
  899MPD2    N113233   3.527   1.209  17.063 -0.2703  0.2291 -1.0387
  899MPD2    H713234   3.513   1.250  16.971  1.7231  1.1415 -0.9431
  900MPD2     C13235   3.161   2.957  12.560 -0.6072 -0.3676 -0.4646
  900MPD2    C113236   3.054   2.887  12.607  0.1843  0.2595  0.7611
  900MPD2    C213237   2.928   2.933  12.583  0.3311  0.5893 -0.7008
  900MPD2    C313238   2.903   3.048  12.520 -0.3924  0.0395 -0.4540
  900MPD2    C413239   3.007   3.120  12.474  0.2119  0.2990 -0.5234
  900MPD2    C513240   3.136   3.077  12.500  0.0881 -0.1667 -0.1365
  900MPD2     H13241   2.847   2.867  12.611  0.5669  1.0846  1.1572
  900MPD2    H113242   3.000   3.200  12.402  1.0514  0.6927 -0.1735
  900MPD2    H213243   3.261   2.929  12.590 -2.1725 -1.7396  3.4074
  900MPD2    H313244   3.222   3.133  12.464  0.5960 -0.6100  0.3885
  900MPD2     N13245   2.765   3.080  12.503  0.0376 -0.4120 -0.3166
  900MPD2    H513246   2.703   3.017  12.553  0.5366 -0.0879  0.7045
  900MPD2    N113247   3.082   2.762  12.676  0.1926  0.5817  0.8301
  900MPD2    H713248   3.181   2.743  12.688  0.4860  0.8289 -1.0680
  901MPD2     C13249   2.857   1.706  12.830  0.5940  0.0608  0.5198
  901MPD2    C113250   2.949   1.732  12.732 -0.1548  0.3322  0.5600
  901MPD2    C213251   2.987   1.861  12.702  0.1645  0.1225  0.7006
  901MPD2    C313252   2.920   1.967  12.769 -0.2086 -0.3371  0.2711
  901MPD2    C413253   2.828   1.938  12.865  0.1139  0.0515  0.0941
  901MPD2    C513254   2.792   1.809  12.900  0.8631  0.3479 -0.4476
  901MPD2     H13255   3.059   1.884  12.624  0.2833  0.5563  0.9337
  901MPD2    H113256   2.772   2.012  12.921  2.8805  0.7175  2.0043
  901MPD2    H213257   2.833   1.601  12.835  0.7899 -0.0215 -0.3836
  901MPD2    H313258   2.718   1.791  12.977  1.1122  0.9514 -0.0731
  901MPD2     N13259   2.962   2.099  12.750 -0.0701  0.4336 -0.2280
  901MPD2    H513260   3.031   2.112  12.676 -1.0475 -0.8195 -1.3531
  901MPD2    N113261   3.006   1.618  12.653 -0.3943  0.1354 -0.2789
  901MPD2    H713262   2.994   1.522  12.684  0.4728  0.5205  1.2378
  902MPD2     C13263   2.438   0.914  12.875  0.8217  0.4899  0.3670
  902MPD2    C113264   2.499   0.992  12.780  0.4077 -0.0016  0.2003
  902MPD2    C213265   2.620   0.949  12.723  0.4159 -0.2238 -0.7657
  902MPD2    C313266   2.668   0.823  12.743  0.3756  0.1122 -0.6128
  902MPD2    C413267   2.593   0.743  12.834 -0.2908 -0.1967  0.6331
  902MPD2    C513268   2.482   0.792  12.901  0.2329  0.0004 -0.3488
  902MPD2     H13269   2.674   1.023  12.664 -1.5270  1.0537 -0.9304
  902MPD2    H113270   2.619   0.640  12.858  0.4539  0.2864  1.8934
  902MPD2    H213271   2.340   0.954  12.900  0.9050  2.2814 -2.1980
  902MPD2    H313272   2.420   0.736  12.970 -1.2840  1.0196 -0.8759
  902MPD2     N13273   2.783   0.787  12.666  0.0826  0.3604 -0.0125
  902MPD2    H513274   2.822   0.849  12.596  2.5903 -1.7158 -0.4477
  902MPD2    N113275   2.432   1.107  12.743 -0.3718 -0.1608  0.4978
  902MPD2    H713276   2.353   1.140  12.798 -0.1109  1.5850 -0.1829
  903MPD2     C13277   2.839   1.033  12.043 -0.1226  0.0724 -0.7772
  903MPD2    C113278   2.837   0.987  12.175 -0.0295 -0.2579  0.2154
  903MPD2    C213279   2.718   0.996  12.230 -0.0255  0.0372 -0.3898
  903MPD2    C313280   2.603   1.036  12.171 -0.0959  0.0205 -0.0918
  903MPD2    C413281   2.600   1.066  12.041 -0.2730  0.3686 -0.0045
  903MPD2    C513282   2.726   1.069  11.978 -0.9855 -0.5531 -0.1819
  903MPD2     H13283   2.707   0.978  12.337  0.0571  0.3998 -0.3188
  903MPD2    H113284   2.508   1.083  11.986 -0.5308 -0.2249  0.2417
  903MPD2    H213285   2.926   1.028  11.978 -0.0231  2.9422 -0.8818
  903MPD2    H313286   2.722   1.098  11.873 -1.2048 -0.0525 -0.0329
  903MPD2     N13287   2.491   1.015  12.259 -0.1649 -0.2514  0.0296
  903MPD2    H513288   2.520   1.007  12.356  0.5193  0.2849 -0.1335
  903MPD2    N113289   2.947   0.936  12.239  0.8817  0.4431 -0.1039
  903MPD2    H713290   3.030   0.912  12.186  0.7861  0.1176 -0.1028
  904MPD2     C13291   2.047   4.457  14.118 -0.5706  0.0455 -0.4806
  904MPD2    C113292   2.120   4.577  14.102 -0.0768  0.2662 -0.3838
  904MPD2    C213293   2.253   4.586  14.148 -0.0134 -0.0378  0.0278
  904MPD2    C313294   2.314   4.465  14.184  0.4678  0.0474 -0.8367
  904MPD2    C413295   2.240   4.345  14.208  0.3284 -0.8968  0.1217
  904MPD2    C513296   2.108   4.340  14.164  0.3675 -0.4150 -0.2072
  904MPD2     H13297   2.305   4.680  14.139 -1.3475  0.8884  2.1506
  904MPD2    H113298   2.279   4.256  14.256  2.3915  0.5151  1.0775
  904MPD2    H213299   1.942   4.446  14.092 -0.6319  1.7579 -0.9675
  904MPD2    H313300   2.055   4.245  14.163 -0.1202 -0.1435 -0.2678
  904MPD2     N13301   2.445   4.491  14.229  0.1640 -0.1160  0.1005
  904MPD2    H513302   2.477   4.585  14.212 -1.3402  0.6252  1.4649
  904MPD2    N113303   2.071   4.699  14.050  0.5413  0.1717  0.0694
  904MPD2    H713304   2.112   0.050  14.080 -0.7152  0.0349  2.2298
  905MPD2     C13305   1.883   0.182  13.327 -0.4050 -0.2469 -0.6724
  905MPD2    C113306   1.967   0.260  13.412  0.4113 -0.2488  0.0298
  905MPD2    C213307   2.092   0.297  13.366 -0.4433 -0.2337 -0.3657
  905MPD2    C313308   2.123   0.256  13.241  0.2112  0.2854 -0.3668
  905MPD2    C413309   2.045   0.177  13.166 -0.3377  0.0875  0.2659
  905MPD2    C513310   1.917   0.142  13.197  1.5836 -0.1588 -0.3588
  905MPD2     H13311   2.159   0.350  13.433 -2.5145 -0.4949  1.9412
  905MPD2    H113312   2.085   0.127  13.078  0.1072  1.0381 -0.0724
  905MPD2    H213313   1.792   0.140  13.367 -0.9946  1.9723  0.3275
  905MPD2    H313314   1.849   0.082  13.138  0.4805  1.2439 -0.5009
  905MPD2     N13315   2.250   0.282  13.195  0.4345  0.0884  0.3189
  905MPD2    H513316   2.281   0.226  13.116 -1.5424 -0.6257  0.0517
  905MPD2    N113317   1.923   0.282  13.544  0.4939  0.2201  0.3089
  905MPD2    H713318   1.834   0.237  13.561 -0.4371  1.4452 -1.3004
  906MPD2     C13319   4.070   0.482  11.385  0.4046 -0.5407  0.0978
  906MPD2    C113320   4.035   0.392  11.288 -0.3850 -1.1340  0.1922
  906MPD2    C213321   3.999   0.266  11.320  0.0701 -0.3478 -0.5709
  906MPD2    C313322   3.975   0.236  11.452 -0.4202  0.1733 -0.2020
  906MPD2    C413323   3.992   0.332  11.550 -1.1731 -0.0903 -0.3067
  906MPD2    C513324   4.050   0.454  11.512  0.8690  0.1303  0.1854
  906MPD2     H13325   3.988   0.196  11.238  2.7706  0.2096 -1.3838
  906MPD2    H113326   3.969   0.317  11.655  0.6331 -0.1874  0.0872
  906MPD2    H213327   4.099   0.583  11.360  0.1357 -0.4921 -0.0231
  906MPD2    H313328   4.072   0.534  11.582 -1.4767  0.3638  0.6619
  906MPD2     N13329   3.916   0.119  11.497 -0.0281 -0.3432  0.1243
  906MPD2    H513330   3.914   0.099  11.597 -0.1836  0.0153  0.1936
  906MPD2    N113331   4.041   0.420  11.146  0.2346 -0.0630 -0.2347
  906MPD2    H713332   4.021   0.344  11.082 -0.3604  0.4645 -0.6707
  907MPD2     C13333   3.444   4.020  15.859  0.2859 -0.4869 -0.9856
  907MPD2    C113334   3.414   3.887  15.846 -0.0494 -0.1639  0.0919
  907MPD2    C213335   3.481   3.808  15.945 -0.1787 -0.1074  0.0967
  907MPD2    C313336   3.567   3.864  16.039 -0.3263  0.1910  0.5610
  907MPD2    C413337   3.594   3.994  16.040 -0.0482  0.2257  0.8701
  907MPD2    C513338   3.539   4.072  15.939 -0.4238 -0.1086 -0.4714
  907MPD2     H13339   3.456   3.703  15.955  0.8744 -0.4169 -0.5016
  907MPD2    H113340   3.665   4.045  16.105  0.5956  0.5640 -0.0980
  907MPD2    H213341   3.404   4.099  15.796  0.5450 -0.0362 -0.5825
  907MPD2    H313342   3.563   4.177  15.929 -1.0612  0.2338  1.5435
  907MPD2     N13343   3.623   3.770  16.127 -0.3281  0.0840  0.4478
  907MPD2    H513344   3.585   3.676  16.136  0.2419 -0.0975  0.9511
  907MPD2    N113345   3.313   3.834  15.761  0.3597 -0.3580 -0.5979
  907MPD2    H713346   3.280   3.739  15.773  2.1423 -0.7442  1.1722
  908MPD2     C13347   0.195   0.560  10.168 -0.2549 -0.2394  0.2600
  908MPD2    C113348   0.290   0.485  10.237  0.4898  0.8487  0.5927
  908MPD2    C213349   0.380   0.552  10.321  0.0186 -0.1224 -0.2180
  908MPD2    C313350   0.349   0.679  10.368  0.0230  0.4162  0.3433
  908MPD2    C413351   0.240   0.748  10.309  0.3661 -0.4084  0.3900
  908MPD2    C513352   0.178   0.696  10.201 -0.2686 -0.0132 -0.7777
  908MPD2     H13353   0.466   0.496  10.355  1.9084  2.6529 -0.3732
  908MPD2    H113354   0.219   0.853  10.328  0.2817 -0.5330  0.9989
  908MPD2    H213355   0.132   0.531  10.085 -2.7950  2.3009  1.3358
  908MPD2    H313356   0.105   0.753  10.145  0.0306 -0.7740 -1.9384
  908MPD2     N13357   0.432   0.739  10.473 -0.0421  0.3039  0.5137
  908MPD2    H513358   0.511   0.685  10.506 -0.4127 -0.9534 -0.6789
  908MPD2    N113359   0.297   0.348  10.203  0.4038  0.4748 -0.1549
  908MPD2    H713360   0.230   0.316  10.133 -0.9832  2.0473  0.4594
  909MPD2     C13361   0.933   2.812  11.652  0.5766 -0.6738  0.2475
  909MPD2    C113362   0.955   2.947  11.660  0.4875  0.0750  0.0445
  909MPD2    C213363   0.881   3.027  11.751  0.1223  0.2418 -0.6991
  909MPD2    C313364   0.805   2.959  11.846  0.6269 -0.2786 -0.7144
  909MPD2    C413365   0.788   2.819  11.832  0.3226 -0.0995  0.1816
  909MPD2    C513366   0.852   2.745  11.740 -0.1612 -0.2600 -0.2069
  909MPD2     H13367   0.889   3.135  11.752 -0.8870  0.3342 -2.3273
  909MPD2    H113368   0.719   2.770  11.899 -0.3415 -0.3766 -0.7194
  909MPD2    H213369   0.985   2.743  11.587  1.5829 -0.4803  0.8430
  909MPD2    H313370   0.824   2.642  11.724 -2.7102  0.7674 -2.3883
  909MPD2     N13371   0.746   3.033  11.950  0.8200 -0.3484 -0.2479
  909MPD2    H513372   0.758   3.134  11.946  0.9211 -0.5087 -3.2731
  909MPD2    N113373   1.042   3.011  11.569  0.4456  0.5014  0.1802
  909MPD2    H713374   1.048   3.112  11.580 -1.4476  0.7901 -1.4474
  910MPD2     C13375   2.458   4.063  16.022  0.7860  0.6705 -0.0954
  910MPD2    C113376   2.564   3.979  15.984 -0.1405  0.5661  0.4742
  910MPD2    C213377   2.586   3.959  15.845  0.5917 -0.4295  0.1081
  910MPD2    C313378   2.526   4.034  15.752 -0.5786  0.9899 -0.1649
  910MPD2    C413379   2.433   4.125  15.793  0.2207 -0.3449  0.0389
  910MPD2    C513380   2.397   4.137  15.924 -0.3246  0.3201  0.4037
  910MPD2     H13381   2.656   3.883  15.811  1.6169  1.1894 -1.3598
  910MPD2    H113382   2.380   4.193  15.728 -0.5414  0.3998  1.4276
  910MPD2    H213383   2.426   4.080  16.125  2.4020  1.7123  0.2419
  910MPD2    H313384   2.326   4.216  15.943  0.8033  1.1850  1.0746
  910MPD2     N13385   2.560   4.024  15.614 -0.0654 -0.0884 -0.3645
  910MPD2    H513386   2.526   4.096  15.552  0.4773  0.0832 -0.4646
  910MPD2    N113387   2.621   3.884  16.069  0.5363 -0.0275  0.1296
  910MPD2    H713388   2.667   3.806  16.024  0.5227  0.8244 -1.3427
  911MPD2     C13389   0.508   4.445  16.787  0.6919  0.0673 -0.4980
  911MPD2    C113390   0.558   4.565  16.741 -0.0926 -0.0241  0.6507
  911MPD2    C213391   0.459   4.660  16.703  0.0021 -0.1601 -1.0390
  911MPD2    C313392   0.327   4.638  16.705  0.2093  0.2748 -0.6006
  911MPD2    C413393   0.283   4.518  16.753 -0.2909 -0.4265  0.3244
  911MPD2    C513394   0.375   4.423  16.792 -0.3000  0.1025  0.6341
  911MPD2     H13395   0.494   0.022  16.674  0.5033 -0.1256 -0.3096
  911MPD2    H113396   0.184   4.478  16.736  0.8396 -1.9551 -2.5959
  911MPD2    H213397   0.568   4.361  16.820  0.1628 -1.1135 -2.4916
  911MPD2    H313398   0.348   4.327  16.835 -3.3915  0.6815  0.0346
  911MPD2     N13399   0.234   4.735  16.658  0.2771 -0.5102 -0.5963
  911MPD2    H513400   0.137   4.725  16.686  0.6554  0.4781  1.0343
  911MPD2    N113401   0.696   4.588  16.756 -0.0760  0.1380 -0.0400
  911MPD2    H713402   0.750   4.502  16.763  1.7562  1.2076 -1.0090
  912MPD2     C13403   4.430   4.640  16.084 -0.5464  0.0710  0.0008
  912MPD2    C113404   4.429   4.681  16.213 -0.6484 -0.5714  0.6567
  912MPD2    C213405   4.338   4.628  16.307  0.2732 -0.4894  0.1844
  912MPD2    C313406   4.264   4.516  16.266  0.0603 -0.2277 -0.4679
  912MPD2    C413407   4.259   4.485  16.132  0.5817  0.0867  0.6806
  912MPD2    C513408   4.341   4.550  16.041 -0.5879  0.4603 -0.9115
  912MPD2     H13409   4.329   4.649  16.413  2.0789  3.2129 -0.4101
  912MPD2    H113410   4.192   4.415  16.084 -0.1719  0.1105  1.7084
  912MPD2    H213411   4.506   4.672  16.014 -1.6807  0.9296 -0.8422
  912MPD2    H313412   4.333   4.521  15.937  0.5951 -0.4990 -0.7442
  912MPD2     N13413   4.204   4.427  16.359  0.2122  0.9469 -0.4465
  912MPD2    H513414   4.224   4.446  16.456 -0.4488 -1.2813  0.1282
  912MPD2    N113415   4.530   0.027  16.257  0.4553 -0.2146  0.4872
  912MPD2    H713416   4.577   0.071  16.178 -0.3429 -0.1654  0.0411
  913MPD2     C13417   0.322   1.408  11.440 -0.5512 -0.3180 -0.1343
  913MPD2    C113418   0.344   1.545  11.448 -0.5245 -0.6593  0.5647
  913MPD2    C213419   0.296   1.625  11.344  0.7310 -0.3058  0.6430
  913MPD2    C313420   0.232   1.565  11.236  0.1081  0.4919  0.5604
  913MPD2    C413421   0.211   1.428  11.234 -0.5126  0.0882 -0.2953
  913MPD2    C513422   0.252   1.349  11.341 -0.7979  0.7032  0.2630
  913MPD2     H13423   0.326   1.729  11.338 -0.1115 -0.1876 -1.8046
  913MPD2    H113424   0.160   1.376  11.153 -0.2872  0.0300 -0.4001
  913MPD2    H213425   0.362   1.345  11.519  0.0123  0.9535  0.6046
  913MPD2    H313426   0.234   1.242  11.351  1.5911  0.2371 -0.3754
  913MPD2     N13427   0.191   1.634  11.119 -0.0191 -0.1177 -0.5241
  913MPD2    H513428   0.151   1.580  11.043 -1.9604 -1.9332  1.8291
  913MPD2    N113429   0.425   1.590  11.556 -0.4345 -0.1872  0.3228
  913MPD2    H713430   0.453   1.519  11.623  0.5571 -2.5497 -2.6070
  914MPD2     C13431   3.411   2.012  12.057  0.7870  0.0345  0.0500
  914MPD2    C113432   3.298   2.014  12.133 -0.4491 -0.3577 -0.5992
  914MPD2    C213433   3.259   1.895  12.201  0.4981 -0.9013  0.3653
  914MPD2    C313434   3.315   1.777  12.164  0.4159 -0.0668 -0.3747
  914MPD2    C413435   3.408   1.775  12.067 -0.0736 -0.3761 -0.4411
  914MPD2    C513436   3.470   1.891  12.016 -0.4665  0.4812 -0.1113
  914MPD2     H13437   3.189   1.907  12.283 -1.5314 -2.4697 -1.1774
  914MPD2    H113438   3.451   1.681  12.035 -1.4056 -1.0821 -0.1360
  914MPD2    H213439   3.450   2.103  12.012 -0.9579  0.8172  0.1159
  914MPD2    H313440   3.543   1.885  11.936 -0.0629  1.9888  0.1551
  914MPD2     N13441   3.276   1.659  12.232  0.6941 -0.5605 -0.1767
  914MPD2    H513442   3.197   1.672  12.294  0.5888 -0.8852 -0.2478
  914MPD2    N113443   3.234   2.135  12.147  0.1681 -0.5941 -0.3097
  914MPD2    H713444   3.285   2.220  12.124 -0.9843  0.1867  0.0613
  915MPD2     C13445   1.634   1.755  15.772  0.4495 -0.2655 -0.5036
  915MPD2    C113446   1.523   1.832  15.757 -0.0639 -0.5380 -1.3275
  915MPD2    C213447   1.452   1.885  15.866 -0.5265 -0.2796 -0.1355
  915MPD2    C313448   1.508   1.872  15.988  0.0350  0.2296  0.4067
  915MPD2    C413449   1.640   1.821  16.007 -0.2671  0.1281  0.4620
  915MPD2    C513450   1.696   1.758  15.891 -0.8376  0.1064 -0.0059
  915MPD2     H13451   1.349   1.920  15.857 -0.9493 -1.9419 -1.8211
  915MPD2    H113452   1.694   1.823  16.102 -0.7423 -0.9499  0.7542
  915MPD2    H213453   1.684   1.714  15.685 -0.4688 -1.9795 -0.2255
  915MPD2    H313454   1.797   1.720  15.902 -0.1958  1.8948  0.3522
  915MPD2     N13455   1.435   1.915  16.104  0.1738  0.6793  0.1553
  915MPD2    H513456   1.348   1.961  16.080 -0.4557 -1.0121 -0.7833
  915MPD2    N113457   1.471   1.834  15.629  0.5545 -0.3246  0.8444
  915MPD2    H713458   1.519   1.772  15.565 -0.5271 -0.7215  0.4067
  916MPD2     C13459   4.052   4.619  15.607 -0.6950  0.2125  0.5962
  916MPD2    C113460   4.018   4.528  15.710 -0.1724  0.0367 -0.3308
  916MPD2    C213461   4.041   4.393  15.680 -0.2455  0.1133 -0.7194
  916MPD2    C313462   4.092   4.357  15.552  0.2254 -0.7896  1.0782
  916MPD2    C413463   4.130   4.450  15.457 -0.3603 -0.4013  0.2453
  916MPD2    C513464   4.102   4.586  15.483 -0.3078  0.1605 -0.0890
  916MPD2     H13465   4.012   4.309  15.743  0.3893  0.5408  0.1358
  916MPD2    H113466   4.167   4.420  15.359  1.4061  0.5095  0.6343
  916MPD2    H213467   4.040   4.718  15.650  4.2830  1.3594 -0.6550
  916MPD2    H313468   4.121   4.662  15.408  2.0114  0.6150  0.9778
  916MPD2     N13469   4.108   4.223  15.532 -0.5908  0.0057 -0.2097
  916MPD2    H513470   4.092   4.173  15.619  0.3935  0.3571  0.1710
  916MPD2    N113471   3.970   4.573  15.831 -0.0034  1.0962 -0.2845
  916MPD2    H713472   3.950   4.673  15.838  0.6517  1.2884 -1.2970
  917MPD2     C13473   4.035   2.290  11.280  0.0073 -0.3125  0.3705
  917MPD2    C113474   4.113   2.340  11.384  0.0167 -0.0947  0.5485
  917MPD2    C213475   4.145   2.476  11.385 -0.3046  0.3965  0.0740
  917MPD2    C313476   4.108   2.563  11.283  0.0884 -0.5288 -0.0197
  917MPD2    C413477   4.041   2.507  11.172  0.0426 -0.3922  0.0554
  917MPD2    C513478   3.997   2.373  11.174 -0.4899  0.3815 -0.1276
  917MPD2     H13479   4.203   2.520  11.465  2.2418 -1.8255 -0.5950
  917MPD2    H113480   4.006   2.574  11.094  0.3058  0.2195  0.4678
  917MPD2    H213481   4.003   2.187  11.272  0.2890 -0.5198  2.0461
  917MPD2    H313482   3.936   2.335  11.094 -2.7684  3.1787  0.2915
  917MPD2     N13483   4.140   2.704  11.274  0.1811 -0.6945  0.4743
  917MPD2    H513484   4.102   2.754  11.194  0.6537  0.0863  0.7342
  917MPD2    N113485   4.135   2.239  11.485 -0.0225 -0.6061 -0.0398
  917MPD2    H713486   4.102   2.146  11.464 -2.0706  0.1110  0.0019
  918MPD2     C13487   4.439   2.532  12.392 -0.1556  0.1219 -0.4239
  918MPD2    C113488   4.519   2.555  12.280  0.3077  0.6167 -0.4105
  918MPD2    C213489   4.507   2.462  12.175  0.7288  0.6808 -0.0158
  918MPD2    C313490   4.413   2.356  12.170 -0.7212  0.2267 -0.4102
  918MPD2    C413491   4.334   2.330  12.283 -0.3803 -0.8540  0.5862
  918MPD2    C513492   4.351   2.425  12.386 -0.1337 -0.2565  1.0183
  918MPD2     H13493   4.574   2.478  12.092  0.2655 -0.6424 -0.6435
  918MPD2    H113494   4.256   2.256  12.290 -1.0379 -0.3160 -0.9804
  918MPD2    H213495   4.441   2.596  12.479  0.8743 -1.6562  0.8554
  918MPD2    H313496   4.283   2.421  12.470  0.0434  0.8305  1.2147
  918MPD2     N13497   4.410   2.262  12.060  0.7136 -0.3835 -0.1331
  918MPD2    H513498   4.449   2.301  11.974  1.7886 -0.7780  0.1657
  918MPD2    N113499   4.615   2.659  12.279 -0.3303  0.1014  0.3175
  918MPD2    H713500   4.673   2.661  12.196  0.1679  2.4759  0.7276
  919MPD2     C13501   0.331   1.684  12.095  0.0829  0.4660 -0.0630
  919MPD2    C113502   0.274   1.564  12.051 -0.3945 -0.0537 -0.2032
  919MPD2    C213503   0.190   1.559  11.941  0.0313 -0.2370 -0.4073
  919MPD2    C313504   0.168   1.675  11.867  0.9503  0.8585  0.2041
  919MPD2    C413505   0.229   1.795  11.908 -0.4683  0.2506 -0.1755
  919MPD2    C513506   0.295   1.798  12.032  0.7021  0.3120  0.4778
  919MPD2     H13507   0.143   1.468  11.906 -0.0585  0.1270 -1.2524
  919MPD2    H113508   0.222   1.889  11.855  0.6187  0.3254 -0.1863
  919MPD2    H213509   0.416   1.680  12.162 -1.8577 -2.1156  2.2290
  919MPD2    H313510   0.348   1.890  12.051  2.5040 -0.3579 -1.3775
  919MPD2     N13511   0.093   1.686  11.753  0.5902  0.0170  0.4661
  919MPD2    H513512   0.110   1.767  11.694  2.7965 -1.2895 -0.7102
  919MPD2    N113513   0.311   1.451  12.127  0.1755  0.0607 -0.6160
  919MPD2    H713514   0.371   1.476  12.205 -1.2421 -0.4311  0.6518
  920MPD2     C13515   4.627   2.124  10.903  0.2201 -0.6931  0.4988
  920MPD2    C113516   4.540   2.021  10.888  0.3452 -0.6307 -0.3723
  920MPD2    C213517   4.536   1.927  10.986  0.3138  0.2581 -0.3976
  920MPD2    C313518   4.619   1.939  11.099  0.3780 -0.0144  0.8309
  920MPD2    C413519   4.710   2.046  11.101  0.0675 -0.3266  0.7308
  920MPD2    C513520   4.715   2.140  11.004 -0.0152 -0.1306 -0.2869
  920MPD2     H13521   4.476   1.838  10.971  0.1131  0.0184  1.7842
  920MPD2    H113522   0.045   2.045  11.182 -0.2822  2.0514  1.0748
  920MPD2    H213523   4.639   2.200  10.827 -0.6441  1.5476  2.5927
  920MPD2    H313524   0.060   2.210  10.988 -1.3629  1.4651 -0.2396
  920MPD2     N13525   4.613   1.832  11.194  0.0551  0.5726  0.1045
  920MPD2    H513526   4.551   1.755  11.171 -1.2278  1.7745 -0.5117
  920MPD2    N113527   4.469   1.988  10.765  0.1288 -0.5537 -0.0286
  920MPD2    H713528   4.407   1.908  10.773  0.1322 -0.7003 -1.4367
  921MPD2     C13529   1.308   0.644  16.900 -0.2868  0.3376 -0.6542
  921MPD2    C113530   1.334   0.571  16.787 -0.0211 -0.3492  0.9112
  921MPD2    C213531   1.275   0.446  16.783 -0.6229  0.1171  0.0300
  921MPD2    C313532   1.189   0.398  16.879  0.3239  0.2340 -0.0941
  921MPD2    C413533   1.153   0.481  16.985  1.1347  0.4353  0.5412
  921MPD2    C513534   1.221   0.601  16.998 -0.3129 -0.5816  0.1476
  921MPD2     H13535   1.307   0.381  16.703  2.1659 -0.1707  1.3753
  921MPD2    H113536   1.078   0.466  17.062 -0.1089  0.8638 -0.5756
  921MPD2    H213537   1.351   0.743  16.918 -0.8329  0.5703 -0.6477
  921MPD2    H313538   1.202   0.664  17.084  0.4924 -0.7544  0.4491
  921MPD2     N13539   1.128   0.269  16.870  0.2975 -0.4750 -0.4392
  921MPD2    H513540   1.048   0.249  16.929 -0.3046  1.4369 -0.5866
  921MPD2    N113541   1.410   0.634  16.684  0.2823  0.1432 -0.1906
  921MPD2    H713542   1.443   0.727  16.707 -1.1945  0.9994 -1.5501
  922MPD2     C13543   1.883   2.934  17.066 -0.9462 -0.3955 -0.8409
  922MPD2    C113544   1.824   2.925  17.188 -0.4716  0.3964  0.2978
  922MPD2    C213545   1.726   2.830  17.209  0.3835  0.3425 -0.1268
  922MPD2    C313546   1.693   2.738  17.115 -0.2666  0.6178  0.2472
  922MPD2    C413547   1.757   2.743  16.996 -1.3067 -0.2423 -0.0164
  922MPD2    C513548   1.841   2.841  16.974 -0.0532 -0.0346 -0.4990
  922MPD2     H13549   1.669   2.830  17.301  2.0966 -1.3016  0.9402
  922MPD2    H113550   1.729   2.681  16.911  1.4389 -2.0992  0.4361
  922MPD2    H213551   1.954   3.013  17.045 -0.9470  0.1604  1.2382
  922MPD2    H313552   1.891   2.832  16.878 -2.3766 -0.2349 -1.6941
  922MPD2     N13553   1.593   2.649  17.142 -0.4777  0.6117  0.1170
  922MPD2    H513554   1.545   2.662  17.231 -0.3833  0.6596  0.1610
  922MPD2    N113555   1.849   3.015  17.294 -0.4388 -0.2923 -0.2025
  922MPD2    H713556   1.809   3.000  17.385 -1.1504 -0.1185 -0.4881
  923MPD2     C13557   3.088   0.901   9.359  0.4602 -0.2788 -0.7295
  923MPD2    C113558   3.100   0.968   9.478  0.1501 -0.8480 -0.1287
  923MPD2    C213559   3.217   0.961   9.550 -0.1566  0.7950  0.4486
  923MPD2    C313560   3.317   0.881   9.508 -0.6382 -0.5182  0.2694
  923MPD2    C413561   3.308   0.813   9.394  0.3949  0.0572 -0.0406
  923MPD2    C513562   3.195   0.822   9.319  0.4063 -0.6638  0.0847
  923MPD2     H13563   3.223   1.013   9.646 -0.3153 -0.4647  1.1439
  923MPD2    H113564   3.388   0.756   9.347 -0.2160 -1.2018  0.4385
  923MPD2    H213565   3.006   0.913   9.290  1.3430 -1.5369 -1.9858
  923MPD2    H313566   3.204   0.787   9.217 -0.2480  0.8907 -0.5129
  923MPD2     N13567   3.447   0.887   9.565  0.3025  0.9858 -0.6879
  923MPD2    H513568   3.518   0.834   9.517  0.7521 -0.1295  1.2091
  923MPD2    N113569   2.993   1.055   9.509 -0.3302 -0.0597 -0.5688
  923MPD2    H713570   2.918   1.053   9.441 -0.5038  2.1160 -0.4296
  924MPD2     C13571   3.647   2.977  15.881 -0.2688 -0.1756 -0.0254
  924MPD2    C113572   3.656   2.978  16.022 -0.4079 -0.9014 -0.3650
  924MPD2    C213573   3.697   3.084  16.087  0.0018 -0.0743 -0.4029
  924MPD2    C313574   3.733   3.201  16.019  0.2553 -0.0244 -0.2271
  924MPD2    C413575   3.713   3.206  15.881 -0.6984  0.1772 -0.1820
  924MPD2    C513576   3.674   3.092  15.816  0.4002  0.3130 -0.7896
  924MPD2     H13577   3.717   3.065  16.191  0.0931 -1.0195 -0.5932
  924MPD2    H113578   3.723   3.299  15.827 -1.9280 -0.3133 -1.2488
  924MPD2    H213579   3.620   2.906  15.804 -0.2353 -1.4626  1.1480
  924MPD2    H313580   3.667   3.105  15.709 -0.0015  0.1149 -0.7859
  924MPD2     N13581   3.786   3.315  16.082 -0.2420 -0.4941  0.0784
  924MPD2    H513582   3.820   3.400  16.040 -0.2417  0.1360  1.3556
  924MPD2    N113583   3.627   2.874  16.111  0.1498  0.0611  0.0545
  924MPD2    H713584   3.634   2.909  16.206  1.8660 -0.5808  0.1661
  925MPD2     C13585   2.322   0.957  14.811 -0.1277 -0.1348  0.6733
  925MPD2    C113586   2.186   0.937  14.777 -0.3992  0.2429  0.4763
  925MPD2    C213587   2.115   0.880  14.880  0.3696  0.8008  0.6621
  925MPD2    C313588   2.162   0.848  15.008  1.0397 -0.4660 -0.2724
  925MPD2    C413589   2.298   0.861  15.032  0.1523 -0.2010 -0.1713
  925MPD2    C513590   2.372   0.926  14.936 -0.3563 -0.0941  0.4311
  925MPD2     H13591   2.007   0.873  14.876  0.4819 -0.4191 -0.2667
  925MPD2    H113592   2.348   0.836  15.125 -1.0811  0.8414  0.7689
  925MPD2    H213593   2.394   0.989  14.737 -0.2142 -2.1751 -0.3156
  925MPD2    H313594   2.479   0.940  14.947 -0.5880  3.7753 -2.2831
  925MPD2     N13595   2.073   0.773  15.089 -0.1154 -0.3697  0.3266
  925MPD2    H513596   1.975   0.782  15.065  0.5670  1.1281 -1.8794
  925MPD2    N113597   2.129   0.949  14.647  0.0767 -0.3629  0.1351
  925MPD2    H713598   2.031   0.923  14.647  0.3140 -1.2427  0.4458
  926MPD2     C13599   0.858   4.063  13.507  0.0963 -0.2798  0.6518
  926MPD2    C113600   0.804   4.175  13.448 -0.1217  0.4207  0.4164
  926MPD2    C213601   0.865   4.229  13.334 -0.1505  0.0642  0.6084
  926MPD2    C313602   0.974   4.176  13.279  0.3446 -0.1415  0.2100
  926MPD2    C413603   1.022   4.062  13.335 -0.0058 -0.3458 -0.0943
  926MPD2    C513604   0.975   4.013  13.456 -0.2500  0.3123  0.0916
  926MPD2     H13605   0.830   4.318  13.283  0.4368  0.6120  1.1576
  926MPD2    H113606   1.104   4.009  13.289 -0.0817  0.0373 -0.6629
  926MPD2    H213607   0.823   4.028  13.603  1.0952  0.4555  1.2797
  926MPD2    H313608   1.027   3.935  13.512  0.6908 -0.8351 -2.3770
  926MPD2     N13609   1.042   4.234  13.173 -0.0544 -0.3318 -0.2417
  926MPD2    H513610   1.121   4.184  13.134 -0.7331 -1.9758  0.4734
  926MPD2    N113611   0.696   4.253  13.510  0.0583 -0.5292  0.0693
  926MPD2    H713612   0.641   4.312  13.449  0.9965  1.0273  0.7307
  927MPD2     C13613   1.033   0.949  17.651  0.0708 -0.1603  0.2063
  927MPD2    C113614   0.936   1.038  17.616 -0.5495  0.5328  1.4752
  927MPD2    C213615   0.933   1.085  17.483 -0.8460  0.3288 -0.7990
  927MPD2    C313616   1.026   1.041  17.389 -1.2036  0.0040  0.1409
  927MPD2    C413617   1.123   0.955  17.431  0.3217 -0.5034  0.4487
  927MPD2    C513618   1.131   0.911  17.561 -0.2151  0.0862 -0.0884
  927MPD2     H13619   0.864   1.162  17.451  0.0679 -0.0779 -3.7924
  927MPD2    H113620   1.193   0.912  17.361  2.1475  2.2494  0.5773
  927MPD2    H213621   1.047   0.917   0.009  0.9229  1.1481  0.5000
  927MPD2    H313622   1.205   0.836  17.589  1.1845  0.9055 -1.5952
  927MPD2     N13623   0.998   1.073  17.254 -0.9578 -0.1954  0.6410
  927MPD2    H513624   0.914   1.123  17.228  1.0683  1.2837 -3.2006
  927MPD2    N113625   0.843   1.074  17.714 -0.4273  0.1726  1.0047
  927MPD2    H713626   0.857   1.036   0.063 -0.9938 -0.8847  0.6640
  928MPD2     C13627   3.075   0.115   1.147  1.2491  0.5059  0.0204
  928MPD2    C113628   3.070   0.176   1.026  0.2102  0.0668  0.1988
  928MPD2    C213629   3.147   0.122   0.925  0.2653  0.6051 -0.1013
  928MPD2    C313630   3.249   0.023   0.954  0.0228 -0.4330  0.2576
  928MPD2    C413631   3.258   4.709   1.085  0.3135 -0.8960  0.2676
  928MPD2    C513632   3.158   0.009   1.172  0.1198 -0.0690  0.2096
  928MPD2     H13633   3.146   0.163   0.825  2.0071  1.2977  0.1638
  928MPD2    H113634   3.331   4.635   1.115  0.0842 -1.3545 -0.2964
  928MPD2    H213635   3.022   0.149   1.235  0.5013  1.3600 -0.7590
  928MPD2    H313636   3.153   4.687   1.263  0.1348  1.0609  0.9421
  928MPD2     N13637   3.341   4.717   0.852  0.1810  0.4045 -0.0794
  928MPD2    H513638   3.424   4.665   0.882  1.5207  0.0331 -4.3988
  928MPD2    N113639   2.999   0.300   1.016  0.3403  0.6892  0.2331
  928MPD2    H713640   2.948   0.330   1.098  0.7785 -0.4562  0.9229
  929MPD2     C13641   3.606   0.174  10.572  0.8933  0.5473 -0.2772
  929MPD2    C113642   3.476   0.127  10.578 -0.0262 -0.3199  0.6349
  929MPD2    C213643   3.379   0.176  10.492 -0.1888  0.2289  0.5304
  929MPD2    C313644   3.405   0.286  10.409  0.1339  0.1960 -0.0165
  929MPD2    C413645   3.542   0.329  10.407 -0.6190  0.5172 -0.3198
  929MPD2    C513646   3.640   0.275  10.482 -0.0825  0.4213  0.1509
  929MPD2     H13647   3.275   0.150  10.505  0.2311 -1.9897 -0.4802
  929MPD2    H113648   3.570   0.411  10.342 -0.9708  0.4613 -0.5417
  929MPD2    H213649   3.682   0.122  10.628 -0.7371 -1.4073  0.1256
  929MPD2    H313650   3.744   0.303  10.471 -0.4035  1.1645 -0.9643
  929MPD2     N13651   3.312   0.366  10.337  0.9148 -0.1560  0.0104
  929MPD2    H513652   3.353   0.449  10.297  2.0426 -1.2762 -1.1523
  929MPD2    N113653   3.452   0.046  10.689 -0.0038 -0.9338  0.0198
  929MPD2    H713654   3.530   0.054  10.753 -0.3930  1.0677  0.2311
  930MPD2     C13655   4.720   2.129  14.216  0.2252 -0.6088  0.0911
  930MPD2    C113656   0.115   2.149  14.165 -0.2435 -0.3768 -0.1949
  930MPD2    C213657   0.140   2.108  14.038 -0.2983  0.9133  0.3747
  930MPD2    C313658   0.039   2.047  13.953 -0.1423 -0.7139 -0.3001
  930MPD2    C413659   4.653   2.041  14.004 -0.3115  0.4976  0.6759
  930MPD2    C513660   4.622   2.079  14.131 -0.1270 -0.2109 -0.8284
  930MPD2     H13661   0.241   2.131  14.003 -0.7411 -0.8707 -2.0336
  930MPD2    H113662   4.568   2.006  13.945 -0.5662  1.9241  0.2014
  930MPD2    H213663   4.688   2.147  14.318 -1.7473 -0.1074 -0.6146
  930MPD2    H313664   4.518   2.069  14.160 -0.0744 -1.5581 -1.0949
  930MPD2     N13665   0.071   2.010  13.822 -0.1352  0.2821 -0.3861
  930MPD2    H513666   4.732   1.984  13.758 -0.2811 -1.4859  0.4918
  930MPD2    N113667   0.226   2.204  14.234 -0.2676 -0.2243 -0.0654
  930MPD2    H713668   0.303   2.217  14.170  0.4649  0.2709  0.9284
  931MPD2     C13669   0.992   0.955   0.487  0.7959 -0.2946  0.0201
  931MPD2    C113670   0.882   1.028   0.530  0.3008 -0.1798 -0.0280
  931MPD2    C213671   0.836   1.016   0.658  0.8707  0.7959  0.3229
  931MPD2    C313672   0.900   0.938   0.743 -0.3240  0.0435  0.1545
  931MPD2    C413673   1.018   0.875   0.700 -0.2699 -0.3830  0.2742
  931MPD2    C513674   1.069   0.896   0.576  0.4007  0.8957 -0.0458
  931MPD2     H13675   0.735   1.048   0.680 -0.1809 -0.7453 -2.4025
  931MPD2    H113676   1.083   0.825   0.771 -0.2356 -0.4035  0.2278
  931MPD2    H213677   1.022   0.966   0.384 -2.5408 -0.2540 -0.9674
  931MPD2    H313678   1.166   0.851   0.559  0.2287  0.9945 -1.3123
  931MPD2     N13679   0.850   0.900   0.867 -0.3105 -0.4631  0.3280
  931MPD2    H513680   0.900   0.830   0.920 -0.7121  0.1174  1.4807
  931MPD2    N113681   0.808   1.089   0.422  0.6949  0.1630 -0.2457
  931MPD2    H713682   0.832   1.053   0.330  3.0058 -1.0939  0.8648
  932MPD2     C13683   1.775   1.140  11.783 -0.4393 -0.6651 -0.0907
  932MPD2    C113684   1.900   1.142  11.836  0.4504 -0.4563  0.0786
  932MPD2    C213685   1.935   1.032  11.917  0.1403  0.1459 -0.3237
  932MPD2    C313686   1.841   0.927  11.939 -0.1578 -0.4238  0.4384
  932MPD2    C413687   1.712   0.926  11.884 -0.0761  0.1900 -0.2421
  932MPD2    C513688   1.678   1.043  11.814  0.2605 -0.6410 -0.1858
  932MPD2     H13689   2.036   1.034  11.956 -0.7986 -0.5907  2.1994
  932MPD2    H113690   1.638   0.850  11.909  0.4078  0.1002  0.9355
  932MPD2    H213691   1.756   1.212  11.704 -0.3687  0.0032  0.5031
  932MPD2    H313692   1.577   1.038  11.777  0.0497 -0.8829  0.4224
  932MPD2     N13693   1.872   0.814  12.018  0.2677 -0.6180 -0.0010
  932MPD2    H513694   1.798   0.746  12.030 -0.8875  1.0396  2.2717
  932MPD2    N113695   1.993   1.245  11.803  0.1039  0.0538 -0.2702
  932MPD2    H713696   2.075   1.250  11.863 -0.4422 -0.4939  0.5125
  933MPD2     C13697   2.604   1.080   0.674 -0.1367  0.0844 -0.0544
  933MPD2    C113698   2.672   0.962   0.632  1.0204 -0.0061 -1.0483
  933MPD2    C213699   2.729   0.957   0.508 -0.1147 -0.7964  0.1982
  933MPD2    C313700   2.715   1.068   0.420  0.9507 -0.1468  0.3251
  933MPD2    C413701   2.654   1.187   0.470 -0.0751  0.0037  0.0603
  933MPD2    C513702   2.589   1.185   0.592  0.7189 -0.6826  0.3497
  933MPD2     H13703   2.772   0.866   0.467 -2.4561 -1.4704 -0.7800
  933MPD2    H113704   2.633   1.277   0.414  0.6460  0.0854 -0.0757
  933MPD2    H213705   2.553   1.089   0.769  0.8066  1.0311  0.3585
  933MPD2    H313706   2.540   1.280   0.614 -0.8614 -1.8460  1.8032
  933MPD2     N13707   2.766   1.060   0.286 -0.1307  0.1914 -0.2747
  933MPD2    H513708   2.810   0.974   0.255  0.5436  0.9310 -1.3546
  933MPD2    N113709   2.687   0.856   0.721 -0.8273  0.2344  0.4348
  933MPD2    H713710   2.637   0.856   0.810 -0.8402 -0.5591  0.4315
  934MPD2     C13711   4.087   2.405   1.623  0.5800  0.0168  0.0010
  934MPD2    C113712   4.188   2.331   1.571 -0.3764  0.0934  0.6017
  934MPD2    C213713   4.162   2.237   1.475 -0.4258  0.0128 -0.3874
  934MPD2    C313714   4.025   2.226   1.439  0.2392  0.1031  0.3671
  934MPD2    C413715   3.924   2.304   1.490 -0.4311  0.4370  0.5022
  934MPD2    C513716   3.953   2.390   1.593 -0.0246 -0.1931 -0.1696
  934MPD2     H13717   4.241   2.177   1.429 -1.3928 -0.0863 -1.9190
  934MPD2    H113718   3.821   2.286   1.462 -0.8253 -0.2422  2.4241
  934MPD2    H213719   4.112   2.478   1.699  0.3799  0.9135 -0.7816
  934MPD2    H313720   3.873   2.448   1.639  1.1926  1.3277  0.0433
  934MPD2     N13721   3.980   2.128   1.343 -0.0778 -0.4778  0.8478
  934MPD2    H513722   3.882   2.133   1.315  0.3585  0.4425 -0.4675
  934MPD2    N113723   4.321   2.354   1.611 -0.2751  0.3281 -0.4559
  934MPD2    H713724   4.395   2.308   1.559 -0.0094  1.3261 -0.9589
  935MPD2     C13725   4.358   1.229   1.016  0.0355 -0.2920 -0.2684
  935MPD2    C113726   4.275   1.263   0.907 -0.2745  0.1721  0.4303
  935MPD2    C213727   4.206   1.379   0.910 -0.0123  0.6660  0.6549
  935MPD2    C313728   4.213   1.462   1.023 -0.2513  0.5385  0.4433
  935MPD2    C413729   4.301   1.432   1.122 -0.3769  0.2091 -1.0245
  935MPD2    C513730   4.368   1.317   1.123  0.5267  0.2290  0.3093
  935MPD2     H13731   4.136   1.400   0.830  1.6890  2.4091 -0.3588
  935MPD2    H113732   4.313   1.498   1.207 -0.4965 -1.4946  0.3247
  935MPD2    H213733   4.421   1.141   1.017  0.2733 -0.1142  0.1220
  935MPD2    H313734   4.424   1.283   1.210  0.1808  1.3915  0.9880
  935MPD2     N13735   4.135   1.580   1.049 -0.1253 -0.8598 -1.1044
  935MPD2    H513736   4.145   1.617   1.143 -3.2482 -0.2637 -1.0194
  935MPD2    N113737   4.268   1.171   0.797 -0.1039 -0.1330  0.8534
  935MPD2    H713738   4.218   1.192   0.711  0.3412  0.8843  0.8424
  936MPD2     C13739   2.678   4.721  13.042 -0.1341 -0.4832 -0.0722
  936MPD2    C113740   2.669   4.585  13.068  0.5259  0.4135 -0.3993
  936MPD2    C213741   2.715   4.499  12.971 -0.1027  0.0911  0.1479
  936MPD2    C313742   2.760   4.547  12.849 -0.3732  0.0693 -0.4012
  936MPD2    C413743   2.750   4.686  12.821  0.5995 -0.4606 -0.5673
  936MPD2    C513744   2.708   0.031  12.916  0.6175 -0.8197 -0.0478
  936MPD2     H13745   2.721   4.395  12.997  0.8605  0.1802  0.2906
  936MPD2    H113746   2.773   0.000  12.728  0.1105  1.7110  0.4980
  936MPD2    H213747   2.652   0.063  13.112  1.2001  0.2082 -0.3619
  936MPD2    H313748   2.688   0.135  12.892  1.1653 -0.8146 -0.4836
  936MPD2     N13749   2.824   4.466  12.750 -0.0350  0.4060  0.6866
  936MPD2    H513750   2.845   4.506  12.659 -1.3033 -0.7370 -0.1073
  936MPD2    N113751   2.636   4.519  13.190  0.3434 -0.3007  0.4685
  936MPD2    H713752   2.632   4.417  13.192  0.0039 -0.2952  0.0371
  937MPD2     C13753   0.867   0.993  12.116  0.5378  0.3435 -0.2961
  937MPD2    C113754   0.760   1.052  12.054  0.1674  0.5003  0.4994
  937MPD2    C213755   0.803   1.135  11.957 -0.2206 -0.3096 -0.1570
  937MPD2    C313756   0.925   1.126  11.895 -0.0237 -0.5690  0.7490
  937MPD2    C413757   1.026   1.051  11.953  0.6640  0.4552  0.0719
  937MPD2    C513758   0.993   0.984  12.066  0.0670  0.8510 -0.7614
  937MPD2     H13759   0.742   1.218  11.924  1.7101  0.6305 -1.3058
  937MPD2    H113760   1.129   1.050  11.918  0.2149 -1.3446 -1.2308
  937MPD2    H213761   0.852   0.954  12.216  0.7951  0.9225 -0.0300
  937MPD2    H313762   1.071   0.943  12.128 -0.3121  1.2184 -0.0395
  937MPD2     N13763   0.943   1.217  11.784 -0.6033 -0.0800  0.5508
  937MPD2    H513764   0.867   1.278  11.755  0.1461  0.8558  0.5579
  937MPD2    N113765   0.638   1.081  12.120 -0.8338 -0.0105  0.6222
  937MPD2    H713766   0.590   1.159  12.077 -1.0594 -1.5039 -1.8035
  938MPD2     C13767   3.213   1.637   0.510 -1.0486  0.0437  0.0547
  938MPD2    C113768   3.282   1.714   0.602 -0.8506 -0.9808  0.0612
  938MPD2    C213769   3.289   1.658   0.734 -0.2270  0.2669  0.0304
  938MPD2    C313770   3.211   1.553   0.778 -0.3947 -0.0833 -0.2582
  938MPD2    C413771   3.154   1.478   0.677 -0.4673  0.1072 -0.2868
  938MPD2    C513772   3.153   1.520   0.543  0.1516 -0.9188 -0.0763
  938MPD2     H13773   3.342   1.713   0.812 -0.8435 -1.6625  1.7910
  938MPD2    H113774   3.106   1.383   0.695 -0.6569  0.3730  0.6044
  938MPD2    H213775   3.205   1.666   0.405  0.5466 -0.1126 -0.1181
  938MPD2    H313776   3.095   1.463   0.472 -2.8079  0.5708  1.1661
  938MPD2     N13777   3.200   1.517   0.915  0.3097  0.2536  0.4603
  938MPD2    H513778   3.264   1.563   0.980 -0.6274  1.7182  0.3213
  938MPD2    N113779   3.350   1.835   0.577  0.2245 -0.5760  0.2187
  938MPD2    H713780   3.409   1.854   0.657  0.0865  2.8688 -0.5112
  939MPD2     C13781   4.328   2.808   0.559  0.2662 -0.1178 -1.4314
  939MPD2    C113782   4.458   2.777   0.592  0.2842 -0.2513 -0.0554
  939MPD2    C213783   4.517   2.667   0.532  0.4532 -0.2578  0.2575
  939MPD2    C313784   4.450   2.588   0.436 -0.0533 -0.2616  0.1290
  939MPD2    C413785   4.317   2.622   0.408 -0.5188  0.0096 -0.7000
  939MPD2    C513786   4.262   2.727   0.467 -0.1192 -0.4724  0.1135
  939MPD2     H13787   4.620   2.653   0.560 -0.4148 -1.5245  2.8323
  939MPD2    H113788   4.269   2.575   0.323  0.3801  0.5727 -1.5227
  939MPD2    H213789   4.281   2.896   0.601  1.0786  2.1844 -5.2803
  939MPD2    H313790   4.159   2.755   0.448 -0.2752 -0.2419  1.2825
  939MPD2     N13791   4.514   2.475   0.386 -0.7791  0.1223 -0.3947
  939MPD2    H513792   4.612   2.458   0.405 -1.2437 -3.4163 -1.0520
  939MPD2    N113793   4.522   2.868   0.685  0.1672 -0.0273 -0.2299
  939MPD2    H713794   4.465   2.944   0.721 -0.8395 -1.2212  0.7036
  940MPD2     C13795   3.575   4.093  13.435 -0.4498 -0.2715 -0.1436
  940MPD2    C113796   3.618   3.982  13.499  0.3445  0.1671  0.8447
  940MPD2    C213797   3.616   3.868  13.430  0.5062 -0.5350 -0.2454
  940MPD2    C313798   3.594   3.870  13.294  0.4812 -0.1880 -0.5853
  940MPD2    C413799   3.562   3.986  13.230 -0.0670 -0.4295 -0.2030
  940MPD2    C513800   3.552   4.096  13.302  0.6768  0.5359  0.2530
  940MPD2     H13801   3.640   3.774  13.478 -0.7692  0.1812  1.7682
  940MPD2    H113802   3.542   3.991  13.124  1.3571 -2.2514 -0.5457
  940MPD2    H213803   3.581   4.186  13.492  1.9311 -1.0966  0.9377
  940MPD2    H313804   3.524   4.189  13.255  1.5760 -0.4485 -2.2465
  940MPD2     N13805   3.585   3.750  13.219 -0.5913  0.4505  0.3588
  940MPD2    H513806   3.544   3.764  13.128  0.1810 -1.6322 -0.3008
  940MPD2    N113807   3.654   3.974  13.639  0.3671  0.4768 -0.6743
  940MPD2    H713808   3.672   3.884  13.682 -1.8036  0.0332 -0.6838
  941MPD2     C13809   2.405   3.674   9.481 -0.2630  0.2892 -1.1475
  941MPD2    C113810   2.458   3.658   9.605  0.4118  0.8512  0.3328
  941MPD2    C213811   2.402   3.567   9.700  0.0197 -0.6463  0.7988
  941MPD2    C313812   2.286   3.498   9.660 -0.4423 -1.0151 -0.2120
  941MPD2    C413813   2.226   3.522   9.538  0.3217  0.4696  0.0482
  941MPD2    C513814   2.292   3.601   9.450 -0.0502  0.2939  0.2488
  941MPD2     H13815   2.450   3.554   9.796  2.2985 -1.0284 -0.3803
  941MPD2    H113816   2.135   3.468   9.514  0.3097  0.6300 -0.2652
  941MPD2    H213817   2.452   3.741   9.410  1.2176 -1.0812 -1.4539
  941MPD2    H313818   2.247   3.621   9.353  0.6648 -0.7828 -0.3118
  941MPD2     N13819   2.229   3.395   9.743 -0.5170 -0.0705  0.5271
  941MPD2    H513820   2.138   3.364   9.709 -0.5130 -0.7778  1.1751
  941MPD2    N113821   2.579   3.721   9.645  0.4279 -0.3899  0.3490
  941MPD2    H713822   2.585   3.729   9.746  1.0303  0.1001  0.2759
  942MPD2     C13823   2.181   0.864  10.122  0.3326 -0.0451 -0.0278
  942MPD2    C113824   2.247   0.965  10.045  0.5300  0.3392 -0.4420
  942MPD2    C213825   2.362   0.935   9.981  1.0666  0.6062 -0.4376
  942MPD2    C313826   2.413   0.803   9.978 -0.2359 -0.0122  0.0696
  942MPD2    C413827   2.347   0.707  10.052 -0.3335  0.1494 -0.5078
  942MPD2    C513828   2.235   0.732  10.127 -0.4536  1.1478  0.5617
  942MPD2     H13829   2.412   1.013   9.924 -0.2608  1.8525  0.0938
  942MPD2    H113830   2.371   0.601  10.047 -0.2367  0.2983 -2.8151
  942MPD2    H213831   2.094   0.897  10.178 -0.4299 -0.4992 -0.9617
  942MPD2    H313832   2.187   0.650  10.179  1.2137 -1.6228 -2.2802
  942MPD2     N13833   2.513   0.764   9.888 -0.1467  0.0316  0.0329
  942MPD2    H513834   2.529   0.665   9.874 -1.2342  0.0549 -1.4270
  942MPD2    N113835   2.199   1.092  10.030  0.4752  0.6828 -0.0674
  942MPD2    H713836   2.239   1.140   9.950  0.6675 -1.9605 -1.5584
  943MPD2     C13837   0.982   3.144  10.189 -0.4402 -0.1810 -0.2250
  943MPD2    C113838   0.907   3.112  10.301  0.4435  0.1861  0.1709
  943MPD2    C213839   0.904   3.188  10.411 -0.4298  0.3924 -0.8207
  943MPD2    C313840   0.968   3.311  10.414  0.1896  0.1453  0.6848
  943MPD2    C413841   1.041   3.345  10.301  0.8315  0.3522  0.7353
  943MPD2    C513842   1.048   3.265  10.191 -0.0514 -0.3597 -0.4918
  943MPD2     H13843   0.845   3.157  10.497  3.1992 -0.2947  1.3936
  943MPD2    H113844   1.100   3.437  10.302  1.4302 -0.0081 -1.5150
  943MPD2    H213845   1.010   3.083  10.104  0.3192 -0.8520  0.5116
  943MPD2    H313846   1.117   3.292  10.113  0.7228 -0.0447  0.2962
  943MPD2     N13847   0.970   3.401  10.525  0.3116 -0.1768 -0.3021
  943MPD2    H513848   1.018   3.490  10.514  0.6046 -0.2119  0.6972
  943MPD2    N113849   0.826   2.992  10.285 -0.4826 -0.2879 -0.2115
  943MPD2    H713850   0.840   2.937  10.201  0.2493 -0.1960 -0.1486
  944MPD2     C13851   0.740   2.271  11.120  0.6910  0.0874 -0.1284
  944MPD2    C113852   0.787   2.377  11.040 -0.0255 -0.5689  0.5711
  944MPD2    C213853   0.782   2.501  11.098 -0.2958 -0.2365 -0.5501
  944MPD2    C313854   0.724   2.524  11.220  0.3716 -0.1122 -0.6582
  944MPD2    C413855   0.677   2.417  11.301 -0.3374  0.5404 -0.3198
  944MPD2    C513856   0.689   2.291  11.247  0.1714 -0.6364  0.2667
  944MPD2     H13857   0.830   2.579  11.039  1.3221 -1.5209 -0.9322
  944MPD2    H113858   0.642   2.434  11.402  0.9494 -0.2243  0.2624
  944MPD2    H213859   0.743   2.170  11.083  1.9818 -0.0721  0.3960
  944MPD2    H313860   0.670   2.203  11.307  1.5801  0.1221  1.8430
  944MPD2     N13861   0.717   2.649  11.288 -0.0683  0.5342  0.1965
  944MPD2    H513862   0.696   2.649  11.387 -1.3800  0.8032 -0.0763
  944MPD2    N113863   0.819   2.344  10.907  0.1975 -0.1649 -0.3842
  944MPD2    H713864   0.806   2.250  10.871  0.1864  0.6613 -2.5194
    1TMC1    C113865   4.464   2.769  14.532  0.0615  0.3272  0.4250
    1TMC1    C213866   4.396   2.785  14.412 -0.0028  0.3753 -0.1602
    1TMC1    C313867   4.395   2.682  14.326  0.1061 -0.3404  0.1746
    1TMC1    C413868   4.532   2.656  14.557 -0.7097  0.2255 -0.1079
    1TMC1    C513869   4.521   2.554  14.465  0.0865 -0.1383  0.1451
    1TMC1    C613870   4.457   2.561  14.348 -1.3177  0.3426  0.1251
    1TMC1     C13871   4.444   2.863  14.638 -0.0033  0.9298 -0.1215
    1TMC1     O13872   4.512   2.867  14.737 -0.5888  0.7078  0.0158
    1TMC1     H13873   4.368   2.885  14.382 -0.9003  0.1301 -0.1426
    1TMC1    H113874   4.591   2.648  14.647 -1.2548  1.1049  0.3339
    1TMC1    H213875   4.432   2.473  14.290 -1.6690  1.2482 -1.1029
    1TMC1    C713876   4.563   2.422  14.509 -0.4047 -0.5584  0.2019
    1TMC1    C813877   4.267   2.668  14.263  0.0674  0.6762  0.3071
    1TMC1    O113878   4.560   2.320  14.438 -0.3401 -0.2093  0.4449
    1TMC1    O213879   4.171   2.727  14.314 -0.4104  0.0699  0.5192
    1TMC1    O313880   4.550   2.420  14.640 -0.4248  0.6067 -0.0122
    1TMC1    H313881   4.499   2.496  14.676 -1.8360  1.1219 -3.1152
    1TMC1    O513882   4.287   2.618  14.143 -0.0633 -0.3073 -0.1310
    1TMC1    H513883   4.383   2.626  14.124  0.0150 -0.1134  0.3546
    2MPD2     C13884   4.219   3.292  14.815  0.0661 -0.7657 -0.0556
    2MPD2    C113885   4.171   3.266  14.689  0.3426 -0.5201  0.9355
    2MPD2    C213886   4.209   3.148  14.629  0.2955 -0.6798  0.6036
    2MPD2    C313887   4.297   3.057  14.684  0.5008 -0.2748 -0.6742
    2MPD2    C413888   4.339   3.083  14.814  0.5320  0.4517  0.4797
    2MPD2    C513889   4.303   3.200  14.873 -0.1674 -0.8620 -0.3339
    2MPD2     H13890   4.178   3.119  14.530  0.0995 -1.3672  0.8647
    2MPD2    H113891   4.399   3.013  14.870 -1.7885 -0.7543  1.4685
    2MPD2    H213892   4.195   3.382  14.870 -1.0776 -1.1778  0.1020
    2MPD2    H313893   4.332   3.210  14.977 -1.2695  3.4038 -0.4299
    2MPD2     N13894   4.340   2.948  14.607  0.3427 -0.2880  0.2303
    2MPD2    H513895   4.288   2.930  14.522  1.1948  0.2266 -0.4032
    2MPD2    N113896   4.096   3.369  14.624  0.2237 -0.1477  0.1370
    2MPD2    H713897   4.068   3.444  14.687  2.9005  0.9045  0.0803
    3TMC2    C113898   3.990   3.483  14.446  0.6428  0.1473 -0.1569
    3TMC2    C213899   3.976   3.597  14.534 -0.1408 -0.9725  0.6601
    3TMC2    C313900   3.962   3.724  14.479  0.1208  0.6463 -0.0724
    3TMC2    C413901   4.001   3.505  14.311 -0.4935  0.1547  0.1798
    3TMC2    C513902   4.000   3.636  14.269 -0.6670 -0.1104 -0.3580
    3TMC2    C613903   3.984   3.740  14.348  0.1210  0.3198  0.5194
    3TMC2     C13904   4.057   3.359  14.497  0.8595  0.2047 -0.5067
    3TMC2     O13905   4.114   3.295  14.408 -0.6440 -0.5667 -0.8453
    3TMC2     H13906   3.951   3.585  14.639 -1.4660  1.7318  0.6707
    3TMC2    H113907   4.018   3.420  14.246 -1.0173  0.6057 -0.5433
    3TMC2    H213908   3.980   3.844  14.318  0.0030  0.1545 -0.0375
    3TMC2    C713909   4.015   3.644  14.124  0.5613 -0.0776  0.0031
    3TMC2    C813910   3.937   3.838  14.560  0.2113  1.0147 -0.0638
    3TMC2    O113911   3.986   3.553  14.052  0.6750 -0.2477 -0.8894
    3TMC2    O213912   3.870   3.930  14.514 -0.1805  0.2551 -0.1045
    3TMC2    O513913   4.033   3.849  14.654  0.0414 -0.0252  0.0411
    3TMC2    H513914   4.064   3.760  14.679  1.8325  1.0386  1.6242
    4TMC2    C113915   4.057   4.475  13.531  0.4429 -0.3783 -0.5145
    4TMC2    C213916   3.989   4.574  13.599  0.1853  0.4413  0.2272
    4TMC2    C313917   3.999   4.582  13.734 -0.5111 -0.6204 -0.4409
    4TMC2    C413918   4.117   4.372  13.595  0.4022 -0.4680 -0.0879
    4TMC2    C513919   4.105   4.367  13.731 -0.1791 -0.3162  0.0815
    4TMC2    C613920   4.042   4.469  13.802  0.6680  0.8153 -0.0060
    4TMC2     C13921   4.044   4.469  13.383  0.4987  0.0477  0.2963
    4TMC2     O13922   4.135   4.432  13.313  0.0876 -0.1022  0.9419
    4TMC2     H13923   3.943   4.658  13.548  2.2595  1.8829  0.7197
    4TMC2    H113924   4.172   4.298  13.540  2.7572 -0.0327  1.6800
    4TMC2    H213925   4.037   4.470  13.910  2.2845 -0.6771  0.0793
    4TMC2    C713926   4.119   4.231  13.798 -0.1105  0.0630 -0.7851
    4TMC2    C813927   3.903   4.653  13.811  0.0720  0.5546 -0.9358
    4TMC2    O113928   4.141   4.243  13.915  0.1011 -0.0410  0.4269
    4TMC2    O213929   3.936   4.700  13.920 -0.0890 -0.4149 -0.2079
    4TMC2    O513930   3.792   4.573  13.794  0.1540  0.0392 -0.3419
    4TMC2    H513931   3.767   4.544  13.704  1.0135  2.3668 -1.3215
    5MPD2     C13932   3.758   4.495  12.960 -0.1744  1.0631 -0.1706
    5MPD2    C113933   3.673   4.471  13.069  0.1625  0.0761  0.5648
    5MPD2    C213934   3.730   4.473  13.197  0.4104 -0.7273 -0.3282
    5MPD2    C313935   3.861   4.493  13.211  0.2647  0.4497  0.1412
    5MPD2    C413936   3.942   4.497  13.100 -0.3451  0.0266 -0.0572
    5MPD2    C513937   3.892   4.513  12.975 -0.2349  0.0764  0.0453
    5MPD2     H13938   3.669   4.466  13.286  0.7983 -2.5897 -0.1980
    5MPD2    H113939   4.050   4.496  13.112 -0.2875 -1.7715 -0.7265
    5MPD2    H213940   3.721   4.490  12.858  1.9151 -0.3017 -0.8589
    5MPD2    H313941   3.949   4.518  12.883  1.4461 -1.6559  1.0016
    5MPD2     N13942   3.908   4.483  13.348  0.9253  0.2279  0.3790
    5MPD2    H513943   3.843   4.492  13.425  3.2401 -0.8188  2.4637
    5MPD2    N113944   3.536   4.454  13.042  0.6361 -0.2077  0.4513
    5MPD2    H713945   3.516   4.429  12.946  2.3797  1.0103 -0.2220
    6MPD1     C13946   2.503   1.266  13.094  0.8755 -0.6338 -0.1539
    6MPD1    C113947   2.623   1.287  13.031 -0.2487  0.0287 -0.1916
    6MPD1    C213948   2.702   1.171  13.011 -0.8293  1.1706  0.7846
    6MPD1    C313949   2.680   1.059  13.084 -0.9733  0.3632  0.5533
    6MPD1    C413950   2.565   1.053  13.161 -0.2292 -0.8313  0.2896
    6MPD1    C513951   2.475   1.155  13.161  0.6740 -0.1164  0.1224
    6MPD1     H13952   2.793   1.174  12.952 -1.6783 -1.1157 -0.6342
    6MPD1    H113953   2.552   0.966  13.225 -2.9677 -2.1707 -2.0899
    6MPD1    H213954   2.437   1.351  13.103  1.1542 -0.6201  1.9325
    6MPD1    H313955   2.382   1.155  13.217  0.7923  0.2710  0.3199
    6MPD1     N13956   2.768   0.948  13.082  0.0638 -0.0748 -0.3084
    6MPD1    H513957   2.750   0.871  13.146 -0.3684  1.7126  1.7360
    6MPD1    N113958   2.653   1.405  12.967 -0.7241 -0.4666  0.3503
    6MPD1    H613959   2.753   1.424  12.964 -1.0010  0.8898 -0.5618
    6MPD1    H713960   2.593   1.479  13.004 -0.7601  1.0228 -2.6903
    7MPD2     C13961   2.919   0.267  13.432  0.6828  0.6297  0.0367
    7MPD2    C113962   2.939   0.272  13.294 -0.3125 -0.0696 -0.5859
    7MPD2    C213963   2.935   0.154  13.220  1.3968  0.5218  0.2160
    7MPD2    C313964   2.943   0.035  13.281 -0.5259 -0.1322 -0.1469
    7MPD2    C413965   2.919   0.026  13.419  0.2211  1.0296 -0.1558
    7MPD2    C513966   2.903   0.144  13.491  0.0235 -0.4107  0.2250
    7MPD2     H13967   2.979   0.169  13.122  1.4058  1.2351  0.3296
    7MPD2    H113968   2.914   4.676  13.485  1.2834  0.3459 -0.9823
    7MPD2    H213969   2.910   0.350  13.501  2.5898  0.1355  0.8728
    7MPD2    H313970   2.877   0.125  13.595 -3.7365  1.7760 -0.3296
    7MPD2     N13971   2.993   4.670  13.204 -0.4531  0.0383  0.0526
    7MPD2    H513972   3.006   4.687  13.105  3.2010 -0.8746  0.3658
    7MPD2    N113973   2.941   0.390  13.218 -0.7903  0.0279  0.7207
    7MPD2    H713974   2.953   0.385  13.118  1.8577 -1.4017  1.1006
    8TMC3    C113975   3.084   4.464  13.135  0.2692 -0.4716 -0.3994
    8TMC3    C213976   3.199   4.398  13.156  0.5579  0.0386  0.1143
    8TMC3    C313977   3.302   4.432  13.072 -0.2449 -0.2103 -0.0666
    8TMC3    C413978   3.066   4.523  13.015  0.4027 -0.1319  0.4494
    8TMC3    C513979   3.164   4.554  12.923  0.3513 -0.1197  0.4312
    8TMC3    C613980   3.292   4.498  12.951 -0.0419 -0.3325 -0.0784
    8TMC3     C13981   3.037   4.545  13.251  0.0890 -0.0584 -0.1365
    8TMC3     O13982   3.058   4.503  13.364  0.2997  0.1472  0.2941
    8TMC3     H13983   3.208   4.359  13.257  2.0442 -2.2155 -0.8921
    8TMC3    H113984   2.966   4.556  12.991  0.6098 -0.7136 -1.2006
    8TMC3    H213985   3.367   4.508  12.874 -0.5436 -0.1864 -0.5528
    8TMC3    C713986   3.160   4.695  12.888  0.8167  0.6439  0.7349
    8TMC3    C813987   3.435   4.438  13.135  0.0077  0.2425  0.1040
    8TMC3    O113988   3.077   0.025  12.951  0.3872 -0.5653 -0.0890
    8TMC3    O213989   3.433   4.452  13.256 -0.4729 -0.6083  0.4909
    9TMC3    C113990   2.945   0.803  13.040 -0.3080  0.6087 -0.5120
    9TMC3    C213991   3.051   0.776  12.959 -0.9664  0.4272  0.2924
    9TMC3    C313992   3.121   0.658  12.979 -0.1241 -0.3490  0.8194
    9TMC3    C413993   2.900   0.711  13.131 -0.4922  0.0718  0.1057
    9TMC3    C513994   2.980   0.602  13.155  0.2570 -0.3336 -0.0125
    9TMC3    C613995   3.087   0.569  13.080 -0.2539 -0.2521  0.3129
    9TMC3     C13996   2.880   0.933  13.012  0.8519 -0.5911 -0.1114
    9TMC3     O13997   2.926   1.007  12.929 -0.2632 -0.1521  0.7616
    9TMC3     H13998   3.063   0.836  12.869  0.0725 -2.7614 -1.6876
    9TMC3    H113999   2.817   0.722  13.201 -1.2468  1.7062 -1.0511
    9TMC3    H214000   3.154   0.487  13.101  0.2465 -0.0085 -0.3472
    9TMC3    C714001   2.940   0.518  13.265 -0.1830  0.4604  1.0355
    9TMC3    C814002   3.165   0.606  12.854  0.3022  0.3315 -0.3357
    9TMC3    O114003   2.924   0.569  13.378 -0.0437 -0.3845 -0.3247
    9TMC3    O214004   3.219   0.679  12.770  1.0974  0.3166  0.0243
   10MPD2     C14005   3.330   0.160  12.634  0.6118  0.4766 -0.2719
   10MPD2    C114006   3.245   0.124  12.742  0.1852 -0.5586 -0.3587
   10MPD2    C214007   3.188   0.229  12.811 -0.2089  0.4252  0.7921
   10MPD2    C314008   3.212   0.362  12.779 -0.6184  0.1714 -0.0088
   10MPD2    C414009   3.296   0.393  12.676 -0.2490  0.7320  0.0813
   10MPD2    C514010   3.356   0.292  12.606  0.4429 -0.0293 -0.3529
   10MPD2     H14011   3.124   0.224  12.898  1.1067 -0.3279  1.7232
   10MPD2    H114012   3.321   0.492  12.640  0.5160  1.0990  1.6492
   10MPD2    H214013   3.395   0.085  12.591  1.4572  0.2823  1.3413
   10MPD2    H314014   3.433   0.308  12.532  3.2433 -1.3911  2.2565
   10MPD2     N14015   3.160   0.471  12.863  0.2771  0.1708 -0.3405
   10MPD2    H514016   3.098   0.435  12.935 -0.8476 -1.4534 -2.1454
   10MPD2    N114017   3.243   4.726  12.788 -0.1736 -0.5575 -0.5832
   10MPD2    H714018   3.288   4.658  12.728 -3.2910  0.3152 -3.9563
   11MPD2     C14019   3.951   3.747  13.856 -0.8886 -0.9928  0.4515
   11MPD2    C114020   4.017   3.822  13.950 -0.3043 -0.1550 -0.5502
   11MPD2    C214021   4.062   3.949  13.910  0.0665 -0.2367  0.4872
   11MPD2    C314022   4.048   4.001  13.781  0.1688 -0.2492  0.7443
   11MPD2    C414023   3.986   3.916  13.693 -0.2434 -0.6257 -0.3553
   11MPD2    C514024   3.934   3.792  13.730  0.1723  0.3922  0.3631
   11MPD2     H14025   4.097   4.022  13.983 -0.2702 -0.0165  0.4304
   11MPD2    H114026   3.980   3.943  13.588  1.6339 -1.1699 -0.6004
   11MPD2    H214027   3.905   3.651  13.875  0.7727 -1.9292 -0.2041
   11MPD2    H314028   3.891   3.726  13.655 -1.4256  0.6552  1.0681
   11MPD2     N14029   4.068   4.126  13.730  0.1851 -0.3557  0.7717
   11MPD2    H514030   4.037   4.150  13.636 -0.9429  1.9870  1.7596
   11MPD2    N114031   4.036   3.777  14.086 -0.2475  0.0644  0.0181
   11MPD2    H714032   4.083   3.833  14.157  2.1386  0.2504 -1.7179
    1MPD1     C14033   1.929   0.453   0.555  0.0471 -0.1273 -0.5295
    1MPD1    C114034   1.820   0.429   0.475  0.2618 -0.3712 -0.6869
    1MPD1    C214035   1.816   0.458   0.346  0.2569 -0.8523  0.7948
    1MPD1    C314036   1.913   0.535   0.290 -0.9005  0.4777  0.8232
    1MPD1    C414037   2.021   0.561   0.369  0.1321  0.3039  0.2182
    1MPD1    C514038   2.030   0.521   0.500 -0.0712  0.2196  0.0975
    1MPD1     H14039   1.731   0.420   0.291 -0.2161  1.8951 -0.3556
    1MPD1    H114040   2.093   0.634   0.334 -0.1535  0.1282 -0.7284
    1MPD1    H214041   1.934   0.414   0.656  0.7826  0.2924 -0.4082
    1MPD1    H314042   2.124   0.542   0.551 -1.4185  0.4800  2.4761
    1MPD1     N14043   1.904   0.597   0.159  0.0931  0.2630  0.2893
    1MPD1    H514044   1.993   0.632   0.125 -0.1454 -0.8651 -1.4869
    1MPD1    N114045   1.746   0.326   0.520  0.4726 -0.5901  1.0964
    1MPD1    H614046   1.753   0.326   0.622  0.3493  0.2505  1.1011
    1MPD1    H714047   1.650   0.350   0.495  0.6513 -0.9094  0.1367
    2MPD1     C14048   2.125   1.436  17.429  0.5420 -0.4051  0.3915
    2MPD1    C114049   2.093   1.361  17.314  0.5928  0.0281  0.3217
    2MPD1    C214050   2.055   1.227  17.336 -0.3991  0.5092  0.4293
    2MPD1    C314051   2.052   1.175  17.470 -0.3633  0.4149 -0.1975
    2MPD1    C414052   2.090   1.258  17.574 -0.1074  0.2036  0.7657
    2MPD1    C514053   2.124   1.390  17.553  0.3363  0.4247 -0.2236
    2MPD1     H14054   2.019   1.165  17.255 -1.0907  2.9257 -1.1001
    2MPD1    H114055   2.095   1.220  17.676  0.2533 -1.5251  0.1066
    2MPD1    H214056   2.141   1.543  17.418  0.3850 -0.2139  2.0302
    2MPD1    H314057   2.150   1.451  17.639 -1.8223 -0.5859  1.1383
    2MPD1     N14058   1.995   1.052  17.490 -0.0460 -0.1246 -0.3789
    2MPD1    H514059   1.966   1.001  17.408 -1.1790 -1.2908  0.7406
    2MPD1    N114060   2.075   1.429  17.196 -0.0332  1.0391 -0.1054
    2MPD1    H614061   2.107   1.525  17.192 -2.9070  1.9237 -1.5869
    2MPD1    H714062   2.095   1.377  17.111 -1.1048  0.6282 -0.1084
    3TMC3    C114063   1.911   0.863  17.586  0.1416  0.4007 -0.2269
    3TMC3    C214064   1.857   0.817  17.464  0.0812  0.4145 -0.3067
    3TMC3    C314065   1.778   0.706  17.472 -0.0937 -0.6801 -0.1040
    3TMC3    C414066   1.896   0.789  17.702  0.1690 -0.0860 -0.3493
    3TMC3    C514067   1.812   0.678  17.700  0.0859  0.1159  0.1778
    3TMC3    C614068   1.757   0.629  17.581 -0.1914 -0.8261  1.2426
    3TMC3     C14069   1.977   0.989  17.608  0.6869 -0.1977 -0.3378
    3TMC3     O14070   2.011   1.020  17.720 -0.6299 -0.2142 -0.0352
    3TMC3     H14071   1.860   0.886  17.381 -0.4457  0.8022 -0.0093
    3TMC3    H114072   1.919   0.830   0.055  1.6792  2.9892 -1.9873
    3TMC3    H214073   1.683   0.551  17.595 -2.2822  0.8591 -0.3118
    3TMC3    C714074   1.788   0.609   0.079  0.2907 -0.0086  0.1645
    3TMC3    C814075   1.715   0.660  17.347 -0.6228  0.0419 -0.1561
    3TMC3    O114076   1.679   0.558   0.098  0.2657  0.4355  0.0569
    3TMC3    O214077   1.619   0.592  17.366 -0.0532 -0.7631 -0.2892
    4MPD1     C14078   1.756   0.451  16.881 -0.7369  0.6538  0.4547
    4MPD1    C114079   1.839   0.565  16.891  0.3908  0.1616 -0.3602
    4MPD1    C214080   1.856   0.635  17.009 -0.5483  0.3895  0.1941
    4MPD1    C314081   1.766   0.613  17.110  0.0138 -1.0523 -0.3292
    4MPD1    C414082   1.675   0.507  17.094 -0.3267 -0.1215 -0.3705
    4MPD1    C514083   1.663   0.441  16.980 -0.6674  0.6051 -0.3791
    4MPD1     H14084   1.946   0.695  17.017  0.0633 -0.2207 -2.0567
    4MPD1    H114085   1.603   0.487  17.172 -3.0394 -0.8286 -3.0872
    4MPD1    H214086   1.742   0.380  16.800 -4.4506  0.1385  1.5572
    4MPD1    H314087   1.581   0.370  16.970 -0.1529 -0.2202  1.2820
    4MPD1     N14088   1.786   0.679  17.235  0.2954 -1.0514 -0.3930
    4MPD1    H514089   1.850   0.758  17.238 -1.2769  0.1201  2.0484
    4MPD1    N114090   1.939   0.583  16.795 -0.1485 -0.4176 -0.4479
    4MPD1    H614091   1.958   0.682  16.785  0.2826 -0.5202 -0.6755
    4MPD1    H714092   1.900   0.562  16.703 -0.8264 -2.2725  0.2588
    1TCq1    O114093   2.839   0.438  11.637  0.1020 -0.2859  0.6686
    1TCq1    C114094   2.754   0.333  11.624 -0.2711 -0.7234  0.3396
    1TCq1    O214095   2.762   0.247  11.537 -0.7781  0.1841 -0.0682
    1TCq1    C214096   2.624   0.384  11.661 -0.1671 -0.3425  0.4277
    1TCq1    C314097   2.539   0.308  11.734  0.5012  0.2545 -0.3686
    1TCq1    C414098   2.418   0.358  11.768  0.2868  0.4777  0.3833
    1TCq1    C514099   2.377   0.482  11.718  0.3913 -0.7751  0.2025
    1TCq1    C614100   2.469   0.555  11.638 -0.3985 -0.0005  0.2386
    1TCq1    C714101   2.595   0.510  11.613  0.3363  0.0996 -0.0994
    1TCq1    C814102   2.422   0.663  11.554  0.0645  0.8228 -0.0454
    1TCq1    O414103   2.504   0.711  11.478 -0.0431  0.7146 -0.0578
    1TCq1    C914104   2.314   0.272  11.815  0.1580  0.7498  0.0023
    1TCq1    O514105   2.335   0.147  11.817  0.3232  0.2356 -0.0019
    1TCq1    O614106   2.203   0.327  11.839  0.3143  0.4679  0.2103
    1TCq1    H114107   2.805   0.498  11.707  0.3665  1.9707 -1.1373
    1TCq1    H214108   2.559   0.202  11.747 -0.9561  0.1565  1.1593
    1TCq1    H314109   2.272   0.507  11.730  0.4897 -1.1910  1.9125
    1TCq1    H414110   2.652   0.563  11.537 -1.9800 -0.3787 -2.2073
    2MPD1     C14111   2.088   1.013  11.409 -0.5097 -0.2047  0.1391
    2MPD1    C114112   2.038   0.957  11.519  0.0473 -0.2946  0.2862
    2MPD1    C214113   2.108   0.853  11.573  0.3939  0.2736  0.0583
    2MPD1    C314114   2.231   0.821  11.524 -0.4089 -0.2549  0.0160
    2MPD1    C414115   2.285   0.888  11.417 -0.4526 -0.2241  0.3133
    2MPD1    C514116   2.209   0.983  11.358 -0.2461 -0.7311 -0.1656
    2MPD1     H14117   2.062   0.803  11.657 -1.5330 -1.1266 -1.8532
    2MPD1    H114118   2.384   0.877  11.372  0.4246  2.0860  1.7134
    2MPD1    H214119   2.034   1.090  11.354 -1.7411 -1.5987 -0.5953
    2MPD1    H314120   2.259   1.036  11.278 -3.0571 -0.2689 -1.5950
    2MPD1     N14121   2.291   0.700  11.575 -0.7921 -0.4652  0.2168
    2MPD1    H514122   2.235   0.658  11.649 -0.8310  0.4464  0.7017
    2MPD1    N114123   1.909   0.976  11.562  0.3554 -0.1944  0.1497
    2MPD1    H614124   1.898   1.077  11.561 -2.0604 -0.4539  0.0243
    2MPD1    H714125   1.897   0.946  11.658  0.7341  1.2570  0.6442
    1TMC1    C114126   0.356   1.266   0.935  0.6775  1.1519 -0.2231
    1TMC1    C214127   0.252   1.323   1.007  0.6919  0.6658  0.1848
    1TMC1    C314128   0.163   1.243   1.066  0.5075 -0.1800 -1.0888
    1TMC1    C414129   0.360   1.133   0.907 -0.5239  0.2521  0.5815
    1TMC1    C514130   0.276   1.054   0.976 -0.2092 -0.1412  0.2729
    1TMC1    C614131   0.181   1.104   1.067 -0.4548  0.0569  0.0740
    1TMC1     C14132   0.449   1.357   0.868  0.0632  0.3060  0.0576
    1TMC1     O14133   0.413   1.469   0.890 -0.0118  0.1833 -0.2640
    1TMC1     H14134   0.239   1.430   1.019  1.3114  0.6940  0.6111
    1TMC1    H114135   0.442   1.098   0.845 -1.3046 -2.5789  1.1489
    1TMC1    H214136   0.115   1.041   1.125 -0.2511 -0.6023 -0.4005
    1TMC1    C714137   0.276   0.903   0.970  0.3620  0.9487 -0.3435
    1TMC1    C814138   0.063   1.311   1.151  0.7741  0.8428  0.0772
    1TMC1    O114139   0.203   0.839   1.047 -0.5438  0.0568  0.0102
    1TMC1    O214140   0.061   1.432   1.175  0.4019 -0.0865  0.0162
    1TMC1    O314141   0.357   0.870   0.863 -1.1514 -0.3568 -0.5339
    1TMC1    H314142   0.405   0.941   0.815 -1.9948  0.4335 -0.2069
    1TMC1    O514143   4.693   1.222   1.163  0.3368  0.1557  0.3043
    1TMC1    H514144   4.700   1.141   1.107  2.3787 -1.8991  3.5144
    2MPD1     C14145   0.863   1.548   0.632  0.4271  1.0164 -0.2422
    2MPD1    C114146   0.883   1.412   0.653 -0.2381 -0.5371  0.2489
    2MPD1    C214147   0.783   1.345   0.723  0.3052 -0.3418  0.0206
    2MPD1    C314148   0.662   1.403   0.762 -0.7412 -1.1584  0.2774
    2MPD1    C414149   0.649   1.538   0.737  1.0853 -0.8396 -0.0216
    2MPD1    C514150   0.757   1.608   0.683 -0.8476 -0.0803 -0.1492
    2MPD1     H14151   0.798   1.240   0.742  0.4542 -0.0704  1.4302
    2MPD1    H114152   0.567   1.599   0.774 -0.2689 -0.9419 -2.8599
    2MPD1    H214153   0.948   1.612   0.610 -0.0672  2.2989  1.5641
    2MPD1    H314154   0.754   1.716   0.698  2.2842 -0.0256 -0.0901
    2MPD1     N14155   0.568   1.315   0.817 -0.2884  0.2449  0.2998
    2MPD1    H514156   0.597   1.218   0.826 -0.5841  0.2570  1.3030
    2MPD1    N114157   1.008   1.351   0.631  0.0429  0.3111 -0.2321
    2MPD1    H614158   1.060   1.384   0.551 -0.3749 -1.9445 -1.4228
    2MPD1    H714159   0.984   1.254   0.611  1.3109 -0.0223 -0.0828
    1MPD1     C14160   1.047   0.569  11.186  0.0707  0.4366  0.0976
    1MPD1    C114161   1.010   0.435  11.183 -0.2931 -0.1598  0.1547
    1MPD1    C214162   0.896   0.393  11.246  0.5956  0.0134 -0.1688
    1MPD1    C314163   0.808   0.487  11.299 -0.4217  0.3967 -0.0728
    1MPD1    C414164   0.841   0.622  11.277 -0.9454  0.3485  0.3888
    1MPD1    C514165   0.957   0.665  11.230 -0.0490  1.0266 -0.1510
    1MPD1     H14166   0.872   0.287  11.246 -0.9318  0.3599  1.2443
    1MPD1    H114167   0.775   0.704  11.302  1.3052  1.8616  1.3735
    1MPD1    H214168   1.140   0.601  11.141 -0.0050 -0.1318 -0.4683
    1MPD1    H314169   0.988   0.769  11.222  0.5505  0.8786  0.2510
    1MPD1     N14170   0.693   0.442  11.361  0.1401  0.9179 -0.0535
    1MPD1    H514171   0.691   0.342  11.375  0.3843  0.8626 -0.4135
    1MPD1    N114172   1.100   0.339  11.134  0.4200  0.0515  0.4477
    1MPD1    H614173   1.158   0.380  11.062 -0.1800  0.1622  0.0260
    1MPD1    H714174   1.051   0.259  11.094 -0.6958  0.4175  1.0619
    2MPD1     C14175   3.169   1.018  11.458  0.3906  0.5778  0.0328
    2MPD1    C114176   3.161   0.948  11.338 -0.1147 -0.1896  0.0353
    2MPD1    C214177   3.269   0.940  11.256  0.4081  0.0309  0.6665
    2MPD1    C314178   3.396   0.979  11.286 -0.7765 -0.2454 -0.4491
    2MPD1    C414179   3.407   1.039  11.410  0.6931 -0.3109 -0.2749
    2MPD1    C514180   3.296   1.055  11.493  0.0260  1.2326 -0.0004
    2MPD1     H14181   3.254   0.904  11.155 -0.9339  3.5240 -0.3798
    2MPD1    H114182   3.502   1.056  11.459  1.6891 -3.0974 -1.2388
    2MPD1    H214183   3.082   1.031  11.521  1.4805 -0.8069  1.8576
    2MPD1    H314184   3.296   1.118  11.581  0.8076 -0.7229  1.3895
    2MPD1     N14185   3.511   0.967  11.200  0.4213 -0.4400  0.5656
    2MPD1    H514186   3.596   1.002  11.242 -0.3338  1.0702  0.8240
    2MPD1    N114187   3.039   0.923  11.279  0.8499 -0.1921  0.8758
    2MPD1    H614188   3.055   0.832  11.235 -0.4789  0.7492 -1.5384
    2MPD1    H714189   2.971   0.895  11.349 -0.6489  0.7554 -0.2044
    3MPD1     C14190   3.710   0.607  10.268  0.5524 -0.3034  0.0966
    3MPD1    C114191   3.598   0.661  10.330 -0.3934  0.2962  0.5615
    3MPD1    C214192   3.604   0.694  10.461  0.2343  0.4803 -0.3162
    3MPD1    C314193   3.724   0.686  10.529  0.1197  0.1662  0.2761
    3MPD1    C414194   3.837   0.635  10.466 -0.3653 -0.1889 -0.0735
    3MPD1    C514195   3.832   0.589  10.332  0.2039  0.0919 -0.2321
    3MPD1     H14196   3.511   0.722  10.510  0.7391 -1.4514  1.7791
    3MPD1    H114197   3.914   0.601  10.534 -1.7078  0.6082  1.8426
    3MPD1    H214198   3.700   0.568  10.167 -1.1437  0.4159 -0.0220
    3MPD1    H314199   3.911   0.530  10.287  1.1113  0.1753  1.2434
    3MPD1     N14200   3.719   0.722  10.664 -0.1609  0.1948 -0.2736
    3MPD1    H514201   3.635   0.768  10.696  0.7157  1.2519  0.5330
    3MPD1    N114202   3.466   0.649  10.268  0.5055  0.1334 -0.1317
    3MPD1    H614203   3.468   0.665  10.167  2.0979 -3.5259 -0.6809
    3MPD1    H714204   3.401   0.709  10.319 -1.2646 -1.8416 -0.0499
    4MPD2     C14205   4.717   0.242  11.385 -0.6172 -0.5675  0.1088
    4MPD2    C114206   0.024   0.295  11.503 -0.0601  0.5516  0.2606
    4MPD2    C214207   4.684   0.369  11.585 -0.9121  0.4917 -0.2620
    4MPD2    C314208   4.561   0.415  11.547 -0.3702 -0.3075  0.9120
    4MPD2    C414209   4.518   0.363  11.427 -0.5295 -0.1770  0.2096
    4MPD2    C514210   4.589   0.278  11.348 -0.3713  0.3898  0.5075
    4MPD2     H14211   4.723   0.382  11.685 -1.8065 -2.0458  0.4100
    4MPD2    H114212   4.422   0.391  11.385 -0.2326 -0.4418 -0.6335
    4MPD2    H214213   0.035   0.178  11.317 -1.2913 -1.4481  0.3911
    4MPD2    H314214   4.552   0.255  11.248  0.2939  0.2127  0.3011
    4MPD2     N14215   4.468   0.501  11.620 -0.0314  0.2164  0.1911
    4MPD2    H514216   4.377   0.515  11.577 -0.3023  1.4024  1.1215
    4MPD2    N114217   0.157   0.274  11.553  0.2035  0.4999 -0.4830
    4MPD2    H714218   0.158   0.313  11.647  3.0625 -1.5367  0.3179
    5TMC3    C114219   0.386   0.265  11.545 -0.3881 -0.8626  0.2966
    5TMC3    C214220   0.479   0.323  11.466  0.2376  0.2899 -0.1011
    5TMC3    C314221   0.525   0.441  11.513 -0.5323 -0.5213 -0.3786
    5TMC3    C414222   0.361   0.308  11.674  0.7823 -0.5982 -0.1469
    5TMC3    C514223   0.418   0.427  11.716 -0.0382 -0.9422 -0.6904
    5TMC3    C614224   0.490   0.505  11.628 -0.2177  0.7429 -0.2439
    5TMC3     C14225   0.263   0.241  11.470 -0.6089  0.7503 -0.8878
    5TMC3     O14226   0.265   0.231  11.351 -0.0746 -0.0808 -0.1871
    5TMC3     H14227   0.496   0.292  11.363  0.5560  0.8846 -0.2277
    5TMC3    H114228   0.295   0.254  11.741 -1.2909  0.7159 -1.1307
    5TMC3    H214229   0.536   0.601  11.651  0.5474  0.5722 -1.0263
    5TMC3    C714230   0.324   0.511  11.795  0.5725  0.1373 -0.1004
    5TMC3    C814231   0.594   0.522  11.414  0.6498 -0.0935 -0.0083
    5TMC3    O114232   0.214   0.464  11.813  0.0809 -0.9445  0.1854
    5TMC3    O214233   0.570   0.642  11.424  0.1670  0.5267  0.1946
    6TMC3    C114234   3.651   0.916  11.023  0.3563  0.0867  0.7067
    6TMC3    C214235   3.678   0.832  10.921 -0.4599  0.2139  0.5064
    6TMC3    C314236   3.801   0.835  10.862 -0.3782  0.5350 -0.2488
    6TMC3    C414237   3.744   1.010  11.069 -0.1451  0.1081 -0.8949
    6TMC3    C514238   3.861   1.012  11.002  0.3789  0.0394  0.1678
    6TMC3    C614239   3.896   0.927  10.902 -0.6500 -0.2874  0.1342
    6TMC3     C14240   3.513   0.901  11.081 -0.0118 -0.1418  0.1032
    6TMC3     O14241   3.424   0.839  11.028  0.9232 -0.5006  0.2218
    6TMC3     H14242   3.600   0.766  10.887 -1.5250  1.2601  0.9301
    6TMC3    H114243   3.722   1.091  11.137  1.0445 -2.0648  2.0854
    6TMC3    H214244   3.995   0.935  10.859 -2.1772  3.3661 -2.7602
    6TMC3    C714245   3.965   1.094  11.050  0.1064  0.3280 -0.4284
    6TMC3    C814246   3.827   0.750  10.745  0.1991  0.0274  0.7236
    6TMC3    O114247   4.063   1.123  10.979  0.0702 -0.0391  0.4472
    6TMC3    O214248   3.944   0.739  10.712 -0.0007  0.2628 -0.1929
    7MPD2     C14249   0.163   0.973  11.934  0.0845 -0.0520  0.7079
    7MPD2    C114250   0.097   0.858  11.910  0.4629  0.1282 -0.1097
    7MPD2    C214251   0.168   0.747  11.881 -0.9099 -0.1092  0.6099
    7MPD2    C314252   0.307   0.739  11.884  0.1019 -0.0837  0.2759
    7MPD2    C414253   0.369   0.848  11.925 -0.0109 -0.1468  0.3962
    7MPD2    C514254   0.300   0.967  11.941  0.0417 -0.1933  0.1613
    7MPD2     H14255   0.106   0.660  11.858  0.4775 -0.9012 -0.1090
    7MPD2    H114256   0.477   0.849  11.922 -0.0105  0.9846  1.0523
    7MPD2    H214257   0.109   1.061  11.965  2.0292  0.3994  2.7687
    7MPD2    H314258   0.353   1.058  11.965  2.3340 -1.8933  1.5064
    7MPD2     N14259   0.381   0.620  11.842  0.4109  0.1035 -0.0720
    7MPD2    H514260   0.482   0.625  11.837  0.2802  0.1194 -2.7458
    7MPD2    N114261   4.686   0.842  11.905  0.2502 -0.3899  0.4074
    7MPD2    H714262   4.660   0.749  11.873 -0.3441 -0.1880  0.3086
    8TMC3    C114263   4.466   0.895  11.867  1.0107 -0.1826  0.5085
    8TMC3    C214264   4.422   0.960  11.754  0.1054 -0.2291 -0.0875
    8TMC3    C314265   4.355   0.885  11.662 -0.5099  0.3714 -0.4561
    8TMC3    C414266   4.458   0.757  11.869  0.1644 -0.7119  0.1881
    8TMC3    C514267   4.404   0.685  11.770  0.1409 -0.2724 -0.2847
    8TMC3    C614268   4.340   0.748  11.671  0.0459 -0.1072  0.1266
    8TMC3     C14269   4.593   0.939  11.915  0.3097  0.2607 -0.0535
    8TMC3     O14270   4.605   1.059  11.941  0.2346  0.0063 -0.4403
    8TMC3     H14271   4.428   1.067  11.741 -0.3908 -0.2825 -0.7468
    8TMC3    H114272   4.506   0.702  11.950 -2.0026  0.4791  2.2582
    8TMC3    H214273   4.285   0.692  11.595 -0.0904  0.5194 -0.2325
    8TMC3    C714274   4.504   0.580  11.729  0.8105  0.0028 -0.1348
    8TMC3    C814275   4.261   0.943  11.564  0.2675  0.0838  0.2682
    8TMC3    O114276   4.613   0.598  11.779  0.5159  0.4630 -0.2093
    8TMC3    O214277   4.174   0.871  11.517  0.2604 -0.6205  0.1982
    9MPD2     C14278   4.303   1.258  11.397 -0.3334 -0.0261  0.4491
    9MPD2    C114279   4.219   1.151  11.437  0.0207 -0.1869 -0.1616
    9MPD2    C214280   4.094   1.119  11.379 -0.2291 -1.3225  0.2614
    9MPD2    C314281   4.065   1.173  11.257 -1.5940  0.4758  0.0553
    9MPD2    C414282   4.158   1.272  11.213 -0.6218  0.0776  0.5828
    9MPD2    C514283   4.258   1.330  11.289  0.6175 -0.6255  0.1975
    9MPD2     H14284   4.034   1.036  11.413 -0.1012 -0.5067  2.5025
    9MPD2    H114285   4.128   1.332  11.128  1.1018  0.6251  0.3660
    9MPD2    H214286   4.396   1.280  11.448 -0.6854 -0.9021  1.4772
    9MPD2    H314287   4.316   1.406  11.239 -0.5242  1.4886  2.0438
    9MPD2     N14288   3.959   1.114  11.186  0.0619  0.0275  0.0481
    9MPD2    H514289   3.895   1.058  11.241  1.1897 -2.5225 -1.2129
    9MPD2    N114290   4.285   1.069  11.531  0.3020 -0.0701 -0.0884
    9MPD2    H714291   4.378   1.100  11.558  0.7533 -1.2295 -0.3139
    1MPD1     C14292   3.641   0.130  16.150  0.2130  0.2310 -0.7826
    1MPD1    C114293   3.579   0.062  16.253 -0.3167 -0.1046 -0.1981
    1MPD1    C214294   3.508   4.686  16.220 -0.1716 -0.6059  0.1199
    1MPD1    C314295   3.514   4.635  16.093 -0.6873 -0.2090 -0.6844
    1MPD1    C414296   3.600   4.692  15.998  0.8493 -0.0591 -0.4552
    1MPD1    C514297   3.642   0.080  16.024  0.1781  0.7134  0.3780
    1MPD1     H14298   3.435   4.649  16.290  0.6327 -1.3047  0.5876
    1MPD1    H114299   3.592   4.658  15.895 -0.7765  0.0901 -0.3695
    1MPD1    H214300   3.675   0.233  16.149  1.2278 -0.1034 -0.8276
    1MPD1    H314301   3.697   0.133  15.947 -2.3710  2.8919  0.0346
    1MPD1     N14302   3.434   4.533  16.036 -0.2223  0.1869 -0.4296
    1MPD1    H514303   3.451   4.510  15.939  0.8283  2.8970 -0.8823
    1MPD1    N114304   3.601   0.101  16.385 -0.4163  0.0485 -0.5136
    1MPD1    H614305   3.668   0.177  16.395 -0.1095 -0.2338 -0.4403
    1MPD1    H714306   3.631   0.024  16.445  0.6526  1.7230  1.0826
    2TMC2    C114307   3.165   4.155  15.960  0.7569 -0.1624 -0.0808
    2TMC2    C214308   3.147   4.202  15.833  0.4256 -0.1454  0.0412
    2TMC2    C314309   3.177   4.330  15.802 -0.3529 -0.2641  0.1224
    2TMC2    C414310   3.223   4.244  16.053 -0.2915 -0.2349 -0.2816
    2TMC2    C514311   3.258   4.374  16.010 -0.6446  0.6512 -0.0117
    2TMC2    C614312   3.244   4.414  15.884  0.2734 -0.4685  0.1008
    2TMC2     C14313   3.119   4.024  16.002  0.3932 -0.3393 -0.0078
    2TMC2     O14314   3.050   3.960  15.929  0.4933 -0.3390 -0.1584
    2TMC2     H14315   3.076   4.148  15.771  1.9171 -1.0831 -0.8531
    2TMC2    H114316   3.222   4.226  16.160  0.6975  0.9239 -0.0883
    2TMC2    H214317   3.275   4.510  15.845  1.0528 -0.1553  1.4837
    2TMC2    C714318   3.332   4.461  16.096  0.4479  1.2447  0.1366
    2TMC2    C814319   3.155   4.380  15.669  0.1545 -0.0250 -0.3326
    2TMC2    O114320   3.286   4.476  16.211 -0.2846  0.1663  0.0818
    2TMC2    O214321   3.178   4.497  15.638  0.2924 -0.1953  0.6021
    2TMC2    O514322   3.181   4.274  15.582 -0.1564 -0.0549  0.2942
    2TMC2    H514323   3.210   4.199  15.639  0.6636 -0.6438 -0.9011
    3MPD1     C14324   3.151   3.588  16.270 -0.5347 -0.4343 -0.3565
    3MPD1    C114325   3.259   3.663  16.304 -1.0663  0.5597 -0.4333
    3MPD1    C214326   3.273   3.788  16.241  0.2504 -0.3412  0.1088
    3MPD1    C314327   3.174   3.838  16.159  0.2515 -0.0032  0.7562
    3MPD1    C414328   3.065   3.756  16.120  0.4100  0.0869 -0.1422
    3MPD1    C514329   3.054   3.634  16.174 -0.3650  0.1668 -0.1737
    3MPD1     H14330   3.359   3.852  16.257 -0.4556  1.1984 -2.3942
    3MPD1    H114331   2.985   3.790  16.056  1.5595  0.4118 -1.4225
    3MPD1    H214332   3.136   3.488  16.307  0.8697 -0.3993  0.3084
    3MPD1    H314333   2.968   3.570  16.159  0.4138 -0.2908 -2.5879
    3MPD1     N14334   3.192   3.972  16.106 -0.1908  0.5010  0.0853
    3MPD1    H514335   3.283   4.017  16.110  0.3536 -0.4899 -1.2142
    3MPD1    N114336   3.359   3.599  16.373 -0.1408  0.8454 -0.1886
    3MPD1    H614337   3.399   3.673  16.430 -0.9593 -0.2647  1.8422
    3MPD1    H714338   3.323   3.524  16.431 -1.1867  1.6674  0.2120
    1TMC1    C114339   2.099   3.731  13.398  0.0589  0.4670 -0.3710
    1TMC1    C214340   2.049   3.627  13.468  0.5462 -0.0196 -0.4016
    1TMC1    C314341   1.937   3.562  13.426 -0.6354 -0.2081  0.2972
    1TMC1    C414342   2.033   3.783  13.288 -0.2178 -0.2886 -0.2375
    1TMC1    C514343   1.914   3.724  13.257 -0.6686  0.4521 -0.1949
    1TMC1    C614344   1.868   3.613  13.318  0.3944  0.3108 -0.6652
    1TMC1     C14345   2.237   3.767  13.391  0.2993  0.1861  0.2808
    1TMC1     O14346   2.270   3.846  13.305 -0.3073  0.5587  0.4033
    1TMC1     H14347   2.096   3.588  13.558 -2.1259  0.5888  1.2816
    1TMC1    H114348   2.054   3.883  13.250 -0.8973 -0.9265 -2.2685
    1TMC1    H214349   1.771   3.565  13.306  0.3015  0.4282 -0.3805
    1TMC1    C714350   1.815   3.802  13.187  0.1350  0.1859 -0.3293
    1TMC1    C814351   1.888   3.456  13.505 -0.4425  0.4425 -0.4890
    1TMC1    O114352   1.694   3.780  13.195  0.2882  0.4194  0.4598
    1TMC1    O214353   1.771   3.446  13.537  0.0132 -0.5732 -0.6165
    1TMC1    O314354   1.877   3.858  13.078 -0.2327  0.4013 -1.1505
    1TMC1    H314355   1.975   3.854  13.068 -0.4076 -2.3089 -1.6035
    1TMC1    O514356   1.974   3.354  13.506  0.1713  0.0772  0.2866
    1TMC1    H514357   2.064   3.373  13.472  0.1825 -1.1565 -0.3460
    2MPD2     C14358   2.537   3.776  13.402 -0.6205 -0.0765  0.1457
    2MPD2    C114359   2.454   3.687  13.472  0.6197 -0.4419  1.1143
    2MPD2    C214360   2.510   3.591  13.553 -0.3676  0.4626 -0.2894
    2MPD2    C314361   2.650   3.588  13.571  1.0196 -0.1210 -0.4833
    2MPD2    C414362   2.729   3.676  13.499 -0.2668 -0.3656 -0.0970
    2MPD2    C514363   2.672   3.770  13.420  0.2705 -0.1475 -0.4018
    2MPD2     H14364   2.447   3.523  13.608 -0.2277 -0.5620 -1.3864
    2MPD2    H114365   2.837   3.667  13.498  0.0593  3.5198  0.2662
    2MPD2    H214366   2.493   3.860  13.350 -1.2445 -0.0135  0.7703
    2MPD2    H314367   2.737   3.841  13.370  2.7776 -1.7482  0.5711
    2MPD2     N14368   2.690   3.484  13.650 -0.6976  0.1609 -0.1140
    2MPD2    H514369   2.610   3.431  13.684 -0.5103 -0.6283 -0.9128
    2MPD2    N114370   2.312   3.689  13.468  0.3980 -1.1224 -0.6579
    2MPD2    H714371   2.266   3.615  13.521  0.1892 -0.5147 -0.0014
    3TCq1    O114372   2.622   2.994  14.007 -0.1680 -0.2754  0.1001
    3TCq1    C114373   2.600   3.100  13.923  0.1266  0.3605  0.3410
    3TCq1    O214374   2.489   3.153  13.912 -0.1467 -0.0496 -0.5301
    3TCq1    C214375   2.718   3.144  13.863  0.0833  0.1755 -0.1430
    3TCq1    C314376   2.816   3.056  13.835  0.1713 -0.2017 -1.3070
    3TCq1    C414377   2.910   3.094  13.742 -0.4776 -0.3906 -0.0063
    3TCq1    C514378   2.909   3.216  13.685  0.2378  0.4610 -0.1367
    3TCq1    C614379   2.812   3.303  13.736  0.1471 -0.1504  0.4176
    3TCq1    C714380   2.713   3.269  13.818 -0.4660 -0.4236 -0.3258
    3TCq1    C814381   2.812   3.431  13.668 -0.4931 -0.3249 -0.4830
    3TCq1    O414382   2.915   3.480  13.621  0.2027 -0.3310 -0.1290
    3TCq1    C914383   3.011   2.999  13.698 -0.2152 -1.1493 -0.0065
    3TCq1    O514384   3.067   3.025  13.588  0.4218 -0.1860 -0.6567
    3TCq1    O614385   3.043   2.904  13.775  0.0098  0.2573 -0.1462
    3TCq1    H114386   2.715   2.987  14.038  0.0256  0.5286 -0.2862
    3TCq1    H214387   2.814   2.954  13.871 -0.2106  0.4376  0.4713
    3TCq1    H314388   2.986   3.245  13.615 -0.5859 -0.9729 -1.6357
    3TCq1    H414389   2.629   3.331  13.848  0.0014  0.2100 -0.3388
    1MPD2     C14390   2.017   4.335  14.948 -1.3387  0.6976 -0.4584
    1MPD2    C114391   1.906   4.257  14.971 -0.3391 -0.2737  0.0069
    1MPD2    C214392   1.922   4.124  14.945 -0.5549 -0.6730  0.4327
    1MPD2    C314393   2.040   4.071  14.902 -0.8936 -0.0929  0.5494
    1MPD2    C414394   2.156   4.152  14.900  0.4381 -0.0863  0.0374
    1MPD2    C514395   2.137   4.282  14.916 -0.1640  0.0924  0.6268
    1MPD2     H14396   1.844   4.049  14.946 -1.1039 -0.1290 -1.8924
    1MPD2    H114397   2.248   4.107  14.865  0.6805 -0.1162  0.7005
    1MPD2    H214398   2.019   4.443  14.955  2.1231  0.4592  1.7836
    1MPD2    H314399   2.218   4.354  14.911  0.6191 -0.8381  0.2361
    1MPD2     N14400   2.038   3.935  14.861  0.3263 -0.1193 -0.4835
    1MPD2    H514401   1.944   3.907  14.834  0.0483 -2.1779  2.6884
    1MPD2    N114402   1.796   4.313  15.038 -0.5927  0.1917 -0.0391
    1MPD2    H714403   1.778   4.413  15.042  0.5492  0.2187  4.1070
    2TMC3    C114404   1.594   4.298  15.174 -0.3473  0.4416 -0.5081
    2TMC3    C214405   1.535   4.201  15.245 -0.0887  0.3760 -0.0637
    2TMC3    C314406   1.398   4.194  15.252 -0.9794 -0.1108 -1.6941
    2TMC3    C414407   1.516   4.384  15.098  0.3301 -0.3482  0.1611
    2TMC3    C514408   1.380   4.383  15.121  0.1934 -0.2417  0.6504
    2TMC3    C614409   1.314   4.286  15.193 -0.2213 -0.3720  0.0822
    2TMC3     C14410   1.706   4.233  15.104 -0.0455 -0.0210 -0.4172
    2TMC3     O14411   1.702   4.110  15.122  0.1641  0.1526 -0.0678
    2TMC3     H14412   1.592   4.140  15.314 -1.8776  1.6710  2.5740
    2TMC3    H114413   1.564   4.457  15.035 -0.7348  0.6507  0.4824
    2TMC3    H214414   1.206   4.277  15.194 -0.4232  2.2784  2.4662
    2TMC3    C714415   1.297   4.470  15.042  0.4168  0.1476  0.6902
    2TMC3    C814416   1.341   4.070  15.217  0.5508  0.0333 -0.1789
    2TMC3    O114417   1.179   4.435  15.045  0.3378 -0.3492 -0.1490
    2TMC3    O214418   1.219   4.054  15.208  0.4492 -0.0449  0.2634
    3TCq1    O114419   1.660   0.690  14.285  0.1585 -0.0943 -0.6988
    3TCq1    C114420   1.665   0.555  14.287 -0.0034 -0.3729 -0.1461
    3TCq1    O214421   1.665   0.480  14.193  0.4932  0.1849 -0.5554
    3TCq1    C214422   1.616   0.527  14.417  1.1997 -0.3725 -0.2541
    3TCq1    C314423   1.673   0.577  14.530 -0.5453 -0.1416 -0.3679
    3TCq1    C414424   1.652   0.519  14.651  0.7240  0.3140 -0.0216
    3TCq1    C514425   1.558   0.415  14.660  0.1829 -0.0674  0.4140
    3TCq1    C614426   1.510   0.370  14.542 -0.4433 -0.0314  0.5333
    3TCq1    C714427   1.528   0.426  14.424 -0.3589  0.0560 -0.0171
    3TCq1    C814428   1.411   0.263  14.556 -0.0336 -0.5798 -0.4965
    3TCq1    O414429   1.336   0.241  14.458 -0.4288  0.3577  0.0884
    3TCq1    C914430   1.700   0.577  14.773  0.0842 -0.2960 -0.5048
    3TCq1    O514431   1.786   0.666  14.753  0.5021 -0.1090 -0.0349
    3TCq1    O614432   1.660   0.533  14.885  0.0896 -0.1045  0.3577
    3TCq1    H114433   1.623   0.739  14.361 -0.5434  0.4172 -1.3661
    3TCq1    H214434   1.749   0.650  14.505  0.5023 -1.9127 -2.3076
    3TCq1    H314435   1.537   0.376  14.759  1.9333 -0.7280  0.5404
    3TCq1    H414436   1.470   0.397  14.337 -0.9070 -1.6630  0.9311
    4MPD2     C14437   1.210   0.081  14.674 -0.1633 -1.1396 -0.1750
    4MPD2    C114438   1.336   0.095  14.714 -0.0551 -0.0634  0.7945
    4MPD2    C214439   1.381   4.735  14.805 -0.6974  0.0899  0.2378
    4MPD2    C314440   1.299   4.633  14.860 -0.3337  0.3960 -0.5475
    4MPD2    C414441   1.164   4.635  14.823 -0.3308 -0.0450  0.4634
    4MPD2    C514442   1.124   4.724  14.724  0.3629  0.9066 -0.0052
    4MPD2     H14443   1.483   0.008  14.839 -1.2608 -0.6095  2.1264
    4MPD2    H114444   1.098   4.557  14.859  1.4302 -1.5875  0.3810
    4MPD2    H214445   1.159   0.141  14.600  2.0637  0.0559 -0.7297
    4MPD2    H314446   1.019   4.727  14.696  0.0885 -0.3018  0.8814
    4MPD2     N14447   1.360   4.556  14.956  0.5573  0.2647 -0.1575
    4MPD2    H514448   1.460   4.567  14.965  0.3808  1.8752 -0.3142
    4MPD2    N114449   1.429   0.187  14.667  0.0350  0.1357  0.0464
    4MPD2    H714450   1.518   0.190  14.714  0.4930  0.8921 -0.8681
    5TMC2    C114451   1.875   3.646  14.825 -0.1989 -0.1577  0.4792
    5TMC2    C214452   1.912   3.546  14.912 -0.2057  0.9479  0.6862
    5TMC2    C314453   2.044   3.551  14.954 -0.1232  0.6078  0.0853
    5TMC2    C414454   1.963   3.732  14.763  0.3353  0.3677 -0.3098
    5TMC2    C514455   2.094   3.727  14.804  0.4077  0.4008 -0.0125
    5TMC2    C614456   2.136   3.641  14.905  0.8784 -0.4630  0.2969
    5TMC2     C14457   1.760   3.720  14.861  0.6214  0.5099  0.6643
    5TMC2     O14458   1.777   3.840  14.865  0.4795  0.5402  0.0194
    5TMC2     H14459   1.839   3.476  14.951  1.7255 -1.1549  0.6040
    5TMC2    H114460   1.926   3.812  14.700 -0.6431 -0.4170 -0.7235
    5TMC2    H214461   2.233   3.647  14.951  1.6106  1.0196 -1.4592
    5TMC2    C714462   2.147   3.857  14.825 -0.3371  0.2454  0.1753
    5TMC2    C814463   2.075   3.464  15.060 -0.5319  0.1013 -1.0786
    5TMC2    O114464   2.267   3.873  14.846  0.6007  0.1502 -0.0649
    5TMC2    O214465   2.021   3.356  15.085  0.1411 -0.1643 -0.3942
    5TMC2    O514466   2.167   3.522  15.141  0.0235 -0.3252  0.2126
    5TMC2    H514467   2.179   3.617  15.120 -1.6481 -0.1180  0.1800
    6MPD2     C14468   1.317   3.782  15.126  0.1233  0.2513  0.2253
    6MPD2    C114469   1.433   3.859  15.119  0.2620  0.5860  0.2382
    6MPD2    C214470   1.541   3.818  15.051  1.3817  0.6016  0.2684
    6MPD2    C314471   1.547   3.695  14.987 -0.2231 -0.0289  0.4267
    6MPD2    C414472   1.431   3.618  15.000 -0.7207  0.2900 -0.4445
    6MPD2    C514473   1.322   3.661  15.065 -0.3702  0.0595  0.9039
    6MPD2     H14474   1.620   3.891  15.040  0.1185  2.0505  0.9808
    6MPD2    H114475   1.427   3.522  14.951 -0.1042  1.2291 -2.3305
    6MPD2    H214476   1.238   3.799  15.198  1.3864  2.6439  1.0284
    6MPD2    H314477   1.234   3.599  15.084 -0.7203  0.1061 -0.5577
    6MPD2     N14478   1.653   3.646  14.900 -0.3685 -0.0873  0.0850
    6MPD2    H514479   1.649   3.550  14.868 -1.5702 -0.3206  0.9376
    6MPD2    N114480   1.445   3.986  15.176  0.0341  0.4202 -0.4452
    6MPD2    H714481   1.540   4.021  15.165  0.6952 -0.8364  1.3083
  945NH3     N114482   1.030   2.446  14.654 -0.4543  0.1545  0.1212
  945NH3     H214483   0.994   2.486  14.740  1.2574 -0.6927  1.2328
  945NH3     H314484   0.997   2.350  14.654  2.1146 -0.7247 -1.1369
  945NH3     H414485   0.983   2.491  14.576 -1.8008 -1.2114  0.1490
  946SOD     NA14486   3.165   3.186  14.078 -0.3084  0.5399 -0.4283
  947SOD     NA14487   3.895   1.182   5.579 -0.3262 -0.3739  0.2275
  948SOD     NA14488   1.752   0.796  11.424  0.4146  0.1091  0.8624
  949SOD     NA14489   4.679   0.311  13.097  0.3809  0.1394 -0.8710
  950SOD     NA14490   4.604   2.751   3.200 -0.3949 -0.2577  0.0290
  951SOD     NA14491   1.515   4.146   3.751  0.2446 -0.2311 -0.2946
  952SOD     NA14492   1.505   2.801  15.306 -0.2697  0.2825  0.3108
  953SOD     NA14493   3.461   1.988  16.788  0.0384  0.1243 -0.2788
  954SOL     OW14494   2.829   3.724   6.954 -0.6849  0.1858 -0.2987
  954SOL    HW114495   2.756   3.777   6.985 -0.5207 -0.3569  1.0130
  954SOL    HW214496   2.888   3.734   7.029  1.6695  1.6237 -2.3146
  955SOL     OW14497   4.562   4.716  12.823  0.2534 -0.3074  0.0195
  955SOL    HW114498   4.635   4.736  12.765 -1.4268  2.5375 -1.1219
  955SOL    HW214499   4.498   4.695  12.756  0.0814 -0.8751  0.3583
  956SOL     OW14500   1.278   0.653   6.391 -0.6983 -0.2013  0.1009
  956SOL    HW114501   1.344   0.597   6.351  0.5522  0.5990  1.0729
  956SOL    HW214502   1.327   0.723   6.435 -2.1776  0.4351  0.7700
  957SOL     OW14503   4.658   4.177  12.531 -0.0564 -0.4493 -0.0994
  957SOL    HW114504   4.594   4.117  12.492 -2.9524  3.5529 -1.4832
  957SOL    HW214505   4.619   4.195  12.617 -0.9345  0.2514 -0.6347
  958SOL     OW14506   0.153   2.400   4.285  0.2313 -0.7600 -0.1804
  958SOL    HW114507   0.069   2.386   4.241  0.4797 -0.0828 -0.8643
  958SOL    HW214508   0.188   2.311   4.283 -0.5098 -1.0874  2.3111
  959SOL     OW14509   3.916   3.149   6.090 -0.3705 -0.0435 -0.2995
  959SOL    HW114510   3.992   3.207   6.086 -0.3771 -0.0513 -0.5203
  959SOL    HW214511   3.951   3.072   6.047 -0.6550  0.6946 -1.8555
  960SOL     OW14512   1.960   2.028  10.147 -0.3372  0.0408 -0.6034
  960SOL    HW114513   1.996   1.953  10.099  0.0283 -1.4906  2.0491
  960SOL    HW214514   1.935   2.081  10.071  0.1605 -1.4262 -1.8100
  961SOL     OW14515   3.238   1.620   5.134 -0.5612  0.4076  0.4401
  961SOL    HW114516   3.258   1.714   5.127  0.6823 -0.1424 -3.4192
  961SOL    HW214517   3.312   1.584   5.085 -1.0879 -1.0482  0.7120
  962SOL     OW14518   4.087   2.957   3.990 -0.1411 -0.5412 -0.3299
  962SOL    HW114519   4.062   3.044   3.960 -2.2010 -1.5370 -1.5456
  962SOL    HW214520   4.154   2.931   3.927  0.1645  1.5524 -0.8528
  963SOL     OW14521   2.003   3.206   5.997 -0.1298 -0.2582 -0.3610
  963SOL    HW114522   2.069   3.244   6.055 -0.7742 -0.7039  0.6499
  963SOL    HW214523   1.992   3.124   6.044  0.3981 -2.0032 -3.2540
  964SOL     OW14524   1.622   4.094   7.574  0.1513  0.1446  0.2735
  964SOL    HW114525   1.575   4.029   7.625  0.4436 -0.0703  0.2710
  964SOL    HW214526   1.712   4.060   7.579 -0.0916 -0.9216 -2.5699
  965SOL     OW14527   4.612   3.986   1.605  0.7248 -0.3810  0.1059
  965SOL    HW114528   4.681   3.933   1.567  0.4794  0.5188 -1.6072
  965SOL    HW214529   4.640   4.078   1.613  0.0582 -0.1925  0.3098
  966SOL     OW14530   4.047   1.216   7.782  0.4464  0.2162  0.2151
  966SOL    HW114531   4.133   1.193   7.816  1.1424  1.0972 -0.9133
  966SOL    HW214532   3.986   1.165   7.835 -0.7231  0.1685 -1.1468
  967SOL     OW14533   3.105   2.854   9.387 -0.1660  0.2581 -0.5736
  967SOL    HW114534   3.027   2.893   9.426 -1.0967 -0.5900 -1.5799
  967SOL    HW214535   3.150   2.825   9.466 -2.0049 -0.9526  0.0383
  968SOL     OW14536   2.720   0.875   1.595  0.1454 -0.6406  0.6145
  968SOL    HW114537   2.676   0.831   1.523 -0.6296 -0.0114  0.7012
  968SOL    HW214538   2.678   0.960   1.579 -1.2789 -1.0244  2.3844
  969SOL     OW14539   0.453   2.134  10.153 -0.1191 -0.1065  0.0660
  969SOL    HW114540   0.525   2.133  10.216  0.0140  2.4215 -0.0106
  969SOL    HW214541   0.456   2.040  10.138  0.6774  0.4199 -3.0782
  970SOL     OW14542   3.719   3.970   3.302  0.4725  0.6349  0.2737
  970SOL    HW114543   3.711   4.051   3.253 -1.5485  0.4418  0.2668
  970SOL    HW214544   3.629   3.938   3.308  0.6260 -0.2048 -1.8974
  971SOL     OW14545   2.478   1.396   9.304 -0.1753 -0.0459 -0.3304
  971SOL    HW114546   2.512   1.486   9.304 -1.8411  0.5920  0.4048
  971SOL    HW214547   2.466   1.380   9.210  1.0240  1.6913 -0.7864
  972SOL     OW14548   4.673   2.447   8.288 -0.0079  0.3662  0.2588
  972SOL    HW114549   4.705   2.438   8.198 -0.6294 -1.5934  0.2228
  972SOL    HW214550   4.597   2.388   8.285  0.3247 -0.0910  0.9871
  973SOL     OW14551   2.544   0.506   3.915 -0.1178 -0.0153 -0.2526
  973SOL    HW114552   2.508   0.441   3.975  0.1575 -0.0224 -0.0942
  973SOL    HW214553   2.633   0.470   3.924  0.7121  2.1773  0.3007
  974SOL     OW14554   2.764   4.725  11.297  0.0100 -0.1474  0.2499
  974SOL    HW114555   2.858   4.715  11.308  0.4406  1.9952 -1.4488
  974SOL    HW214556   2.755   0.081  11.276 -0.5432 -0.3677 -0.4970
  975SOL     OW14557   3.547   0.085  13.604 -0.4590  0.2004  0.0895
  975SOL    HW114558   3.641   0.089  13.623 -0.8559  1.1805  1.8152
  975SOL    HW214559   3.531   0.018  13.537 -0.0462 -0.2108  0.4024
  976SOL     OW14560   3.500   1.159   5.319 -0.5258 -0.6227  0.4517
  976SOL    HW114561   3.495   1.188   5.228 -1.3823  2.0041  1.3287
  976SOL    HW214562   3.411   1.133   5.341 -1.0822  0.2235 -0.7980
  977SOL     OW14563   3.313   4.296   2.646 -0.0331  0.7191  0.2325
  977SOL    HW114564   3.373   4.316   2.575 -1.1385  2.1232 -0.3179
  977SOL    HW214565   3.244   4.359   2.625 -1.1476  0.0220  1.8229
  978SOL     OW14566   4.540   3.282   8.491  0.6379 -0.1406 -0.5738
  978SOL    HW114567   4.552   3.260   8.399  1.2429 -1.2858 -0.2230
  978SOL    HW214568   4.628   3.318   8.502 -0.4572  3.2254 -2.4760
  979SOL     OW14569   4.549   4.233   4.736  0.3062  0.4853  0.1767
  979SOL    HW114570   4.580   4.308   4.684  0.6053 -1.5644 -2.5796
  979SOL    HW214571   4.547   4.166   4.668  0.6996  0.6112  0.0423
  980SOL     OW14572   0.410   2.997   6.676 -0.2932 -0.6256  0.6220
  980SOL    HW114573   0.344   3.061   6.650  0.1808  0.1081  1.2235
  980SOL    HW214574   0.388   2.984   6.768 -0.5983  0.0363  0.6414
  981SOL     OW14575   0.041   4.663   6.130 -0.2697 -0.0935 -0.1320
  981SOL    HW114576   4.700   4.697   6.175  0.1644 -0.8384  1.1788
  981SOL    HW214577   0.052   4.574   6.164 -3.0255 -0.0757  0.8086
  982SOL     OW14578   2.642   3.459   8.486  0.5404  0.4375 -0.0178
  982SOL    HW114579   2.637   3.480   8.580 -0.0241 -1.3724  0.3632
  982SOL    HW214580   2.645   3.548   8.452  0.6812  1.2719  2.1512
  983SOL     OW14581   2.602   1.872   3.477 -0.3013 -0.3091 -0.7080
  983SOL    HW114582   2.582   1.964   3.461  1.3077  0.2186  0.2862
  983SOL    HW214583   2.516   1.830   3.489  0.4043 -1.1191  1.5959
  984SOL     OW14584   2.456   0.081   5.180 -0.9324 -0.0992  0.5450
  984SOL    HW114585   2.525   0.016   5.193  0.4353  1.4112  0.8323
  984SOL    HW214586   2.453   0.096   5.085 -1.3194 -0.0216  0.5695
  985SOL     OW14587   1.854   3.507   0.579  0.1163  0.0184 -0.2481
  985SOL    HW114588   1.865   3.430   0.523  0.8343 -0.1209  0.0851
  985SOL    HW214589   1.762   3.491   0.599 -0.4500  2.4384 -0.8651
  986SOL     OW14590   3.151   3.555   2.593  0.2709  0.1302  0.1366
  986SOL    HW114591   3.200   3.607   2.529  1.0646  0.5957  1.1036
  986SOL    HW214592   3.082   3.620   2.610 -0.9579 -1.3812  0.9133
  987SOL     OW14593   3.659   4.266  12.079  0.0772  0.2635 -0.6525
  987SOL    HW114594   3.580   4.232  12.037 -0.6319  2.5439 -1.1429
  987SOL    HW214595   3.710   4.277  11.999  1.3659 -1.6108 -0.0840
  988SOL     OW14596   0.682   3.805   0.340 -0.0305  0.3075  0.5138
  988SOL    HW114597   0.618   3.848   0.396  0.6448  0.8313  0.8759
  988SOL    HW214598   0.634   3.765   0.267 -0.7669 -1.9426  2.2398
  989SOL     OW14599   4.713   4.431   4.878 -0.6688 -0.4832 -0.1210
  989SOL    HW114600   0.068   4.440   4.905 -0.1368 -2.4837 -1.2637
  989SOL    HW214601   4.693   4.337   4.880  1.0594 -0.8880 -1.7636
  990SOL     OW14602   1.097   2.724   2.717 -0.2372  0.4984 -0.2365
  990SOL    HW114603   1.178   2.692   2.756  0.3252  0.9952 -1.0056
  990SOL    HW214604   1.122   2.726   2.625  0.2171  0.1189 -0.1220
  991SOL     OW14605   1.476   2.361  13.502 -0.1880  0.4329  0.3202
  991SOL    HW114606   1.392   2.389  13.537 -0.6761  2.2507 -2.3762
  991SOL    HW214607   1.455   2.292  13.439  1.5768 -1.3971  1.7346
  992SOL     OW14608   2.021   1.627   4.249  0.0296  0.0829 -0.1179
  992SOL    HW114609   2.082   1.691   4.286  1.5843 -0.6532 -1.4479
  992SOL    HW214610   2.059   1.544   4.276 -0.2104  0.2804  0.8291
  993SOL     OW14611   2.343   0.010  14.435 -0.3250  0.0374  0.2613
  993SOL    HW114612   2.285   4.677  14.467  0.1824 -0.9385 -0.9548
  993SOL    HW214613   2.320   0.081  14.495  1.0605  0.1069  0.7120
  994SOL     OW14614   3.274   4.280  12.316  0.1951  0.3081 -0.0054
  994SOL    HW114615   3.245   4.237  12.236 -0.5916  0.9458 -0.0602
  994SOL    HW214616   3.186   4.315  12.328  1.2169  2.2948  1.6113
  995SOL     OW14617   0.637   0.642   9.104  0.6534 -0.3860  0.2330
  995SOL    HW114618   0.574   0.573   9.085  1.8846 -1.1788 -1.0272
  995SOL    HW214619   0.628   0.665   9.196 -2.2242 -0.3786 -0.0392
  996SOL     OW14620   0.916   4.479  17.742  0.2052  0.2620 -1.0713
  996SOL    HW114621   0.910   4.560  17.691  1.9174  0.5265 -0.8694
  996SOL    HW214622   0.991   4.429  17.708  1.2401  0.6835  0.5660
  997SOL     OW14623   0.326   1.202  12.838  0.0476  0.4183  0.6443
  997SOL    HW114624   0.342   1.173  12.928  2.1077 -2.0546 -0.5353
  997SOL    HW214625   0.372   1.286  12.828  0.5894  0.1226  0.6973
  998SOL     OW14626   0.275   3.288   7.681  0.6217  0.0585 -0.1695
  998SOL    HW114627   0.349   3.339   7.713  0.2981  0.5885 -0.2823
  998SOL    HW214628   0.242   3.245   7.760 -0.2109  1.2187  0.1149
  999SOL     OW14629   4.210   4.050   6.500 -0.1840 -0.4089  0.3057
  999SOL    HW114630   4.264   3.986   6.454  1.0226 -0.9957  2.5437
  999SOL    HW214631   4.281   4.104   6.533 -0.3326  2.2790 -3.8141
 1000SOL     OW14632   4.513   2.167   1.477 -0.8510 -0.0948 -0.4322
 1000SOL    HW114633   4.495   2.086   1.523  1.7386 -1.5273 -1.9273
 1000SOL    HW214634   4.475   2.136   1.395  1.9946 -3.7618 -0.3855
 1001SOL     OW14635   3.069   2.637   9.230  0.2482  0.3678  0.3595
 1001SOL    HW114636   3.101   2.707   9.286 -0.4431  1.4785 -0.6257
 1001SOL    HW214637   2.985   2.668   9.197  0.2460 -0.0504 -0.0384
 1002SOL     OW14638   2.103   3.360   3.573  0.0518 -0.3700 -0.1814
 1002SOL    HW114639   2.118   3.313   3.655 -0.2118  1.4821  0.9236
 1002SOL    HW214640   2.066   3.442   3.607  0.4038 -0.8693  1.4125
 1003SOL     OW14641   2.155   4.114   7.870  0.0892 -0.4289 -0.3242
 1003SOL    HW114642   2.236   4.149   7.834  0.8620 -0.5942  1.2196
 1003SOL    HW214643   2.179   4.076   7.955  1.0826 -0.3097 -0.5589
 1004SOL     OW14644   2.424   4.074  13.229  0.0258 -0.0168  1.0856
 1004SOL    HW114645   2.360   4.096  13.162  1.0877  1.1902  0.4507
 1004SOL    HW214646   2.379   4.018  13.292  1.6972 -4.1018 -1.3447
 1005SOL     OW14647   2.357   3.434   4.426  0.1350  0.1493  0.6375
 1005SOL    HW114648   2.388   3.401   4.510  0.1364  0.2198  0.6645
 1005SOL    HW214649   2.328   3.350   4.390  2.1473 -0.3980  0.2430
 1006SOL     OW14650   3.059   3.009   1.577 -0.0168 -0.1537  0.1254
 1006SOL    HW114651   3.110   3.045   1.650  1.2595  0.0213 -0.8584
 1006SOL    HW214652   3.117   2.935   1.560 -0.1663 -0.2519  0.0497
 1007SOL     OW14653   1.238   1.520   3.489  0.0038 -0.4469  0.1979
 1007SOL    HW114654   1.331   1.502   3.478  0.0279  0.8020 -1.6277
 1007SOL    HW214655   1.188   1.442   3.464 -1.5143  1.4093 -2.5499
 1008SOL     OW14656   0.341   2.530   4.127  0.3313  0.2336  0.0566
 1008SOL    HW114657   0.267   2.494   4.178 -0.9239 -0.0490 -1.9746
 1008SOL    HW214658   0.396   2.452   4.128  2.0224  1.4147 -2.7461
 1009SOL     OW14659   1.871   2.500   7.311  0.0046 -0.0397  0.3835
 1009SOL    HW114660   1.875   2.431   7.377  1.5499  0.1597  0.4828
 1009SOL    HW214661   1.918   2.566   7.362 -0.2636  1.7118 -1.6278
 1010SOL     OW14662   3.919   0.104   5.712 -0.3602 -0.4203  0.2786
 1010SOL    HW114663   3.959   0.177   5.759  0.9045 -1.4814  0.8416
 1010SOL    HW214664   3.832   0.093   5.752 -0.4998 -0.2069  0.0399
 1011SOL     OW14665   0.822   0.218   4.042  0.0816  0.1938  0.4286
 1011SOL    HW114666   0.772   0.297   4.064  0.2979 -0.0956  1.9466
 1011SOL    HW214667   0.900   0.254   4.001  0.3047  0.1725  0.8286
 1012SOL     OW14668   2.013   4.072  12.164 -0.0923  0.5101 -0.0908
 1012SOL    HW114669   2.005   3.976  12.159 -0.5612  0.5293  0.2376
 1012SOL    HW214670   2.017   4.096  12.071  0.1623 -1.6926 -0.6568
 1013SOL     OW14671   2.880   3.113   4.269  0.1394 -0.3069 -0.0011
 1013SOL    HW114672   2.962   3.065   4.280  0.3993  0.1318 -0.0598
 1013SOL    HW214673   2.892   3.163   4.189 -0.3422  2.6106  1.7639
 1014SOL     OW14674   4.524   2.618  14.009  0.7309 -0.1919  0.4003
 1014SOL    HW114675   4.593   2.577  14.060  1.3495 -0.9224 -1.0273
 1014SOL    HW214676   4.517   2.555  13.938 -0.6060  1.3186 -0.8192
 1015SOL     OW14677   1.236   3.815   6.333 -0.1432 -0.1314  0.3219
 1015SOL    HW114678   1.173   3.744   6.320  0.3718 -0.1983 -1.8152
 1015SOL    HW214679   1.241   3.816   6.428 -2.1137  2.2655  0.4069
 1016SOL     OW14680   1.731   4.034   5.303  0.2672  0.1595  0.1462
 1016SOL    HW114681   1.715   3.960   5.362  3.0433 -0.0733  0.6267
 1016SOL    HW214682   1.723   3.996   5.215 -0.2668 -0.0148  0.2719
 1017SOL     OW14683   0.132   2.321   9.583 -0.1123  0.4888  0.4959
 1017SOL    HW114684   0.133   2.415   9.600  1.6723  0.2419  1.7587
 1017SOL    HW214685   0.223   2.322   9.552 -0.1828 -1.2716  0.2371
 1018SOL     OW14686   3.629   0.931   2.905  0.1933 -0.0959  0.0215
 1018SOL    HW114687   3.637   1.009   2.960  2.0626 -0.8607  0.8621
 1018SOL    HW214688   3.622   0.968   2.817  0.5894  0.8114  0.3707
 1019SOL     OW14689   0.885   3.206   4.675 -0.5985 -0.2798  0.6452
 1019SOL    HW114690   0.883   3.130   4.733  1.7401  0.8796  2.2359
 1019SOL    HW214691   0.815   3.188   4.612  0.7654 -0.2195 -0.8981
 1020SOL     OW14692   1.581   1.610   6.267  0.0843  0.0750 -0.8388
 1020SOL    HW114693   1.614   1.685   6.217 -3.0022  0.4618 -2.2960
 1020SOL    HW214694   1.555   1.545   6.202 -0.1053 -1.1322  0.4469
 1021SOL     OW14695   3.975   3.370   9.550  0.2445 -0.1811 -0.5062
 1021SOL    HW114696   4.047   3.431   9.561  0.0439  0.2569 -1.6008
 1021SOL    HW214697   4.017   3.290   9.581  0.0427  0.3704  1.1977
 1022SOL     OW14698   2.984   3.174   9.287 -0.7046 -0.1234 -0.2049
 1022SOL    HW114699   2.971   3.138   9.375  4.9649 -1.2031  0.1573
 1022SOL    HW214700   2.927   3.113   9.240 -1.9342 -0.7263  2.0563
 1023SOL     OW14701   2.763   1.230   2.506 -0.4217  0.0750 -0.1181
 1023SOL    HW114702   2.774   1.310   2.454  1.1439 -1.5389 -2.2937
 1023SOL    HW214703   2.733   1.254   2.593  1.7163  0.5589  0.4677
 1024SOL     OW14704   4.240   1.392   8.223  0.1088  0.0291  0.5349
 1024SOL    HW114705   4.259   1.369   8.314 -2.8423  0.0774  1.1504
 1024SOL    HW214706   4.176   1.326   8.198 -0.7610  1.0871 -0.0411
 1025SOL     OW14707   2.758   4.016   7.482 -0.2063 -0.6503 -0.2730
 1025SOL    HW114708   2.710   3.949   7.530  1.2821 -1.2119  0.4406
 1025SOL    HW214709   2.690   4.064   7.434  0.8078  0.4755 -0.6042
 1026SOL     OW14710   0.947   1.577   3.869  0.4180  0.7112  0.7514
 1026SOL    HW114711   0.985   1.543   3.789 -2.1111  2.5131 -1.2118
 1026SOL    HW214712   0.914   1.497   3.910 -2.3689  2.2247  1.4412
 1027SOL     OW14713   2.952   2.223   4.256 -0.2095 -0.1766 -0.0503
 1027SOL    HW114714   2.860   2.217   4.281  0.4201 -2.1960  1.8171
 1027SOL    HW214715   2.963   2.299   4.313  0.6979  1.1247 -1.9483
 1028SOL     OW14716   2.529   2.008   5.360  0.4942 -0.4439 -0.6165
 1028SOL    HW114717   2.613   2.051   5.376 -1.0974  2.6023 -0.5070
 1028SOL    HW214718   2.478   2.030   5.438  2.2367  2.9487 -0.4107
 1029SOL     OW14719   2.556   0.285   2.698  0.4755 -0.1969  0.5796
 1029SOL    HW114720   2.544   0.202   2.746 -1.6815  0.3101  0.9459
 1029SOL    HW214721   2.562   0.349   2.769 -3.8015  0.0598  0.7360
 1030SOL     OW14722   2.234   2.026   9.873 -0.1275 -0.0885  0.1279
 1030SOL    HW114723   2.244   2.058   9.783  0.5687 -1.7071 -0.3692
 1030SOL    HW214724   2.292   2.078   9.928 -4.1956  1.4422  2.9496
 1031SOL     OW14725   3.488   2.425   2.942 -0.0399 -0.4980  0.3117
 1031SOL    HW114726   3.548   2.355   2.917  3.1401  3.2757 -2.5241
 1031SOL    HW214727   3.552   2.478   2.989 -0.5855 -1.4066  2.0708
 1032SOL     OW14728   0.057   4.358   2.833 -0.0669  0.3520  0.1470
 1032SOL    HW114729   0.086   4.446   2.859  0.3656  0.3344 -0.2900
 1032SOL    HW214730   0.027   4.317   2.914  1.8541  0.7355  1.0415
 1033SOL     OW14731   1.111   4.295   8.494 -0.1712 -0.2813 -0.1706
 1033SOL    HW114732   1.154   4.370   8.451 -1.7736  0.8948  0.2748
 1033SOL    HW214733   1.165   4.277   8.571  0.7115  0.2459 -0.6695
 1034SOL     OW14734   1.847   3.221   4.764 -0.4304 -0.5083  0.1006
 1034SOL    HW114735   1.887   3.140   4.797 -2.7077 -1.6618  0.0368
 1034SOL    HW214736   1.754   3.199   4.764 -0.4775 -0.2258 -3.6844
 1035SOL     OW14737   2.597   4.589  11.952 -0.0096  0.3872 -0.4432
 1035SOL    HW114738   2.535   4.564  12.021 -0.5732 -0.1303 -1.1380
 1035SOL    HW214739   2.535   4.635  11.895  0.9874  1.0890 -0.9539
 1036SOL     OW14740   0.914   0.729  17.173 -0.6088 -1.0229  0.4875
 1036SOL    HW114741   0.974   0.803  17.178 -1.5414 -0.1549 -1.0100
 1036SOL    HW214742   0.936   0.687  17.255 -3.1895  1.1188  2.2756
 1037SOL     OW14743   4.542   0.951   6.149  0.0851  0.4521  0.4797
 1037SOL    HW114744   4.590   0.893   6.091  0.0696  0.3980  0.5209
 1037SOL    HW214745   4.516   0.898   6.225  1.1736 -0.2756  0.3406
 1038SOL     OW14746   4.485   3.601   3.036 -0.0370 -0.1975  0.0954
 1038SOL    HW114747   4.390   3.606   3.032 -0.1978 -1.6583  2.3536
 1038SOL    HW214748   4.511   3.526   2.984  0.0611  0.1029 -0.2891
 1039SOL     OW14749   0.856   0.876   0.186  0.4737 -0.2565 -0.2124
 1039SOL    HW114750   0.774   0.828   0.198 -0.1190  0.4695 -1.3477
 1039SOL    HW214751   0.907   0.801   0.156  0.1444  0.7730 -3.4159
 1040SOL     OW14752   3.321   1.458   6.178 -0.0075 -0.0727 -0.2771
 1040SOL    HW114753   3.278   1.453   6.264  0.1904  0.4653 -0.1452
 1040SOL    HW214754   3.373   1.378   6.182  0.7126  0.4037 -0.0038
 1041SOL     OW14755   4.429   0.472   7.683 -0.0578  0.4032  0.1868
 1041SOL    HW114756   4.445   0.566   7.695 -0.7100  0.7461 -1.5860
 1041SOL    HW214757   4.501   0.445   7.740  0.9091  2.8466  0.1356
 1042SOL     OW14758   4.715   2.271   3.745  0.1603  0.1837  0.2852
 1042SOL    HW114759   0.025   2.243   3.667 -0.8387  0.6973 -0.4986
 1042SOL    HW214760   4.703   2.366   3.741  2.6550  0.5079  0.9190
 1043SOL     OW14761   2.759   2.661   5.242  0.5340 -0.0295  0.0161
 1043SOL    HW114762   2.802   2.732   5.290 -0.2358  1.3374 -1.2940
 1043SOL    HW214763   2.720   2.711   5.170 -0.8916 -1.4126 -0.1854
 1044SOL     OW14764   1.515   4.237   6.250 -0.0897  0.0049  0.2187
 1044SOL    HW114765   1.505   4.267   6.159 -1.5803  0.8346  0.6727
 1044SOL    HW214766   1.505   4.142   6.235 -1.9734  0.1338  0.6470
 1045SOL     OW14767   0.792   1.104   2.563 -0.2347 -0.2367 -0.3035
 1045SOL    HW114768   0.762   1.028   2.613 -1.6805  0.4717 -0.0792
 1045SOL    HW214769   0.879   1.115   2.602 -0.0082 -0.9752 -0.6144
 1046SOL     OW14770   0.184   4.380   1.104  0.0431 -0.1320 -0.4295
 1046SOL    HW114771   0.200   4.395   1.011 -0.0616  0.5895 -0.3287
 1046SOL    HW214772   0.090   4.365   1.106 -0.0044  0.0358 -1.5769
 1047SOL     OW14773   0.909   1.682   3.568 -0.1011 -0.0365 -0.4007
 1047SOL    HW114774   0.836   1.744   3.570 -0.1624 -0.1223  0.0026
 1047SOL    HW214775   0.877   1.594   3.548  1.8098 -0.5170 -1.2950
 1048SOL     OW14776   1.048   1.220  15.485 -0.1530  0.7044 -0.4165
 1048SOL    HW114777   1.046   1.307  15.526 -2.0960 -0.2984  1.5986
 1048SOL    HW214778   0.953   1.208  15.492  0.2244 -2.3310 -0.4604
 1049SOL     OW14779   3.251   1.860   4.438  0.0867  0.6801 -0.0916
 1049SOL    HW114780   3.179   1.797   4.427  1.1407 -0.6613  0.7495
 1049SOL    HW214781   3.302   1.842   4.359 -2.2362 -0.7502 -1.2866
 1050SOL     OW14782   2.742   3.845   6.138  0.1584  0.1132 -0.4748
 1050SOL    HW114783   2.755   3.811   6.050  0.4381  0.9272 -0.7500
 1050SOL    HW214784   2.809   3.800   6.190  0.4150 -3.1450 -3.6526
 1051SOL     OW14785   2.395   0.598   2.354  0.0498 -0.0665 -0.5305
 1051SOL    HW114786   2.378   0.506   2.373  0.6470  0.1652  1.1145
 1051SOL    HW214787   2.348   0.614   2.272  1.2994  1.6865 -0.9081
 1052SOL     OW14788   3.639   4.511   6.122  0.0429  0.5814 -0.0707
 1052SOL    HW114789   3.602   4.441   6.177 -0.2661  3.2698  3.1307
 1052SOL    HW214790   3.698   4.455   6.072 -2.2038 -1.6227 -0.2814
 1053SOL     OW14791   1.667   0.081   3.391 -0.6361 -0.3554 -0.2143
 1053SOL    HW114792   1.665   0.156   3.451 -0.3325 -0.9478  0.5307
 1053SOL    HW214793   1.592   0.094   3.333  0.1150 -1.5566 -1.4647
 1054SOL     OW14794   2.599   2.815   1.529 -0.2914 -0.2375  0.4431
 1054SOL    HW114795   2.653   2.884   1.566  0.2321 -0.4895  0.1432
 1054SOL    HW214796   2.654   2.746   1.565 -0.2602  1.1734  3.0597
 1055SOL     OW14797   1.373   4.048  10.594 -0.0875  0.2089 -0.6376
 1055SOL    HW114798   1.385   4.046  10.499  0.2710 -1.6231 -0.5595
 1055SOL    HW214799   1.299   4.109  10.596 -0.1067  0.1207  1.1530
 1056SOL     OW14800   1.048   0.034   3.225 -0.8179 -0.6397 -0.7553
 1056SOL    HW114801   1.071   4.678   3.233  1.0873 -0.2260 -1.6349
 1056SOL    HW214802   0.992   0.044   3.302  1.1361  0.3068  0.5351
 1057SOL     OW14803   3.595   3.504   5.914  0.4172  0.2508  0.1170
 1057SOL    HW114804   3.656   3.479   5.845  0.2209 -0.2701  0.1340
 1057SOL    HW214805   3.529   3.564   5.880 -1.3730 -2.3230 -0.9555
 1058SOL     OW14806   1.542   1.534   5.132  0.2501  0.2158 -0.4466
 1058SOL    HW114807   1.563   1.529   5.226 -0.6613  2.5766 -0.1240
 1058SOL    HW214808   1.606   1.482   5.084 -2.5896 -1.7807 -2.0797
 1059SOL     OW14809   4.295   0.659   6.025  0.2646 -0.3659  0.0399
 1059SOL    HW114810   4.339   0.641   6.108  1.0725  0.1599 -0.2655
 1059SOL    HW214811   4.244   0.733   6.058 -1.8237 -2.2487  1.0581
 1060SOL     OW14812   2.289   3.854   1.653  0.4631 -0.0669  0.3208
 1060SOL    HW114813   2.358   3.912   1.622  0.7556 -0.0629  0.9656
 1060SOL    HW214814   2.325   3.817   1.734  0.4629  2.3387  1.4391
 1061SOL     OW14815   0.817   4.189  10.579  0.4007  0.1880 -0.1558
 1061SOL    HW114816   0.795   4.111  10.527  0.1895 -1.1750  1.9748
 1061SOL    HW214817   0.911   4.195  10.560  0.7031 -0.4190  1.1481
 1062SOL     OW14818   2.646   3.839  13.975  0.1146  0.6256 -0.1389
 1062SOL    HW114819   2.629   3.751  14.006  2.0325 -0.2856 -1.6944
 1062SOL    HW214820   2.734   3.819  13.944  0.2957 -0.0516  0.8341
 1063SOL     OW14821   3.197   4.351   6.964  0.0689 -0.3054 -0.8396
 1063SOL    HW114822   3.187   4.318   6.874 -0.6576  2.2015 -1.6740
 1063SOL    HW214823   3.182   4.277   7.023  1.0194  0.8297  0.8214
 1064SOL     OW14824   1.700   1.234   4.538  0.2819  0.0072  0.3995
 1064SOL    HW114825   1.744   1.261   4.458 -1.1135 -1.1353 -0.7590
 1064SOL    HW214826   1.618   1.198   4.502  0.2247 -0.0608  0.5992
 1065SOL     OW14827   3.148   3.805   0.150  0.0039 -0.0460 -0.4323
 1065SOL    HW114828   3.223   3.851   0.112  1.0933 -0.2200  1.5279
 1065SOL    HW214829   3.170   3.721   0.109 -0.3013 -0.4149  0.1590
 1066SOL     OW14830   2.351   2.856   8.607 -0.2777  0.7514  0.0949
 1066SOL    HW114831   2.416   2.904   8.658  1.2083 -0.6268 -0.4879
 1066SOL    HW214832   2.403   2.789   8.564  0.4991  0.2661  1.7947
 1067SOL     OW14833   2.428   1.630   0.296  0.6087 -0.1148  0.3468
 1067SOL    HW114834   2.520   1.654   0.310  1.4431 -2.3167 -1.3774
 1067SOL    HW214835   2.429   1.551   0.242  1.2007  0.0358  0.1376
 1068SOL     OW14836   2.558   3.599  11.714 -0.1013  0.3824  1.1210
 1068SOL    HW114837   2.560   3.690  11.745 -0.6778 -0.2487  3.0295
 1068SOL    HW214838   2.592   3.550  11.789 -0.5189 -1.7259 -0.0949
 1069SOL     OW14839   1.195   2.547   9.698  0.7654 -0.5596  0.1229
 1069SOL    HW114840   1.141   2.468   9.700 -0.5903  0.3536 -0.4352
 1069SOL    HW214841   1.128   2.615   9.706 -0.1238 -1.2463 -1.4363
 1070SOL     OW14842   3.092   4.042   0.842 -0.1183 -0.3910 -0.4900
 1070SOL    HW114843   3.174   4.009   0.880 -1.2143 -1.5791  0.8439
 1070SOL    HW214844   3.038   3.966   0.865 -1.5667  0.8830  0.2511
 1071SOL     OW14845   3.268   3.239  17.201  0.3547 -0.4373  0.5136
 1071SOL    HW114846   3.253   3.333  17.204 -0.8378 -0.5906 -0.3699
 1071SOL    HW214847   3.360   3.234  17.175 -0.1014 -0.7479 -1.0439
 1072SOL     OW14848   4.398   4.698   5.983 -0.2300 -0.5754 -0.3394
 1072SOL    HW114849   4.480   4.705   5.934 -0.6999 -0.8120 -1.1365
 1072SOL    HW214850   4.345   0.016   5.925 -1.3225 -0.9683  0.3039
 1073SOL     OW14851   0.077   3.872   3.588 -0.3115 -0.3049  0.7977
 1073SOL    HW114852   0.039   3.893   3.673 -0.8002  0.4929  0.3791
 1073SOL    HW214853   0.005   3.829   3.543 -1.0440  1.6391  0.1482
 1074SOL     OW14854   1.444   4.364  12.663 -0.1771 -0.2086  0.7881
 1074SOL    HW114855   1.460   4.284  12.713  0.0543 -0.6657 -0.0273
 1074SOL    HW214856   1.515   4.347  12.601  0.6599  1.9846  1.1416
 1075SOL     OW14857   1.516   3.049   5.533  0.4585  0.3524  0.4459
 1075SOL    HW114858   1.582   3.054   5.603  2.2076  0.4475 -1.2361
 1075SOL    HW214859   1.443   3.087   5.582 -0.6809 -0.6223 -0.4907
 1076SOL     OW14860   0.873   1.881   0.305 -0.3875 -0.3303  0.4203
 1076SOL    HW114861   0.796   1.896   0.359  0.4658 -1.9086  2.0828
 1076SOL    HW214862   0.836   1.910   0.222  0.4996 -1.6104 -0.4382
 1077SOL     OW14863   0.385   3.796  17.421 -0.4828  0.3160  0.3804
 1077SOL    HW114864   0.303   3.768  17.462  0.2548 -1.5569  0.5760
 1077SOL    HW214865   0.349   3.883  17.407  0.9739  1.3274  2.8556
 1078SOL     OW14866   4.481   4.418   6.413  0.5290 -0.1863 -0.3125
 1078SOL    HW114867   4.394   4.428   6.375  1.0860 -1.9955 -2.0633
 1078SOL    HW214868   4.485   4.339   6.467 -0.9081 -0.1900 -0.2268
 1079SOL     OW14869   3.992   4.221   4.320 -0.2638 -0.0591  0.2571
 1079SOL    HW114870   3.945   4.222   4.403  0.6656  0.0221  0.7838
 1079SOL    HW214871   3.992   4.313   4.294 -2.4969  0.4504  2.0172
 1080SOL     OW14872   4.404   1.414  17.314  0.4015  0.1034  0.1280
 1080SOL    HW114873   4.328   1.364  17.283  1.3028 -1.0101 -0.3008
 1080SOL    HW214874   4.392   1.486  17.252 -0.4664 -0.8354 -0.7965
 1081SOL     OW14875   1.302   0.235   4.673 -0.6194  0.4091 -0.1838
 1081SOL    HW114876   1.382   0.207   4.629 -0.4891  1.1512 -0.4291
 1081SOL    HW214877   1.336   0.270   4.756 -0.1799  1.0573 -0.6362
 1082SOL     OW14878   1.622   2.457   9.103 -0.4324  0.0696  0.0622
 1082SOL    HW114879   1.690   2.412   9.051 -0.4632  0.3667 -0.2351
 1082SOL    HW214880   1.551   2.472   9.041  1.4793 -0.3074 -2.2692
 1083SOL     OW14881   3.811   2.944   1.662 -0.2150 -0.1978 -0.1797
 1083SOL    HW114882   3.843   2.860   1.629  0.5853  0.6442 -1.5594
 1083SOL    HW214883   3.842   2.934   1.752 -1.2285 -0.4447  0.1478
 1084SOL     OW14884   2.621   3.275   0.193  0.6862  0.5710 -0.6599
 1084SOL    HW114885   2.636   3.212   0.123  1.6711  0.7131 -0.5852
 1084SOL    HW214886   2.582   3.347   0.145  1.8441 -0.1770 -2.7403
 1085SOL     OW14887   0.014   4.322   3.097  0.1841 -0.1054  0.2608
 1085SOL    HW114888   4.697   4.399   3.117  1.4287  1.0538 -0.9129
 1085SOL    HW214889   4.688   4.249   3.102  0.4338 -0.3041  0.5574
 1086SOL     OW14890   4.332   0.851   2.938  0.1240  0.0573 -0.2479
 1086SOL    HW114891   4.396   0.779   2.935  0.1037 -0.0548  2.6193
 1086SOL    HW214892   4.379   0.908   2.998 -3.1851  0.5446  1.8840
 1087SOL     OW14893   2.745   3.812   3.578  0.6158 -0.3125  0.0240
 1087SOL    HW114894   2.698   3.737   3.540 -0.7902  0.6590 -0.1573
 1087SOL    HW214895   2.745   3.781   3.668  0.4629  0.0163  0.1370
 1088SOL     OW14896   4.733   2.657   3.025  0.0454  0.2406 -0.6586
 1088SOL    HW114897   4.703   2.615   2.944 -0.1597 -1.2870  0.2211
 1088SOL    HW214898   0.068   2.597   3.045 -1.0745 -1.2579 -1.1553
 1089SOL     OW14899   3.785   2.564   8.668  0.7254 -0.0004 -0.0869
 1089SOL    HW114900   3.714   2.597   8.612  1.0278 -0.8027 -0.9526
 1089SOL    HW214901   3.864   2.583   8.618  0.0365  0.8219 -0.8700
 1090SOL     OW14902   3.065   2.346   7.513  0.2069  0.0086 -0.5425
 1090SOL    HW114903   3.077   2.384   7.426  2.2018 -2.8421 -1.5210
 1090SOL    HW214904   3.094   2.255   7.510 -0.7509 -0.2838 -0.8954
 1091SOL     OW14905   1.404   3.363   2.143  0.2425  0.4828 -0.6559
 1091SOL    HW114906   1.415   3.351   2.237 -0.0686  0.8059 -0.5788
 1091SOL    HW214907   1.422   3.457   2.133  1.5118  0.2875 -0.2316
 1092SOL     OW14908   3.493   0.350   2.846  0.5602  0.7668 -0.3565
 1092SOL    HW114909   3.516   0.443   2.841  1.7930  0.4873  0.0717
 1092SOL    HW214910   3.551   0.302   2.787 -0.6788 -1.4461  0.2230
 1093SOL     OW14911   2.258   2.803   2.602 -0.7480 -0.5701  0.0469
 1093SOL    HW114912   2.301   2.817   2.517 -1.1746  0.1896 -0.0408
 1093SOL    HW214913   2.202   2.880   2.594 -0.7772 -0.5504  0.4378
 1094SOL     OW14914   3.504   3.148   8.152  0.3483 -0.1716 -0.3449
 1094SOL    HW114915   3.463   3.079   8.101 -0.4525  0.2610 -0.2952
 1094SOL    HW214916   3.594   3.116   8.164 -0.4187 -2.4150 -0.6633
 1095SOL     OW14917   2.593   1.069  13.840 -0.6497  0.3576 -0.2394
 1095SOL    HW114918   2.498   1.079  13.831 -0.8858 -1.7407 -0.0150
 1095SOL    HW214919   2.631   1.153  13.813  0.5982  0.1336  0.8133
 1096SOL     OW14920   3.987   4.350   2.634 -0.2598  0.3113 -0.7552
 1096SOL    HW114921   3.986   4.325   2.727  0.6875  1.6790 -0.3713
 1096SOL    HW214922   3.993   4.446   2.631  0.9017  0.2344 -0.9469
 1097SOL     OW14923   1.095   2.903   8.918 -0.3055  0.3444 -0.3976
 1097SOL    HW114924   1.080   2.998   8.923 -0.2304  0.3621 -0.5097
 1097SOL    HW214925   1.172   2.887   8.971 -0.8977 -1.6017 -0.1510
 1098SOL     OW14926   3.500   4.679  13.390 -0.3814 -0.2125  0.7660
 1098SOL    HW114927   3.480   4.586  13.396  0.7216 -0.5532 -0.7864
 1098SOL    HW214928   3.467   4.701  13.303  0.2695 -0.9440  0.3341
 1099SOL     OW14929   2.997   1.142  14.618 -0.0941  0.3758 -0.1340
 1099SOL    HW114930   2.924   1.164  14.560 -1.2478 -0.0186  1.1842
 1099SOL    HW214931   3.059   1.207  14.585 -0.4168  0.3153 -0.8562
 1100SOL     OW14932   1.982   4.724  14.897 -0.2745 -0.0540 -0.2114
 1100SOL    HW114933   2.020   0.075  14.898 -1.2181  0.3935 -1.7438
 1100SOL    HW214934   2.030   4.679  14.827  0.1779  0.8801 -0.5013
 1101SOL     OW14935   3.964   1.601   1.904  0.3064  0.0484 -0.5103
 1101SOL    HW114936   3.936   1.682   1.946  2.1358  1.6721 -2.4026
 1101SOL    HW214937   4.057   1.609   1.927 -0.0099  0.7189  0.5533
 1102SOL     OW14938   3.340   0.241   8.377 -0.2152 -0.2014 -0.0106
 1102SOL    HW114939   3.325   0.161   8.427  0.4285 -0.4294 -0.1783
 1102SOL    HW214940   3.407   0.210   8.316 -0.2038  0.3546 -0.2873
 1103SOL     OW14941   2.199   2.430   5.992  0.1616 -0.5704  0.4418
 1103SOL    HW114942   2.221   2.398   6.079 -3.1499  0.3541  1.6007
 1103SOL    HW214943   2.124   2.489   6.004  1.3642  0.8050  1.3024
 1104SOL     OW14944   2.663   1.315   2.015 -0.0686  0.4411 -0.4879
 1104SOL    HW114945   2.719   1.262   1.958 -0.4127 -3.4562  2.8296
 1104SOL    HW214946   2.713   1.397   2.018  1.5368 -0.6362  2.2572
 1105SOL     OW14947   0.493   0.343   6.718 -0.5251 -0.1886 -0.2583
 1105SOL    HW114948   0.585   0.356   6.742 -0.9881 -0.6462  1.7269
 1105SOL    HW214949   0.464   0.277   6.781 -0.7099  0.5631  0.4456
 1106SOL     OW14950   2.099   0.431  10.278  0.1090 -0.1843 -0.7083
 1106SOL    HW114951   2.183   0.400  10.243  0.8343  1.0383 -0.0495
 1106SOL    HW214952   2.035   0.389  10.221 -3.2002 -0.3718  3.1670
 1107SOL     OW14953   4.635   3.618  11.377 -0.3876 -0.0889  0.1210
 1107SOL    HW114954   4.550   3.624  11.334  0.1093  0.7186 -0.7264
 1107SOL    HW214955   4.694   3.585  11.310 -1.4741 -0.3971 -0.6853
 1108SOL     OW14956   3.253   3.896   7.183 -0.4844  0.2714 -0.1285
 1108SOL    HW114957   3.314   3.885   7.110 -0.2826 -0.3362  0.1370
 1108SOL    HW214958   3.301   3.920   7.262 -2.6849 -0.2135  1.3689
 1109SOL     OW14959   0.739   3.523   9.221  0.6393  0.4734  0.0899
 1109SOL    HW114960   0.739   3.521   9.317  2.2514  0.2779  0.0821
 1109SOL    HW214961   0.645   3.518   9.201  0.3179 -1.3934  2.0718
 1110SOL     OW14962   0.971   3.726  16.338 -0.1605  0.3242  0.3913
 1110SOL    HW114963   1.050   3.755  16.384  0.0371  0.3954 -0.0001
 1110SOL    HW214964   0.993   3.637  16.311 -1.2722 -0.0602  0.7334
 1111SOL     OW14965   2.212   4.642   8.589 -0.4929  0.5155 -0.2063
 1111SOL    HW114966   2.121   4.631   8.617  1.0517 -0.5871  4.3650
 1111SOL    HW214967   2.217   4.704   8.516  1.1995 -0.6826 -1.1025
 1112SOL     OW14968   0.544   3.992  14.021 -0.2804 -0.5585  0.4101
 1112SOL    HW114969   0.513   3.906  14.048  0.9261 -0.5665  1.7668
 1112SOL    HW214970   0.468   4.038  13.986  2.8198  4.0466 -0.3921
 1113SOL     OW14971   2.813   0.708   6.273 -0.0044 -0.0760  0.5822
 1113SOL    HW114972   2.746   0.775   6.290 -0.2159 -0.2267  0.3336
 1113SOL    HW214973   2.791   0.649   6.345  1.9269 -0.5092  0.7989
 1114SOL     OW14974   3.242   2.696   4.586  0.1345  0.6933  0.2100
 1114SOL    HW114975   3.262   2.731   4.499  0.1295  0.4188  0.0989
 1114SOL    HW214976   3.301   2.622   4.585 -0.0379  0.5567  0.1043
 1115SOL     OW14977   2.107   3.813   9.017  0.1437  0.4626 -0.2249
 1115SOL    HW114978   2.196   3.786   9.041  0.4190  0.1982 -1.5240
 1115SOL    HW214979   2.115   3.891   8.962 -2.4628  0.6266 -0.3651
 1116SOL     OW14980   2.263   4.099   8.489  0.2998 -0.1769 -0.1922
 1116SOL    HW114981   2.351   4.082   8.456  0.4210  1.9243 -0.9405
 1116SOL    HW214982   2.263   4.194   8.503  0.1381 -0.4426  1.6005
 1117SOL     OW14983   1.087   3.259  16.556  0.5163  0.0821  0.0227
 1117SOL    HW114984   0.993   3.277  16.550  0.8777  0.5514 -4.1742
 1117SOL    HW214985   1.126   3.346  16.552 -0.1759  0.3236 -1.4481
 1118SOL     OW14986   2.783   2.259  14.772  0.2006  0.0103 -0.3607
 1118SOL    HW114987   2.829   2.305  14.843 -2.2103  0.3340  0.9845
 1118SOL    HW214988   2.792   2.315  14.695  1.6597 -1.0328 -0.9521
 1119SOL     OW14989   2.525   3.811   3.175  0.1719  0.3782 -0.2422
 1119SOL    HW114990   2.555   3.901   3.160 -0.5325  0.6393 -0.0795
 1119SOL    HW214991   2.455   3.814   3.240  0.4187 -1.3406  0.1063
 1120SOL     OW14992   4.575   4.207   5.591 -0.1151  0.7572  0.8545
 1120SOL    HW114993   4.606   4.155   5.665 -0.6096 -2.6342 -1.3559
 1120SOL    HW214994   4.568   4.146   5.517 -0.4762  1.9008 -0.0626
 1121SOL     OW14995   3.191   0.671   6.801 -0.1133  0.6271  0.1532
 1121SOL    HW114996   3.124   0.697   6.865 -0.8157 -0.4768 -0.1415
 1121SOL    HW214997   3.132   0.652   6.729  0.1312  1.1002 -0.1771
 1122SOL     OW14998   3.383   2.086  14.915 -0.8488 -0.1808 -0.1540
 1122SOL    HW114999   3.323   2.012  14.907 -3.0138  1.6845 -1.1097
 1122SOL    HW215000   3.338   2.156  14.962  1.4234  2.3551 -1.7169
 1123SOL     OW15001   1.927   0.041  12.814  0.1862 -0.8785  0.1452
 1123SOL    HW115002   1.884   4.705  12.861 -3.2737  2.0456  1.5295
 1123SOL    HW215003   1.882   0.042  12.730 -0.2764  1.6784  0.4237
 1124SOL     OW15004   2.798   4.351  14.607  0.2063  0.0724 -0.5119
 1124SOL    HW115005   2.822   4.275  14.554  0.0640 -0.4711  0.1969
 1124SOL    HW215006   2.868   4.412  14.585  0.0289  0.2141 -0.6882
 1125SOL     OW15007   1.817   0.329  17.566 -0.1323  0.0329 -0.1943
 1125SOL    HW115008   1.789   0.356  17.653 -1.1762  0.1537 -0.5608
 1125SOL    HW215009   1.731   0.325  17.523 -0.7958  1.7878  0.9889
 1126SOL     OW15010   2.524   2.663   8.496  0.1932 -0.6815 -0.0907
 1126SOL    HW115011   2.447   2.613   8.467 -0.2382  0.0507 -0.2123
 1126SOL    HW215012   2.588   2.592   8.505  1.3927  0.4146 -0.0615
 1127SOL     OW15013   0.115   2.743   3.320 -0.0087  0.0078  0.5914
 1127SOL    HW115014   0.143   2.671   3.264  1.0634  0.2849  0.7816
 1127SOL    HW215015   0.194   2.752   3.374  1.7833 -2.1617 -1.7232
 1128SOL     OW15016   2.785   1.534  11.824  0.2130 -0.5155  0.2250
 1128SOL    HW115017   2.713   1.584  11.863  0.1088 -0.8929  0.5228
 1128SOL    HW215018   2.841   1.529  11.901  1.3583 -4.6432 -0.8352
 1129SOL     OW15019   0.208   0.259   9.352  0.1107 -0.7446 -0.1780
 1129SOL    HW115020   0.198   0.342   9.400  2.5113 -0.2375 -0.5292
 1129SOL    HW215021   0.132   0.258   9.295 -0.8949  0.6240  1.1259
 1130SOL     OW15022   3.504   0.334  13.710 -0.0525 -0.5410 -0.6127
 1130SOL    HW115023   3.508   0.360  13.618 -0.6091  1.2316 -0.1292
 1130SOL    HW215024   3.508   0.239  13.696 -4.5956 -1.0659  1.9674
 1131SOL     OW15025   4.641   3.776   9.404 -0.2166 -0.4467  0.1226
 1131SOL    HW115026   4.628   3.857   9.356 -0.5012 -1.8205 -2.0954
 1131SOL    HW215027   4.727   3.747   9.374  0.4885 -0.0558  1.7457
 1132SOL     OW15028   3.793   4.128   8.662  0.6627  0.4419  0.1805
 1132SOL    HW115029   3.771   4.133   8.569 -0.2770  1.5390  0.4675
 1132SOL    HW215030   3.707   4.140   8.703  1.4631  1.1742  1.6359
 1133SOL     OW15031   1.570   2.773   3.794  0.1827  0.5338 -0.7280
 1133SOL    HW115032   1.585   2.754   3.887  1.2415  1.9381 -0.6062
 1133SOL    HW215033   1.547   2.866   3.792 -2.2425 -0.0709 -0.9568
 1134SOL     OW15034   4.432   0.626   3.226  0.3287  0.1211  0.5070
 1134SOL    HW115035   4.450   0.661   3.139  0.9415 -0.3826  0.4308
 1134SOL    HW215036   4.484   0.545   3.224  3.2370  2.0161 -0.3848
 1135SOL     OW15037   1.613   2.640   5.785  0.1203 -0.2668 -0.0432
 1135SOL    HW115038   1.605   2.629   5.880 -0.1963  0.7104  0.0496
 1135SOL    HW215039   1.677   2.711   5.776 -1.4799  1.2259  0.4605
 1136SOL     OW15040   0.434   1.996  17.219 -0.8447  0.3752 -0.0228
 1136SOL    HW115041   0.376   2.037  17.155 -0.2893  1.8264  0.3933
 1136SOL    HW215042   0.455   2.066  17.281 -3.9049  1.1076  0.1739
 1137SOL     OW15043   1.152   1.214   2.174  0.1779 -0.0393 -0.1594
 1137SOL    HW115044   1.138   1.210   2.268  1.2397 -0.0656 -0.0134
 1137SOL    HW215045   1.074   1.168   2.142 -0.4769 -0.2409  1.7507
 1138SOL     OW15046   3.572   0.142   1.472 -0.5543  0.0733  0.0232
 1138SOL    HW115047   3.485   0.107   1.454 -0.8953  0.8613  0.1535
 1138SOL    HW215048   3.600   0.188   1.393  3.8570 -2.7386 -0.0333
 1139SOL     OW15049   3.662   3.334   8.880  0.3697 -0.1746 -0.6960
 1139SOL    HW115050   3.574   3.297   8.889  0.3250  0.2667  0.7445
 1139SOL    HW215051   3.710   3.275   8.938  0.8911 -0.7082 -1.6730
 1140SOL     OW15052   0.853   2.428   2.309  0.1191  0.1313  0.1565
 1140SOL    HW115053   0.912   2.424   2.233  2.1682  0.5244  1.7349
 1140SOL    HW215054   0.774   2.445   2.258  0.7935 -1.4514 -1.4237
 1141SOL     OW15055   2.107   3.885   4.264 -0.5312 -0.2354 -0.2066
 1141SOL    HW115056   2.095   3.798   4.302  1.6920 -0.2933  0.3968
 1141SOL    HW215057   2.017   3.914   4.250 -0.0601  1.1799 -0.2830
 1142SOL     OW15058   0.593   0.100   0.035  0.0257 -0.3812 -0.1603
 1142SOL    HW115059   0.672   0.067   0.079  2.0586  2.9917 -1.3237
 1142SOL    HW215060   0.531   0.069   0.101  2.3806 -1.2506  1.6741
 1143SOL     OW15061   1.037   0.699   5.077  0.3573  0.1506  0.4898
 1143SOL    HW115062   1.079   0.667   5.157  3.0206  1.9535 -0.2151
 1143SOL    HW215063   1.057   0.635   5.009 -0.0859  0.1023  0.4036
 1144SOL     OW15064   3.026   1.278   6.353 -0.2002  0.2332  0.5208
 1144SOL    HW115065   3.019   1.369   6.323 -0.5725 -0.2971 -0.9975
 1144SOL    HW215066   3.102   1.248   6.304 -1.5152 -1.6425 -0.3931
 1145SOL     OW15067   0.156   1.892   4.794 -0.3144  0.5384 -0.1794
 1145SOL    HW115068   0.075   1.934   4.822  0.1370  1.3013  0.0086
 1145SOL    HW215069   0.127   1.892   4.703 -1.9579 -0.4046  0.3590
 1146SOL     OW15070   2.580   3.405   5.801  0.7197  0.4490  0.0529
 1146SOL    HW115071   2.660   3.382   5.753  0.7900 -0.1872  0.4651
 1146SOL    HW215072   2.579   3.495   5.770  0.4014  0.7482  0.9569
 1147SOL     OW15073   1.020   4.735  14.093 -0.6815  0.3288 -0.0361
 1147SOL    HW115074   0.958   4.689  14.037  0.7300 -2.1226  0.4135
 1147SOL    HW215075   0.958   0.031  14.159  0.0858  1.5195  0.0967
 1148SOL     OW15076   4.508   2.061   6.592 -0.3834  0.1990 -0.0040
 1148SOL    HW115077   4.581   2.122   6.597 -0.0054 -0.2712  0.1687
 1148SOL    HW215078   4.554   1.996   6.539 -0.3864  1.8288 -1.9709
 1149SOL     OW15079   2.218   1.457   5.031 -0.7000  0.0942 -0.3415
 1149SOL    HW115080   2.263   1.445   4.947 -1.3552  0.5112 -0.7404
 1149SOL    HW215081   2.171   1.374   5.039 -1.4188  0.3385 -2.3414
 1150SOL     OW15082   2.546   1.493   5.493  0.2306  0.3796  0.0985
 1150SOL    HW115083   2.618   1.526   5.547  0.0733 -0.2590  0.7009
 1150SOL    HW215084   2.481   1.486   5.563 -0.6040  0.8273 -0.6466
 1151SOL     OW15085   0.782   0.132   1.939 -0.1429 -0.3761 -0.2244
 1151SOL    HW115086   0.864   0.124   1.987  0.3152 -3.0286 -1.4846
 1151SOL    HW215087   0.746   0.050   1.973  0.7526 -1.0029 -0.7910
 1152SOL     OW15088   0.715   2.161   2.022 -0.0611 -0.0655  0.3918
 1152SOL    HW115089   0.702   2.210   1.940  1.8120 -2.4299 -1.3140
 1152SOL    HW215090   0.663   2.214   2.083  0.0451  0.2009  0.2525
 1153SOL     OW15091   4.518   3.870   4.952  0.4299 -0.1318  0.4300
 1153SOL    HW115092   4.452   3.899   4.890 -0.8905 -1.1239  1.3888
 1153SOL    HW215093   4.531   3.958   4.987  0.5178 -1.6788  4.2318
 1154SOL     OW15094   2.421   1.951  13.393 -0.1883  0.2064  0.1271
 1154SOL    HW115095   2.494   1.961  13.454  2.3053  0.5860 -2.9521
 1154SOL    HW215096   2.406   1.857  13.392  1.0280  0.0244  0.0675
 1155SOL     OW15097   0.714   0.086   9.397 -0.3434 -0.2340  0.1036
 1155SOL    HW115098   0.636   0.117   9.351  1.2970  1.3641 -1.6593
 1155SOL    HW215099   0.783   0.117   9.337 -0.3565 -4.0346 -1.8454
 1156SOL     OW15100   0.003   1.482   7.138  0.0411 -1.0476 -0.0832
 1156SOL    HW115101   4.700   1.490   7.051  1.6330  0.9267 -0.6171
 1156SOL    HW215102   0.030   1.569   7.167  2.1998 -1.6512 -0.3252
 1157SOL     OW15103   1.994   3.797   3.526  0.4890  0.0713 -0.6962
 1157SOL    HW115104   2.016   3.879   3.482 -0.2238  1.0961  0.8593
 1157SOL    HW215105   1.929   3.763   3.464  1.6960 -3.4771  0.0001
 1158SOL     OW15106   0.184   1.544   4.736 -0.0042 -0.3240  0.1728
 1158SOL    HW115107   0.147   1.566   4.822  1.1425 -1.2917  0.9083
 1158SOL    HW215108   0.242   1.471   4.757 -0.6641 -0.6691  0.7836
 1159SOL     OW15109   1.323   4.272  16.427  0.3090  0.4259 -0.2102
 1159SOL    HW115110   1.258   4.219  16.381 -0.2766  1.6684 -0.8428
 1159SOL    HW215111   1.279   4.354  16.452  1.2056  1.1355 -0.9788
 1160SOL     OW15112   3.826   3.162   4.843 -0.4164  0.7262  0.1415
 1160SOL    HW115113   3.795   3.232   4.900  2.0715  2.4443 -0.6183
 1160SOL    HW215114   3.822   3.204   4.757 -0.5505 -0.7042 -0.5552
 1161SOL     OW15115   4.649   1.381   8.061 -0.5953 -0.3474 -0.1036
 1161SOL    HW115116   4.675   1.292   8.082 -1.8908 -0.0259  2.9124
 1161SOL    HW215117   4.555   1.375   8.045 -0.5420 -0.4505 -0.3778
 1162SOL     OW15118   3.676   3.367  15.158 -1.2058  0.1219  0.5607
 1162SOL    HW115119   3.593   3.342  15.198 -0.0618 -1.9345  1.7135
 1162SOL    HW215120   3.726   3.290  15.188 -0.5444  0.2590 -0.1993
 1163SOL     OW15121   1.332   2.620  12.991  0.1843 -0.3519  0.2989
 1163SOL    HW115122   1.307   2.564  13.065 -0.0002  0.3458  0.7595
 1163SOL    HW215123   1.341   2.707  13.030 -0.2925 -0.4463  0.6211
 1164SOL     OW15124   3.642   3.901  11.573  0.0640 -0.1218  0.5663
 1164SOL    HW115125   3.561   3.899  11.624  0.2641 -0.7648  0.8691
 1164SOL    HW215126   3.702   3.872  11.642  1.6164  0.3199 -0.5920
 1165SOL     OW15127   1.860   2.869  11.584 -0.3097  0.0822 -0.2422
 1165SOL    HW115128   1.896   2.907  11.503  0.4625  1.8614  0.9341
 1165SOL    HW215129   1.893   2.931  11.648  0.4722 -1.4146  0.8114
 1166SOL     OW15130   1.116   1.486  10.780 -0.8681 -0.0177 -0.6445
 1166SOL    HW115131   1.108   1.511  10.688 -1.4175  2.9764  0.2088
 1166SOL    HW215132   1.083   1.396  10.776  2.0608 -1.2036  2.6192
 1167SOL     OW15133   1.460   2.204   8.007 -0.0146 -0.2416  0.6639
 1167SOL    HW115134   1.430   2.286   8.046  1.4841  0.8557 -0.4693
 1167SOL    HW215135   1.544   2.231   7.968 -0.9818  0.5413 -0.8967
 1168SOL     OW15136   0.252   3.168   1.587 -0.6752  0.0722 -0.1277
 1168SOL    HW115137   0.276   3.075   1.584 -0.4523  0.1090  0.4926
 1168SOL    HW215138   0.230   3.192   1.677 -2.2845 -0.9932 -0.2478
 1169SOL     OW15139   4.353   4.108  16.629 -0.2627 -0.3475 -0.4439
 1169SOL    HW115140   4.299   4.062  16.692  3.2701 -0.2449  2.6430
 1169SOL    HW215141   4.434   4.056  16.628  0.3581  0.6471 -3.2944
 1170SOL     OW15142   2.994   1.084  15.509  0.4296 -0.2843  0.8893
 1170SOL    HW115143   3.069   1.086  15.450  1.5401  1.1580  2.3284
 1170SOL    HW215144   3.040   1.058  15.589 -1.7171 -2.5762  1.3993
 1171SOL     OW15145   2.185   3.382  10.419  0.0923  0.0959  0.6070
 1171SOL    HW115146   2.271   3.345  10.399 -0.4794 -1.0002  0.1977
 1171SOL    HW215147   2.166   3.460  10.367  1.5022  0.3743  0.5172
 1172SOL     OW15148   1.230   0.056  13.939 -0.1280 -0.2685  0.0715
 1172SOL    HW115149   1.263   0.146  13.945 -0.1864 -0.4278  2.7476
 1172SOL    HW215150   1.188   0.054  14.025 -0.2852 -1.6130 -0.0351
 1173SOL     OW15151   2.274   1.516  15.847 -0.0504  0.1709  0.2126
 1173SOL    HW115152   2.293   1.605  15.874  0.8839 -0.5417  1.8919
 1173SOL    HW215153   2.185   1.503  15.881  0.2935 -1.7181  0.4271
 1174SOL     OW15154   2.703   0.666   2.204  0.5259 -0.1078 -0.7718
 1174SOL    HW115155   2.632   0.712   2.158  1.6658  1.2339 -1.1888
 1174SOL    HW215156   2.664   0.628   2.282  2.3434  0.6629  0.4997
 1175SOL     OW15157   1.852   3.869   4.128  0.2238 -0.3744  0.4852
 1175SOL    HW115158   1.841   3.899   4.219 -3.8211 -0.8737  0.1400
 1175SOL    HW215159   1.817   3.780   4.134 -1.8804  0.5103  1.4515
 1176SOL     OW15160   0.008   2.665   7.341 -0.4850  0.5485 -0.6202
 1176SOL    HW115161   0.090   2.637   7.382 -0.6035  0.3172 -0.5391
 1176SOL    HW215162   4.716   2.734   7.401  2.3097 -0.6735  2.0826
 1177SOL     OW15163   2.762   1.073   5.878  0.3147  0.6865 -1.0419
 1177SOL    HW115164   2.755   1.166   5.902 -0.0143  1.1157 -2.7517
 1177SOL    HW215165   2.670   1.060   5.855  0.2376 -1.3143  0.4487
 1178SOL     OW15166   1.685   1.931   1.601  0.5558 -0.5431 -0.0387
 1178SOL    HW115167   1.598   1.925   1.561  0.6227  1.3522 -0.4663
 1178SOL    HW215168   1.681   2.004   1.663  2.2702 -0.7246  0.2932
 1179SOL     OW15169   1.847   4.558   5.626 -0.0332  0.0350  0.3043
 1179SOL    HW115170   1.840   4.503   5.548 -1.5427  0.7028 -0.0189
 1179SOL    HW215171   1.939   4.542   5.648  0.3707  1.7019 -0.1900
 1180SOL     OW15172   3.446   2.100  14.322  0.2972  0.1135 -0.0841
 1180SOL    HW115173   3.368   2.151  14.344 -1.2930 -2.6814  0.8026
 1180SOL    HW215174   3.494   2.100  14.404  2.1726 -1.3562 -1.1991
 1181SOL     OW15175   2.363   4.420  12.977 -0.3168 -0.0323 -0.1530
 1181SOL    HW115176   2.360   4.468  13.061 -0.9706 -0.3341 -0.0023
 1181SOL    HW215177   2.380   4.493  12.918  0.0258  0.7037  0.8418
 1182SOL     OW15178   3.895   1.476   9.360  0.0353 -0.7516  0.8138
 1182SOL    HW115179   3.850   1.553   9.325 -0.4963 -0.4347  2.1937
 1182SOL    HW215180   3.896   1.499   9.453 -0.2873 -0.4239  0.7368
 1183SOL     OW15181   0.591   0.771   3.760  0.4526  0.4298 -0.2035
 1183SOL    HW115182   0.630   0.684   3.758  2.6050  1.4580 -2.2987
 1183SOL    HW215183   0.545   0.762   3.844  0.3399 -0.9739 -0.4135
 1184SOL     OW15184   1.582   1.924   5.197  0.2198 -0.0782  0.1941
 1184SOL    HW115185   1.640   1.873   5.141  1.0312 -1.5756  2.4047
 1184SOL    HW215186   1.649   1.969   5.248  0.2881 -2.0574  1.8527
 1185SOL     OW15187   3.082   4.235   2.366 -0.3550  0.1634  0.8458
 1185SOL    HW115188   3.033   4.305   2.408 -1.7850 -0.5340  0.3469
 1185SOL    HW215189   3.040   4.158   2.405  0.0199 -1.2301 -1.5072
 1186SOL     OW15190   1.259   2.491   5.992  0.5076 -0.2034  0.0459
 1186SOL    HW115191   1.218   2.551   6.053  1.9013 -0.7196  1.4843
 1186SOL    HW215192   1.219   2.519   5.910 -0.9955 -0.0852  0.8154
 1187SOL     OW15193   1.365   1.143  11.341 -0.1216  0.6197  0.3124
 1187SOL    HW115194   1.393   1.179  11.257 -0.5596 -1.1599 -0.5872
 1187SOL    HW215195   1.443   1.097  11.370 -0.3898 -0.5199 -0.8019
 1188SOL     OW15196   4.589   0.081  12.422 -0.3059  0.0305  0.3258
 1188SOL    HW115197   4.638   0.099  12.502 -1.0060  1.7000  0.3948
 1188SOL    HW215198   4.647   0.102  12.348 -0.4761  0.4702  0.3169
 1189SOL     OW15199   1.965   3.473   5.651 -0.8669 -0.4247  0.0704
 1189SOL    HW115200   1.914   3.554   5.656 -2.7125 -1.5216 -1.0671
 1189SOL    HW215201   2.025   3.491   5.578  0.4532  1.9035  1.7520
 1190SOL     OW15202   4.358   4.318   5.140  0.3541  0.5007  0.5945
 1190SOL    HW115203   4.419   4.373   5.189 -1.4622  0.3700  3.0517
 1190SOL    HW215204   4.328   4.263   5.212  1.7023 -0.4073  0.4544
 1191SOL     OW15205   1.612   2.506   7.240 -0.0033  0.4531 -0.0932
 1191SOL    HW115206   1.577   2.416   7.236 -0.5120  0.6255  0.5141
 1191SOL    HW215207   1.705   2.490   7.256  0.2152  3.1123  1.2541
 1192SOL     OW15208   2.635   3.583  14.076  0.5913  0.0573 -0.3766
 1192SOL    HW115209   2.679   3.612  14.156  0.5878 -2.3680  0.4992
 1192SOL    HW215210   2.576   3.514  14.106  1.7092 -0.4439  0.6542
 1193SOL     OW15211   2.239   2.544   3.249 -0.4093  0.1431  0.5803
 1193SOL    HW115212   2.229   2.535   3.344  0.8037 -1.2797  0.5625
 1193SOL    HW215213   2.333   2.558   3.243 -0.4598  0.3625  0.2779
 1194SOL     OW15214   2.816   3.318   1.257  0.0294 -0.7006  0.3980
 1194SOL    HW115215   2.807   3.322   1.162  1.6033 -1.5034  0.2082
 1194SOL    HW215216   2.906   3.284   1.256  0.4703  0.4136  1.6634
 1195SOL     OW15217   1.694   2.162   0.135 -0.0391 -0.2079 -0.0066
 1195SOL    HW115218   1.645   2.145   0.216  0.0426 -1.0741 -0.1422
 1195SOL    HW215219   1.759   2.091   0.138 -0.6407 -0.6790  1.6833
 1196SOL     OW15220   0.351   0.997   8.592  0.3208 -0.7781 -0.1047
 1196SOL    HW115221   0.298   1.075   8.607  1.7215  0.3920 -1.2920
 1196SOL    HW215222   0.305   0.953   8.520 -1.6320 -0.4021  0.9250
 1197SOL     OW15223   0.629   2.494  15.836  0.0078 -0.1142  0.1424
 1197SOL    HW115224   0.599   2.552  15.766  1.2725  1.2846  0.7506
 1197SOL    HW215225   0.574   2.519  15.911 -1.9332 -1.7711 -0.7468
 1198SOL     OW15226   3.300   0.244   7.723  0.2942 -0.0310  0.4687
 1198SOL    HW115227   3.272   0.262   7.633  1.2882 -0.2464  0.1073
 1198SOL    HW215228   3.245   0.166   7.733 -1.2544  0.7141 -2.1275
 1199SOL     OW15229   3.636   4.089   4.619 -0.6984 -0.3740  0.7051
 1199SOL    HW115230   3.670   4.042   4.695 -1.3050  3.1272  3.1462
 1199SOL    HW215231   3.545   4.062   4.621 -0.4894 -1.2296 -1.1667
 1200SOL     OW15232   1.220   1.570   7.214  0.2545 -0.7667 -0.4892
 1200SOL    HW115233   1.260   1.631   7.152 -1.3750  0.5090 -0.2822
 1200SOL    HW215234   1.255   1.487   7.183  0.5408 -1.2349  1.0472
 1201SOL     OW15235   0.477   1.989   2.633 -0.4550 -0.0020  0.2199
 1201SOL    HW115236   0.536   1.939   2.578  0.1344 -0.3991  1.2116
 1201SOL    HW215237   0.398   1.964   2.585 -0.1058  2.5980 -1.7182
 1202SOL     OW15238   4.422   1.839  14.283 -0.1182 -0.2342 -0.4193
 1202SOL    HW115239   4.512   1.836  14.250 -0.4706  0.4346 -1.4709
 1202SOL    HW215240   4.430   1.823  14.377 -0.9391  0.7585 -0.1842
 1203SOL     OW15241   3.927   4.631   0.278  0.3729  0.0536 -0.0041
 1203SOL    HW115242   3.937   4.686   0.356 -1.9547  0.8954 -0.2933
 1203SOL    HW215243   4.019   4.626   0.254  0.4516 -0.2699  0.3758
 1204SOL     OW15244   1.315   1.174   3.423  0.0672 -0.0780 -0.0551
 1204SOL    HW115245   1.404   1.181   3.457 -0.3413  0.0039  1.0145
 1204SOL    HW215246   1.284   1.093   3.464 -0.4490 -0.1318 -0.5394
 1205SOL     OW15247   3.228   3.290   1.826 -0.1672  0.1521  0.9244
 1205SOL    HW115248   3.211   3.375   1.866 -0.5938  0.8677 -0.7825
 1205SOL    HW215249   3.262   3.245   1.904 -0.0965  1.0591  1.4074
 1206SOL     OW15250   1.286   4.162   3.809 -0.2151  0.2718 -0.4283
 1206SOL    HW115251   1.284   4.070   3.780 -0.9721  0.2781 -0.4111
 1206SOL    HW215252   1.233   4.156   3.888  1.6789 -1.0010  0.7612
 1207SOL     OW15253   0.682   0.109   5.303 -0.5556  0.2932 -0.2625
 1207SOL    HW115254   0.690   0.200   5.330 -0.4049  0.4783 -0.9344
 1207SOL    HW215255   0.665   0.068   5.388  0.1596 -0.3507 -0.4347
 1208SOL     OW15256   4.631   0.099  15.816  0.0426 -0.1684  0.1727
 1208SOL    HW115257   4.724   0.091  15.791 -0.1070 -3.2324  0.5667
 1208SOL    HW215258   4.645   0.086  15.910  0.4248 -2.9524 -0.2601
 1209SOL     OW15259   1.320   2.256   3.410  0.6115  0.2563  0.2594
 1209SOL    HW115260   1.280   2.207   3.481 -0.7281  2.3591  0.9746
 1209SOL    HW215261   1.262   2.246   3.334  0.7010 -0.3041  0.2719
 1210SOL     OW15262   1.416   1.231   1.150 -0.1743 -0.1492 -0.3150
 1210SOL    HW115263   1.444   1.317   1.120 -0.6535  0.3912  0.7798
 1210SOL    HW215264   1.376   1.197   1.070 -0.3637 -0.6255 -0.0149
 1211SOL     OW15265   3.140   1.473   8.918 -1.0232  0.1825 -0.1627
 1211SOL    HW115266   3.067   1.458   8.977 -1.2842  2.0056 -0.0231
 1211SOL    HW215267   3.186   1.392   8.942 -2.4237 -0.7771 -0.7424
 1212SOL     OW15268   4.324   3.783   7.375  0.2712 -0.1491 -0.1748
 1212SOL    HW115269   4.257   3.838   7.334 -0.2900  0.3968  1.4394
 1212SOL    HW215270   4.342   3.727   7.300 -2.2606 -2.0595  0.6145
 1213SOL     OW15271   0.354   1.964   9.883  0.3508  0.1147 -0.7791
 1213SOL    HW115272   0.415   1.892   9.902 -0.6581 -0.4537  0.3628
 1213SOL    HW215273   0.304   1.943   9.963  0.7157  0.1656 -0.5375
 1214SOL     OW15274   2.956   4.161   4.905  0.0880  0.0743 -0.6169
 1214SOL    HW115275   3.008   4.234   4.870  0.3155  0.2381  0.0704
 1214SOL    HW215276   2.872   4.201   4.924  1.0534  2.1067 -0.5466
 1215SOL     OW15277   3.109   2.040   4.682  0.0871  0.0454 -0.0146
 1215SOL    HW115278   3.120   2.028   4.588 -2.0756  0.4014 -0.2933
 1215SOL    HW215279   3.068   2.126   4.689  2.5631  1.4476 -2.8845
 1216SOL     OW15280   1.582   3.018   9.812 -0.3030 -0.1065 -0.2853
 1216SOL    HW115281   1.549   3.066   9.887 -2.2882  1.0196 -1.8852
 1216SOL    HW215282   1.638   3.078   9.763  0.8528 -0.3527  0.7329
 1217SOL     OW15283   0.819   0.079   9.076 -0.1792  0.0090  0.1081
 1217SOL    HW115284   0.842   0.117   8.991 -2.6956  0.5364 -0.3288
 1217SOL    HW215285   0.882   0.120   9.136  0.8844 -1.6019  0.0789
 1218SOL     OW15286   2.610   0.028  16.372  0.6001  0.4494  0.4870
 1218SOL    HW115287   2.559   4.733  16.446 -0.7456  0.7244 -0.3334
 1218SOL    HW215288   2.607   4.684  16.322  0.4581  0.4630  0.4747
 1219SOL     OW15289   4.185   3.154   8.170 -0.5204  0.2132  0.0177
 1219SOL    HW115290   4.192   3.236   8.219  3.6686 -1.2521  1.8445
 1219SOL    HW215291   4.271   3.117   8.188 -0.5435  0.1177 -0.0675
 1220SOL     OW15292   1.581   0.659   4.613 -0.3544 -0.2669 -0.4104
 1220SOL    HW115293   1.616   0.718   4.679 -0.9087 -1.1657  0.6760
 1220SOL    HW215294   1.650   0.671   4.548  0.7654 -0.9027  0.6506
 1221SOL     OW15295   0.975   0.908   4.475 -0.1257 -0.0360  0.6691
 1221SOL    HW115296   0.997   0.844   4.408 -1.9397 -0.3474  0.3833
 1221SOL    HW215297   0.918   0.855   4.530 -0.9161 -0.8636 -0.9453
 1222SOL     OW15298   0.711   3.386   5.041 -0.0813  0.3932  0.0737
 1222SOL    HW115299   0.775   3.381   4.969 -2.1202  1.1141 -1.7795
 1222SOL    HW215300   0.764   3.358   5.116 -1.9731 -1.3018  0.7827
 1223SOL     OW15301   4.446   4.374  15.743 -0.1292  0.2685 -0.1297
 1223SOL    HW115302   4.534   4.339  15.731 -0.6234 -1.5445  1.4270
 1223SOL    HW215303   4.433   4.397  15.651 -0.1986 -0.6457 -0.3497
 1224SOL     OW15304   3.886   2.191   6.812 -0.0094 -0.2409  0.5549
 1224SOL    HW115305   3.840   2.110   6.792  3.4538 -2.4177  1.5457
 1224SOL    HW215306   3.980   2.173   6.818  0.0845  0.4800  1.4323
 1225SOL     OW15307   1.297   2.113   5.964  0.2863  0.1591  0.5979
 1225SOL    HW115308   1.206   2.093   5.942  0.4932  0.8954 -0.9419
 1225SOL    HW215309   1.284   2.162   6.045 -1.0588  0.9950 -0.1369
 1226SOL     OW15310   0.258   1.304   5.888  0.0654  0.7845 -0.3081
 1226SOL    HW115311   0.198   1.292   5.962  0.5699  3.6103  0.5740
 1226SOL    HW215312   0.310   1.377   5.920  0.0365  0.9795 -0.7014
 1227SOL     OW15313   0.135   2.387   7.665 -0.5520  0.6209  0.5068
 1227SOL    HW115314   0.175   2.386   7.578 -2.6468  0.6071 -0.4636
 1227SOL    HW215315   0.075   2.312   7.665 -0.3592  0.4892 -2.3254
 1228SOL     OW15316   3.544   3.106   6.766 -0.5328  0.3554 -0.1665
 1228SOL    HW115317   3.597   3.058   6.702 -1.5275 -0.2781 -0.5092
 1228SOL    HW215318   3.515   3.040   6.830 -1.3052 -0.9554 -1.8634
 1229SOL     OW15319   0.601   4.426   4.188 -0.0932  0.2106 -0.2548
 1229SOL    HW115320   0.663   4.466   4.249  0.4559 -1.6374  0.4012
 1229SOL    HW215321   0.575   4.351   4.242  0.7869 -1.1851 -1.7554
 1230SOL     OW15322   1.576   0.135  13.889 -0.0978 -0.0794 -0.1661
 1230SOL    HW115323   1.618   0.219  13.910  0.2399  0.3566 -2.6272
 1230SOL    HW215324   1.566   0.102  13.978  0.4417 -0.3023 -0.1895
 1231SOL     OW15325   1.283   2.986   3.965 -0.3801  0.3930 -0.1725
 1231SOL    HW115326   1.336   2.996   4.044 -1.3329 -0.4393  0.5663
 1231SOL    HW215327   1.205   2.949   4.006  0.8271  0.6558  2.3939
 1232SOL     OW15328   3.295   4.073   7.512 -0.5450  0.4684 -0.2193
 1232SOL    HW115329   3.292   4.160   7.471  0.8209 -0.1059 -1.5137
 1232SOL    HW215330   3.202   4.053   7.507 -0.4905  0.1448  0.0672
 1233SOL     OW15331   0.182   1.078   6.561 -0.1498 -0.3401 -0.2079
 1233SOL    HW115332   0.180   1.004   6.622  1.3372 -0.2032  0.0002
 1233SOL    HW215333   0.103   1.126   6.587  0.8606  1.2987 -0.1465
 1234SOL     OW15334   4.201   0.228   9.215 -0.5306  0.0933  0.7229
 1234SOL    HW115335   4.292   0.256   9.215  0.0127 -1.6779  1.3370
 1234SOL    HW215336   4.210   0.145   9.261 -0.7297  0.0935  0.7633
 1235SOL     OW15337   4.571   4.732   5.783 -0.0630  0.2723  0.2200
 1235SOL    HW115338   4.538   0.034   5.702 -0.1450  1.0806  0.6405
 1235SOL    HW215339   4.641   0.060   5.794 -1.1124  1.2724  1.0459
 1236SOL     OW15340   1.045   0.753   1.003 -0.3002  0.6597  0.1180
 1236SOL    HW115341   1.098   0.676   0.982  1.4202  1.2397  2.3355
 1236SOL    HW215342   1.033   0.750   1.098 -0.0433  1.1141  0.1617
 1237SOL     OW15343   4.414   4.731  13.593 -0.0554 -0.1412  0.0784
 1237SOL    HW115344   4.486   4.694  13.644  0.5674  0.7712 -0.1353
 1237SOL    HW215345   4.382   4.653  13.549 -0.6493 -0.7382  1.5725
 1238SOL     OW15346   1.675   4.008   8.593  0.1869  0.3155 -0.6003
 1238SOL    HW115347   1.723   3.966   8.665  2.5565  3.4078 -0.3736
 1238SOL    HW215348   1.626   4.076   8.639 -0.6236  0.1754 -1.2610
 1239SOL     OW15349   3.612   2.203   5.731  0.5844  0.0530  0.0307
 1239SOL    HW115350   3.538   2.260   5.753  0.6374 -0.1088  0.6214
 1239SOL    HW215351   3.597   2.203   5.636 -2.7718 -1.3912  0.5801
 1240SOL     OW15352   2.972   2.846   8.500 -0.0644 -0.2060 -0.4685
 1240SOL    HW115353   2.910   2.894   8.554 -3.0483 -2.1571 -2.1769
 1240SOL    HW215354   3.040   2.907   8.471 -0.8281  0.6925 -0.3483
 1241SOL     OW15355   3.584   3.779   1.692 -0.6331  0.2321 -0.1238
 1241SOL    HW115356   3.620   3.849   1.638  0.5400  0.2596  0.6806
 1241SOL    HW215357   3.517   3.826   1.741  0.8401  0.9198  1.2590
 1242SOL     OW15358   2.779   0.374   3.946 -0.3212  0.4351  0.0298
 1242SOL    HW115359   2.843   0.417   4.002  0.0859 -0.6855  0.4187
 1242SOL    HW215360   2.835   0.335   3.880 -0.5209  1.7134 -0.8921
 1243SOL     OW15361   2.710   0.539   6.483 -0.6703 -0.4877  0.2435
 1243SOL    HW115362   2.620   0.550   6.514 -0.5163  0.3336  0.4089
 1243SOL    HW215363   2.754   0.509   6.563 -2.7139  0.2307  1.6304
 1244SOL     OW15364   2.525   0.598   9.151  0.4798  0.1878 -0.2599
 1244SOL    HW115365   2.464   0.667   9.123  0.0336  1.1614  3.1057
 1244SOL    HW215366   2.517   0.592   9.246 -2.5403  1.5858 -0.4025
 1245SOL     OW15367   4.487   3.226   4.778 -0.3426  0.1978 -0.1601
 1245SOL    HW115368   4.542   3.180   4.714  0.9808  0.3572  0.8629
 1245SOL    HW215369   4.470   3.309   4.734 -2.0296 -0.4324 -0.6897
 1246SOL     OW15370   3.942   0.686   5.354 -0.2714  0.4263 -0.3582
 1246SOL    HW115371   3.870   0.730   5.307 -1.5693  0.3383  1.5271
 1246SOL    HW215372   3.925   0.708   5.445 -1.8219  0.0640 -0.5454
 1247SOL     OW15373   4.554   1.971   8.689 -0.3171 -0.5327 -0.0674
 1247SOL    HW115374   4.642   1.934   8.695 -1.5502 -3.2447  1.7849
 1247SOL    HW215375   4.507   1.894   8.722  0.2008 -0.8244 -0.0066
 1248SOL     OW15376   2.405   1.722   4.090  0.0947  0.2439  0.6860
 1248SOL    HW115377   2.352   1.728   4.170  0.1001  2.1328  0.5668
 1248SOL    HW215378   2.488   1.754   4.127 -1.3349  0.4344  3.7607
 1249SOL     OW15379   3.664   1.267   6.488 -0.6972  0.1714 -0.3843
 1249SOL    HW115380   3.573   1.287   6.508 -0.9935 -1.4064 -0.1631
 1249SOL    HW215381   3.716   1.316   6.552 -0.3635 -0.4784 -0.1622
 1250SOL     OW15382   1.426   1.436  10.088  0.2307  0.6465  0.0215
 1250SOL    HW115383   1.500   1.487  10.054 -1.2146  1.8051 -1.4177
 1250SOL    HW215384   1.399   1.380  10.015  1.3020 -0.7067  0.6742
 1251SOL     OW15385   1.259   4.590   9.883  1.1530  0.0584  0.4143
 1251SOL    HW115386   1.250   4.666   9.825  2.4388  0.5745  0.8724
 1251SOL    HW215387   1.174   4.547   9.883  0.6735  0.9907 -0.9842
 1252SOL     OW15388   2.906   0.051   1.432  0.3301 -0.9711 -0.5862
 1252SOL    HW115389   2.903   0.117   1.501  1.0898 -0.1914 -1.3036
 1252SOL    HW215390   2.980   4.732   1.460 -0.4366 -0.6482  2.1027
 1253SOL     OW15391   3.245   2.954  17.575  0.5558 -0.0156  0.5781
 1253SOL    HW115392   3.186   2.949  17.650  1.5846  0.1865  1.4072
 1253SOL    HW215393   3.275   2.864  17.565 -2.2425 -0.7404 -1.4681
 1254SOL     OW15394   0.880   2.937   9.089 -0.7201 -0.2400  0.0765
 1254SOL    HW115395   0.939   2.942   9.165 -1.2536 -0.6730  0.5150
 1254SOL    HW215396   0.944   2.919   9.020 -0.9381 -1.5094  0.2117
 1255SOL     OW15397   0.049   4.059   4.494 -0.1361  0.6100 -0.5911
 1255SOL    HW115398   0.041   4.113   4.416  1.0500  0.8875 -0.5136
 1255SOL    HW215399   0.118   4.094   4.551 -0.7577  2.1400 -0.7761
 1256SOL     OW15400   2.114   0.406   9.871 -0.2538 -0.2806 -0.0875
 1256SOL    HW115401   2.071   0.437   9.952 -0.7186  2.6390 -1.4418
 1256SOL    HW215402   2.098   0.313   9.887  1.3610 -0.5965 -0.3223
 1257SOL     OW15403   1.901   1.383  13.409  0.1456  0.4846  0.3681
 1257SOL    HW115404   1.882   1.361  13.318  0.2937 -2.2718  1.0202
 1257SOL    HW215405   1.811   1.387  13.442 -0.2361  1.8736 -0.8243
 1258SOL     OW15406   1.560   2.033   8.595 -0.3461  0.1411 -0.6521
 1258SOL    HW115407   1.639   2.051   8.646 -1.5450 -0.0042  1.2373
 1258SOL    HW215408   1.537   1.951   8.639 -0.6792  0.2543 -0.6138
 1259SOL     OW15409   3.593   3.849   0.532  0.0514 -0.2843  0.2814
 1259SOL    HW115410   3.672   3.801   0.557 -1.7484 -2.7093  1.3232
 1259SOL    HW215411   3.544   3.777   0.493  0.8835 -0.8979  0.3512
 1260SOL     OW15412   0.697   0.934   6.362  0.1347  0.0727 -0.0377
 1260SOL    HW115413   0.605   0.956   6.355  0.6344  2.7402  1.7919
 1260SOL    HW215414   0.730   1.003   6.420 -1.7951  0.1141  0.9803
 1261SOL     OW15415   2.879   4.339   2.700  0.1830 -0.8082  0.3494
 1261SOL    HW115416   2.924   4.423   2.695  0.4475 -0.8352  2.2822
 1261SOL    HW215417   2.787   4.365   2.694 -0.2903 -2.5734 -0.0366
 1262SOL     OW15418   4.006   3.889   0.623 -0.1388  0.2968 -0.2195
 1262SOL    HW115419   4.032   3.956   0.687 -0.3639  0.2678 -0.0978
 1262SOL    HW215420   3.940   3.941   0.578  0.3052  1.8316  0.8934
 1263SOL     OW15421   1.348   1.086   0.474 -0.2254  0.4716 -0.1237
 1263SOL    HW115422   1.338   1.172   0.434 -1.6537  1.0192  1.4207
 1263SOL    HW215423   1.353   1.116   0.564 -0.6759  0.7077 -0.1773
 1264SOL     OW15424   1.256   2.991   2.506 -0.0022 -0.2952  0.2865
 1264SOL    HW115425   1.225   2.907   2.474 -0.2934  0.1460 -0.6032
 1264SOL    HW215426   1.328   2.964   2.563  0.4357 -1.6032 -0.8945
 1265SOL     OW15427   1.324   1.692   1.433  0.0737 -0.7870  0.2005
 1265SOL    HW115428   1.384   1.622   1.461  0.7590  0.8749  2.9421
 1265SOL    HW215429   1.331   1.687   1.338  0.4697  1.0949  0.1412
 1266SOL     OW15430   4.025   3.230   8.839  0.5968  0.5632  0.1044
 1266SOL    HW115431   4.020   3.156   8.898 -1.1715 -1.0674 -2.0776
 1266SOL    HW215432   3.975   3.298   8.884  1.4201 -0.2025  2.1771
 1267SOL     OW15433   1.395   0.569  11.097 -0.4780  0.1964  0.0959
 1267SOL    HW115434   1.472   0.599  11.049  1.1290 -2.1260  1.2144
 1267SOL    HW215435   1.375   0.503  11.030 -2.4260  2.5177 -1.6240
 1268SOL     OW15436   3.455   4.439   7.905 -0.1318  0.1138  0.3453
 1268SOL    HW115437   3.546   4.447   7.934 -0.2896  0.4890  0.7465
 1268SOL    HW215438   3.466   4.362   7.850 -2.0068 -0.6185  0.9884
 1269SOL     OW15439   0.563   0.372   5.320  0.1574  0.4836  0.2296
 1269SOL    HW115440   0.504   0.340   5.252 -0.1476  0.5122  0.4831
 1269SOL    HW215441   0.519   0.453   5.348 -2.8848 -1.2350  0.4349
 1270SOL     OW15442   0.750   1.452   7.071  0.2333  0.5499 -0.0418
 1270SOL    HW115443   0.760   1.533   7.021  0.4017  0.5153 -0.0637
 1270SOL    HW215444   0.831   1.452   7.121  0.5149  0.2174 -0.5010
 1271SOL     OW15445   4.414   3.421   3.857  0.3610 -0.1068 -0.4968
 1271SOL    HW115446   4.434   3.423   3.950 -0.1924 -2.6330 -0.3065
 1271SOL    HW215447   4.344   3.486   3.852 -0.4616 -0.9777 -0.2815
 1272SOL     OW15448   0.492   1.602   5.327  0.5319 -0.5250  0.1469
 1272SOL    HW115449   0.562   1.588   5.263  1.1020 -3.3892  1.3987
 1272SOL    HW215450   0.485   1.510   5.353 -1.2973 -1.2126 -2.8374
 1273SOL     OW15451   2.061   1.999   7.029  0.0841 -0.6085 -0.1999
 1273SOL    HW115452   2.007   1.926   7.058 -1.8525  0.3771 -1.3329
 1273SOL    HW215453   2.154   1.983   7.043 -0.4598 -2.5594  1.0236
 1274SOL     OW15454   2.756   1.374   6.044 -0.0438 -0.2879 -0.1520
 1274SOL    HW115455   2.845   1.359   6.076 -0.7948  1.7389  2.8230
 1274SOL    HW215456   2.765   1.451   5.987 -1.6358  2.2407  3.0558
 1275SOL     OW15457   0.452   3.296   3.582  0.9073  0.0333  0.4221
 1275SOL    HW115458   0.545   3.312   3.564  0.7973 -0.3774 -0.5143
 1275SOL    HW215459   0.428   3.356   3.652 -0.3602  0.3449 -0.2837
 1276SOL     OW15460   0.370   0.076   2.020  0.1810  0.3276  0.4994
 1276SOL    HW115461   0.284   0.104   2.049 -0.2521 -0.5455  0.0338
 1276SOL    HW215462   0.362   4.718   2.008  1.5427  0.1269  1.1334
 1277SOL     OW15463   2.770   1.389   4.994  0.2989  0.9454  0.2988
 1277SOL    HW115464   2.825   1.399   4.917  0.6684 -0.7588  0.3260
 1277SOL    HW215465   2.726   1.472   5.010  0.7215  1.0264  1.0344
 1278SOL     OW15466   0.507   3.007  14.510  0.1979  0.0106  0.3692
 1278SOL    HW115467   0.482   2.986  14.420  0.1352  0.8621  0.1869
 1278SOL    HW215468   0.537   3.098  14.511  2.3099 -0.6858  0.6421
 1279SOL     OW15469   2.466   0.079   3.771 -0.0059  0.3979 -0.1108
 1279SOL    HW115470   2.541   0.126   3.807  0.7816  0.0120 -1.2833
 1279SOL    HW215471   2.412   0.063   3.849 -0.4978 -0.8197 -0.7188
 1280SOL     OW15472   4.017   3.054   3.441 -0.3507  0.2556  0.0474
 1280SOL    HW115473   4.074   3.062   3.517 -1.5870 -1.7258  1.1517
 1280SOL    HW215474   4.079   3.033   3.371  0.3205 -1.9386  1.3167
 1281SOL     OW15475   0.190   2.029  10.118 -0.5421  0.1090 -0.7657
 1281SOL    HW115476   0.240   2.097  10.163  1.8274 -0.7417 -2.0909
 1281SOL    HW215477   0.189   1.963  10.188 -0.2438  0.8489 -0.0642
 1282SOL     OW15478   0.789   1.455  10.900  0.0483 -0.0967  0.0426
 1282SOL    HW115479   0.708   1.414  10.931 -0.1686 -1.4959 -2.4398
 1282SOL    HW215480   0.849   1.386  10.927 -1.9678 -1.7896  0.2563
 1283SOL     OW15481   4.296   3.373   7.485 -0.1169  0.3930  0.5086
 1283SOL    HW115482   4.374   3.318   7.480 -0.4816 -0.2892  2.2839
 1283SOL    HW215483   4.259   3.334   7.564 -0.1261  2.8139  1.6904
 1284SOL     OW15484   3.331   1.560  10.881  0.6382 -0.6424 -0.2616
 1284SOL    HW115485   3.356   1.538  10.971 -1.2954  2.8491  1.1491
 1284SOL    HW215486   3.281   1.641  10.893  1.3784  0.0985 -2.1112
 1285SOL     OW15487   2.755   0.390   6.084  0.3101 -0.2386 -0.1972
 1285SOL    HW115488   2.792   0.367   6.169 -1.2049  1.1771  0.8201
 1285SOL    HW215489   2.738   0.313   6.030 -3.9471  1.1757 -0.8424
 1286SOL     OW15490   0.040   2.794   6.095  0.7532  0.2695 -0.6725
 1286SOL    HW115491   4.715   2.728   6.127  2.2500 -1.2011 -0.8704
 1286SOL    HW215492   0.006   2.875   6.134 -2.6575 -1.9772  1.0890
 1287SOL     OW15493   0.831   4.606   4.297 -0.0077  0.5581  0.3773
 1287SOL    HW115494   0.762   4.671   4.295  0.2838  0.8617  0.1615
 1287SOL    HW215495   0.910   4.637   4.341 -1.1809  1.8905  1.5077
 1288SOL     OW15496   0.167   4.002   2.619  0.3084  0.2814 -0.0013
 1288SOL    HW115497   0.129   4.016   2.533 -0.7015  0.5305  0.4903
 1288SOL    HW215498   0.260   3.988   2.598  0.1468 -2.5713  1.0885
 1289SOL     OW15499   1.612   1.730   4.954  0.0160  0.9515  0.2548
 1289SOL    HW115500   1.592   1.669   4.883  2.2354  0.8505 -0.2899
 1289SOL    HW215501   1.573   1.693   5.033 -0.3849  1.3717  0.2545
 1290SOL     OW15502   0.385   4.065   4.367 -0.1891 -0.6522  0.3587
 1290SOL    HW115503   0.372   4.158   4.383  0.5567 -0.2141 -1.6728
 1290SOL    HW215504   0.396   4.029   4.455 -0.2953 -1.7925 -0.0848
 1291SOL     OW15505   1.739   3.589   9.520  0.0122  0.0575  0.7301
 1291SOL    HW115506   1.665   3.568   9.576 -0.3599  0.1419  0.2757
 1291SOL    HW215507   1.798   3.631   9.582  0.3817  3.0558 -1.6203
 1292SOL     OW15508   1.781   3.105   2.419  0.2830  0.0042  0.4328
 1292SOL    HW115509   1.729   3.050   2.360  2.3354  0.9182 -2.2073
 1292SOL    HW215510   1.710   3.156   2.459  0.2945  0.1028  0.3271
 1293SOL     OW15511   1.178   1.912   8.654 -0.1082 -0.6024 -0.0140
 1293SOL    HW115512   1.121   1.915   8.731 -0.8285  0.4542 -0.5948
 1293SOL    HW215513   1.249   1.854   8.682 -0.7983 -1.3706  0.1561
 1294SOL     OW15514   3.146   2.802   0.067 -0.1628  0.1972 -0.2078
 1294SOL    HW115515   3.146   2.732   0.132  1.1543  0.0712 -0.3432
 1294SOL    HW215516   3.203   2.853   0.126 -0.9741  1.4136 -0.4881
 1295SOL     OW15517   2.313   2.754   5.424  0.0968 -0.0901 -0.6077
 1295SOL    HW115518   2.278   2.775   5.337 -1.1167  2.1243  0.4247
 1295SOL    HW215519   2.228   2.751   5.468  0.7716  0.2280  0.6822
 1296SOL     OW15520   3.865   2.669  10.864  0.1125 -0.2541 -0.7513
 1296SOL    HW115521   3.834   2.608  10.931 -1.0121  2.2485  0.9846
 1296SOL    HW215522   3.937   2.613  10.833  0.1019 -0.1409 -0.9780
 1297SOL     OW15523   3.227   3.162   5.258  0.4272  0.4345 -0.2563
 1297SOL    HW115524   3.317   3.157   5.292 -0.1163 -0.3704  1.0747
 1297SOL    HW215525   3.187   3.214   5.328  0.0929  0.4488 -0.4596
 1298SOL     OW15526   1.501   3.393   9.047 -0.5808  0.1771  0.4642
 1298SOL    HW115527   1.556   3.366   8.973 -2.8159 -1.2289 -0.6866
 1298SOL    HW215528   1.530   3.484   9.048 -0.6894  0.2196 -0.4489
 1299SOL     OW15529   1.247   0.517   3.166 -0.0206 -0.3450  0.4398
 1299SOL    HW115530   1.323   0.560   3.127 -0.9914  3.3210  2.5297
 1299SOL    HW215531   1.245   0.569   3.247  2.0936  0.1939  0.1526
 1300SOL     OW15532   2.148   1.457   7.968  0.6643 -0.1857 -0.4993
 1300SOL    HW115533   2.144   1.436   8.061  2.2744  2.0907  0.0998
 1300SOL    HW215534   2.125   1.549   7.981  1.8602 -0.0348  0.5919
 1301SOL     OW15535   1.420   1.977   4.915 -0.3901  0.7196 -0.2066
 1301SOL    HW115536   1.482   1.904   4.907 -0.0617  1.0255 -0.4963
 1301SOL    HW215537   1.386   1.998   4.828 -0.8407 -0.2294 -0.2600
 1302SOL     OW15538   0.164   4.369   0.050  0.2835 -0.2644  0.1832
 1302SOL    HW115539   0.240   4.371  17.736 -1.2820 -0.0499 -1.8629
 1302SOL    HW215540   0.139   4.276   0.046 -1.6787  0.2656 -0.0405
 1303SOL     OW15541   3.735   3.348   1.328 -0.3961 -0.5424 -0.7504
 1303SOL    HW115542   3.735   3.262   1.372  0.8181 -0.7217 -1.1153
 1303SOL    HW215543   3.686   3.404   1.388  1.2128  1.6883 -1.5586
 1304SOL     OW15544   3.633   0.299   2.101 -0.3535 -0.0133  0.1509
 1304SOL    HW115545   3.665   0.359   2.034  0.2658 -0.4252  0.0803
 1304SOL    HW215546   3.552   0.272   2.058  0.2199  0.2274 -1.1045
 1305SOL     OW15547   2.891   0.884  17.322 -0.2393  0.2227 -0.0593
 1305SOL    HW115548   2.916   0.820  17.254  2.0264  1.1470 -0.0849
 1305SOL    HW215549   2.923   0.960  17.273  0.7733 -0.6893 -0.8064
 1306SOL     OW15550   2.290   1.478   6.941 -0.0471  0.5756  0.4237
 1306SOL    HW115551   2.361   1.535   6.969  1.5179 -0.3387 -1.7575
 1306SOL    HW215552   2.243   1.471   7.025  1.5894 -0.5641  1.2518
 1307SOL     OW15553   1.146   4.121  14.312  0.0935  0.1540 -0.3674
 1307SOL    HW115554   1.105   4.145  14.229 -1.5626  1.1397  0.7475
 1307SOL    HW215555   1.086   4.053  14.342  0.1633  0.0473 -0.4655
 1308SOL     OW15556   3.499   2.395   6.677 -0.6719  1.0593 -0.1391
 1308SOL    HW115557   3.515   2.327   6.741  0.2913  1.5936  0.1919
 1308SOL    HW215558   3.567   2.384   6.611 -0.6304 -0.2411  0.1189
 1309SOL     OW15559   2.203   3.786   5.540  0.1825 -0.0070  0.1909
 1309SOL    HW115560   2.190   3.727   5.615  0.8937 -0.2552  0.1220
 1309SOL    HW215561   2.117   3.811   5.509 -0.2996 -2.7315 -0.6865
 1310SOL     OW15562   2.647   2.611  12.814  0.0113 -0.1279  0.2204
 1310SOL    HW115563   2.620   2.538  12.758  0.9682 -0.4036  0.1040
 1310SOL    HW215564   2.709   2.643  12.748  0.4001  2.3103  1.7896
 1311SOL     OW15565   3.999   0.868  17.293 -0.0805  0.5473  0.0700
 1311SOL    HW115566   3.966   0.957  17.287  0.9773  0.9503  0.2462
 1311SOL    HW215567   4.090   0.893  17.276  0.2169 -1.7737 -1.8390
 1312SOL     OW15568   0.476   2.457   0.715 -0.1617 -0.3995  0.0125
 1312SOL    HW115569   0.459   2.535   0.661 -0.9902 -0.8832 -0.4347
 1312SOL    HW215570   0.564   2.479   0.745 -0.7791 -0.3109  1.7283
 1313SOL     OW15571   0.129   2.819   8.983  0.2516  0.0114 -0.1245
 1313SOL    HW115572   0.133   2.724   8.973 -0.9322 -0.0788  0.2427
 1313SOL    HW215573   0.068   2.844   8.913 -0.6248 -1.9046 -0.0358
 1314SOL     OW15574   4.537   1.999  12.306  0.2448 -0.9500  0.3216
 1314SOL    HW115575   4.511   1.921  12.355 -1.5156  0.0884  1.0663
 1314SOL    HW215576   4.451   2.040  12.296  0.4971 -0.9413 -1.9775
 1315SOL     OW15577   1.946   3.021  15.285 -0.2733  0.3982 -0.3663
 1315SOL    HW115578   1.994   2.948  15.323  0.2668  1.0490  0.1872
 1315SOL    HW215579   1.969   3.089  15.349 -0.3096  0.3196 -0.2704
 1316SOL     OW15580   4.652   4.252  15.607 -0.5121  0.1334  0.6211
 1316SOL    HW115581   4.693   4.174  15.645 -0.8081  0.8989  2.4900
 1316SOL    HW215582   4.596   4.205  15.545 -1.7034 -0.1852  1.9366
 1317SOL     OW15583   3.090   1.633   3.451 -0.0004  0.7248  0.3546
 1317SOL    HW115584   3.038   1.612   3.373 -1.3292  1.3949  1.0682
 1317SOL    HW215585   3.052   1.574   3.516  3.4442 -0.8043  0.9811
 1318SOL     OW15586   0.458   3.562  12.607 -0.0088 -0.4079 -0.1945
 1318SOL    HW115587   0.371   3.554  12.647  0.6528 -0.1612  1.3164
 1318SOL    HW215588   0.442   3.607  12.525 -0.3240  2.5789  1.5185
 1319SOL     OW15589   2.265   0.345   0.781 -0.4012 -0.2141 -0.5947
 1319SOL    HW115590   2.232   0.321   0.867  2.4411  1.9598  1.0952
 1319SOL    HW215591   2.193   0.309   0.729 -1.4633  0.2814  0.5648
 1320SOL     OW15592   4.078   3.094   6.377  0.2392 -0.3454 -0.2539
 1320SOL    HW115593   4.056   3.187   6.377  0.3229 -0.3296 -4.0569
 1320SOL    HW215594   4.043   3.072   6.463 -0.5854 -0.1835 -0.5571
 1321SOL     OW15595   4.546   0.851  16.885  0.1564 -0.0107 -0.3623
 1321SOL    HW115596   4.626   0.817  16.847  0.4631 -1.1121  1.2373
 1321SOL    HW215597   4.493   0.863  16.806  1.3741  0.8897 -1.0340
 1322SOL     OW15598   4.070   0.100  15.265  0.1269 -0.3771 -0.2089
 1322SOL    HW115599   4.040   0.180  15.221  3.8179  1.3366  0.3232
 1322SOL    HW215600   3.984   0.063  15.283  0.8557 -1.6829  0.6061
 1323SOL     OW15601   1.264   1.090   9.193 -0.1613 -0.0147 -0.3934
 1323SOL    HW115602   1.292   1.169   9.146  1.3222 -0.3709 -0.0995
 1323SOL    HW215603   1.218   1.131   9.266 -2.6367 -0.6536 -1.5634
 1324SOL     OW15604   3.755   3.165   2.840 -0.8820 -0.8340 -0.5082
 1324SOL    HW115605   3.828   3.221   2.816 -2.0905  1.8534  2.1090
 1324SOL    HW215606   3.728   3.210   2.920  0.2284  0.5552 -0.9333
 1325SOL     OW15607   2.589   0.501   7.981 -0.2918  0.2879  0.3995
 1325SOL    HW115608   2.636   0.438   8.036  3.0779  2.6572  0.2581
 1325SOL    HW215609   2.535   0.558   8.035 -2.1949 -2.4735  1.3872
 1326SOL     OW15610   2.264   3.637  11.745  0.4291  0.4047 -0.2466
 1326SOL    HW115611   2.326   3.565  11.754  0.3800  0.3648 -0.2230
 1326SOL    HW215612   2.321   3.712  11.729 -1.2184  1.6089 -0.5075
 1327SOL     OW15613   2.958   0.236  14.050 -0.3916 -0.2857 -0.4463
 1327SOL    HW115614   2.891   0.281  14.101 -1.0010 -0.3324 -1.2192
 1327SOL    HW215615   2.945   0.277  13.965  2.2035  2.5804  0.5392
 1328SOL     OW15616   3.319   0.027   3.869  0.2002  0.6213 -0.3687
 1328SOL    HW115617   3.406   4.723   3.880 -1.0097 -1.4177  1.8654
 1328SOL    HW215618   3.351   0.117   3.863 -2.1657  1.5067  0.2612
 1329SOL     OW15619   2.975   3.151   6.310 -0.5140 -0.1528 -0.4689
 1329SOL    HW115620   2.917   3.140   6.386  2.2526  0.7616  1.8033
 1329SOL    HW215621   3.064   3.127   6.337  0.3783  2.1916 -1.3519
 1330SOL     OW15622   1.633   0.391   9.078 -0.2589  0.2043 -0.6356
 1330SOL    HW115623   1.561   0.432   9.127  0.5847 -1.0258  1.6404
 1330SOL    HW215624   1.698   0.456   9.052  0.4366  0.7278  2.4013
 1331SOL     OW15625   1.964   0.164  14.646 -0.1087  0.4601  0.0396
 1331SOL    HW115626   2.056   0.156  14.670 -0.2308  2.0948  1.0463
 1331SOL    HW215627   1.968   0.149  14.551  3.2496 -1.3457  0.4949
 1332SOL     OW15628   0.359   3.704   0.370  0.2302 -0.3723  0.2932
 1332SOL    HW115629   0.388   3.784   0.412 -1.6754  0.1285  0.6678
 1332SOL    HW215630   0.281   3.735   0.324  0.4949 -0.3158 -0.1135
 1333SOL     OW15631   1.138   4.533  13.766  0.3268 -0.5600 -0.4322
 1333SOL    HW115632   1.222   4.579  13.770  1.0684 -1.8801 -0.8932
 1333SOL    HW215633   1.149   4.488  13.850 -1.2610  1.2089  0.7320
 1334SOL     OW15634   4.652   3.217   4.092 -0.4338  0.4274  0.2853
 1334SOL    HW115635   4.651   3.312   4.087  1.0192  0.5451  2.6366
 1334SOL    HW215636   4.557   3.202   4.092 -0.5692  1.3086 -1.0360
 1335SOL     OW15637   0.930   4.122   7.887  0.1885 -0.3185  0.0690
 1335SOL    HW115638   0.955   4.144   7.977  1.6976  0.1693 -0.4790
 1335SOL    HW215639   0.892   4.204   7.855 -0.1246 -0.4023  0.2232
 1336SOL     OW15640   4.109   3.849   7.232  0.0530 -0.0681  0.1096
 1336SOL    HW115641   4.063   3.836   7.149 -0.0050  1.6214 -0.1278
 1336SOL    HW215642   4.036   3.859   7.294  0.5381 -1.1328  0.8417
 1337SOL     OW15643   1.985   0.957  15.518 -0.8501  0.0652 -0.1165
 1337SOL    HW115644   2.025   1.045  15.522  3.5569 -1.9329  0.4674
 1337SOL    HW215645   2.073   0.921  15.506 -1.2452 -1.0642  0.4241
 1338SOL     OW15646   0.321   3.385  16.207 -0.4589  0.5127 -0.5792
 1338SOL    HW115647   0.341   3.318  16.272  0.6217  0.6931 -0.7134
 1338SOL    HW215648   0.346   3.466  16.251  2.0147 -0.5359 -0.0502
 1339SOL     OW15649   4.659   0.023   2.385 -0.0696  0.2818  0.5830
 1339SOL    HW115650   4.578   0.047   2.340 -0.5612  0.4459  1.5569
 1339SOL    HW215651   4.727   0.076   2.344 -0.0448  0.4626  0.8623
 1340SOL     OW15652   4.231   4.401  17.508  0.3742 -0.1948  0.5517
 1340SOL    HW115653   4.311   4.447  17.532  0.9112  0.2559 -2.0812
 1340SOL    HW215654   4.266   4.320  17.470 -2.6344 -0.3306 -1.9574
 1341SOL     OW15655   4.584   3.540   1.570  0.4580 -0.1302 -0.1349
 1341SOL    HW115656   4.568   3.611   1.631  1.2453  0.3007 -0.4419
 1341SOL    HW215657   4.663   3.500   1.605 -0.1405  1.3172  2.8349
 1342SOL     OW15658   3.363   2.013  12.711  0.0292 -0.0137 -0.6394
 1342SOL    HW115659   3.328   2.005  12.799 -2.3856  2.9065 -1.3151
 1342SOL    HW215660   3.386   2.106  12.707  2.2150 -0.4416  2.1463
 1343SOL     OW15661   0.975   3.735  10.365  0.6391 -0.1660 -0.3373
 1343SOL    HW115662   1.053   3.711  10.315 -1.6950 -0.8214 -3.6678
 1343SOL    HW215663   0.903   3.696  10.316  0.2540  1.4357 -1.0349
 1344SOL     OW15664   2.434   3.263  17.138 -0.9156  0.0833 -0.0093
 1344SOL    HW115665   2.389   3.183  17.113  1.2885 -0.9436 -0.7516
 1344SOL    HW215666   2.362   3.326  17.137 -2.7232 -1.9901  2.3136
 1345SOL     OW15667   4.666   4.007   2.723 -0.3398  0.3054  0.3167
 1345SOL    HW115668   0.021   3.983   2.712  0.0271  1.1102  1.6008
 1345SOL    HW215669   4.637   3.959   2.801  1.1197 -0.8332  0.1538
 1346SOL     OW15670   0.303   0.815   3.357 -0.1886  0.1498 -0.2209
 1346SOL    HW115671   0.234   0.796   3.420  1.3950 -0.4262  1.3537
 1346SOL    HW215672   0.312   0.910   3.368  0.5194  0.2159 -1.3505
 1347SOL     OW15673   3.864   2.023   2.189  0.4154 -0.3532 -0.6423
 1347SOL    HW115674   3.885   2.031   2.282  1.9449 -0.8129 -0.9441
 1347SOL    HW215675   3.888   2.111   2.160 -0.3344  0.2274  0.5212
 1348SOL     OW15676   1.966   1.107   3.167  0.4952 -0.6343 -1.1659
 1348SOL    HW115677   2.044   1.137   3.122  0.8256 -0.0466 -0.2058
 1348SOL    HW215678   1.900   1.072   3.107 -0.8278  0.7401 -0.5180
 1349SOL     OW15679   3.258   1.522  11.191 -0.5023  0.1228 -0.9229
 1349SOL    HW115680   3.210   1.441  11.176 -3.8164  1.5432  2.1994
 1349SOL    HW215681   3.213   1.559  11.266 -1.6908  0.8346 -1.9790
 1350SOL     OW15682   3.388   3.494   6.606  0.2395 -0.2652 -0.6489
 1350SOL    HW115683   3.312   3.436   6.614  0.2251  0.0198  1.1472
 1350SOL    HW215684   3.406   3.490   6.512  1.2850  0.9650 -0.4943
 1351SOL     OW15685   1.689   1.115  15.556 -0.0297  0.4518 -0.2393
 1351SOL    HW115686   1.594   1.105  15.559 -0.0354  0.2954 -0.9050
 1351SOL    HW215687   1.724   1.032  15.589 -0.8493  0.9976  1.9371
 1352SOL     OW15688   1.358   3.684   4.417 -0.3467  0.0923 -0.4114
 1352SOL    HW115689   1.422   3.755   4.415  1.4705 -1.6017 -2.1220
 1352SOL    HW215690   1.373   3.663   4.325 -2.0643 -2.4003 -0.1383
 1353SOL     OW15691   2.412   1.158   2.860 -0.9210 -1.1027 -0.1322
 1353SOL    HW115692   2.489   1.107   2.883 -1.2004 -1.3794  0.1960
 1353SOL    HW215693   2.389   1.118   2.776 -1.9104  0.0621 -0.4205
 1354SOL     OW15694   0.251   4.544  12.876 -0.3749  0.2569 -0.5015
 1354SOL    HW115695   0.272   4.638  12.875  2.2256 -0.3363  0.3457
 1354SOL    HW215696   0.297   4.521  12.796 -0.4683  1.6402 -0.9685
 1355SOL     OW15697   2.439   1.682   9.214  0.0435  0.4436  0.2140
 1355SOL    HW115698   2.438   1.739   9.291 -2.4539 -0.4812  0.8358
 1355SOL    HW215699   2.460   1.742   9.142  2.3185  1.0973  1.4088
 1356SOL     OW15700   4.493   3.161   1.478 -0.4082  0.2816 -0.3608
 1356SOL    HW115701   4.464   3.154   1.387  2.1306 -0.5954 -1.1021
 1356SOL    HW215702   4.586   3.182   1.466  1.0232 -3.2416  4.4282
 1357SOL     OW15703   3.892   2.865  15.272 -1.2656  0.2350  0.3181
 1357SOL    HW115704   3.952   2.842  15.202 -1.5319  0.9267 -0.1382
 1357SOL    HW215705   3.805   2.843  15.238 -0.5235  0.5538 -1.7768
 1358SOL     OW15706   4.684   0.381   3.575  0.5585  0.3598  0.0712
 1358SOL    HW115707   4.705   0.474   3.571  1.3732  0.1519 -0.5587
 1358SOL    HW215708   4.718   0.363   3.487 -2.9708 -2.4242 -0.7066
 1359SOL     OW15709   0.008   3.509  12.953  0.2492  0.2991 -0.1084
 1359SOL    HW115710   4.671   3.461  12.914 -0.9720  2.3513 -0.2991
 1359SOL    HW215711   4.701   3.533  13.035 -1.1270 -1.4337 -0.3277
 1360SOL     OW15712   4.269   0.496   3.540  0.5433 -0.1569 -0.2028
 1360SOL    HW115713   4.200   0.458   3.486  0.0418 -0.1843  0.4560
 1360SOL    HW215714   4.238   0.587   3.537 -0.1614 -0.2785  3.0282
 1361SOL     OW15715   0.464   2.799   2.405 -0.7061 -0.1256 -0.2424
 1361SOL    HW115716   0.477   2.892   2.385 -1.4038  0.2834  1.1889
 1361SOL    HW215717   0.432   2.800   2.495 -0.9007 -0.0400 -0.3126
 1362SOL     OW15718   0.814   3.954  16.705 -0.4003 -0.0708  0.0572
 1362SOL    HW115719   0.813   4.029  16.647  1.3272  0.1697  0.3435
 1362SOL    HW215720   0.740   3.966  16.765 -0.9377  0.5786 -0.7433
 1363SOL     OW15721   3.990   2.092   8.244 -0.2809  0.1191 -0.3791
 1363SOL    HW115722   3.910   2.131   8.279  0.7467  1.9120 -0.0090
 1363SOL    HW215723   4.048   2.110   8.318  0.4299  1.5713 -1.3023
 1364SOL     OW15724   0.577   2.509   3.547  0.0690 -0.2007  0.3983
 1364SOL    HW115725   0.541   2.485   3.633 -1.9198  1.1184 -0.0624
 1364SOL    HW215726   0.669   2.487   3.554  0.3886 -0.4518 -4.3137
 1365SOL     OW15727   0.048   2.138   1.666 -0.2076  0.1129  0.2043
 1365SOL    HW115728   4.689   2.141   1.666 -0.1592  1.4207  1.0734
 1365SOL    HW215729   0.064   2.057   1.715 -0.5537 -0.2401 -0.2550
 1366SOL     OW15730   3.085   2.538   4.930 -0.3801  0.1107  0.0976
 1366SOL    HW115731   3.063   2.509   5.018 -0.1392 -0.4177 -0.0135
 1366SOL    HW215732   3.037   2.620   4.924 -0.5006  0.1537  1.5358
 1367SOL     OW15733   0.289   0.446  11.204  0.2071  0.5885 -0.3579
 1367SOL    HW115734   0.256   0.515  11.262  2.5287  0.1166  1.5050
 1367SOL    HW215735   0.256   0.367  11.247  0.9856 -0.4419 -1.6491
 1368SOL     OW15736   2.410   0.523   7.741  0.3881 -0.1764 -0.0493
 1368SOL    HW115737   2.480   0.499   7.801 -0.4730 -1.6859  0.3750
 1368SOL    HW215738   2.401   0.613   7.772 -1.4447  0.1008 -1.3428
 1369SOL     OW15739   1.410   4.347   2.020 -0.1295 -0.7694 -0.3413
 1369SOL    HW115740   1.351   4.395   2.079  2.3880 -0.3053  1.7781
 1369SOL    HW215741   1.460   4.293   2.081 -2.0027 -2.6743 -0.4539
 1370SOL     OW15742   0.096   2.794   2.689  0.0204 -0.0935  0.3727
 1370SOL    HW115743   0.075   2.722   2.748 -1.5655 -0.1858 -0.2869
 1370SOL    HW215744   0.015   2.805   2.638  0.7778 -0.7828 -0.9896
 1371SOL     OW15745   4.353   4.280   2.847 -0.2948  0.3576  0.2930
 1371SOL    HW115746   4.259   4.288   2.831  0.3979  4.8987 -1.3763
 1371SOL    HW215747   4.368   4.186   2.835 -2.7015 -0.0407  0.4070
 1372SOL     OW15748   1.790   0.561  15.800 -0.4326 -0.3523 -0.0072
 1372SOL    HW115749   1.722   0.523  15.745 -0.5087 -0.2481  0.0138
 1372SOL    HW215750   1.746   0.548  15.883  0.3908  1.2821  0.7029
 1373SOL     OW15751   4.715   2.122   6.132 -0.1957  0.0120  0.0398
 1373SOL    HW115752   4.700   2.161   6.046  2.2366  1.7883  0.4314
 1373SOL    HW215753   4.666   2.040   6.127  1.2182 -0.8195 -0.1591
 1374SOL     OW15754   1.732   1.210   2.808 -0.4200  0.0296  0.7074
 1374SOL    HW115755   1.644   1.174   2.819 -1.8730  2.8462 -1.6507
 1374SOL    HW215756   1.744   1.241   2.898  0.8689 -3.1139  1.6235
 1375SOL     OW15757   3.785   0.587   6.853 -0.5993 -0.4976  0.4985
 1375SOL    HW115758   3.735   0.653   6.806  0.0796  1.3453  2.3589
 1375SOL    HW215759   3.860   0.590   6.795  0.4875  0.6328  1.9699
 1376SOL     OW15760   0.141   4.057   3.363  0.0925 -0.3852 -0.4910
 1376SOL    HW115761   0.074   4.008   3.316 -0.0084 -1.5282  0.8373
 1376SOL    HW215762   0.130   4.011   3.447 -0.9049 -2.0398 -1.5394
 1377SOL     OW15763   2.239   3.383  13.448  0.3799  0.3036  0.3118
 1377SOL    HW115764   2.286   3.421  13.373  1.3000  0.5022  0.9815
 1377SOL    HW215765   2.303   3.347  13.509  0.2566 -0.7776 -0.2050
 1378SOL     OW15766   4.510   1.987   2.907 -0.1969  0.0354  0.2550
 1378SOL    HW115767   4.524   1.909   2.852  1.0141 -1.5470  2.8258
 1378SOL    HW215768   4.455   1.968   2.983 -2.4785  2.6255 -0.7506
 1379SOL     OW15769   3.386   4.302   6.546 -0.4175  0.6483 -0.1634
 1379SOL    HW115770   3.339   4.254   6.478  1.0036  0.0606 -0.7432
 1379SOL    HW215771   3.312   4.314   6.606  0.0989  0.9674  0.4186
 1380SOL     OW15772   3.500   1.527   2.081 -0.3108 -0.2472  0.5144
 1380SOL    HW115773   3.590   1.559   2.076 -0.1847 -0.8812 -1.4676
 1380SOL    HW215774   3.505   1.471   2.003 -3.3727  0.1279  0.0810
 1381SOL     OW15775   1.679   2.997   7.127 -0.6271 -0.3551  0.0256
 1381SOL    HW115776   1.743   3.011   7.058 -2.6343  0.6058 -1.6512
 1381SOL    HW215777   1.656   3.086   7.154  1.0126  0.0285  0.1168
 1382SOL     OW15778   3.341   4.641   7.189  0.6456 -0.2531  0.1279
 1382SOL    HW115779   3.309   4.710   7.247 -0.2578  0.4716 -1.2074
 1382SOL    HW215780   3.263   4.585   7.197 -0.4660  1.2844  0.0004
 1383SOL     OW15781   4.160   2.114   6.790 -0.3356  0.0621  0.3285
 1383SOL    HW115782   4.208   2.132   6.710  0.5418  0.5291  0.9580
 1383SOL    HW215783   4.225   2.123   6.860 -1.8051  1.5272  1.5046
 1384SOL     OW15784   0.464   3.129  16.323 -0.3878 -0.2100  0.2703
 1384SOL    HW115785   0.446   3.052  16.378  1.0198 -0.8859 -0.1971
 1384SOL    HW215786   0.469   3.088  16.237  0.8453  1.4326 -0.4416
 1385SOL     OW15787   0.891   0.154   5.144 -0.3346 -0.0678 -0.1329
 1385SOL    HW115788   0.934   0.068   5.138  1.2587  0.7664 -0.6335
 1385SOL    HW215789   0.806   0.126   5.177  0.1308 -0.7259  0.4966
 1386SOL     OW15790   1.355   0.621  10.034 -0.0830  0.1962 -0.7768
 1386SOL    HW115791   1.290   0.686  10.061  0.5438 -0.0409  1.2994
 1386SOL    HW215792   1.434   0.673  10.050 -0.5528  0.1348  1.6471
 1387SOL     OW15793   1.594   1.497   4.159  0.2153 -0.0874 -0.2507
 1387SOL    HW115794   1.508   1.456   4.162 -0.0018  0.4371  0.6244
 1387SOL    HW215795   1.601   1.523   4.251 -2.0512  0.1048 -0.1529
 1388SOL     OW15796   0.640   1.361   5.643 -0.3169 -0.0543  0.0021
 1388SOL    HW115797   0.671   1.333   5.730 -1.5750 -0.2228  0.3987
 1388SOL    HW215798   0.643   1.457   5.647 -0.1762 -0.0009 -1.5237
 1389SOL     OW15799   2.534   4.489   1.757 -0.0662  0.1666 -0.5515
 1389SOL    HW115800   2.624   4.505   1.785 -0.3830 -0.2296  0.7237
 1389SOL    HW215801   2.540   4.397   1.733  2.1053  0.1860 -0.0760
 1390SOL     OW15802   0.151   3.719   8.081  0.5566  0.0516 -0.3855
 1390SOL    HW115803   0.119   3.681   7.999 -0.3076  1.2707 -0.6131
 1390SOL    HW215804   0.243   3.708   8.057  0.3478  1.4468 -1.8457
 1391SOL     OW15805   0.899   3.777   2.049 -0.6218  0.6345  0.1738
 1391SOL    HW115806   0.914   3.868   2.023  0.7538  0.9934  2.1567
 1391SOL    HW215807   0.814   3.788   2.091 -0.0436  2.2600  0.9167
 1392SOL     OW15808   1.599   4.647   5.731  0.0316  0.1730 -0.4480
 1392SOL    HW115809   1.604   4.722   5.790 -0.6622  1.2345 -1.7585
 1392SOL    HW215810   1.691   4.630   5.710 -0.4527 -2.1198 -0.7384
 1393SOL     OW15811   1.397   2.000   4.657  0.0402  0.2834  0.2224
 1393SOL    HW115812   1.448   2.043   4.588 -0.0538 -0.0015 -0.0224
 1393SOL    HW215813   1.435   1.914   4.668  1.9114  0.8180 -1.9320
 1394SOL     OW15814   4.603   2.522   3.936 -0.0582  0.0167 -0.2686
 1394SOL    HW115815   4.643   2.575   4.005 -1.7974  0.9214  0.0605
 1394SOL    HW215816   4.513   2.557   3.934  0.9644  2.8480  2.3492
 1395SOL     OW15817   3.260   2.372  16.859 -0.3249 -0.6822  0.7538
 1395SOL    HW115818   3.261   2.364  16.955 -2.0810 -1.5144  0.7152
 1395SOL    HW215819   3.170   2.394  16.836  0.1815  0.6849  0.0812
 1396SOL     OW15820   0.217   3.912  15.901 -0.4793 -0.0141  0.4458
 1396SOL    HW115821   0.244   3.824  15.929  1.0637  0.3742  0.1299
 1396SOL    HW215822   0.302   3.942  15.870 -1.3377  1.3687 -0.5353
 1397SOL     OW15823   0.739   4.561   2.686 -0.2680  0.2452  0.0086
 1397SOL    HW115824   0.832   4.563   2.709 -0.3901  1.6809  0.3595
 1397SOL    HW215825   0.704   4.504   2.755  0.6276 -0.6421 -0.2691
 1398SOL     OW15826   0.391   4.159   3.555 -0.2598 -0.1512 -0.5613
 1398SOL    HW115827   0.314   4.137   3.608 -0.8136 -0.1677 -1.3842
 1398SOL    HW215828   0.389   4.107   3.475 -0.4363 -0.8817 -0.0854
 1399SOL     OW15829   1.688   0.329   6.409 -0.4925 -0.0043  0.0968
 1399SOL    HW115830   1.778   0.358   6.425  0.7009 -4.0940  0.9857
 1399SOL    HW215831   1.700   0.317   6.315 -1.1226  0.3329 -0.0238
 1400SOL     OW15832   1.867   4.549   8.156  0.2048 -0.0037  0.4366
 1400SOL    HW115833   1.803   4.535   8.225 -1.7968  0.0695 -1.3947
 1400SOL    HW215834   1.942   4.506   8.199 -0.1871 -2.4867 -1.3404
 1401SOL     OW15835   0.467   1.601   9.757 -0.1429 -0.3300 -0.6354
 1401SOL    HW115836   0.431   1.549   9.685  2.0636 -2.4864 -0.1971
 1401SOL    HW215837   0.452   1.535   9.824  1.1134 -1.1778 -1.1959
 1402SOL     OW15838   3.020   2.670   0.540  0.3243  0.3701 -0.2471
 1402SOL    HW115839   2.989   2.754   0.505 -0.6076 -0.4548 -1.3875
 1402SOL    HW215840   3.086   2.651   0.473  0.8249  0.9143  0.0896
 1403SOL     OW15841   4.105   2.058   7.749  0.3682 -0.4144 -0.3032
 1403SOL    HW115842   4.144   1.973   7.729  0.8011 -0.1513 -0.5741
 1403SOL    HW215843   4.174   2.124   7.759 -0.0595  0.0610 -0.4874
 1404SOL     OW15844   2.677   1.351   7.130 -0.3643  0.4426  0.7587
 1404SOL    HW115845   2.646   1.278   7.184  4.2872 -2.1206 -0.0464
 1404SOL    HW215846   2.749   1.389   7.181  1.6979 -1.3877 -0.8164
 1405SOL     OW15847   2.052   4.723   3.996 -0.3718 -0.0994 -0.3023
 1405SOL    HW115848   1.962   4.721   3.963 -0.6491 -0.1606  0.4391
 1405SOL    HW215849   2.075   4.631   4.012 -0.9894 -0.2398 -0.2083
 1406SOL     OW15850   2.881   0.291   2.140  0.3322  0.1576 -0.0583
 1406SOL    HW115851   2.814   0.242   2.187 -0.4979  0.0917 -1.2993
 1406SOL    HW215852   2.887   0.363   2.202  0.5172  0.1082 -0.0186
 1407SOL     OW15853   2.436   1.397  13.420  0.6023  0.1763  0.0733
 1407SOL    HW115854   2.527   1.389  13.391 -0.9632 -1.4171 -4.4196
 1407SOL    HW215855   2.448   1.376  13.513 -0.8276  2.7735  0.8373
 1408SOL     OW15856   0.779   1.160  15.524 -0.1125 -0.2164 -0.0214
 1408SOL    HW115857   0.760   1.068  15.540  2.4415 -0.5364  1.2114
 1408SOL    HW215858   0.749   1.203  15.605  1.1790 -0.7803  0.7585
 1409SOL     OW15859   4.574   0.369   3.166  0.2016 -0.0992 -0.4787
 1409SOL    HW115860   4.521   0.310   3.219  0.9325  1.9423  2.5903
 1409SOL    HW215861   4.578   0.325   3.082 -2.1333 -0.1325 -0.5621
 1410SOL     OW15862   1.728   3.319   3.488  0.2674 -0.3602  0.0937
 1410SOL    HW115863   1.661   3.388   3.487 -0.2351 -0.8646 -1.7226
 1410SOL    HW215864   1.793   3.364   3.434  1.5125 -0.9879  1.0975
 1411SOL     OW15865   0.333   2.646   6.047 -0.4112  0.2183 -0.3262
 1411SOL    HW115866   0.269   2.704   6.087  0.1217 -0.7636  1.9370
 1411SOL    HW215867   0.274   2.600   5.986  0.8250 -1.8241  0.0071
 1412SOL     OW15868   1.835   3.155  15.077 -0.2533 -0.4431 -0.2443
 1412SOL    HW115869   1.883   3.237  15.081  1.8736 -1.5358 -3.1733
 1412SOL    HW215870   1.868   3.106  15.153  0.2600  1.1802  0.5712
 1413SOL     OW15871   0.981   0.659   2.474  0.0130 -0.0405  0.6243
 1413SOL    HW115872   0.988   0.698   2.387 -0.1806  0.4183  0.8157
 1413SOL    HW215873   0.940   0.577   2.447  2.3191  0.5864 -4.6740
 1414SOL     OW15874   4.159   1.941  11.367 -0.2245  0.0480 -0.0710
 1414SOL    HW115875   4.083   1.898  11.329  0.5809 -0.3569 -1.2085
 1414SOL    HW215876   4.223   1.939  11.295 -0.6968 -0.4313 -0.4783
 1415SOL     OW15877   1.358   1.146   3.986  0.1428 -0.3406  0.2952
 1415SOL    HW115878   1.275   1.156   3.939  1.1396  2.2301 -0.9318
 1415SOL    HW215879   1.358   1.227   4.037  0.7520  0.1997 -0.5625
 1416SOL     OW15880   1.445   3.339   0.371  0.1312  0.3361 -0.2025
 1416SOL    HW115881   1.413   3.253   0.347 -2.4168  1.4918 -0.9369
 1416SOL    HW215882   1.411   3.392   0.298 -0.5606 -0.3771 -0.3893
 1417SOL     OW15883   1.320   4.577   9.329 -0.3534  0.3347 -0.4624
 1417SOL    HW115884   1.248   4.620   9.375 -0.4588  1.1389 -1.3837
 1417SOL    HW215885   1.330   4.628   9.249  0.4587  0.0534 -0.5412
 1418SOL     OW15886   2.937   0.796   7.892 -0.8406  0.1286  0.0852
 1418SOL    HW115887   3.025   0.827   7.913 -1.5674  1.0647  1.7273
 1418SOL    HW215888   2.917   0.755   7.976  0.7267  3.0466  1.8830
 1419SOL     OW15889   2.923   2.623   9.524  0.1297 -0.4702  0.0766
 1419SOL    HW115890   2.964   2.589   9.445 -1.5960 -1.3645 -0.4494
 1419SOL    HW215891   2.960   2.572   9.595 -0.1021  0.3887  0.8217
 1420SOL     OW15892   2.927   3.846   4.162  0.0831  0.1857 -0.3397
 1420SOL    HW115893   2.969   3.923   4.124 -0.8127  1.5864  1.4570
 1420SOL    HW215894   2.843   3.839   4.117 -0.5375  0.1502  0.7974
 1421SOL     OW15895   3.856   3.526   0.003  0.2277 -0.6346 -0.0675
 1421SOL    HW115896   3.937   3.487   0.034 -1.0350 -2.3671  1.0881
 1421SOL    HW215897   3.815   3.458  17.695 -1.9994 -0.7873  1.8673
 1422SOL     OW15898   1.959   1.940   3.825  0.3056  0.3794  0.1268
 1422SOL    HW115899   2.013   1.990   3.763  0.0807  2.0866  1.3047
 1422SOL    HW215900   1.991   1.850   3.813 -0.9296  0.3256 -2.9048
 1423SOL     OW15901   2.035   2.959   0.710 -0.0031  0.7882  0.6124
 1423SOL    HW115902   2.073   2.899   0.646 -2.2437  1.0251 -0.9146
 1423SOL    HW215903   2.020   2.901   0.785 -0.1313 -0.2758 -0.2380
 1424SOL     OW15904   1.791   3.230   0.444  0.0487  0.2745  0.0062
 1424SOL    HW115905   1.750   3.173   0.378  1.2525 -3.3404  2.3807
 1424SOL    HW215906   1.787   3.181   0.526 -0.5747  0.3339  0.0114
 1425SOL     OW15907   1.949   0.482   1.952 -0.1017 -0.0607  0.0242
 1425SOL    HW115908   1.937   0.575   1.936  2.3832  0.3974  0.9504
 1425SOL    HW215909   1.976   0.457   1.863  0.1412  0.6369 -0.0913
 1426SOL     OW15910   3.309   4.009   2.551 -0.2721 -0.2123 -0.3283
 1426SOL    HW115911   3.374   4.021   2.482  1.1944 -0.5779  1.0024
 1426SOL    HW215912   3.312   4.098   2.586  0.4059 -0.9770  1.5350
 1427SOL     OW15913   1.705   0.286   6.138  0.1716 -0.0186  0.3488
 1427SOL    HW115914   1.778   0.225   6.132 -0.4610 -0.7440  0.0248
 1427SOL    HW215915   1.728   0.340   6.062 -1.0000  3.0684  2.1820
 1428SOL     OW15916   2.207   1.671   6.558  0.7998 -0.0805  0.6400
 1428SOL    HW115917   2.300   1.694   6.558  1.0000 -0.9187  0.0451
 1428SOL    HW215918   2.180   1.673   6.650 -1.5649 -0.9510 -0.0365
 1429SOL     OW15919   1.641   1.981   3.379  0.1935  0.5167  0.2149
 1429SOL    HW115920   1.579   1.927   3.427  0.0984 -0.1684 -0.6908
 1429SOL    HW215921   1.716   1.959   3.434  0.7941 -1.3147 -1.3292
 1430SOL     OW15922   0.616   2.192   9.527  0.4132 -0.5511 -0.7335
 1430SOL    HW115923   0.638   2.161   9.615 -0.5846 -1.3610 -0.7650
 1430SOL    HW215924   0.690   2.251   9.514 -0.9945  1.1527 -1.1103
 1431SOL     OW15925   3.516   2.211   3.253  0.2817 -0.0019 -0.1628
 1431SOL    HW115926   3.510   2.126   3.297 -0.3814  0.8582  1.4112
 1431SOL    HW215927   3.476   2.259   3.325  0.3537 -1.5002  0.8752
 1432SOL     OW15928   2.997   3.372  12.655 -0.3735  0.1374  0.6125
 1432SOL    HW115929   2.918   3.372  12.602 -0.8462 -2.2117  1.3380
 1432SOL    HW215930   3.001   3.459  12.695 -0.7819  0.6591 -0.4952
 1433SOL     OW15931   0.703   4.072  17.309  0.2649 -0.1953 -0.6084
 1433SOL    HW115932   0.658   4.109  17.386 -0.2780 -1.2878 -0.4005
 1433SOL    HW215933   0.688   3.983  17.340  1.4528 -0.0051  0.5382
 1434SOL     OW15934   0.296   4.378   0.852  0.6425  0.2580 -0.1693
 1434SOL    HW115935   0.310   4.391   0.758  0.4283 -0.1646 -0.2568
 1434SOL    HW215936   0.380   4.396   0.895  1.0344 -2.6719  0.2586
 1435SOL     OW15937   3.558   4.625   3.755  0.6867  0.2954  0.1522
 1435SOL    HW115938   3.525   4.547   3.710  1.0433 -0.1843  0.7181
 1435SOL    HW215939   3.622   4.593   3.819  0.6965 -1.7182 -0.8458
 1436SOL     OW15940   4.434   0.328   4.257 -0.3761  0.6082  0.2041
 1436SOL    HW115941   4.356   0.373   4.290 -1.1083 -1.8370  1.7854
 1436SOL    HW215942   4.435   0.364   4.168 -1.5369 -0.3626 -0.2066
 1437SOL     OW15943   0.003   3.399  16.395  0.2649  0.1085  0.2866
 1437SOL    HW115944   4.645   3.413  16.396  0.2188 -0.0293 -1.5148
 1437SOL    HW215945   0.043   3.475  16.352  2.8518 -0.3844  1.7994
 1438SOL     OW15946   2.970   1.555   6.867  0.8753  1.0244  0.7721
 1438SOL    HW115947   2.973   1.645   6.899  1.0050  0.7819  1.4497
 1438SOL    HW215948   3.020   1.501   6.929  1.5335 -2.3801 -2.7425
 1439SOL     OW15949   3.528   4.540   5.355 -0.5530  0.2710 -0.1912
 1439SOL    HW115950   3.623   4.533   5.358 -0.6727 -1.4957 -0.4135
 1439SOL    HW215951   3.523   4.543   5.259 -0.0185  1.9980 -0.1507
 1440SOL     OW15952   1.861   0.547  11.119  0.3328  0.3764  0.0933
 1440SOL    HW115953   1.825   0.468  11.161 -0.6378 -0.3868 -2.1717
 1440SOL    HW215954   1.940   0.557  11.173 -0.0288 -0.3500  0.7630
 1441SOL     OW15955   1.244   4.587   6.648  0.2258 -0.2306 -0.0045
 1441SOL    HW115956   1.207   4.518   6.593  0.2703  0.2890 -0.6875
 1441SOL    HW215957   1.320   4.540   6.680  0.7650  0.6572  0.0098
 1442SOL     OW15958   3.793   0.000   5.018 -0.1776  0.2847 -0.3958
 1442SOL    HW115959   3.817   0.021   5.109 -1.9026  0.2564  0.0706
 1442SOL    HW215960   3.857   0.052   4.969  1.6760  0.0200  1.7394
 1443SOL     OW15961   2.836   3.234   6.095 -0.0313 -0.8487 -0.0480
 1443SOL    HW115962   2.748   3.248   6.131  1.1397  1.5874  1.9200
 1443SOL    HW215963   2.874   3.188   6.170  0.5993 -1.7575 -0.9293
 1444SOL     OW15964   0.533   1.857   9.187 -0.0990  0.1111  0.0290
 1444SOL    HW115965   0.555   1.874   9.096  1.7801  0.9324  0.6152
 1444SOL    HW215966   0.447   1.894   9.203  0.2759  0.3107  1.6409
 1445SOL     OW15967   0.898   3.339  11.901  0.5274  0.2436 -0.5917
 1445SOL    HW115968   0.978   3.379  11.866  0.2921  3.1325  2.1967
 1445SOL    HW215969   0.911   3.362  11.993 -3.4949 -0.8184  0.2085
 1446SOL     OW15970   0.948   2.158  11.448 -0.1788  0.3129  0.8939
 1446SOL    HW115971   0.960   2.226  11.382 -2.1864 -0.2980 -0.1219
 1446SOL    HW215972   1.033   2.118  11.464  0.0088 -0.2310 -1.4583
 1447SOL     OW15973   1.124   1.310  13.008  0.4582 -0.2561 -0.1906
 1447SOL    HW115974   1.176   1.326  12.929  2.2875  1.8944  1.4052
 1447SOL    HW215975   1.144   1.221  13.037 -0.5568  0.7826  3.6615
 1448SOL     OW15976   2.345   3.679   2.111  0.5157 -0.1248  0.1637
 1448SOL    HW115977   2.370   3.723   2.192  0.4553 -3.5955  2.0451
 1448SOL    HW215978   2.397   3.599   2.111 -0.1481 -0.5584  0.8542
 1449SOL     OW15979   1.724   3.793  12.518  0.1196 -0.3508 -0.5037
 1449SOL    HW115980   1.738   3.742  12.598 -2.5591 -0.9707 -0.4086
 1449SOL    HW215981   1.800   3.850  12.508 -1.0124  1.3124  0.3466
 1450SOL     OW15982   2.513   0.363   8.401 -0.1174  0.5454  0.1672
 1450SOL    HW115983   2.446   0.305   8.364 -0.6592  3.2264 -3.0630
 1450SOL    HW215984   2.488   0.341   8.491 -1.1054  0.5914 -0.0985
 1451SOL     OW15985   0.493   0.754   2.587  0.1604  0.9392  0.5068
 1451SOL    HW115986   0.418   0.789   2.539  1.0571  0.3359 -1.3113
 1451SOL    HW215987   0.455   0.729   2.671 -1.7558  1.1949 -0.2876
 1452SOL     OW15988   4.526   0.139   8.598 -0.0055 -0.3763  0.0067
 1452SOL    HW115989   4.525   0.229   8.567  0.3427 -0.6212 -0.7091
 1452SOL    HW215990   4.466   0.148   8.672  1.1114  0.3321  0.8283
 1453SOL     OW15991   2.268   3.537  15.439 -0.9430  0.0975  0.1830
 1453SOL    HW115992   2.198   3.472  15.435 -0.8300  0.0235 -0.6359
 1453SOL    HW215993   2.268   3.566  15.348  0.0090  0.4597  0.2995
 1454SOL     OW15994   1.769   1.177   6.392  0.2916  0.0306  0.4583
 1454SOL    HW115995   1.854   1.214   6.366  0.4198 -0.5461  0.0677
 1454SOL    HW215996   1.716   1.197   6.315  1.0028 -1.8073 -0.5052
 1455SOL     OW15997   0.348   3.721   9.216 -0.5255  0.0707 -0.4435
 1455SOL    HW115998   0.324   3.770   9.294 -3.8320 -0.5314 -1.0921
 1455SOL    HW215999   0.354   3.631   9.249 -0.6572  0.1729 -0.1464
 1456SOL     OW16000   3.949   3.591  13.460 -0.4286 -0.1380 -0.3650
 1456SOL    HW116001   3.940   3.543  13.543  3.7730  0.4104  0.4369
 1456SOL    HW216002   3.861   3.584  13.424 -1.3629 -1.8125  2.2864
 1457SOL     OW16003   4.618   2.643   5.675 -0.3445  0.4347 -0.0203
 1457SOL    HW116004   4.689   2.674   5.730 -0.1114  2.0075 -1.2100
 1457SOL    HW216005   4.652   2.562   5.639 -0.9845  0.6984 -1.2293
 1458SOL     OW16006   4.357   1.273   5.648  0.5815  0.4918  0.1849
 1458SOL    HW116007   4.445   1.246   5.673  0.8178 -1.1890 -2.4164
 1458SOL    HW216008   4.327   1.193   5.605 -0.8753 -0.0155  2.1539
 1459SOL     OW16009   2.751   3.191   4.981 -0.3878 -0.0571  0.3861
 1459SOL    HW116010   2.820   3.183   4.915 -0.6691 -1.1913  0.2286
 1459SOL    HW216011   2.683   3.214   4.918  1.1232  1.1511 -0.8136
 1460SOL     OW16012   3.345   1.470  14.325 -0.0397  0.3839 -0.6251
 1460SOL    HW116013   3.382   1.383  14.314  2.2748  1.2037  0.6974
 1460SOL    HW216014   3.402   1.520  14.267  0.4182  0.7528  0.1360
 1461SOL     OW16015   3.824   3.704  17.269 -0.9719 -0.0012  0.1243
 1461SOL    HW116016   3.904   3.732  17.225 -0.6025 -2.0428 -0.4962
 1461SOL    HW216017   3.759   3.751  17.217 -1.4655  0.1423  0.8654
 1462SOL     OW16018   0.519   2.150   7.838  0.2963  0.5471 -0.2337
 1462SOL    HW116019   0.446   2.212   7.844  0.0835  0.0998  1.6972
 1462SOL    HW216020   0.595   2.198   7.804 -0.1266  1.5624  0.2286
 1463SOL     OW16021   3.083   1.578  11.386  0.5260  0.3542 -0.3391
 1463SOL    HW116022   3.030   1.658  11.384 -0.7527 -0.4943  0.1310
 1463SOL    HW216023   3.050   1.537  11.466 -0.4257  1.2521 -0.2708
 1464SOL     OW16024   0.486   2.642   7.847  0.6394  0.5791  0.5562
 1464SOL    HW116025   0.502   2.550   7.866  1.2911  0.5376 -0.1766
 1464SOL    HW216026   0.394   2.660   7.865  0.7192 -0.5521  2.0170
 1465SOL     OW16027   4.217   3.487  13.283 -0.0399  0.4496 -0.6666
 1465SOL    HW116028   4.238   3.549  13.213 -3.0852  2.7033  0.3961
 1465SOL    HW216029   4.281   3.525  13.343 -1.2972 -0.8173  1.4857
 1466SOL     OW16030   1.400   3.253   7.446  0.8954 -0.3215  0.4712
 1466SOL    HW116031   1.357   3.233   7.529 -1.2644  2.5778  0.0439
 1466SOL    HW216032   1.442   3.173   7.414 -1.1418 -1.2885  0.2261
 1467SOL     OW16033   3.301   1.067   4.459  0.1178  0.0662 -0.1411
 1467SOL    HW116034   3.308   1.155   4.422  0.8027  0.2563  0.4369
 1467SOL    HW216035   3.298   1.083   4.553  2.5660 -0.4586  0.0326
 1468SOL     OW16036   2.199   2.504  10.017  0.2535 -0.5877  0.5143
 1468SOL    HW116037   2.190   2.515  10.111 -2.1656 -1.0661  0.3320
 1468SOL    HW216038   2.135   2.434  10.003  0.7851 -1.4088  2.2186
 1469SOL     OW16039   0.816   0.661   7.125 -0.2002  0.5372 -0.5339
 1469SOL    HW116040   0.776   0.747   7.131 -0.8345  0.2054 -0.0664
 1469SOL    HW216041   0.867   0.649   7.205 -1.8785  3.4511  0.9395
 1470SOL     OW16042   4.126   1.519   7.982  0.2084 -0.1811 -0.6046
 1470SOL    HW116043   4.210   1.483   7.952  1.1668  0.8375  0.8546
 1470SOL    HW216044   4.111   1.478   8.068  4.0723  0.8696  0.5689
 1471SOL     OW16045   3.682   2.413   8.072  0.2819 -0.4242  0.6529
 1471SOL    HW116046   3.626   2.462   8.133 -0.5396  1.8997 -1.9684
 1471SOL    HW216047   3.765   2.440   8.112  0.4994 -0.4126  0.1858
 1472SOL     OW16048   4.006   3.186   1.703 -0.1270 -0.1764 -0.3303
 1472SOL    HW116049   3.965   3.105   1.732 -0.7534  0.8401  1.6631
 1472SOL    HW216050   4.040   3.144   1.624 -1.2031  1.2118 -1.5290
 1473SOL     OW16051   4.627   0.355   5.900  0.1031  0.1802  0.3022
 1473SOL    HW116052   4.705   0.331   5.852 -0.1249  1.1055 -0.5299
 1473SOL    HW216053   4.614   0.448   5.880 -0.3329  0.1955  0.6357
 1474SOL     OW16054   0.203   1.940   9.174 -0.6439 -0.0925  0.2453
 1474SOL    HW116055   0.110   1.957   9.186  0.1008  2.8923  1.8540
 1474SOL    HW216056   0.243   1.987   9.247  2.1411 -3.7967  1.1409
 1475SOL     OW16057   4.479   1.728   3.703  0.3401  0.2184 -0.1363
 1475SOL    HW116058   4.415   1.708   3.771 -1.1855 -1.7455 -2.1464
 1475SOL    HW216059   4.543   1.783   3.748  1.5836 -0.4626 -1.0516
 1476SOL     OW16060   2.272   4.490   8.193 -0.7020 -0.8880  0.0121
 1476SOL    HW116061   2.221   4.412   8.219 -1.3382 -0.0000  1.4166
 1476SOL    HW216062   2.232   4.512   8.109 -0.5862 -1.6912 -0.2580
 1477SOL     OW16063   0.645   3.467   5.696 -0.1527  0.6016 -0.2089
 1477SOL    HW116064   0.559   3.508   5.694 -0.6278 -0.3513  0.6237
 1477SOL    HW216065   0.702   3.542   5.713 -2.6047  2.1287  1.2379
 1478SOL     OW16066   0.978   2.854  13.757 -0.3840 -0.7933  0.5142
 1478SOL    HW116067   0.981   2.758  13.757 -0.4786 -0.7921 -2.0425
 1478SOL    HW216068   1.059   2.879  13.712 -1.8213  0.1794 -1.5556
 1479SOL     OW16069   2.734   4.173  12.073 -0.0600  0.0870  0.1810
 1479SOL    HW116070   2.647   4.209  12.056 -0.1446 -0.0759  0.2620
 1479SOL    HW216071   2.730   4.082  12.044 -0.6575  0.5194 -1.0546
 1480SOL     OW16072   0.817   2.737   6.706 -0.0349  0.0205 -0.4223
 1480SOL    HW116073   0.851   2.655   6.739  2.0225  0.9390 -0.2962
 1480SOL    HW216074   0.723   2.717   6.709  0.3954 -1.4494  2.7658
 1481SOL     OW16075   0.861   4.493  13.690 -0.5009 -0.1526  0.2997
 1481SOL    HW116076   0.816   4.562  13.643  1.0078  1.6879  1.5734
 1481SOL    HW216077   0.922   4.544  13.743 -2.1466  0.2574  1.7882
 1482SOL     OW16078   3.016   0.681   7.423 -0.4513 -0.4839 -0.8513
 1482SOL    HW116079   3.007   0.746   7.353 -0.4278  1.1190  0.6393
 1482SOL    HW216080   3.105   0.650   7.414 -0.0832  0.7954 -1.6685
 1483SOL     OW16081   1.826   1.257   1.871 -1.0723  0.3817 -0.5944
 1483SOL    HW116082   1.779   1.174   1.860  1.7600 -1.4949  1.3349
 1483SOL    HW216083   1.753   1.318   1.883  1.0938  3.0797 -1.1036
 1484SOL     OW16084   3.442   3.300   9.828 -0.0779  0.0603  0.2582
 1484SOL    HW116085   3.353   3.329   9.848 -0.3170  1.0864 -2.2102
 1484SOL    HW216086   3.453   3.220   9.879  3.0090  0.5687  0.4263
 1485SOL     OW16087   2.883   4.300   7.057  0.5540  0.3897 -0.2422
 1485SOL    HW116088   2.827   4.249   6.998 -0.0685 -0.1394  0.8047
 1485SOL    HW216089   2.814   4.322   7.120 -1.8683  0.8995 -3.1240
 1486SOL     OW16090   1.927   2.763   9.403  0.1270 -0.1586 -0.6295
 1486SOL    HW116091   1.867   2.718   9.343  0.8082 -0.1922 -1.2907
 1486SOL    HW216092   1.862   2.791   9.467  0.8603 -2.9041  1.3226
 1487SOL     OW16093   4.664   0.160   6.900 -0.5370 -0.0139 -0.2183
 1487SOL    HW116094   4.583   0.134   6.856 -0.4995 -2.4187  1.1657
 1487SOL    HW216095   4.666   0.255   6.885 -0.0996 -0.3502 -2.2974
 1488SOL     OW16096   0.190   3.675  17.042  0.1579  0.4763 -0.3549
 1488SOL    HW116097   0.274   3.653  17.084 -0.5263  2.4049  2.0335
 1488SOL    HW216098   0.179   3.758  17.090  1.8774 -0.5329  1.8364
 1489SOL     OW16099   4.098   1.698   7.191  0.2329 -0.3881 -0.2549
 1489SOL    HW116100   4.076   1.749   7.113  2.3410 -0.3967 -0.8483
 1489SOL    HW216101   4.188   1.667   7.184  0.5862 -0.0699  2.8696
 1490SOL     OW16102   0.551   4.353   9.590  0.3005 -0.2609  0.3836
 1490SOL    HW116103   0.598   4.286   9.639  1.0697  0.4524  0.6389
 1490SOL    HW216104   0.621   4.416   9.573 -1.6639  1.4940 -1.2470
 1491SOL     OW16105   3.241   4.264   0.031  0.0401  0.0029 -0.1013
 1491SOL    HW116106   3.177   4.334   0.042  0.3592  0.0622  1.3011
 1491SOL    HW216107   3.206   4.224  17.695 -1.6023 -0.6274  0.9308
 1492SOL     OW16108   0.437   0.026   9.609 -0.3051  0.0829 -0.6206
 1492SOL    HW116109   0.395   4.708   9.676  3.1155  0.3136  1.7464
 1492SOL    HW216110   0.413   4.720   9.527  0.9855  3.5038 -2.7613
 1493SOL     OW16111   0.866   1.340   2.955 -0.2696  0.0317  0.3632
 1493SOL    HW116112   0.790   1.282   2.947 -1.6994  2.5153 -4.3393
 1493SOL    HW216113   0.826   1.421   2.923 -0.8069  0.2213  1.5116
 1494SOL     OW16114   4.345   1.408   6.337  0.2219 -0.8237  0.2679
 1494SOL    HW116115   4.315   1.409   6.428 -1.7985  0.9739 -0.4090
 1494SOL    HW216116   4.421   1.351   6.332  0.3489 -0.6033 -0.4013
 1495SOL     OW16117   0.391   0.962   8.866  0.6186  0.4449 -0.0940
 1495SOL    HW116118   0.410   0.977   8.773 -1.0153 -0.8188 -0.6475
 1495SOL    HW216119   0.472   0.993   8.906  0.1829  2.3436 -0.6760
 1496SOL     OW16120   4.000   0.476   7.350  0.0875 -0.1375 -0.0930
 1496SOL    HW116121   3.953   0.478   7.434 -3.6370 -1.5254 -2.1107
 1496SOL    HW216122   4.092   0.478   7.373 -0.5445  2.7816  2.2562
 1497SOL     OW16123   0.439   0.447   8.145  0.6503 -0.3817  0.4736
 1497SOL    HW116124   0.366   0.386   8.152  0.4571 -0.0121  1.7269
 1497SOL    HW216125   0.492   0.429   8.068  1.5616 -0.9474  1.2328
 1498SOL     OW16126   0.684   1.527   6.388 -0.7838 -0.8514  0.0758
 1498SOL    HW116127   0.699   1.437   6.420  0.0654 -1.7929 -2.9935
 1498SOL    HW216128   0.764   1.566   6.423 -0.5619 -0.9990 -0.2697
 1499SOL     OW16129   0.179   1.716   9.694  0.1449  0.4459 -0.1758
 1499SOL    HW116130   0.226   1.675   9.767 -0.8154 -1.1885 -0.4614
 1499SOL    HW216131   0.137   1.793   9.733  0.1323  2.0894 -3.4492
 1500SOL     OW16132   3.897   2.954  16.313 -0.9234 -0.8052 -0.2978
 1500SOL    HW116133   3.881   2.880  16.373 -0.4564 -0.0818  0.7239
 1500SOL    HW216134   3.910   2.899  16.236 -2.9370 -2.6303  0.6569
 1501SOL     OW16135   1.046   3.352   2.616  0.3967 -0.3729 -0.3749
 1501SOL    HW116136   1.025   3.443   2.635 -0.6001 -0.3376 -1.7136
 1501SOL    HW216137   0.985   3.301   2.670 -2.1143  1.8349 -1.1157
 1502SOL     OW16138   0.856   2.099   6.045  0.2252  0.3772 -0.3442
 1502SOL    HW116139   0.924   2.071   5.984  0.8664 -0.5434  0.8131
 1502SOL    HW216140   0.833   2.179   5.996 -0.1032 -0.1256 -1.0080
 1503SOL     OW16141   3.005   4.274   7.661 -0.9581 -0.2332 -0.1244
 1503SOL    HW116142   2.977   4.331   7.590  1.7658  1.3894  0.1187
 1503SOL    HW216143   2.995   4.326   7.741  0.5185 -1.4027  0.8262
 1504SOL     OW16144   0.233   2.142   4.996 -1.1747  0.3954 -0.4614
 1504SOL    HW116145   0.174   2.183   4.933 -2.9997  2.0800  2.3434
 1504SOL    HW216146   0.244   2.052   4.965  0.8579  0.1077  1.1004
 1505SOL     OW16147   2.411   3.370  17.556  0.2874  0.0163  0.0369
 1505SOL    HW116148   2.338   3.330  17.603 -0.2824 -0.6185 -1.4050
 1505SOL    HW216149   2.469   3.399  17.627 -1.0573 -1.1934  1.6265
 1506SOL     OW16150   0.023   2.573   3.695  0.3318  0.7404 -0.4547
 1506SOL    HW116151   4.712   2.574   3.778 -1.0780 -2.1953 -1.2103
 1506SOL    HW216152   4.726   2.649   3.649 -1.4022 -0.1008 -0.5850
 1507SOL     OW16153   0.538   3.346   8.314  0.1515 -0.0175 -0.1483
 1507SOL    HW116154   0.622   3.354   8.359 -0.6592  1.7777  1.0503
 1507SOL    HW216155   0.489   3.387   8.385 -0.9689 -0.9659 -0.3762
 1508SOL     OW16156   1.602   3.394   7.952  0.4726 -0.7195  0.0467
 1508SOL    HW116157   1.686   3.364   7.986  0.9683  1.7988  1.0627
 1508SOL    HW216158   1.539   3.349   8.007 -0.9549 -2.0017 -2.6074
 1509SOL     OW16159   0.825   2.643   8.773  0.1999  0.2218 -0.2724
 1509SOL    HW116160   0.757   2.614   8.712  0.4796 -1.3322  0.1634
 1509SOL    HW216161   0.866   2.711   8.718  0.9168 -1.5463 -1.9143
 1510SOL     OW16162   3.794   0.330   8.569  0.4674  0.5885 -0.2908
 1510SOL    HW116163   3.837   0.339   8.483 -1.7523 -0.8109 -1.5532
 1510SOL    HW216164   3.707   0.364   8.547  0.4768 -0.1367 -1.4737
 1511SOL     OW16165   1.084   4.140  10.564  0.1486  0.1930 -0.3872
 1511SOL    HW116166   1.039   4.057  10.580 -1.9620  1.2463 -0.7474
 1511SOL    HW216167   1.104   4.135  10.470  0.4368 -0.1253 -0.3061
 1512SOL     OW16168   1.203   1.704  17.269 -0.4302 -0.2168  0.3439
 1512SOL    HW116169   1.216   1.756  17.349  0.5985 -0.0329  0.0587
 1512SOL    HW216170   1.163   1.626  17.307 -0.4383  0.6144  2.0567
 1513SOL     OW16171   1.509   2.711  15.082  0.0212  0.6533 -0.1512
 1513SOL    HW116172   1.490   2.741  14.994  1.9490 -0.3780 -0.9100
 1513SOL    HW216173   1.604   2.697  15.090 -0.1423 -0.0366  0.5272
 1514SOL     OW16174   4.191   3.463   9.256  0.1698 -0.4616  0.0449
 1514SOL    HW116175   4.282   3.482   9.233  0.1536 -0.3173  0.1009
 1514SOL    HW216176   4.196   3.407   9.334 -1.1328 -2.2008 -1.1100
 1515SOL     OW16177   0.348   1.486  16.294 -0.0050  0.2339 -0.2737
 1515SOL    HW116178   0.285   1.537  16.243 -0.3865 -0.3180 -0.3532
 1515SOL    HW216179   0.427   1.539  16.279  1.8981 -2.4085  0.4875
 1516SOL     OW16180   4.193   2.309   4.560  0.5397 -0.3327 -0.5631
 1516SOL    HW116181   4.207   2.329   4.467 -0.3486 -0.9581 -0.8231
 1516SOL    HW216182   4.189   2.215   4.543 -0.2804 -0.6595  1.4420
 1517SOL     OW16183   1.376   2.018  12.499  0.1363  0.0493 -0.2478
 1517SOL    HW116184   1.305   2.061  12.453  0.7426 -0.0101 -1.2307
 1517SOL    HW216185   1.415   2.092  12.545  1.1761  0.0284 -1.0969
 1518SOL     OW16186   2.625   4.271  16.336  0.0191  0.0284 -0.3138
 1518SOL    HW116187   2.627   4.175  16.333 -0.4162  0.0693 -1.6120
 1518SOL    HW216188   2.719   4.289  16.330 -0.3773  2.4385  0.6531
 1519SOL     OW16189   0.602   2.279   3.860  0.6505  0.7598 -0.2159
 1519SOL    HW116190   0.669   2.345   3.840  2.3122 -0.7019  0.5514
 1519SOL    HW216191   0.621   2.248   3.948  0.9560  1.6015  0.0096
 1520SOL     OW16192   0.186   4.301  11.761  0.2276  0.0238  0.6876
 1520SOL    HW116193   0.272   4.318  11.798 -0.7737  2.1097  2.0964
 1520SOL    HW216194   0.181   4.210  11.793  0.0887  0.0176  0.6498
 1521SOL     OW16195   3.016   2.420  11.960  0.3666 -0.0147 -0.1870
 1521SOL    HW116196   2.984   2.451  11.875  1.4269 -2.0662 -1.3455
 1521SOL    HW216197   3.052   2.504  11.989 -3.0931  1.0109  1.0364
 1522SOL     OW16198   2.101   3.494   8.167  0.0032  0.6686  0.3915
 1522SOL    HW116199   2.007   3.477   8.174  0.0322  0.8139  1.1421
 1522SOL    HW216200   2.108   3.590   8.164  2.0817  0.5375  1.2563
 1523SOL     OW16201   0.904   3.145   2.428 -0.7200 -0.2425 -0.0793
 1523SOL    HW116202   0.868   3.178   2.510 -0.4111 -0.5162  0.1656
 1523SOL    HW216203   0.982   3.201   2.426 -1.7907  1.0555 -4.5526
 1524SOL     OW16204   4.588   4.666   0.670 -0.5703  0.7355 -0.3982
 1524SOL    HW116205   4.619   4.602   0.606  0.1339 -0.2566  0.9369
 1524SOL    HW216206   4.672   4.694   0.707 -0.4137  0.0862 -0.2701
 1525SOL     OW16207   0.852   3.499   4.108 -0.4313  0.1245  1.2877
 1525SOL    HW116208   0.913   3.524   4.177 -0.1464  0.3196  0.9697
 1525SOL    HW216209   0.778   3.462   4.156 -1.2342  0.4494  0.3034
 1526SOL     OW16210   2.711   0.283   7.718 -0.4794  0.0032  0.0824
 1526SOL    HW116211   2.731   0.376   7.728 -0.2410 -0.1101  0.6171
 1526SOL    HW216212   2.769   0.253   7.787 -0.8272 -0.6740  0.0772
 1527SOL     OW16213   1.637   2.636   5.184  0.2155 -0.0796 -0.3758
 1527SOL    HW116214   1.648   2.679   5.269 -0.8424 -0.6648  0.0459
 1527SOL    HW216215   1.572   2.569   5.201 -1.1276  1.4539  0.5091
 1528SOL     OW16216   4.464   3.538   6.464  0.0232 -0.0832  0.0627
 1528SOL    HW116217   4.495   3.530   6.373 -1.1532  2.5029 -0.5710
 1528SOL    HW216218   4.508   3.460   6.498  0.7404 -0.0578 -0.8027
 1529SOL     OW16219   1.373   0.112  11.295  0.3593  0.1966  0.7073
 1529SOL    HW116220   1.422   0.073  11.222 -0.5326 -1.1178  0.8003
 1529SOL    HW216221   1.427   0.092  11.371 -1.5547  2.0018  2.5234
 1530SOL     OW16222   0.381   0.815   6.300  0.1108  0.2022  0.1421
 1530SOL    HW116223   0.339   0.781   6.380  0.4083  2.2923  1.1764
 1530SOL    HW216224   0.458   0.758   6.293 -1.2661 -1.6448  0.0128
 1531SOL     OW16225   3.566   4.271   6.258 -0.4055 -0.0670  0.8145
 1531SOL    HW116226   3.639   4.317   6.299  1.5717 -2.9217  0.4861
 1531SOL    HW216227   3.576   4.182   6.292  1.7375  0.2400  0.9432
 1532SOL     OW16228   3.393   2.360  16.078  0.1077 -0.0495 -0.4231
 1532SOL    HW116229   3.448   2.377  16.002 -0.4978  1.3644 -0.5449
 1532SOL    HW216230   3.309   2.398  16.052  1.1575  2.2599 -0.3990
 1533SOL     OW16231   1.812   1.272   4.302  0.5306  0.1977  0.1391
 1533SOL    HW116232   1.760   1.243   4.228  5.0979 -0.7708 -2.7213
 1533SOL    HW216233   1.851   1.358   4.284  0.6786 -0.0304 -0.6448
 1534SOL     OW16234   3.414   3.782   2.005 -0.3174  0.0656 -0.4609
 1534SOL    HW116235   3.419   3.820   1.917 -1.8528 -1.6252 -1.2789
 1534SOL    HW216236   3.505   3.792   2.031 -0.5331  1.1271 -0.0805
 1535SOL     OW16237   2.698   1.612   4.055  0.1463 -1.1395 -0.2396
 1535SOL    HW116238   2.739   1.619   3.969 -0.2539  0.1069 -0.3272
 1535SOL    HW216239   2.690   1.706   4.074 -0.8108 -1.3909  0.6295
 1536SOL     OW16240   0.384   2.636   2.196  0.0020  0.0998  0.0291
 1536SOL    HW116241   0.292   2.623   2.218 -0.4748  1.4021 -1.2527
 1536SOL    HW216242   0.416   2.702   2.258  0.9336  0.7354 -1.1315
 1537SOL     OW16243   2.323   3.197   1.641 -0.1848  0.3396  0.5883
 1537SOL    HW116244   2.347   3.280   1.681 -0.8946 -0.0701  1.8660
 1537SOL    HW216245   2.359   3.209   1.553  0.6580  2.4824  1.2329
 1538SOL     OW16246   0.123   0.910   5.035 -0.0112  0.0386  0.1846
 1538SOL    HW116247   0.155   0.986   4.987  1.9352 -1.1666 -0.4182
 1538SOL    HW216248   0.117   0.947   5.123 -1.2870  0.7439 -0.1996
 1539SOL     OW16249   3.622   3.398   6.695  0.3779 -0.4861 -0.6300
 1539SOL    HW116250   3.605   3.309   6.725 -0.1830 -1.2172 -3.0972
 1539SOL    HW216251   3.538   3.430   6.661  0.4029 -0.3784 -0.5893
 1540SOL     OW16252   2.083   4.466   4.069  0.3793 -0.0720  0.8864
 1540SOL    HW116253   2.037   4.386   4.096  0.1431 -0.6212 -1.1409
 1540SOL    HW216254   2.176   4.444   4.065  0.9243  2.3047  0.6669
 1541SOL     OW16255   4.178   1.907   9.831 -0.4743 -0.3061 -0.7429
 1541SOL    HW116256   4.239   1.842   9.796  1.8682  1.1032  0.6744
 1541SOL    HW216257   4.219   1.913   9.918 -1.4081  2.9811 -0.5463
 1542SOL     OW16258   0.634   2.149   5.401 -0.6665  0.3802  0.6320
 1542SOL    HW116259   0.601   2.073   5.353 -0.2621 -0.6169  1.9626
 1542SOL    HW216260   0.697   2.173   5.333 -0.8498  0.7027  0.5750
 1543SOL     OW16261   3.402   4.071   3.029  0.5244  0.4376  0.1485
 1543SOL    HW116262   3.416   3.997   3.087 -0.5143  2.3904  2.8703
 1543SOL    HW216263   3.481   4.046   2.981  1.3079  1.0068  1.1625
 1544SOL     OW16264   2.846   4.588   5.632  0.2534 -0.2863 -0.2221
 1544SOL    HW116265   2.890   4.537   5.699 -1.1034  1.9747  2.3961
 1544SOL    HW216266   2.911   4.587   5.561  0.3203 -1.6648 -0.1325
 1545SOL     OW16267   3.880   3.961   9.342  0.0961  0.2410 -0.3640
 1545SOL    HW116268   3.899   3.868   9.349 -0.1392  0.0679 -2.0635
 1545SOL    HW216269   3.791   3.962   9.376  0.8581  1.7611  1.6246
 1546SOL     OW16270   4.724   3.399   1.789  0.1751 -0.4438  0.4191
 1546SOL    HW116271   0.001   3.440   1.875  2.2820 -1.8782  0.7581
 1546SOL    HW216272   4.629   3.384   1.796 -0.1036  1.1711 -0.0035
 1547SOL     OW16273   3.135   0.201   2.090 -0.3018  0.0765 -0.0876
 1547SOL    HW116274   3.056   0.255   2.088 -0.2087  0.2047 -0.3550
 1547SOL    HW216275   3.091   0.118   2.073 -0.5585  0.0374  0.7590
 1548SOL     OW16276   0.932   3.335   7.278  0.1942 -0.7763  0.4086
 1548SOL    HW116277   0.913   3.243   7.293 -0.8837 -0.4478  1.0593
 1548SOL    HW216278   0.934   3.344   7.183  1.9691  2.1840  0.7265
 1549SOL     OW16279   2.933   4.165   8.231 -0.5364  0.4953 -0.1040
 1549SOL    HW116280   2.971   4.081   8.257 -2.1830 -0.9133 -2.2060
 1549SOL    HW216281   2.980   4.176   8.149 -2.4072  1.1633 -1.0982
 1550SOL     OW16282   1.548   3.123   6.604  0.5467  0.0909 -0.1449
 1550SOL    HW116283   1.581   3.165   6.684  0.7544  5.1039 -2.8455
 1550SOL    HW216284   1.477   3.072   6.645  1.5743 -1.1659  0.0529
 1551SOL     OW16285   1.627   4.503   3.919 -0.1204  0.2172 -0.0098
 1551SOL    HW116286   1.680   4.583   3.929  2.0760 -1.0385 -1.7269
 1551SOL    HW216287   1.557   4.521   3.982  0.3980 -0.2508  0.7071
 1552SOL     OW16288   0.596   3.348  17.488 -0.0397 -0.2355 -0.7848
 1552SOL    HW116289   0.656   3.290  17.535  1.7982  0.7290 -1.9484
 1552SOL    HW216290   0.591   3.315  17.398  1.8410  0.0412 -0.9856
 1553SOL     OW16291   1.285   0.556   3.625  0.2068  0.1383  0.1107
 1553SOL    HW116292   1.339   0.574   3.548 -1.5972  0.2295 -1.1428
 1553SOL    HW216293   1.351   0.537   3.692  0.7983 -0.0181 -0.5214
 1554SOL     OW16294   4.567   3.528   7.676 -0.5610  0.7474  0.3029
 1554SOL    HW116295   4.481   3.562   7.654 -0.4589  0.3694 -0.7356
 1554SOL    HW216296   4.568   3.457   7.611 -1.7496 -1.7671  3.0128
 1555SOL     OW16297   2.189   1.791  16.269  0.1578  0.2830 -0.0903
 1555SOL    HW116298   2.234   1.861  16.221  0.5710  0.0912  0.0204
 1555SOL    HW216299   2.254   1.778  16.338  0.5058  1.0793 -0.2579
 1556SOL     OW16300   1.813   2.562  10.675 -0.1423  0.7630  1.1542
 1556SOL    HW116301   1.736   2.527  10.719 -0.7564  0.0820 -0.4650
 1556SOL    HW216302   1.881   2.533  10.736  2.0267 -0.4716 -1.8353
 1557SOL     OW16303   3.195   2.835   6.885 -0.2502 -0.2168  0.2909
 1557SOL    HW116304   3.152   2.822   6.970 -1.5458  1.6798 -0.0599
 1557SOL    HW216305   3.274   2.884   6.908 -1.9042  0.1648  5.2549
 1558SOL     OW16306   1.416   2.714   2.176 -0.1623 -0.2073  0.4216
 1558SOL    HW116307   1.459   2.776   2.117  2.3576 -0.8759  1.5686
 1558SOL    HW216308   1.333   2.760   2.184 -0.3452 -0.4660  0.0467
 1559SOL     OW16309   2.685   2.812   8.076  0.5042 -0.2275 -0.0452
 1559SOL    HW116310   2.712   2.785   8.164  1.0282  1.2375  0.2510
 1559SOL    HW216311   2.658   2.723   8.053  1.8177 -0.6719  0.1197
 1560SOL     OW16312   0.077   0.758   2.917  0.6996  0.0918  1.0464
 1560SOL    HW116313   0.109   0.699   2.850 -2.4538 -0.1537 -0.2489
 1560SOL    HW216314   0.135   0.832   2.901  0.3398  0.3853  1.0936
 1561SOL     OW16315   0.530   4.300   3.720  0.2379  0.7070  0.1576
 1561SOL    HW116316   0.456   4.326   3.775 -0.9023  2.4915 -2.2344
 1561SOL    HW216317   0.490   4.254   3.646 -0.7688  0.2080  0.9992
 1562SOL     OW16318   3.989   4.124   1.778 -0.3098 -0.1045 -0.0069
 1562SOL    HW116319   4.033   4.202   1.743 -0.2120 -0.4766 -0.7335
 1562SOL    HW216320   4.021   4.122   1.868 -0.2745  0.9654  0.0066
 1563SOL     OW16321   2.609   4.613   7.160 -0.8058 -0.0556 -0.2839
 1563SOL    HW116322   2.588   4.628   7.252 -1.9935 -0.3676 -0.5044
 1563SOL    HW216323   2.522   4.639   7.132 -0.0508 -0.7541 -3.2613
 1564SOL     OW16324   4.187   1.091  16.978  0.0028 -0.0704 -0.4067
 1564SOL    HW116325   4.231   1.121  16.899  2.3414  1.5173  1.4704
 1564SOL    HW216326   4.096   1.102  16.951  0.4428  0.6999 -1.5567
 1565SOL     OW16327   4.545   0.752   7.642 -0.0486 -0.0566 -0.2729
 1565SOL    HW116328   4.576   0.785   7.558  0.4465  2.4934  0.9011
 1565SOL    HW216329   4.492   0.828   7.668  2.3163  1.8972 -1.1741
 1566SOL     OW16330   3.036   4.061   7.537 -0.3506  0.0333 -0.3355
 1566SOL    HW116331   2.943   4.042   7.535 -0.4770  0.7967 -1.8400
 1566SOL    HW216332   3.040   4.140   7.591 -0.6129 -0.3387  0.2235
 1567SOL     OW16333   4.492   4.616   7.151 -0.2415  0.3445 -0.1634
 1567SOL    HW116334   4.437   4.666   7.091 -1.8321  0.0637  1.0516
 1567SOL    HW216335   4.445   4.534   7.165 -1.2482  0.7103 -1.4112
 1568SOL     OW16336   2.799   0.348  10.408 -0.1938 -0.2814 -0.1986
 1568SOL    HW116337   2.841   0.430  10.433 -0.1921 -0.3394 -0.0026
 1568SOL    HW216338   2.796   0.302  10.492 -1.8394 -0.2620 -0.2410
 1569SOL     OW16339   0.332   3.961  16.771 -0.4503  0.0018 -0.3967
 1569SOL    HW116340   0.299   3.966  16.861 -0.1373  0.9127 -0.3340
 1569SOL    HW216341   0.282   4.030  16.728 -1.3723 -0.6396 -0.3545
 1570SOL     OW16342   4.564   2.476  11.743  0.5901  0.0841  0.0548
 1570SOL    HW116343   4.644   2.521  11.770  1.9637 -1.9418 -0.6421
 1570SOL    HW216344   4.543   2.500  11.653 -1.4418  0.2226  0.5767
 1571SOL     OW16345   2.329   4.320   5.007  0.4067 -0.0007 -0.3852
 1571SOL    HW116346   2.386   4.244   5.021  1.6345  1.0418  0.2509
 1571SOL    HW216347   2.295   4.333   5.096  0.7946  0.1885 -0.2652
 1572SOL     OW16348   1.068   0.323   5.232  0.0207 -0.7839 -0.3939
 1572SOL    HW116349   1.091   0.330   5.140 -1.0641  0.7030 -0.5611
 1572SOL    HW216350   1.008   0.249   5.219 -0.2089 -0.5562 -0.6163
 1573SOL     OW16351   2.528   2.889   6.493 -0.6264 -0.0599  0.2142
 1573SOL    HW116352   2.608   2.859   6.450 -0.7793  1.1928 -0.9201
 1573SOL    HW216353   2.512   2.980   6.468  2.0863  0.1833 -0.6187
 1574SOL     OW16354   2.646   2.969   6.799 -0.1202  0.7605 -0.2552
 1574SOL    HW116355   2.552   2.986   6.806 -0.9045 -2.2666 -4.1223
 1574SOL    HW216356   2.662   3.023   6.722 -0.1214  0.8500 -0.1926
 1575SOL     OW16357   3.392   0.350   3.315  0.3343  0.3213 -0.2524
 1575SOL    HW116358   3.414   0.422   3.374 -0.2684  1.1068 -1.0004
 1575SOL    HW216359   3.351   0.295   3.382  0.5501 -1.4383 -1.5638
 1576SOL     OW16360   4.715   3.054  11.718 -0.3448  0.6346 -0.3841
 1576SOL    HW116361   0.054   3.061  11.776  0.1244 -2.4728 -0.6429
 1576SOL    HW216362   4.687   2.963  11.721 -3.1363  1.3933 -2.2982
 1577SOL     OW16363   4.311   3.910   3.071  0.2137 -0.1346 -0.1755
 1577SOL    HW116364   4.223   3.946   3.060  0.9821  2.0382  0.7178
 1577SOL    HW216365   4.343   3.951   3.152 -3.4382  0.2930  1.0392
 1578SOL     OW16366   0.538   4.434   0.961  0.1278  0.8759  0.8021
 1578SOL    HW116367   0.572   4.378   1.030 -0.3658 -1.0359 -0.5135
 1578SOL    HW216368   0.615   4.478   0.924  1.2555 -1.4705  0.3859
 1579SOL     OW16369   4.256   0.836  17.656  0.1856  0.1831 -0.1437
 1579SOL    HW116370   4.349   0.816  17.672  0.1805 -0.5493 -1.0382
 1579SOL    HW216371   4.213   0.754  17.678 -2.0313  1.5699  0.6920
 1580SOL     OW16372   2.785   2.905   3.074  0.2415 -0.3376 -0.6005
 1580SOL    HW116373   2.771   2.965   3.000 -1.8165  0.6404  0.5812
 1580SOL    HW216374   2.868   2.867   3.047  0.3551  0.5275 -1.4986
 1581SOL     OW16375   2.670   3.391   9.945 -0.4427 -0.2461  0.2428
 1581SOL    HW116376   2.682   3.343  10.027  0.9504 -1.6070 -0.7543
 1581SOL    HW216377   2.575   3.395   9.954 -0.4294  1.5637 -0.3724
 1582SOL     OW16378   3.675   3.378   0.464 -0.1914 -0.2557 -0.6431
 1582SOL    HW116379   3.620   3.305   0.492  1.7905 -1.0724  1.0851
 1582SOL    HW216380   3.611   3.450   0.463 -0.6273 -0.6505 -1.6167
 1583SOL     OW16381   0.968   3.140   5.813  0.3166 -0.0724  0.3808
 1583SOL    HW116382   0.893   3.092   5.849  1.6080 -0.2182  2.8725
 1583SOL    HW216383   0.966   3.214   5.873 -0.0470  0.1217  0.1308
 1584SOL     OW16384   0.805   3.674  11.365  0.4921  0.1727 -0.3521
 1584SOL    HW116385   0.743   3.641  11.301  1.7073  0.2699 -1.5837
 1584SOL    HW216386   0.891   3.663  11.324  0.4355  1.9040 -0.9195
 1585SOL     OW16387   0.095   3.550   8.840 -0.1435 -0.2447 -0.3886
 1585SOL    HW116388   0.029   3.608   8.804 -0.4608 -0.4683 -0.1665
 1585SOL    HW216389   0.146   3.553   8.759 -1.4951 -1.0913 -1.2676
 1586SOL     OW16390   2.223   4.669   7.533 -0.6360 -0.4350 -0.0480
 1586SOL    HW116391   2.228   0.027   7.543  0.3421 -0.4487 -0.3721
 1586SOL    HW216392   2.275   4.633   7.605 -0.8284 -0.2978  0.1578
 1587SOL     OW16393   4.317   1.994   9.572  0.1000  0.5189  0.0633
 1587SOL    HW116394   4.405   2.026   9.550  1.3976 -0.9649  2.9392
 1587SOL    HW216395   4.268   2.015   9.493  0.3201  1.3631  0.1425
 1588SOL     OW16396   3.642   4.101  12.527  0.1175  0.7446 -0.2144
 1588SOL    HW116397   3.711   4.103  12.461  0.8871  1.0853  0.6044
 1588SOL    HW216398   3.576   4.130  12.464 -0.0287 -1.7374 -1.2034
 1589SOL     OW16399   3.571   2.292   5.212 -0.3042 -0.1639 -0.4916
 1589SOL    HW116400   3.491   2.345   5.207 -0.7488 -0.7842  0.0439
 1589SOL    HW216401   3.604   2.294   5.122  0.2659  0.9797 -0.2577
 1590SOL     OW16402   4.200   4.434   3.243 -0.1412  0.8075  0.1556
 1590SOL    HW116403   4.277   4.380   3.263 -0.6151  0.4968  1.1256
 1590SOL    HW216404   4.213   4.513   3.294 -1.3043  0.0303  1.6393
 1591SOL     OW16405   3.884   3.885  15.923 -0.4818  0.2370 -1.1059
 1591SOL    HW116406   3.846   3.947  15.985  1.2803 -0.8821  1.0980
 1591SOL    HW216407   3.947   3.837  15.977 -1.7576  1.8167  1.7757
 1592SOL     OW16408   4.638   2.358  10.497 -0.1203  0.2010 -0.2374
 1592SOL    HW116409   4.726   2.327  10.476 -1.1333 -1.6142 -1.8196
 1592SOL    HW216410   4.592   2.279  10.526 -1.3129 -0.1738 -3.1527
 1593SOL     OW16411   3.983   0.416  15.473  0.2145  0.3632 -0.0220
 1593SOL    HW116412   3.969   0.385  15.383 -0.6033  1.7318 -0.3817
 1593SOL    HW216413   3.981   0.512  15.469 -2.7590  0.3644  1.1353
 1594SOL     OW16414   2.916   0.849   7.637  0.3301 -0.1897 -0.3538
 1594SOL    HW116415   2.939   0.827   7.727 -1.2482  0.2851  0.1626
 1594SOL    HW216416   2.964   0.784   7.585  1.6152  1.2756 -0.9768
 1595SOL     OW16417   0.841   4.453   1.116 -0.3524  0.3632 -0.4560
 1595SOL    HW116418   0.779   4.525   1.125  0.8210  1.3301 -0.1975
 1595SOL    HW216419   0.897   4.487   1.046 -0.4510  1.0773 -0.1825
 1596SOL     OW16420   4.372   4.383  16.584  0.0967  0.1816 -0.0413
 1596SOL    HW116421   4.386   4.288  16.590  0.4894  0.2197 -0.3802
 1596SOL    HW216422   4.461   4.412  16.567 -0.3474  0.6223 -1.6308
 1597SOL     OW16423   0.623   0.838   4.823 -0.2952 -0.0437  0.1572
 1597SOL    HW116424   0.675   0.771   4.868 -0.1085  0.5791  0.8605
 1597SOL    HW216425   0.570   0.775   4.774  3.0532 -1.2475 -1.9007
 1598SOL     OW16426   1.199   0.588   7.536 -0.3048  0.5379 -0.1906
 1598SOL    HW116427   1.172   0.556   7.622 -1.3997  0.3817 -0.5935
 1598SOL    HW216428   1.253   0.660   7.569  1.4964 -0.5208 -0.8160
 1599SOL     OW16429   3.871   3.436   0.664  0.0263 -0.0437 -0.2513
 1599SOL    HW116430   3.786   3.415   0.623  1.5595 -1.0424 -2.9087
 1599SOL    HW216431   3.925   3.442   0.585  2.9802 -0.5409  1.7448
 1600SOL     OW16432   4.404   4.031   3.316  0.7110  0.1493 -0.0229
 1600SOL    HW116433   4.314   4.012   3.341  0.2396 -0.6360 -2.3335
 1600SOL    HW216434   4.406   4.117   3.357  1.4301 -1.0922  2.5621
 1601SOL     OW16435   3.735   3.714   5.001 -0.6069  0.0919 -0.3268
 1601SOL    HW116436   3.648   3.688   4.971 -0.5462  1.3753 -1.5929
 1601SOL    HW216437   3.728   3.704   5.096 -0.9887  0.5380 -0.3083
 1602SOL     OW16438   0.527   1.324  12.570 -0.3206  0.1683 -0.2625
 1602SOL    HW116439   0.508   1.230  12.579 -1.5120  0.3832 -0.5206
 1602SOL    HW216440   0.557   1.355  12.656  0.6830  1.8240 -1.2080
 1603SOL     OW16441   4.548   2.271   5.187 -0.2388 -0.2524 -0.2704
 1603SOL    HW116442   4.562   2.357   5.146 -1.6798 -0.1358 -0.5107
 1603SOL    HW216443   4.637   2.244   5.209  0.1109  1.8737  1.0042
 1604SOL     OW16444   2.721   2.764  14.989  0.2639 -1.0045 -0.2703
 1604SOL    HW116445   2.677   2.680  15.004 -3.8219  1.1920  0.1217
 1604SOL    HW216446   2.773   2.736  14.914 -1.1196 -1.8754 -0.9053
 1605SOL     OW16447   3.280   4.444   5.108  0.2333 -0.5005 -0.4364
 1605SOL    HW116448   3.363   4.479   5.075 -0.7387  0.9227 -1.3996
 1605SOL    HW216449   3.217   4.510   5.077  0.2631 -0.3310 -0.1339
 1606SOL     OW16450   0.356   1.926   6.247  0.3758  0.3520 -0.8597
 1606SOL    HW116451   0.417   1.952   6.178  1.4097  0.0664 -0.0432
 1606SOL    HW216452   0.282   1.884   6.202 -1.2322  2.9843 -0.6126
 1607SOL     OW16453   3.062   4.049  11.114 -0.9137 -0.1953  0.2939
 1607SOL    HW116454   3.033   4.141  11.117 -1.6206 -0.4747  2.0421
 1607SOL    HW216455   2.980   4.010  11.086 -1.6386 -0.1930  2.3909
 1608SOL     OW16456   4.469   1.324   3.792 -0.1898 -0.2708  0.0818
 1608SOL    HW116457   4.511   1.369   3.718 -0.1028 -0.3251  0.0987
 1608SOL    HW216458   4.536   1.324   3.860  1.7464 -1.1550 -1.7889
 1609SOL     OW16459   0.379   3.140   3.241  0.2581  0.6839 -0.2918
 1609SOL    HW116460   0.304   3.123   3.184 -0.6450  1.9981  0.4899
 1609SOL    HW216461   0.329   3.146   3.322  0.0099 -2.1131 -0.2649
 1610SOL     OW16462   0.412   3.596   3.020  0.1117 -0.2006  0.3108
 1610SOL    HW116463   0.352   3.559   2.955  0.4163  2.0601 -1.2689
 1610SOL    HW216464   0.360   3.567   3.094 -2.7110  1.4667 -1.0115
 1611SOL     OW16465   4.455   3.893   1.037 -0.2683  0.1943  0.4972
 1611SOL    HW116466   4.389   3.881   1.105 -0.9367 -1.3701 -0.4201
 1611SOL    HW216467   4.406   3.886   0.954  1.6566  1.4627 -0.7456
 1612SOL     OW16468   3.473   2.423   5.775  0.1490  0.2220  0.1423
 1612SOL    HW116469   3.511   2.473   5.703 -1.1127 -1.6131 -1.8173
 1612SOL    HW216470   3.519   2.464   5.848 -1.3397  2.1481 -0.0072
 1613SOL     OW16471   2.034   3.167   3.391 -0.3885  0.0359  0.6753
 1613SOL    HW116472   2.039   3.212   3.475  0.4840  0.1036  0.5833
 1613SOL    HW216473   1.978   3.227   3.342  1.7038  1.1510 -0.3479
 1614SOL     OW16474   1.178   1.128  11.038  0.0950 -0.3535 -0.2662
 1614SOL    HW116475   1.224   1.057  10.993  0.6047 -0.8723  1.0752
 1614SOL    HW216476   1.150   1.082  11.117 -3.3635  1.5813 -0.3680
 1615SOL     OW16477   2.507   4.375  12.609  0.2150 -0.0724  0.1064
 1615SOL    HW116478   2.537   4.306  12.668  0.9436  0.0699 -0.0990
 1615SOL    HW216479   2.486   4.452  12.662 -2.1499 -1.2574  0.9302
 1616SOL     OW16480   2.515   4.196   3.887 -0.2325 -0.1364  0.2493
 1616SOL    HW116481   2.597   4.187   3.840 -0.3862 -0.5450  0.0578
 1616SOL    HW216482   2.526   4.286   3.917 -0.8726 -0.6194  1.9735
 1617SOL     OW16483   3.396   3.558  15.554  0.1545  0.0938 -0.0493
 1617SOL    HW116484   3.456   3.513  15.614  1.3325  1.7702  0.0299
 1617SOL    HW216485   3.402   3.499  15.478  5.0149 -1.9854  1.8928
 1618SOL     OW16486   3.285   1.109   3.021  0.1837  0.1829  0.1991
 1618SOL    HW116487   3.212   1.048   3.029  1.8554 -1.8773 -0.4231
 1618SOL    HW216488   3.361   1.070   3.065  1.2111  1.8545 -0.0773
 1619SOL     OW16489   2.170   1.740  16.594  0.4604 -0.0300 -0.1264
 1619SOL    HW116490   2.236   1.759  16.527  0.6336 -2.3294 -0.5755
 1619SOL    HW216491   2.215   1.743  16.679 -1.0385 -0.6124  0.6857
 1620SOL     OW16492   3.530   2.910   3.930 -0.2545  0.5240  0.0171
 1620SOL    HW116493   3.622   2.884   3.937 -0.0940  1.1959  0.4175
 1620SOL    HW216494   3.493   2.824   3.948 -0.0668 -0.1373 -2.7530
 1621SOL     OW16495   1.983   1.253  13.679  0.0369  0.7201 -0.4688
 1621SOL    HW116496   2.023   1.337  13.702  1.4405 -0.1055  0.1218
 1621SOL    HW216497   1.970   1.273  13.586 -0.0940 -0.7674 -0.7567
 1622SOL     OW16498   0.750   2.790  10.869  0.0572 -1.3978 -0.2931
 1622SOL    HW116499   0.776   2.700  10.854 -0.2059 -1.7453  1.3001
 1622SOL    HW216500   0.772   2.805  10.961 -1.0630 -1.0772 -0.0772
 1623SOL     OW16501   1.225   2.122   3.781  0.0004  0.1752 -0.0922
 1623SOL    HW116502   1.313   2.093   3.804  0.0441  2.0051  2.0666
 1623SOL    HW216503   1.194   2.132   3.871  0.5426 -1.7713  0.2944
 1624SOL     OW16504   1.559   2.918   9.249 -0.3709  0.1591  0.0483
 1624SOL    HW116505   1.559   2.931   9.344 -1.6439  1.3447 -0.1060
 1624SOL    HW216506   1.619   2.845   9.240 -0.2180  0.6650 -2.9273
 1625SOL     OW16507   1.311   3.517   4.885  0.4518  0.1311  0.4193
 1625SOL    HW116508   1.269   3.535   4.969 -0.0333 -0.6714  0.3435
 1625SOL    HW216509   1.371   3.592   4.875 -1.5634  2.0508  2.6983
 1626SOL     OW16510   4.727   1.739  13.627 -0.2638 -0.5587 -0.1982
 1626SOL    HW116511   0.022   1.669  13.684  0.3557 -0.0250  0.1165
 1626SOL    HW216512   4.638   1.760  13.657 -0.1677 -0.2791 -0.1056
 1627SOL     OW16513   2.191   3.228   0.248  0.4534 -0.0472 -0.1302
 1627SOL    HW116514   2.223   3.191   0.166  2.7577 -2.5930  1.9221
 1627SOL    HW216515   2.257   3.209   0.316 -0.7479  1.7957  1.5276
 1628SOL     OW16516   3.099   1.332   0.260 -0.0576  0.2605  0.2551
 1628SOL    HW116517   3.193   1.335   0.243  0.0887  0.7781  1.1539
 1628SOL    HW216518   3.094   1.255   0.317 -0.7296 -0.0200 -0.1733
 1629SOL     OW16519   0.424   1.255   7.718 -0.1494  0.1994  0.2641
 1629SOL    HW116520   0.349   1.314   7.710  1.6080  2.3561 -0.3611
 1629SOL    HW216521   0.421   1.218   7.630  1.1374 -2.3146  1.2788
 1630SOL     OW16522   1.596   3.040  12.740  0.2196 -0.2473  0.2040
 1630SOL    HW116523   1.595   3.080  12.828  3.8658  0.3203 -0.0295
 1630SOL    HW216524   1.536   3.102  12.698 -1.2284 -1.6183  0.2531
 1631SOL     OW16525   2.768   4.095   6.252 -0.3560 -0.2479  0.4300
 1631SOL    HW116526   2.772   4.010   6.208 -0.0400  0.5678 -1.1264
 1631SOL    HW216527   2.686   4.092   6.301 -2.0924  2.9333 -2.2834
 1632SOL     OW16528   1.146   4.335   6.940 -0.7832 -0.1104  0.0183
 1632SOL    HW116529   1.052   4.330   6.955 -0.9510  1.8841 -0.3361
 1632SOL    HW216530   1.172   4.243   6.939 -1.4135 -0.2986  1.2101
 1633SOL     OW16531   3.955   0.411   5.052  0.2830 -0.5102  0.6882
 1633SOL    HW116532   4.042   0.446   5.036 -0.4243  0.7324 -0.3321
 1633SOL    HW216533   3.951   0.355   4.974  1.4709 -2.5591  2.1073
 1634SOL     OW16534   0.398   4.501  15.012  0.0841  0.3749 -0.3914
 1634SOL    HW116535   0.418   4.552  14.933  0.1830  0.5340 -0.2658
 1634SOL    HW216536   0.338   4.555  15.063  0.0145 -1.9966  2.0259
 1635SOL     OW16537   1.371   2.406   1.312 -0.4096 -0.1408 -0.4903
 1635SOL    HW116538   1.410   2.398   1.400 -5.4172  0.4796  1.7876
 1635SOL    HW216539   1.330   2.320   1.311 -0.5039 -0.0887 -0.9128
 1636SOL     OW16540   0.019   3.487   5.536 -0.4052  0.1456  0.1764
 1636SOL    HW116541   0.046   3.407   5.582 -2.9506  0.3506  2.0297
 1636SOL    HW216542   4.677   3.456   5.489  0.1654 -1.2889  0.1798
 1637SOL     OW16543   2.379   0.939  15.751 -0.2989  0.0910 -0.2939
 1637SOL    HW116544   2.460   0.978  15.783 -0.9994  0.7640  0.6982
 1637SOL    HW216545   2.329   0.942  15.833 -2.9680  0.4218 -1.9190
 1638SOL     OW16546   2.304   0.479  12.826 -0.3803 -0.2774 -0.7986
 1638SOL    HW116547   2.216   0.456  12.795  0.8991 -1.8420 -3.2302
 1638SOL    HW216548   2.344   0.399  12.858 -1.5635 -0.9326 -0.9592
 1639SOL     OW16549   4.013   2.824   4.741  0.2382  0.0887 -0.2936
 1639SOL    HW116550   4.043   2.834   4.832 -1.0844  0.8677  0.0521
 1639SOL    HW216551   3.919   2.817   4.755  0.3567  0.0463  0.4711
 1640SOL     OW16552   2.045   2.119   8.377 -0.1627 -0.1195  0.0710
 1640SOL    HW116553   2.113   2.100   8.313 -0.7096 -1.2373 -0.1808
 1640SOL    HW216554   2.085   2.197   8.416  0.1878 -0.3293  0.1328
 1641SOL     OW16555   0.516   2.004  11.075 -0.0479 -0.4386 -0.1513
 1641SOL    HW116556   0.450   1.938  11.097 -0.4743 -0.2196 -0.7800
 1641SOL    HW216557   0.555   2.010  11.163  1.1564 -0.4937 -0.6816
 1642SOL     OW16558   3.754   3.119   3.437 -0.3985  0.0023  0.1360
 1642SOL    HW116559   3.762   3.215   3.433  0.8181 -0.2128 -2.7964
 1642SOL    HW216560   3.849   3.107   3.444 -0.4430 -0.2180  0.3642
 1643SOL     OW16561   2.593   2.107  14.689  0.1722 -0.7525 -0.1232
 1643SOL    HW116562   2.637   2.026  14.663 -1.1366 -0.6119 -2.7440
 1643SOL    HW216563   2.679   2.146  14.706 -1.0442  1.0787  1.7921
 1644SOL     OW16564   2.019   2.247   9.645 -0.1534  0.2063  0.2071
 1644SOL    HW116565   2.094   2.192   9.622 -0.4004 -0.1830  0.3237
 1644SOL    HW216566   2.065   2.330   9.642 -0.0453  0.1808  1.3162
 1645SOL     OW16567   1.904   2.315   7.489  0.0675 -0.1121  0.4813
 1645SOL    HW116568   1.862   2.250   7.545  0.6648 -1.4057 -0.5700
 1645SOL    HW216569   1.993   2.283   7.473  0.4044  2.3325 -2.5291
 1646SOL     OW16570   0.511   2.933  16.504  0.1887  0.5739 -0.3195
 1646SOL    HW116571   0.585   2.978  16.545 -0.5713  0.7398  0.8827
 1646SOL    HW216572   0.471   2.871  16.566  0.0340  2.1617  1.1785
 1647SOL     OW16573   0.933   3.100   1.001 -0.7783  0.6114 -0.1243
 1647SOL    HW116574   0.940   3.089   1.095 -0.9896 -1.7281 -0.3808
 1647SOL    HW216575   0.862   3.164   0.999 -0.7019  0.6997  0.0387
 1648SOL     OW16576   0.959   4.169   4.534 -0.0612  0.1951 -0.3234
 1648SOL    HW116577   1.040   4.216   4.515 -0.3341  0.4014 -0.9745
 1648SOL    HW216578   0.906   4.244   4.560 -1.1081 -0.9145  0.7299
 1649SOL     OW16579   1.300   3.573  10.012  0.3891  0.0673 -0.1589
 1649SOL    HW116580   1.267   3.604   9.927  0.0483 -0.0252 -0.0627
 1649SOL    HW216581   1.331   3.485   9.991 -0.4518 -0.7728  2.1460
 1650SOL     OW16582   3.068   3.921   1.246 -0.0952 -0.3051 -0.0227
 1650SOL    HW116583   3.076   3.917   1.342 -2.4265  1.2812  0.2513
 1650SOL    HW216584   2.987   3.967   1.222  0.0308  0.4211  0.9250
 1651SOL     OW16585   2.740   1.710   4.653 -0.1466 -0.1341  0.2186
 1651SOL    HW116586   2.713   1.673   4.737 -2.3912  1.7433  0.3136
 1651SOL    HW216587   2.771   1.799   4.666 -1.5190  0.4452 -0.4543
 1652SOL     OW16588   1.159   1.629   4.909  0.0611 -0.0212 -0.3583
 1652SOL    HW116589   1.181   1.653   4.999  1.3560 -3.7402  0.3334
 1652SOL    HW216590   1.212   1.549   4.900 -2.4343 -1.9135  1.7707
 1653SOL     OW16591   4.151   2.346  16.208 -0.5594  0.0929  0.2725
 1653SOL    HW116592   4.084   2.287  16.174  0.3685 -1.3242  0.9339
 1653SOL    HW216593   4.132   2.343  16.301  1.3512  0.5226  0.6789
 1654SOL     OW16594   3.481   4.137  11.924  0.0711 -0.0987 -0.2878
 1654SOL    HW116595   3.524   4.052  11.919  0.8727  0.3146 -0.3857
 1654SOL    HW216596   3.470   4.166  11.834  0.2914  0.1923 -0.2238
 1655SOL     OW16597   1.835   4.508   9.987 -0.1135 -0.4604 -0.1480
 1655SOL    HW116598   1.741   4.514   9.973 -0.0037 -0.4294 -0.8586
 1655SOL    HW216599   1.856   4.416  10.006 -0.6742 -0.5897 -0.1394
 1656SOL     OW16600   4.388   0.655   8.401 -0.1882  0.3250 -0.1105
 1656SOL    HW116601   4.428   0.669   8.487 -0.8697 -1.1341  0.4574
 1656SOL    HW216602   4.301   0.689   8.423 -0.3190  1.1856 -1.9794
 1657SOL     OW16603   0.008   1.415   6.474 -0.2812  0.6270 -0.1235
 1657SOL    HW116604   0.014   1.364   6.555  3.1816  1.9795  0.4922
 1657SOL    HW216605   0.101   1.434   6.457 -0.0612 -1.1930 -0.8899
 1658SOL     OW16606   1.777   3.418   6.001  0.1251  0.0986 -0.2952
 1658SOL    HW116607   1.748   3.418   5.910  1.4181 -0.5506 -0.6976
 1658SOL    HW216608   1.805   3.327   6.007 -0.3266 -0.0658 -0.7443
 1659SOL     OW16609   2.643   1.267   3.387  0.1854  0.3583 -0.2411
 1659SOL    HW116610   2.578   1.199   3.404 -0.3718  0.3171 -2.5350
 1659SOL    HW216611   2.709   1.271   3.456 -0.6984 -0.5422  0.6612
 1660SOL     OW16612   1.217   1.448   1.240  1.0107 -0.3078 -0.0473
 1660SOL    HW116613   1.224   1.495   1.324  1.5005 -0.7820  0.1704
 1660SOL    HW216614   1.207   1.521   1.179 -0.4198 -0.1036  0.4099
 1661SOL     OW16615   1.506   2.270   7.141  0.1641  0.0946 -0.4535
 1661SOL    HW116616   1.537   2.179   7.135  0.5719  0.3065 -1.4831
 1661SOL    HW216617   1.500   2.280   7.046 -0.3142  1.9655 -0.2134
 1662SOL     OW16618   4.275   3.211   8.545 -0.7276  0.3485  0.3535
 1662SOL    HW116619   4.274   3.202   8.640  2.5505 -1.2008  0.1960
 1662SOL    HW216620   4.362   3.248   8.530 -1.2135  1.3148 -0.1524
 1663SOL     OW16621   2.988   2.103   3.188  0.0709  0.6557  0.2577
 1663SOL    HW116622   2.997   2.008   3.197 -1.4452  0.1959 -2.8805
 1663SOL    HW216623   2.902   2.114   3.148 -0.2874  1.2696  1.2039
 1664SOL     OW16624   2.735   3.638   3.209 -0.4962  0.3803  0.3237
 1664SOL    HW116625   2.707   3.577   3.278 -1.8220 -1.1735 -1.5887
 1664SOL    HW216626   2.659   3.696   3.204  0.5863  1.9477  1.9329
 1665SOL     OW16627   3.561   3.213   3.673  0.1374  0.3608 -0.5201
 1665SOL    HW116628   3.613   3.159   3.613  0.5677 -0.6768  0.8076
 1665SOL    HW216629   3.632   3.254   3.721 -0.1016 -0.2623  0.3535
 1666SOL     OW16630   1.026   0.473  11.801  0.2349  0.2282 -0.3407
 1666SOL    HW116631   1.015   0.546  11.862 -0.3527 -0.1132 -0.0360
 1666SOL    HW216632   1.025   0.522  11.719 -0.5659 -1.0024 -1.0754
 1667SOL     OW16633   3.608   1.540   5.454 -0.0573 -0.1982  0.3238
 1667SOL    HW116634   3.645   1.510   5.371  0.9812 -1.4895  1.2506
 1667SOL    HW216635   3.514   1.533   5.440 -0.2221  1.6670  0.3878
 1668SOL     OW16636   2.020   1.758  12.508  0.2274  0.1658  0.1445
 1668SOL    HW116637   2.084   1.824  12.483 -0.1881  0.5665  0.1220
 1668SOL    HW216638   1.969   1.788  12.584  0.1892 -1.5795  0.8184
 1669SOL     OW16639   3.261   2.026   7.283  0.1137 -0.2007  0.1447
 1669SOL    HW116640   3.219   2.058   7.203 -0.5683  1.7002  1.2780
 1669SOL    HW216641   3.205   2.059   7.352  0.7459  0.7009  0.2254
 1670SOL     OW16642   2.623   2.452  12.579  0.4183  0.1034  0.1622
 1670SOL    HW116643   2.573   2.479  12.502 -0.4257 -2.9658 -0.3657
 1670SOL    HW216644   2.665   2.370  12.551 -1.0281  0.1536 -2.1218
 1671SOL     OW16645   1.559   1.656   8.055  0.0583 -0.3119 -0.3628
 1671SOL    HW116646   1.562   1.750   8.072  0.5101 -0.9807  3.2510
 1671SOL    HW216647   1.533   1.621   8.141  1.3390  0.6670  0.4153
 1672SOL     OW16648   0.241   0.613  11.447  0.1045  0.2688 -0.0144
 1672SOL    HW116649   0.176   0.660  11.499 -0.9813 -0.0396 -1.0947
 1672SOL    HW216650   0.307   0.680  11.433 -0.8203  1.3610  0.9188
 1673SOL     OW16651   0.601   1.363   2.454 -0.4179 -0.0879 -0.1414
 1673SOL    HW116652   0.593   1.338   2.362 -1.2900  1.3107 -0.4435
 1673SOL    HW216653   0.695   1.380   2.450 -0.1661 -1.5397 -0.6201
 1674SOL     OW16654   1.230   1.574  13.775 -0.0828 -0.1492 -0.5165
 1674SOL    HW116655   1.142   1.578  13.814  0.1384  1.4482 -0.1946
 1674SOL    HW216656   1.202   1.589  13.685 -2.8282  2.7114  0.8132
 1675SOL     OW16657   4.142   3.964   3.914  0.3650  0.1469 -0.0366
 1675SOL    HW116658   4.105   4.024   3.848  1.1946  0.9553  0.2364
 1675SOL    HW216659   4.060   3.926   3.947  0.4689  0.4507  0.5574
 1676SOL     OW16660   3.522   3.515   9.375  0.3719 -0.0549  0.1853
 1676SOL    HW116661   3.502   3.450   9.443 -0.1811 -0.8758 -0.7729
 1676SOL    HW216662   3.434   3.524   9.338  0.8124 -0.2999 -0.9188
 1677SOL     OW16663   0.097   1.754   7.275  0.4517  0.2464  0.6998
 1677SOL    HW116664   0.189   1.774   7.263  0.1212  1.3886  0.1461
 1677SOL    HW216665   0.057   1.836   7.246  1.0264  0.7132  1.2397
 1678SOL     OW16666   3.580   1.074   5.940 -0.4703  0.1220  0.4109
 1678SOL    HW116667   3.527   1.027   6.004  0.3320 -2.3620 -0.7547
 1678SOL    HW216668   3.515   1.094   5.872  1.0006  2.6174 -0.2593
 1679SOL     OW16669   0.293   1.607  16.545 -0.0652  0.2005  0.7568
 1679SOL    HW116670   0.290   1.522  16.502 -0.0400  1.1093 -1.0394
 1679SOL    HW216671   0.280   1.588  16.638 -1.0093  0.0472  0.6010
 1680SOL     OW16672   1.330   1.184  10.492 -0.2515 -0.3658 -0.6198
 1680SOL    HW116673   1.298   1.237  10.419 -1.6919  1.8177  1.5619
 1680SOL    HW216674   1.397   1.245  10.526  1.4783 -1.0085 -2.9281
 1681SOL     OW16675   0.739   4.302   8.217 -0.0528 -0.4570 -0.0000
 1681SOL    HW116676   0.762   4.329   8.306 -0.5568  1.6135 -0.4940
 1681SOL    HW216677   0.682   4.372   8.185  1.1506  0.1631 -0.8058
 1682SOL     OW16678   3.142   4.533   3.077 -0.1398 -0.1718 -0.4898
 1682SOL    HW116679   3.167   4.451   3.035  1.9535 -0.9317  2.2363
 1682SOL    HW216680   3.153   4.511   3.169 -1.3996  1.6464  0.0841
 1683SOL     OW16681   3.348   3.498   1.166 -0.5279 -0.3919 -0.0695
 1683SOL    HW116682   3.302   3.499   1.250 -2.8785  0.2513 -1.3671
 1683SOL    HW216683   3.285   3.542   1.110 -1.3199 -2.1747 -0.5596
 1684SOL     OW16684   0.475   3.699   3.324  0.3216 -0.3242  0.1651
 1684SOL    HW116685   0.408   3.652   3.274  0.7247 -0.9350  0.1999
 1684SOL    HW216686   0.524   3.629   3.368 -0.5371 -0.0782  1.5307
 1685SOL     OW16687   3.345   2.905  15.836 -0.1445 -0.5267  0.3849
 1685SOL    HW116688   3.318   2.977  15.892  0.7634 -1.8830  2.5930
 1685SOL    HW216689   3.388   2.842  15.893 -2.1074  0.2350  2.7329
 1686SOL     OW16690   4.077   1.158   4.813  0.1250  0.0387 -0.7359
 1686SOL    HW116691   4.117   1.101   4.879 -0.5895  0.9197  0.4505
 1686SOL    HW216692   4.145   1.226   4.805 -1.0863  1.1268 -1.6900
 1687SOL     OW16693   3.574   0.196   6.593  0.1078 -0.8543  0.4952
 1687SOL    HW116694   3.497   0.164   6.547  0.3306 -1.0487  0.2592
 1687SOL    HW216695   3.594   0.119   6.647  0.6853 -1.9025 -1.2244
 1688SOL     OW16696   4.534   1.786  15.100  0.1177  0.4797  0.1146
 1688SOL    HW116697   4.538   1.760  15.193  1.7406 -2.5245 -0.7750
 1688SOL    HW216698   4.607   1.739  15.060 -0.8671 -0.5511 -0.4608
 1689SOL     OW16699   0.286   0.257   9.714 -0.1091  0.1271 -0.0149
 1689SOL    HW116700   0.363   0.216   9.675 -0.8443 -1.2109 -0.0549
 1689SOL    HW216701   0.216   0.193   9.698 -1.4388  1.7097 -0.5570
 1690SOL     OW16702   2.676   0.713  11.061 -0.1693 -0.7423 -0.0847
 1690SOL    HW116703   2.693   0.754  11.146 -0.4332 -1.0935  0.1346
 1690SOL    HW216704   2.685   0.792  11.007 -2.2897 -1.0219 -0.8360
 1691SOL     OW16705   2.424   3.256   0.725  0.0861  0.4147 -0.3171
 1691SOL    HW116706   2.369   3.211   0.788 -1.1412  3.4856  0.8350
 1691SOL    HW216707   2.418   3.344   0.762 -0.3997 -0.2807  1.2426
 1692SOL     OW16708   1.178   1.728   4.134 -0.5051  0.1457 -0.1831
 1692SOL    HW116709   1.204   1.739   4.043 -3.1981 -1.0915 -1.1291
 1692SOL    HW216710   1.149   1.637   4.128 -1.5311  0.3863  0.9872
 1693SOL     OW16711   0.656   3.727   2.190 -0.3141  0.3246  0.7891
 1693SOL    HW116712   0.678   3.721   2.283 -2.5343 -1.0574  1.2243
 1693SOL    HW216713   0.575   3.677   2.180 -1.0986  1.3429  1.9696
 1694SOL     OW16714   1.373   1.467   5.467 -0.0274  0.0252 -0.4441
 1694SOL    HW116715   1.385   1.522   5.545  0.7506  0.9222 -1.1976
 1694SOL    HW216716   1.457   1.422   5.475  0.1281  0.5818  1.2264
 1695SOL     OW16717   2.402   1.800   9.478  0.0577 -0.1706  0.5034
 1695SOL    HW116718   2.338   1.730   9.491  0.0312 -0.4449 -1.0143
 1695SOL    HW216719   2.385   1.840   9.563  2.4206  2.4039 -0.2611
 1696SOL     OW16720   0.429   2.370   4.469 -0.0614 -0.5095  0.1205
 1696SOL    HW116721   0.472   2.285   4.464  0.2100 -0.4828  2.3503
 1696SOL    HW216722   0.432   2.403   4.379 -1.1436  0.2467  0.3521
 1697SOL     OW16723   0.969   3.445  12.735  0.2916  0.4984 -0.1999
 1697SOL    HW116724   1.004   3.478  12.652  1.6162  1.5956  0.8064
 1697SOL    HW216725   1.006   3.357  12.736 -1.7659 -0.3495  0.7656
 1698SOL     OW16726   2.420   1.402   4.308  0.1004 -0.1159 -0.0280
 1698SOL    HW116727   2.477   1.358   4.244  0.1537 -0.9390  0.5878
 1698SOL    HW216728   2.485   1.429   4.373 -0.0354 -1.4871  0.6748
 1699SOL     OW16729   3.481   3.342   0.095 -0.1025  0.0084 -0.6886
 1699SOL    HW116730   3.465   3.415   0.155  0.7128 -0.5392  0.2029
 1699SOL    HW216731   3.504   3.392   0.017 -0.1537 -1.4880 -1.6578
 1700SOL     OW16732   2.315   1.302   9.079  0.0458  0.4575 -0.2017
 1700SOL    HW116733   2.296   1.385   9.122 -2.9271  0.4268 -1.4439
 1700SOL    HW216734   2.228   1.282   9.044 -0.5091 -0.0481  1.4251
 1701SOL     OW16735   4.409   2.292   9.441 -0.4158 -0.7702 -0.0921
 1701SOL    HW116736   4.456   2.210   9.427  2.2131  0.7793 -0.2604
 1701SOL    HW216737   4.483   2.347   9.467  0.6254 -1.3616 -1.7846
 1702SOL     OW16738   3.709   1.930  15.957  0.1723  0.2036 -0.4445
 1702SOL    HW116739   3.793   1.946  16.001 -0.6218  0.1909  1.0628
 1702SOL    HW216740   3.673   2.018  15.951  1.7124  0.8931  0.3384
 1703SOL     OW16741   0.248   4.709   5.683  0.0689 -0.3375 -0.4388
 1703SOL    HW116742   0.290   4.633   5.722 -1.6904 -0.8924  0.3368
 1703SOL    HW216743   0.244   0.029   5.760 -0.4778  0.5427 -1.1056
 1704SOL     OW16744   2.433   2.818   3.638  0.6614 -0.0055  0.0076
 1704SOL    HW116745   2.340   2.817   3.660  0.8458 -1.8031  0.7601
 1704SOL    HW216746   2.463   2.784   3.722 -0.6264  1.7966  1.1853
 1705SOL     OW16747   2.111   4.124   6.975  0.0041 -0.8725  0.1347
 1705SOL    HW116748   2.201   4.091   6.964  0.1458  0.2102 -1.8373
 1705SOL    HW216749   2.110   4.145   7.069  0.4668  1.9866 -0.5131
 1706SOL     OW16750   4.048   4.633   8.898 -0.4184  0.4318 -0.2594
 1706SOL    HW116751   4.101   4.554   8.891 -1.5638 -0.3337 -0.4334
 1706SOL    HW216752   4.116   4.700   8.899 -0.2640  0.2855 -0.9973
 1707SOL     OW16753   1.082   4.414   9.542 -0.0614  0.4038  0.4205
 1707SOL    HW116754   1.048   4.472   9.474  0.6938  0.0247 -0.2743
 1707SOL    HW216755   1.159   4.456   9.582  0.4347 -0.3901  0.2969
 1708SOL     OW16756   2.664   0.498   5.734 -0.4127  0.1393  0.1184
 1708SOL    HW116757   2.730   0.464   5.794  0.3582  1.8177  0.2295
 1708SOL    HW216758   2.612   0.422   5.708 -0.6226  0.0271  0.8600
 1709SOL     OW16759   2.547   3.743   7.386 -0.1524  0.3723  0.5443
 1709SOL    HW116760   2.454   3.742   7.364  0.3738 -1.4320 -1.6328
 1709SOL    HW216761   2.570   3.833   7.365 -0.5005  0.5609  0.9741
 1710SOL     OW16762   4.220   2.083   4.398  0.2509 -0.1975  0.0191
 1710SOL    HW116763   4.190   2.014   4.339 -2.3441  1.5185 -0.6985
 1710SOL    HW216764   4.312   2.064   4.415  0.2937  1.5459  1.7132
 1711SOL     OW16765   1.084   1.984   9.228  0.1058 -0.1329 -0.5549
 1711SOL    HW116766   1.066   1.960   9.319 -1.1168  2.7061 -0.0448
 1711SOL    HW216767   0.994   1.976   9.197  0.5723  0.1907 -2.0165
 1712SOL     OW16768   2.026   3.601   3.727  0.0022 -0.0045 -0.4535
 1712SOL    HW116769   1.997   3.675   3.674  0.1481  1.3929  1.3752
 1712SOL    HW216770   2.119   3.604   3.706  0.1408 -0.3083  0.1045
 1713SOL     OW16771   4.181   4.598  16.648  0.0488 -0.2639 -0.1984
 1713SOL    HW116772   4.183   4.643  16.732  2.2908 -2.8300  1.0965
 1713SOL    HW216773   4.250   4.533  16.659  1.3384  1.3072  1.0892
 1714SOL     OW16774   1.557   2.153   5.533 -0.2011  0.4436  0.4407
 1714SOL    HW116775   1.518   2.195   5.610 -1.3397  2.1018 -1.0578
 1714SOL    HW216776   1.484   2.091   5.528 -0.3523  0.5797  0.9806
 1715SOL     OW16777   3.671   1.092   5.512 -0.2464  0.1087 -0.1599
 1715SOL    HW116778   3.617   1.120   5.439  1.9191 -0.9801 -2.1716
 1715SOL    HW216779   3.606   1.043   5.563  1.3571 -0.8835  0.9257
 1716SOL     OW16780   1.480   3.296   4.889  0.4600  0.0962 -0.5430
 1716SOL    HW116781   1.416   3.366   4.889  0.9617  0.5570  0.0675
 1716SOL    HW216782   1.544   3.332   4.950 -0.2380  1.1081 -0.4135
 1717SOL     OW16783   2.130   0.210   7.513  0.2420 -0.1795 -0.6703
 1717SOL    HW116784   2.114   0.260   7.594  2.2276 -0.4902 -0.1032
 1717SOL    HW216785   2.051   0.235   7.464 -1.9871 -0.8470  2.5782
 1718SOL     OW16786   3.050   4.182   7.988  0.1718  0.1362 -0.4017
 1718SOL    HW116787   3.068   4.108   7.930  0.4874 -0.2933  0.2451
 1718SOL    HW216788   3.137   4.219   8.005  0.6534  0.2361 -2.9950
 1719SOL     OW16789   2.656   4.519   8.021  0.3949  0.7855  0.0381
 1719SOL    HW116790   2.626   4.464   8.094  3.6692 -0.2452  0.5848
 1719SOL    HW216791   2.734   4.471   7.995 -0.1458  0.0984 -0.3316
 1720SOL     OW16792   3.991   0.458   6.560  0.1427 -0.6487 -0.3465
 1720SOL    HW116793   3.928   0.390   6.539 -0.0075 -0.1227 -1.5916
 1720SOL    HW216794   4.074   0.410   6.569  0.7227  0.8468  2.4900
 1721SOL     OW16795   3.982   0.966   5.568  0.0139 -0.1699  0.0298
 1721SOL    HW116796   4.072   0.941   5.544 -0.3199 -1.5892  0.2282
 1721SOL    HW216797   3.951   0.883   5.604  1.2412 -0.7779 -0.2964
 1722SOL     OW16798   3.784   1.189   5.803 -0.3607 -0.2792  0.4671
 1722SOL    HW116799   3.746   1.113   5.848  0.8316 -1.6839 -0.9110
 1722SOL    HW216800   3.844   1.209   5.875 -0.4483  0.5960  0.2928
 1723SOL     OW16801   1.257   0.905   9.820  0.7097  0.0547 -0.0357
 1723SOL    HW116802   1.322   0.930   9.885 -0.8303 -0.9965  1.9162
 1723SOL    HW216803   1.223   0.993   9.801  1.3607  0.4100  0.4226
 1724SOL     OW16804   1.984   1.957   5.965 -0.4811 -0.8763 -0.1557
 1724SOL    HW116805   1.999   2.026   6.030 -2.4658  0.8747 -1.5258
 1724SOL    HW216806   2.064   1.909   5.982 -2.5671 -3.1761  3.0914
 1725SOL     OW16807   2.456   0.484   6.561 -0.0681  0.0768 -0.4367
 1725SOL    HW116808   2.412   0.427   6.498 -0.9107  1.5996 -1.2357
 1725SOL    HW216809   2.402   0.563   6.555  0.7531  0.6500 -0.1370
 1726SOL     OW16810   1.961   0.571   1.370 -0.8029 -0.3512  0.2609
 1726SOL    HW116811   1.937   0.617   1.289 -0.0125 -0.3220  0.0417
 1726SOL    HW216812   1.920   0.629   1.434 -0.9394 -0.6246  0.4213
 1727SOL     OW16813   4.585   4.232   6.010  0.0708  0.2517 -0.0404
 1727SOL    HW116814   4.671   4.205   6.040 -0.2058 -0.2272  0.3154
 1727SOL    HW216815   4.606   4.320   5.979 -1.7913 -0.2355 -2.7607
 1728SOL     OW16816   0.940   1.270   6.202  0.0118  0.5467  0.0415
 1728SOL    HW116817   0.887   1.264   6.282  0.9053 -1.2874  0.5119
 1728SOL    HW216818   1.022   1.255   6.250  0.8782 -1.0368 -1.9081
 1729SOL     OW16819   0.216   2.144   8.513 -0.5055 -0.1813  0.2885
 1729SOL    HW116820   0.201   2.209   8.445 -1.3647 -0.1790  0.4807
 1729SOL    HW216821   0.222   2.200   8.590 -0.8362 -0.5898  0.6118
 1730SOL     OW16822   0.688   2.452   3.185  0.1933  0.0115 -0.2242
 1730SOL    HW116823   0.728   2.402   3.114 -1.2329 -1.2067 -0.1797
 1730SOL    HW216824   0.607   2.472   3.139  0.2764  0.0691 -0.3464
 1731SOL     OW16825   0.703   4.699  14.652 -0.2049 -0.7202  0.0966
 1731SOL    HW116826   0.715   0.056  14.635 -0.9466 -0.6961 -0.3057
 1731SOL    HW216827   0.684   4.669  14.563 -1.2861 -2.1484  0.8212
 1732SOL     OW16828   0.651   1.882  14.380  0.0239  0.5789  0.2377
 1732SOL    HW116829   0.572   1.924  14.413  0.4725  1.0892  0.6475
 1732SOL    HW216830   0.714   1.934  14.429 -0.4825  0.7338  0.7250
 1733SOL     OW16831   1.408   4.365  17.727  0.0566  0.5399 -0.0044
 1733SOL    HW116832   1.481   4.348  17.668  0.6475 -1.0965  1.2146
 1733SOL    HW216833   1.345   4.296  17.707  1.3325 -1.0478  1.4875
 1734SOL     OW16834   3.860   3.471  17.408  0.7219 -0.2359  0.2165
 1734SOL    HW116835   3.909   3.529  17.466  0.5571  0.3522 -0.2234
 1734SOL    HW216836   3.852   3.540  17.341  0.4193 -1.6951 -1.2617
 1735SOL     OW16837   1.407   2.308   8.386  0.4698  0.3498  0.0867
 1735SOL    HW116838   1.367   2.361   8.317  2.1057  0.6805 -0.5891
 1735SOL    HW216839   1.338   2.311   8.453  1.2350  1.6105  0.8160
 1736SOL     OW16840   1.711   0.125  11.420 -0.2095 -0.2200  0.0216
 1736SOL    HW116841   1.790   0.093  11.464  0.8559  2.4320  0.0264
 1736SOL    HW216842   1.642   0.066  11.450 -0.8286 -0.3453 -1.6846
 1737SOL     OW16843   0.138   0.973   6.061  0.2212  0.1697  0.4432
 1737SOL    HW116844   0.132   0.983   5.966  1.5728  1.6723  0.5294
 1737SOL    HW216845   0.181   0.888   6.066 -1.1891 -0.6776 -1.4924
 1738SOL     OW16846   3.111   1.457   9.296 -0.4584 -0.4882  0.0248
 1738SOL    HW116847   3.063   1.411   9.227  1.8615  1.5503 -2.8908
 1738SOL    HW216848   3.112   1.541   9.250 -0.0259 -0.5950 -0.1592
 1739SOL     OW16849   0.411   4.343   1.747  0.9366 -0.1169  0.2472
 1739SOL    HW116850   0.475   4.302   1.689 -1.4724 -1.3785 -1.5525
 1739SOL    HW216851   0.347   4.375   1.684 -0.5697  1.6324  2.6806
 1740SOL     OW16852   4.069   3.166  16.305 -0.1359  0.4312  0.6184
 1740SOL    HW116853   4.091   3.112  16.229 -1.1263  2.3331 -1.0044
 1740SOL    HW216854   3.983   3.130  16.323 -0.2110 -0.4857 -1.5339
 1741SOL     OW16855   1.350   0.374   5.160 -0.1185 -0.0316 -0.2063
 1741SOL    HW116856   1.397   0.291   5.156 -0.2998 -0.0524 -1.8516
 1741SOL    HW216857   1.274   0.354   5.215 -0.1372 -0.3574 -0.3451
 1742SOL     OW16858   2.809   2.148   8.400 -0.0230 -0.0847  0.0136
 1742SOL    HW116859   2.819   2.211   8.328 -1.3765  0.6485  0.4664
 1742SOL    HW216860   2.784   2.063   8.363  2.0046 -0.3759 -0.7107
 1743SOL     OW16861   3.635   0.136  10.164 -0.5138  0.4386 -0.3369
 1743SOL    HW116862   3.636   0.151  10.259 -1.0235 -2.4383  0.1220
 1743SOL    HW216863   3.686   0.215  10.149 -1.2970  1.1246  0.5948
 1744SOL     OW16864   0.253   4.351   8.349  0.6153 -0.9189  0.2212
 1744SOL    HW116865   0.222   4.272   8.392  0.6184  0.2261  2.3239
 1744SOL    HW216866   0.197   4.351   8.271 -0.2791 -1.9876  0.8683
 1745SOL     OW16867   0.420   4.324   2.517  0.2258  0.6650  0.2875
 1745SOL    HW116868   0.462   4.242   2.489  0.4554  0.7537  0.3752
 1745SOL    HW216869   0.389   4.298   2.604  0.7412 -1.1337 -0.0658
 1746SOL     OW16870   3.267   1.106   5.429 -0.2458 -0.5835  0.4629
 1746SOL    HW116871   3.174   1.089   5.412  0.4397 -2.7573 -1.0931
 1746SOL    HW216872   3.253   1.185   5.481  2.3262  0.8160 -0.9822
 1747SOL     OW16873   1.175   1.814  17.003 -0.2081  0.5271  0.2554
 1747SOL    HW116874   1.176   1.785  17.094  0.3753 -1.8789 -0.5250
 1747SOL    HW216875   1.216   1.899  17.017  0.1844  0.4818 -0.6281
 1748SOL     OW16876   2.323   2.513   5.111 -0.2718  0.4641 -0.2175
 1748SOL    HW116877   2.288   2.595   5.146 -0.1517 -0.4503  2.0846
 1748SOL    HW216878   2.378   2.548   5.041 -1.3886  1.0973 -0.7673
 1749SOL     OW16879   1.552   4.431   5.912 -0.4304  0.5238 -0.6431
 1749SOL    HW116880   1.543   4.489   5.837 -2.0577  2.8883  1.3510
 1749SOL    HW216881   1.575   4.345   5.877  1.2602  1.2072 -1.1899
 1750SOL     OW16882   2.043   2.433  10.444 -0.4396  0.6948 -0.2987
 1750SOL    HW116883   2.026   2.373  10.517 -0.2667 -1.2710 -1.8870
 1750SOL    HW216884   1.981   2.503  10.463  0.6235  2.1859 -2.3285
 1751SOL     OW16885   4.735   2.932   8.784  0.1245 -0.0270 -0.0288
 1751SOL    HW116886   4.649   2.968   8.806 -0.2467  0.1254 -1.7214
 1751SOL    HW216887   0.035   2.995   8.721  2.2388 -0.6384  0.5878
 1752SOL     OW16888   0.824   1.888   7.699 -0.8688  0.2559 -0.0422
 1752SOL    HW116889   0.917   1.866   7.707 -0.5424  0.3713 -3.5469
 1752SOL    HW216890   0.798   1.885   7.791 -1.3955 -1.4229 -0.2547
 1753SOL     OW16891   3.469   1.917   5.819 -0.6989 -0.1068  0.1520
 1753SOL    HW116892   3.485   1.826   5.844  2.5931  1.0964  2.3925
 1753SOL    HW216893   3.390   1.907   5.765  0.3763 -0.1403 -1.4160
 1754SOL     OW16894   1.816   3.942   3.196 -0.6111  0.5078  0.1065
 1754SOL    HW116895   1.898   3.980   3.165 -1.6006  2.2088 -0.4128
 1754SOL    HW216896   1.844   3.851   3.200  0.5760  0.8736 -0.0212
 1755SOL     OW16897   2.915   3.656   8.824  0.1632  0.6920  0.2893
 1755SOL    HW116898   2.899   3.565   8.850 -1.5883  0.7858 -0.4639
 1755SOL    HW216899   2.903   3.642   8.730  1.2693 -1.5574  0.4589
 1756SOL     OW16900   4.225   0.091   2.954 -0.7486 -0.0653 -0.1053
 1756SOL    HW116901   4.132   0.081   2.973 -1.3155 -0.3337 -3.0215
 1756SOL    HW216902   4.246   0.176   2.993 -1.0043 -0.0877  0.0795
 1757SOL     OW16903   2.991   0.452   5.603  0.1492  0.2460 -0.5157
 1757SOL    HW116904   3.073   0.481   5.643 -0.2559  0.6843  0.0022
 1757SOL    HW216905   2.933   0.424   5.674  0.1900  0.4516 -0.3999
 1758SOL     OW16906   0.965   2.855   6.489 -0.1677  0.6822  0.4807
 1758SOL    HW116907   0.908   2.829   6.561 -1.8772 -0.3835 -1.2669
 1758SOL    HW216908   1.008   2.929   6.532  1.1205  0.2940 -0.1336
 1759SOL     OW16909   2.138   0.030  10.203  0.1506  0.3291 -0.1431
 1759SOL    HW116910   2.206   0.005  10.264 -1.3264 -1.7623  0.6374
 1759SOL    HW216911   2.173   0.117  10.182  0.0850  0.4429  0.2228
 1760SOL     OW16912   0.350   4.211   6.223  0.5271 -0.2083 -0.3778
 1760SOL    HW116913   0.299   4.260   6.287  2.1921 -0.2139  0.9587
 1760SOL    HW216914   0.442   4.218   6.248  0.9428 -0.0911 -1.9465
 1761SOL     OW16915   2.320   0.657   6.263 -0.3853  0.7246  0.7497
 1761SOL    HW116916   2.364   0.742   6.271 -0.9595  0.9967  1.0276
 1761SOL    HW216917   2.391   0.602   6.231  1.0355  1.2511  3.0270
 1762SOL     OW16918   3.192   4.682  17.340  0.1496  0.1594  0.1300
 1762SOL    HW116919   3.231   4.636  17.414 -2.5618  0.4123  1.7138
 1762SOL    HW216920   3.256   0.013  17.318  0.3428 -0.4970 -1.3622
 1763SOL     OW16921   0.667   3.455  15.371  0.4242  0.2463  0.0105
 1763SOL    HW116922   0.590   3.437  15.317 -0.4944 -0.6855  1.6108
 1763SOL    HW216923   0.681   3.364  15.399  0.7368  0.2157 -0.2563
 1764SOL     OW16924   4.359   4.016   1.513  0.1177  0.3676  0.2808
 1764SOL    HW116925   4.319   3.959   1.579 -1.8846 -0.2142 -1.4351
 1764SOL    HW216926   4.450   3.993   1.531 -0.1644 -0.3646  0.7897
 1765SOL     OW16927   3.387   1.844   2.978 -0.0851 -0.4866 -0.3143
 1765SOL    HW116928   3.371   1.816   2.888 -0.3926  1.7542 -0.9552
 1765SOL    HW216929   3.310   1.889   3.011 -0.4787 -1.6037  0.2949
 1766SOL     OW16930   2.163   1.741   8.485 -0.0451  0.0728 -0.1890
 1766SOL    HW116931   2.114   1.758   8.404 -0.2268  0.7496  0.0598
 1766SOL    HW216932   2.206   1.657   8.470  0.6607  0.4158 -0.0675
 1767SOL     OW16933   4.703   2.851   8.076  0.3061 -0.0004  0.4723
 1767SOL    HW116934   4.645   2.922   8.048  0.0841 -1.3740 -2.5043
 1767SOL    HW216935   4.647   2.788   8.120 -0.1240  1.3188  1.8506
 1768SOL     OW16936   4.416   3.049   2.738 -0.8095  0.5552 -0.1581
 1768SOL    HW116937   4.389   3.111   2.805  1.6344  1.2301  0.1894
 1768SOL    HW216938   4.417   3.099   2.656 -2.7638  0.8979  0.0302
 1769SOL     OW16939   0.525   1.422   7.222  0.4141 -0.1729 -0.1913
 1769SOL    HW116940   0.514   1.504   7.271 -1.0779 -1.0791  0.9658
 1769SOL    HW216941   0.611   1.437   7.183  0.0421 -0.8921 -1.2903
 1770SOL     OW16942   4.688   3.793   6.423  0.4384  0.2906  0.3305
 1770SOL    HW116943   4.644   3.756   6.500  1.2835 -1.9982 -0.2725
 1770SOL    HW216944   0.038   3.813   6.457  1.3472 -2.6566 -0.2543
 1771SOL     OW16945   0.157   2.696   3.962 -1.2524 -0.1250  0.0228
 1771SOL    HW116946   0.219   2.639   4.008 -0.4638  0.8598  0.1843
 1771SOL    HW216947   0.085   2.690   4.025  0.5332  0.4626  2.1366
 1772SOL     OW16948   1.367   2.189   2.474 -0.2334  0.3112 -0.9709
 1772SOL    HW116949   1.368   2.114   2.415  1.4530 -1.2425  1.0195
 1772SOL    HW216950   1.452   2.176   2.517 -0.1998  2.6206 -0.3616
 1773SOL     OW16951   0.617   4.000   7.033  0.6361 -0.0616  0.4534
 1773SOL    HW116952   0.582   3.930   7.089 -1.5501  0.6406 -0.0425
 1773SOL    HW216953   0.693   3.957   6.994 -0.3461 -0.2745 -1.2181
 1774SOL     OW16954   2.906   2.263   7.180 -0.3934  0.4906 -0.0098
 1774SOL    HW116955   2.971   2.196   7.156 -0.4265 -0.5073  2.6264
 1774SOL    HW216956   2.943   2.351   7.173  2.2044 -0.2699  3.8868
 1775SOL     OW16957   0.010   3.822   0.444  0.4276  0.3463  0.0754
 1775SOL    HW116958   4.700   3.906   0.449 -0.2812  0.0742 -1.9776
 1775SOL    HW216959   0.025   3.804   0.351  2.2445 -0.9352  0.6237
 1776SOL     OW16960   0.126   3.346   0.634 -0.2643  0.4868  0.1391
 1776SOL    HW116961   0.150   3.269   0.583  0.2149  2.2202 -2.3209
 1776SOL    HW216962   0.043   3.323   0.674 -0.2953  0.3093 -0.0276
 1777SOL     OW16963   2.313   3.154   6.693 -0.2980  0.4426 -0.3439
 1777SOL    HW116964   2.391   3.204   6.670  1.2100 -1.1277  1.3467
 1777SOL    HW216965   2.345   3.075   6.736  0.3755  1.1807  0.5301
 1778SOL     OW16966   4.317   4.643   1.736 -0.2964  0.3963 -0.2340
 1778SOL    HW116967   4.309   4.613   1.645  0.7616  2.0908 -0.8940
 1778SOL    HW216968   4.277   4.730   1.728  1.5991  1.3317  0.3623
 1779SOL     OW16969   0.018   3.402   8.445  0.1226 -0.4235 -0.2130
 1779SOL    HW116970   0.077   3.435   8.513  0.3975 -1.2014 -0.0735
 1779SOL    HW216971   0.067   3.423   8.366  0.4053  0.1379  0.1129
 1780SOL     OW16972   1.256   3.514  12.422  0.4632 -0.3328 -0.1421
 1780SOL    HW116973   1.256   3.421  12.444  0.4976 -0.1746  0.5342
 1780SOL    HW216974   1.338   3.544  12.463  0.5224 -1.8328  0.8490
 1781SOL     OW16975   2.479   4.632   0.585 -0.4349  0.6018  0.3423
 1781SOL    HW116976   2.533   4.570   0.536 -2.9839 -0.6800 -0.8479
 1781SOL    HW216977   2.468   4.708   0.528  0.1452  1.9267  2.0135
 1782SOL     OW16978   2.356   1.968   7.014 -0.0305 -0.0055  0.6759
 1782SOL    HW116979   2.411   2.046   7.023 -1.7118  1.1680  0.7772
 1782SOL    HW216980   2.362   1.946   6.921 -1.7882 -1.6674  0.9497
 1783SOL     OW16981   2.883   3.756   9.078 -0.1494  0.0087  0.3549
 1783SOL    HW116982   2.794   3.736   9.105 -1.2589  0.7400 -2.7450
 1783SOL    HW216983   2.892   3.722   8.988 -1.0154  0.2691  0.1726
 1784SOL     OW16984   2.222   0.170   0.154 -0.3747  0.1650  0.1642
 1784SOL    HW116985   2.154   0.214   0.205  0.0800  0.8810  0.1426
 1784SOL    HW216986   2.167   0.163   0.075  0.0334  1.1724 -0.2092
 1785SOL     OW16987   0.222   1.568   3.016  0.0599  0.2985 -0.3480
 1785SOL    HW116988   0.259   1.612   3.093 -0.1523 -0.2365  0.0618
 1785SOL    HW216989   0.135   1.608   3.020 -0.5847 -1.2177  0.9631
 1786SOL     OW16990   2.752   3.691   3.811 -0.3477 -0.2993 -0.5986
 1786SOL    HW116991   2.721   3.699   3.902  1.5936 -1.8032  0.1887
 1786SOL    HW216992   2.753   3.597   3.798 -0.0890 -0.6716  2.1379
 1787SOL     OW16993   4.590   4.201  12.798  0.3085 -0.6885 -0.3528
 1787SOL    HW116994   4.643   4.270  12.837 -2.5378  0.6617  1.0909
 1787SOL    HW216995   4.510   4.246  12.773  0.3869  0.1574  0.9182
 1788SOL     OW16996   2.193   2.001  10.494  0.5136  0.3947 -0.0044
 1788SOL    HW116997   2.181   1.940  10.568  1.1054 -0.1500 -0.3614
 1788SOL    HW216998   2.162   2.082  10.535  0.9004  0.0320  1.0121
 1789SOL     OW16999   2.718   2.303   7.350  0.1648  0.1037 -0.2669
 1789SOL    HW117000   2.780   2.267   7.287  0.6709  2.2565 -1.0182
 1789SOL    HW217001   2.720   2.398   7.339 -1.5369 -0.2187 -3.3022
 1790SOL     OW17002   3.996   4.708  12.108 -0.1669  0.4307  0.5842
 1790SOL    HW117003   4.084   4.694  12.073 -1.3551 -2.3539 -1.2898
 1790SOL    HW217004   3.949   4.668  12.035  0.3484  0.4069  0.2632
 1791SOL     OW17005   2.842   3.759   1.254  0.1884 -0.0460  0.0083
 1791SOL    HW117006   2.768   3.703   1.276 -0.6610  0.3671 -1.8117
 1791SOL    HW217007   2.900   3.722   1.320 -0.5538 -1.0696  0.0948
 1792SOL     OW17008   0.682   0.444   4.093  0.5781  0.7105 -0.0756
 1792SOL    HW117009   0.693   0.526   4.141  0.3096  0.8241 -0.2073
 1792SOL    HW217010   0.593   0.417   4.118  0.8627 -0.8482 -0.7503
 1793SOL     OW17011   2.460   2.757  15.386 -0.3994 -0.1858  0.3319
 1793SOL    HW117012   2.382   2.708  15.361 -0.7188 -0.4333  1.8166
 1793SOL    HW217013   2.419   2.818  15.447 -0.7250 -0.7182  0.6448
 1794SOL     OW17014   1.571   2.428   6.204 -0.1482 -0.0747 -0.0540
 1794SOL    HW117015   1.622   2.435   6.286 -1.1043  1.3154  0.4196
 1794SOL    HW217016   1.516   2.351   6.220  2.1145 -1.2583  2.1205
 1795SOL     OW17017   3.526   1.936   7.302  0.0658  0.3888 -0.0641
 1795SOL    HW117018   3.435   1.965   7.295 -0.3187 -0.6979  0.3616
 1795SOL    HW217019   3.518   1.864   7.365 -2.7444  0.8441  0.1188
 1796SOL     OW17020   0.633   4.055   8.512 -0.6197 -0.3835  0.0374
 1796SOL    HW117021   0.666   4.080   8.426 -0.4366  1.8845  0.7794
 1796SOL    HW217022   0.675   4.119   8.569 -2.0286 -0.3321  1.0049
 1797SOL     OW17023   3.522   1.748  12.803  0.2063 -0.4124  0.7238
 1797SOL    HW117024   3.599   1.740  12.860  0.0097 -1.9772  0.7594
 1797SOL    HW217025   3.488   1.659  12.805  1.3899 -0.8929 -0.5342
 1798SOL     OW17026   3.936   1.512  15.798 -0.5325 -0.1743 -0.0274
 1798SOL    HW117027   3.930   1.601  15.832 -0.1927 -0.8584  1.8162
 1798SOL    HW217028   4.016   1.503  15.745 -0.7212  1.1909 -0.5386
 1799SOL     OW17029   4.530   1.735   1.726 -0.4427 -0.4244 -0.7144
 1799SOL    HW117030   4.502   1.746   1.635 -0.5053  3.2664 -0.2182
 1799SOL    HW217031   4.452   1.686   1.752 -1.6505  3.0103  2.1145
 1800SOL     OW17032   3.992   0.733   5.897 -0.4539 -0.0754  0.4192
 1800SOL    HW117033   4.074   0.783   5.903 -0.4739  0.1900 -1.4116
 1800SOL    HW217034   3.939   0.779   5.961  2.4945  1.6665  1.6035
 1801SOL     OW17035   4.030   2.585   6.147  0.5693  0.1291  0.1990
 1801SOL    HW117036   4.096   2.532   6.192  0.6415 -0.9239 -1.1429
 1801SOL    HW217037   3.973   2.509   6.134  1.4777 -0.5246  0.0719
 1802SOL     OW17038   0.385   2.376   1.616  0.1984 -0.6808 -0.5853
 1802SOL    HW117039   0.324   2.306   1.592  0.0791 -0.1818 -1.7347
 1802SOL    HW217040   0.333   2.447   1.580  1.3988  0.6704  0.3514
 1803SOL     OW17041   0.736   3.245   7.631  0.5092 -0.4896  0.2297
 1803SOL    HW117042   0.784   3.296   7.696 -3.1884 -0.8191  3.2770
 1803SOL    HW217043   0.688   3.177   7.679  0.9993  0.5247  2.1323
 1804SOL     OW17044   1.554   0.835   5.121  0.1876 -0.1036 -0.4141
 1804SOL    HW117045   1.507   0.916   5.140 -1.5694 -1.6359  1.7339
 1804SOL    HW217046   1.504   0.767   5.165  3.9643 -2.0654  0.9060
 1805SOL     OW17047   4.295   1.643   2.804  0.0135 -0.2731 -0.5206
 1805SOL    HW117048   4.347   1.587   2.862 -2.8927 -1.7629  0.6400
 1805SOL    HW217049   4.280   1.724   2.853 -0.9350 -1.1247  0.5989
 1806SOL     OW17050   2.121   4.689   5.429 -0.4966 -0.0210 -0.7815
 1806SOL    HW117051   2.124   4.695   5.525 -1.3049  0.5577 -0.7914
 1806SOL    HW217052   2.112   0.046   5.412 -2.4074  0.0378  0.5731
 1807SOL     OW17053   1.707   1.013   9.658 -0.3218  0.4842 -0.3558
 1807SOL    HW117054   1.614   1.031   9.642 -1.4235 -0.6453  4.7634
 1807SOL    HW217055   1.723   1.018   9.753  1.2282 -0.3914 -0.5645
 1808SOL     OW17056   4.174   2.680   9.354 -0.0033  0.3090 -0.2365
 1808SOL    HW117057   4.170   2.655   9.447  0.6437 -1.0006 -0.5535
 1808SOL    HW217058   4.222   2.604   9.321 -0.6100 -1.0124  1.8973
 1809SOL     OW17059   1.941   0.496   9.185  0.0352 -0.0095  0.1144
 1809SOL    HW117060   2.031   0.472   9.204 -0.3575 -0.1960  1.6959
 1809SOL    HW217061   1.894   0.427   9.231  0.3726  1.5067  2.7095
 1810SOL     OW17062   1.455   0.399  11.319 -0.2750 -0.2452  0.8624
 1810SOL    HW117063   1.411   0.317  11.296 -0.9533  0.0082  1.2787
 1810SOL    HW217064   1.406   0.459  11.262 -0.6774 -2.1011 -0.7582
 1811SOL     OW17065   4.177   4.433  14.345  0.3505  0.0752 -0.6535
 1811SOL    HW117066   4.123   4.450  14.423  1.6151  0.7081  0.0825
 1811SOL    HW217067   4.161   4.512  14.294  1.1224  0.2569 -0.6128
 1812SOL     OW17068   4.528   2.396   6.378 -0.1087 -0.1771 -0.4029
 1812SOL    HW117069   4.591   2.428   6.442 -0.7539 -0.7133  0.5045
 1812SOL    HW217070   4.554   2.442   6.299  1.1985 -0.5534 -0.1891
 1813SOL     OW17071   4.110   3.449   1.609 -0.2372 -0.0376  0.1581
 1813SOL    HW117072   4.067   3.378   1.656 -0.1044 -1.0135 -1.1859
 1813SOL    HW217073   4.197   3.415   1.589 -0.4664 -1.0621  0.9206
 1814SOL     OW17074   0.972   3.351   1.815 -0.0925 -0.0154 -0.2842
 1814SOL    HW117075   1.012   3.436   1.797 -1.1887  0.1557 -1.8872
 1814SOL    HW217076   0.936   3.370   1.902  0.3181 -0.9641  0.0915
 1815SOL     OW17077   3.424   4.464   4.135  0.0598  0.7037  0.0133
 1815SOL    HW117078   3.469   4.397   4.187 -1.1909 -1.0109 -1.1415
 1815SOL    HW217079   3.465   4.547   4.161  2.3458  0.6886 -3.6301
 1816SOL     OW17080   2.415   2.070   7.770  0.5952  0.4302 -0.2081
 1816SOL    HW117081   2.455   2.033   7.691  0.5402 -2.9241  1.3401
 1816SOL    HW217082   2.372   1.995   7.809  1.6651  0.7386  1.5894
 1817SOL     OW17083   2.464   2.920   0.493 -0.0033 -1.1517  0.6424
 1817SOL    HW117084   2.422   2.983   0.434 -0.1476 -3.2491 -1.4961
 1817SOL    HW217085   2.385   2.887   0.537 -0.9701 -0.4079 -0.5406
 1818SOL     OW17086   0.085   3.512   2.820  0.2507  0.3608  0.1645
 1818SOL    HW117087   0.175   3.514   2.787 -0.7607  1.9463 -2.3925
 1818SOL    HW217088   0.065   3.423   2.849 -1.2356  0.0865 -1.7328
 1819SOL     OW17089   3.993   2.882  14.445 -0.5426  0.0554 -0.1343
 1819SOL    HW117090   3.954   2.900  14.360  1.5070  0.8035 -0.9284
 1819SOL    HW217091   4.058   2.819  14.415  1.1878  2.1050 -0.6926
 1820SOL     OW17092   0.461   3.935   4.635  0.5516  0.3280  0.0497
 1820SOL    HW117093   0.515   3.916   4.712  0.0108  0.2933  0.4160
 1820SOL    HW217094   0.384   3.882   4.654 -0.6656  1.6540 -1.2162
 1821SOL     OW17095   1.905   4.515   5.975  0.6925 -0.0048 -0.2107
 1821SOL    HW117096   1.872   4.598   5.941  0.4137  0.3453  0.9128
 1821SOL    HW217097   1.856   4.520   6.057  3.1999  0.1872  1.2762
 1822SOL     OW17098   0.739   2.840   7.956  0.3327 -0.0963 -0.3249
 1822SOL    HW117099   0.724   2.769   8.019 -3.4011  0.7297 -0.2971
 1822SOL    HW217100   0.706   2.806   7.873 -2.6456  0.1545  0.7673
 1823SOL     OW17101   1.319   3.967   8.201  0.5562 -0.2404  0.3786
 1823SOL    HW117102   1.319   4.002   8.112  0.6616 -0.7117  0.1923
 1823SOL    HW217103   1.310   3.872   8.195 -1.2654  0.0016 -0.6241
 1824SOL     OW17104   0.558   3.984   9.511 -0.0134 -0.0998 -0.3891
 1824SOL    HW117105   0.579   4.018   9.424  1.1700  0.1595 -0.0026
 1824SOL    HW217106   0.482   3.929   9.493 -0.3416 -0.2316  1.4333
 1825SOL     OW17107   0.069   4.170  12.270 -0.3272  0.1422 -0.0654
 1825SOL    HW117108   4.729   4.112  12.265 -0.1216 -0.0345 -1.2669
 1825SOL    HW217109   0.041   4.222  12.345 -0.7832 -3.3833  2.2498
 1826SOL     OW17110   3.935   0.607  16.100 -0.2398  0.2363 -0.3245
 1826SOL    HW117111   3.913   0.689  16.054 -2.8835 -1.7770 -2.6557
 1826SOL    HW217112   3.933   0.544  16.028 -2.7531  1.7893 -1.5985
 1827SOL     OW17113   0.699   2.979   5.139  0.1038  0.1599 -0.0388
 1827SOL    HW117114   0.648   2.977   5.220 -0.6381 -1.0396 -0.5380
 1827SOL    HW217115   0.784   2.994   5.181 -0.3754  1.7048  0.3719
 1828SOL     OW17116   2.659   3.945   0.618 -0.1643  0.0030 -0.5881
 1828SOL    HW117117   2.577   3.911   0.582 -1.3184  2.0499  0.0950
 1828SOL    HW217118   2.654   3.913   0.709  0.6456  1.5927  0.0123
 1829SOL     OW17119   4.259   1.722  13.360 -0.3009  0.4269  0.0473
 1829SOL    HW117120   4.174   1.754  13.391 -0.8032 -0.0495 -0.8278
 1829SOL    HW217121   4.240   1.713  13.267 -1.0132  0.3907  0.1894
 1830SOL     OW17122   3.937   3.818   3.214 -0.7233 -0.4583  0.2252
 1830SOL    HW117123   4.013   3.875   3.209 -0.4146 -0.8935  0.0147
 1830SOL    HW217124   3.863   3.878   3.228  0.0315  0.7613 -1.0029
 1831SOL     OW17125   4.044   4.034   3.070  0.2459 -0.0283 -0.3058
 1831SOL    HW117126   4.019   4.122   3.098 -2.4159 -1.6571  2.4666
 1831SOL    HW217127   3.994   4.021   2.990 -1.0302  0.1723  0.4541
 1832SOL     OW17128   3.977   3.749   4.624  0.2374  0.0218 -0.0957
 1832SOL    HW117129   3.951   3.831   4.582 -0.5836  1.2897  2.9078
 1832SOL    HW217130   3.976   3.784   4.713  0.8377 -1.1656  0.3810
 1833SOL     OW17131   0.199   2.827  17.608  0.7034 -0.3950 -0.6099
 1833SOL    HW117132   0.148   2.906  17.625  1.6076  0.2749 -0.9859
 1833SOL    HW217133   0.149   2.790  17.536  0.2600 -1.2110  0.1242
 1834SOL     OW17134   1.273   4.171   4.562  0.0212 -0.4831 -0.3433
 1834SOL    HW117135   1.209   4.134   4.501  0.8208 -0.5501 -1.1322
 1834SOL    HW217136   1.243   4.140   4.647  2.1945  0.3722  0.7240
 1835SOL     OW17137   3.364   1.744  17.673 -0.1099 -0.6316  0.5725
 1835SOL    HW117138   3.408   1.706   0.004  1.4402 -1.3793 -0.7154
 1835SOL    HW217139   3.277   1.740  17.714 -0.7164  0.2926 -0.6228
 1836SOL     OW17140   3.931   0.074   7.648 -0.3379  0.1054 -0.4183
 1836SOL    HW117141   3.963   0.152   7.693  0.4892 -0.5657  0.1685
 1836SOL    HW217142   3.842   0.066   7.682 -0.0362 -1.1063  0.0829
 1837SOL     OW17143   1.006   0.687   3.226  0.2768  0.4076  0.5850
 1837SOL    HW117144   1.029   0.775   3.256  2.6539 -0.3632  0.9861
 1837SOL    HW217145   0.950   0.667   3.302 -0.7956  2.3660  0.2939
 1838SOL     OW17146   2.213   2.522  17.505 -0.0432  0.6681  0.9963
 1838SOL    HW117147   2.166   2.535  17.422  0.4480 -0.0208  0.6048
 1838SOL    HW217148   2.273   2.596  17.498  0.3336  0.3639  0.9936
 1839SOL     OW17149   1.080   1.992   7.901  0.1074 -0.1010  0.1110
 1839SOL    HW117150   1.139   2.052   7.856 -1.1551  0.1426 -1.2247
 1839SOL    HW217151   1.090   1.910   7.851  0.5743  0.1577 -0.2216
 1840SOL     OW17152   0.119   1.735  14.743  0.6531  0.0195  0.5805
 1840SOL    HW117153   0.079   1.699  14.822  0.2434 -1.4933 -0.3090
 1840SOL    HW217154   0.043   1.789  14.722  1.1421 -0.0082 -1.3210
 1841SOL     OW17155   0.178   2.713  17.351  0.5334 -0.3476  0.0200
 1841SOL    HW117156   0.144   2.701  17.262 -1.9208  0.4436  0.8589
 1841SOL    HW217157   0.222   2.628  17.349 -2.5645 -2.0028  2.5410
 1842SOL     OW17158   2.288   4.245  12.480  0.7254  0.3167  0.4237
 1842SOL    HW117159   2.284   4.223  12.573 -1.4161  0.3658  0.3499
 1842SOL    HW217160   2.369   4.295  12.487  1.8588 -1.4122 -0.4824
 1843SOL     OW17161   0.804   4.411  13.949  0.3104  0.3670  0.4039
 1843SOL    HW117162   0.827   4.426  13.857  0.5249 -0.5083  0.3159
 1843SOL    HW217163   0.791   4.503  13.971  1.0098  0.3181  1.0034
 1844SOL     OW17164   3.338   0.823   0.499  0.5816  0.4893 -0.3000
 1844SOL    HW117165   3.362   0.771   0.422 -0.5248  0.3401 -0.5413
 1844SOL    HW217166   3.243   0.828   0.493  0.7125  3.6777  0.3168
 1845SOL     OW17167   4.405   2.474   2.957  0.1016  0.2527  0.1890
 1845SOL    HW117168   4.455   2.397   2.932  2.0421  1.4959  0.1926
 1845SOL    HW217169   4.396   2.525   2.876 -0.7810 -0.0796  0.0761
 1846SOL     OW17170   0.668   0.636   9.393  0.1352 -0.6371 -0.1274
 1846SOL    HW117171   0.610   0.708   9.418  1.2796  0.2776 -0.0899
 1846SOL    HW217172   0.623   0.562   9.434 -0.7095  0.6000  1.1827
 1847SOL     OW17173   1.808   4.198   4.462 -0.0871 -0.2916  0.5140
 1847SOL    HW117174   1.832   4.107   4.445  0.4119 -0.0955  0.1658
 1847SOL    HW217175   1.732   4.176   4.516 -0.2266  0.2045  0.5236
 1848SOL     OW17176   3.573   2.554   3.765 -0.1726  0.5087 -0.7419
 1848SOL    HW117177   3.636   2.616   3.727  0.3689 -0.5078 -1.5118
 1848SOL    HW217178   3.634   2.486   3.797 -1.5138 -0.9892 -1.3997
 1849SOL     OW17179   1.188   1.520   8.492 -0.0117 -0.1964 -0.6363
 1849SOL    HW117180   1.133   1.443   8.476 -0.3866  0.0740 -0.6380
 1849SOL    HW217181   1.151   1.585   8.433  2.0080 -2.0217 -3.9797
 1850SOL     OW17182   1.842   0.896  10.666 -0.0950 -0.0816  0.1312
 1850SOL    HW117183   1.908   0.827  10.678  0.2829  0.5030  1.4124
 1850SOL    HW217184   1.895   0.953  10.610 -0.6021 -0.2160 -0.4874
 1851SOL     OW17185   3.205   4.025   8.671  0.2883  0.0588  0.1186
 1851SOL    HW117186   3.198   3.955   8.736  1.1631 -0.3239 -0.2038
 1851SOL    HW217187   3.254   3.976   8.605 -0.3004  1.2642 -1.2042
 1852SOL     OW17188   1.592   2.801   1.514 -0.0992 -0.0187  0.2381
 1852SOL    HW117189   1.571   2.708   1.524 -0.8155  0.0158 -0.9782
 1852SOL    HW217190   1.512   2.833   1.556 -0.7654  0.8513 -1.6971
 1853SOL     OW17191   0.492   2.703   5.486 -0.0116 -0.1218  0.1879
 1853SOL    HW117192   0.437   2.679   5.411 -0.0315 -2.4289  0.9421
 1853SOL    HW217193   0.548   2.626   5.483 -0.4135 -0.4673  1.5888
 1854SOL     OW17194   1.429   2.240   9.824 -0.2081  0.3486  0.3711
 1854SOL    HW117195   1.443   2.334   9.824  2.3844 -0.0476  0.7590
 1854SOL    HW217196   1.497   2.210   9.885 -0.7165 -0.5680  0.4956
 1855SOL     OW17197   2.522   4.249  12.851  0.4952 -0.3646 -0.0806
 1855SOL    HW117198   2.475   4.288  12.925  2.6235  1.4791  0.3384
 1855SOL    HW217199   2.598   4.211  12.896  1.4866  3.7986  1.8743
 1856SOL     OW17200   4.099   4.656   7.858  0.0663 -0.3137 -0.3460
 1856SOL    HW117201   4.052   4.638   7.776  1.0367  0.8435 -1.1563
 1856SOL    HW217202   4.148   4.575   7.868 -1.1454 -0.8823  0.8775
 1857SOL     OW17203   0.986   2.012   9.741  0.1053 -0.2528 -0.5767
 1857SOL    HW117204   0.990   1.939   9.803  0.0252 -0.1353 -0.4323
 1857SOL    HW217205   1.078   2.036   9.748 -0.0744  0.9633 -2.3822
 1858SOL     OW17206   0.133   0.381   2.502  0.0678  0.0956  0.3561
 1858SOL    HW117207   0.218   0.378   2.458  0.1175 -0.0317  0.4621
 1858SOL    HW217208   0.146   0.302   2.554  2.1999  1.4706  1.9265
 1859SOL     OW17209   3.032   1.427  16.252  0.1318 -0.6632 -0.9704
 1859SOL    HW117210   2.965   1.370  16.215  1.2367 -2.6294  0.0912
 1859SOL    HW217211   3.111   1.415  16.198  0.9479  1.4312 -0.2528
 1860SOL     OW17212   0.637   0.926   4.290 -0.0686  0.1454 -0.2926
 1860SOL    HW117213   0.645   0.941   4.384 -1.8453 -0.3014 -0.0678
 1860SOL    HW217214   0.723   0.958   4.261 -0.9111  3.1800  0.5335
 1861SOL     OW17215   1.891   4.718   1.529  0.2064 -0.0664  0.2080
 1861SOL    HW117216   1.832   4.690   1.600  0.9531  0.8342  1.1998
 1861SOL    HW217217   1.855   4.675   1.452  0.4634 -1.3565  0.8092
 1862SOL     OW17218   2.972   2.804  14.018  0.7607 -0.1701  0.2231
 1862SOL    HW117219   3.003   2.830  13.932  0.1530  1.7100  0.5723
 1862SOL    HW217220   2.944   2.885  14.062  0.8102  0.3428 -0.7076
 1863SOL     OW17221   4.223   0.744   8.135  0.0154  0.2717 -0.5793
 1863SOL    HW117222   4.213   0.681   8.064  0.4926 -2.0062  1.3575
 1863SOL    HW217223   4.191   0.689   8.207 -1.8924 -0.2729 -1.8304
 1864SOL     OW17224   1.739   2.295   8.917  0.1712  0.1088  0.1417
 1864SOL    HW117225   1.781   2.349   8.849  1.1632 -0.7921  0.0450
 1864SOL    HW217226   1.741   2.205   8.887 -0.5636 -0.9462  3.2798
 1865SOL     OW17227   1.804   1.690   9.265 -0.1484  0.1180 -0.3677
 1865SOL    HW117228   1.886   1.737   9.283 -1.0560  0.4571  2.8636
 1865SOL    HW217229   1.736   1.747   9.300 -0.1201 -0.4632  0.6218
 1866SOL     OW17230   3.084   0.689  14.060  0.0851  0.2989 -0.3082
 1866SOL    HW117231   3.127   0.608  14.035  1.5645  0.8679  0.4138
 1866SOL    HW217232   2.992   0.663  14.065  1.2288 -3.7006 -0.4522
 1867SOL     OW17233   3.482   1.860   3.598 -0.1564 -0.7682 -0.0506
 1867SOL    HW117234   3.519   1.929   3.544  0.7759  0.4906  2.2209
 1867SOL    HW217235   3.412   1.841   3.535  1.0895  0.6842 -1.8652
 1868SOL     OW17236   4.732   3.312  13.265  0.1434  0.1552 -0.0973
 1868SOL    HW117237   4.689   3.397  13.258  0.9314  0.4462 -1.3356
 1868SOL    HW217238   0.089   3.314  13.246  0.7346  1.9168  2.9592
 1869SOL     OW17239   1.343   3.444  14.582 -0.3999  0.5629  0.0200
 1869SOL    HW117240   1.344   3.422  14.489  0.8686  0.5655  0.0312
 1869SOL    HW217241   1.436   3.435  14.602 -0.0277  0.4121 -1.7826
 1870SOL     OW17242   1.634   2.788   7.295  0.1397  0.8279 -0.1929
 1870SOL    HW117243   1.674   2.721   7.239 -0.8115  0.1605 -0.0810
 1870SOL    HW217244   1.653   2.862   7.238  1.4658  0.7596  0.1730
 1871SOL     OW17245   1.724   3.083   8.315 -0.4330 -0.1422 -0.2158
 1871SOL    HW117246   1.666   3.125   8.378 -1.8130  0.2513 -1.7585
 1871SOL    HW217247   1.713   2.995   8.351 -4.9335  0.4458 -0.2048
 1872SOL     OW17248   3.561   0.463  10.816 -0.1077 -0.7758 -0.2917
 1872SOL    HW117249   3.626   0.477  10.885  0.3178 -1.3603 -0.5777
 1872SOL    HW217250   3.605   0.470  10.731  0.2821 -2.8005 -0.2441
 1873SOL     OW17251   0.572   3.863   9.117 -0.1061 -0.0714 -0.0302
 1873SOL    HW117252   0.512   3.796   9.147  0.1314 -0.0058  0.5880
 1873SOL    HW217253   0.517   3.893   9.044  0.0542  1.9860  0.6908
 1874SOL     OW17254   1.877   1.097   4.897  0.0051  0.1946 -0.5008
 1874SOL    HW117255   1.851   1.033   4.963  0.9006 -1.2040 -1.4923
 1874SOL    HW217256   1.960   1.123   4.938 -0.4325  2.8536 -1.3256
 1875SOL     OW17257   2.209   0.051   0.909 -0.0071 -0.0768  0.1140
 1875SOL    HW117258   2.233   0.127   0.963  1.1817 -1.3843  1.4353
 1875SOL    HW217259   2.127   0.081   0.870  0.5961  1.5940  0.1311
 1876SOL     OW17260   3.922   2.627   9.567  0.0120 -0.5406 -0.5039
 1876SOL    HW117261   4.000   2.677   9.545  0.6956 -0.1826  2.7127
 1876SOL    HW217262   3.962   2.541   9.579 -0.6823 -0.5559  1.6394
 1877SOL     OW17263   2.762   4.401  17.550 -0.2178  0.0693 -0.4969
 1877SOL    HW117264   2.770   4.402  17.646  0.0280 -2.7669 -0.4766
 1877SOL    HW217265   2.737   4.493  17.542 -1.2874 -0.1900 -0.1448
 1878SOL     OW17266   2.083   4.064   6.215 -0.0421 -0.1760  0.0839
 1878SOL    HW117267   2.057   4.096   6.129  0.1123 -1.0292 -0.2805
 1878SOL    HW217268   2.129   4.140   6.252 -1.8589  1.9738 -2.1574
 1879SOL     OW17269   1.150   3.070   9.794  0.2381  0.2112 -0.0377
 1879SOL    HW117270   1.188   3.023   9.867 -0.5065 -0.1216  0.1328
 1879SOL    HW217271   1.058   3.046   9.790 -0.4174  2.6751 -0.1890
 1880SOL     OW17272   3.493   0.837  16.457 -0.3933  0.5791 -0.2610
 1880SOL    HW117273   3.460   0.795  16.378 -0.4780  0.9971 -0.4498
 1880SOL    HW217274   3.528   0.764  16.508 -0.3870  0.8085  0.0623
 1881SOL     OW17275   0.288   2.942   7.584  0.0433 -0.0415 -0.0584
 1881SOL    HW117276   0.288   2.847   7.577  0.3631 -0.1320  1.3209
 1881SOL    HW217277   0.217   2.972   7.640  0.3296 -1.2392  0.9297
 1882SOL     OW17278   0.531   4.442   9.288 -0.0531  0.1509  0.3520
 1882SOL    HW117279   0.567   4.502   9.223 -2.0040  1.4733  0.4922
 1882SOL    HW217280   0.585   4.468   9.363 -0.5187 -1.0563  1.1136
 1883SOL     OW17281   0.928   3.787   6.635 -0.3326 -0.0820 -0.3813
 1883SOL    HW117282   0.921   3.848   6.562  0.9762  0.5405  0.0049
 1883SOL    HW217283   1.014   3.813   6.669  0.8216  0.0956 -3.4279
 1884SOL     OW17284   3.324   2.862   9.217 -0.4186  0.1655  0.0896
 1884SOL    HW117285   3.244   2.868   9.270 -0.0257 -2.9213  1.0695
 1884SOL    HW217286   3.291   2.833   9.131  1.9051  0.6729 -0.9476
 1885SOL     OW17287   0.115   2.951   3.781 -0.7307  0.3407 -0.0076
 1885SOL    HW117288   0.173   2.945   3.705  1.8383 -1.2519  2.0899
 1885SOL    HW217289   0.157   2.886   3.837 -0.3380 -1.8782 -2.8851
 1886SOL     OW17290   1.820   2.191   9.170  0.6013 -0.1156  0.4892
 1886SOL    HW117291   1.847   2.283   9.170 -1.6141  0.5240  0.0341
 1886SOL    HW217292   1.810   2.158   9.080 -0.9550 -1.6948  1.2487
 1887SOL     OW17293   0.124   2.255   6.323  0.0093 -0.6758  0.1629
 1887SOL    HW117294   0.051   2.204   6.287 -0.8789  0.6568  0.0837
 1887SOL    HW217295   0.140   2.322   6.257 -1.5267 -0.0218  0.4548
 1888SOL     OW17296   1.513   1.954   2.058  0.4783 -0.4493 -0.0393
 1888SOL    HW117297   1.435   1.968   2.113  0.1646  0.4583 -0.6995
 1888SOL    HW217298   1.513   1.859   2.049  0.6494 -0.5594  1.1500
 1889SOL     OW17299   3.551   4.428  14.370  0.3298  0.1932 -0.3288
 1889SOL    HW117300   3.635   4.454  14.333 -0.0378  1.1035 -0.5339
 1889SOL    HW217301   3.491   4.466  14.306 -1.4337 -0.6959  0.8040
 1890SOL     OW17302   2.751   0.606  11.864  0.2631  0.2241  0.3725
 1890SOL    HW117303   2.799   0.540  11.914 -0.6344  0.3141  1.3616
 1890SOL    HW217304   2.687   0.622  11.933 -0.1419 -0.7266  0.2203
 1891SOL     OW17305   0.233   0.090  13.384 -0.0789  0.1933 -0.7757
 1891SOL    HW117306   0.286   0.144  13.324 -0.9366 -0.0154 -1.7251
 1891SOL    HW217307   0.299   0.031  13.419  0.4645  0.9716 -0.4817
 1892SOL     OW17308   3.940   3.787   4.011  0.5982 -0.4415  0.0086
 1892SOL    HW117309   3.924   3.867   4.061  0.3268  0.0350 -0.8274
 1892SOL    HW217310   3.852   3.754   3.997  0.6660 -1.4439  2.0385
 1893SOL     OW17311   2.379   2.439  15.320 -0.1293 -0.2050 -0.2842
 1893SOL    HW117312   2.389   2.424  15.226  0.3224  0.3799 -0.3329
 1893SOL    HW217313   2.349   2.355  15.353 -0.1395  0.0122  0.2675
 1894SOL     OW17314   0.102   1.242   6.143 -0.4844  0.3308 -0.0757
 1894SOL    HW117315   0.159   1.186   6.196  0.1168  1.3192  0.3155
 1894SOL    HW217316   0.077   1.171   6.083  0.5240 -0.5915  0.5885
 1895SOL     OW17317   0.125   0.477   8.676  0.5617  0.2703  0.2214
 1895SOL    HW117318   0.090   0.388   8.666  0.1655  0.5330 -0.7509
 1895SOL    HW217319   0.061   0.521   8.732 -1.7605 -0.1776 -2.0385
 1896SOL     OW17320   3.362   2.955   2.580 -0.6119 -0.0767 -0.1367
 1896SOL    HW117321   3.382   2.946   2.673  1.1344  0.7428 -0.4411
 1896SOL    HW217322   3.275   2.995   2.581 -0.8950 -0.7166  0.7215
 1897SOL     OW17323   3.982   2.873   9.269  0.3685  0.6005 -0.6377
 1897SOL    HW117324   4.014   2.935   9.334  1.0006 -1.3118  0.8642
 1897SOL    HW217325   4.030   2.793   9.293  0.3596  0.7175 -0.2363
 1898SOL     OW17326   4.079   3.484   3.430  0.1394 -0.2195  0.8537
 1898SOL    HW117327   4.059   3.490   3.336  2.0846  0.8145  0.5095
 1898SOL    HW217328   4.156   3.540   3.443 -0.1382  0.2491  0.5191
 1899SOL     OW17329   4.294   0.582   6.810  0.3708 -0.2196 -0.5354
 1899SOL    HW117330   4.238   0.506   6.825  0.7566 -0.4294 -0.1530
 1899SOL    HW217331   4.242   0.655   6.844  0.8189  0.6086 -1.6137
 1900SOL     OW17332   0.415   4.298   8.641  0.5812 -0.0232 -0.2187
 1900SOL    HW117333   0.380   4.232   8.580 -1.1985  1.6412 -1.0256
 1900SOL    HW217334   0.417   4.380   8.591  2.0614  0.4331  0.5902
 1901SOL     OW17335   2.359   1.830   9.730 -0.1949 -0.1909  0.0614
 1901SOL    HW117336   2.363   1.906   9.788 -1.0798 -0.2420  0.1865
 1901SOL    HW217337   2.302   1.772   9.780 -0.2241  0.6944  1.0604
 1902SOL     OW17338   1.054   3.309   7.553  0.3090  0.2628 -0.3808
 1902SOL    HW117339   1.002   3.233   7.527 -0.6055  0.4112  1.0191
 1902SOL    HW217340   1.043   3.371   7.482  2.2015  0.7794 -0.2296
 1903SOL     OW17341   3.228   2.500   9.498  0.0174  0.4810  0.3106
 1903SOL    HW117342   3.248   2.417   9.541 -0.4236 -0.5468 -1.5003
 1903SOL    HW217343   3.263   2.481   9.411  0.6726  1.6419  0.3198
 1904SOL     OW17344   1.438   0.026   9.168  0.1259 -0.4730 -0.6676
 1904SOL    HW117345   1.416   0.118   9.185 -1.4656 -1.1822  1.0771
 1904SOL    HW217346   1.439   0.036   9.073  0.1984  3.3232 -0.2778
 1905SOL     OW17347   2.671   3.341   8.199 -0.3719  0.2544 -0.0518
 1905SOL    HW117348   2.614   3.394   8.256 -0.8191  1.0835 -1.2803
 1905SOL    HW217349   2.683   3.263   8.253 -3.5682 -1.5018 -1.8847
 1906SOL     OW17350   0.502   3.770   5.915 -0.6921 -0.3783  0.6582
 1906SOL    HW117351   0.553   3.789   5.836 -3.0837 -1.3983 -1.1429
 1906SOL    HW217352   0.530   3.821   5.990  0.2737  0.4053 -0.2288
 1907SOL     OW17353   4.298   2.449   9.258 -0.3927 -0.5017 -0.3973
 1907SOL    HW117354   4.260   2.380   9.204 -1.8173 -1.0908  1.3642
 1907SOL    HW217355   4.354   2.396   9.315  0.1955  0.8080  0.2369
 1908SOL     OW17356   0.985   1.599  13.942 -0.4963  0.0610  0.1334
 1908SOL    HW117357   0.925   1.526  13.956  0.5044 -0.4281  1.8749
 1908SOL    HW217358   0.930   1.677  13.941 -0.2440  0.2421  0.7007
 1909SOL     OW17359   3.115   0.417   7.852  0.3809  0.5275 -0.3274
 1909SOL    HW117360   3.131   0.443   7.943  1.8424  0.9829 -0.7089
 1909SOL    HW217361   3.169   0.345   7.821  2.2978  1.8417 -0.0678
 1910SOL     OW17362   2.731   2.332  15.327 -0.9008 -0.0060  0.1180
 1910SOL    HW117363   2.816   2.287  15.329  0.2895  2.2236 -0.1602
 1910SOL    HW217364   2.673   2.277  15.380  1.3118 -2.3605  0.1220
 1911SOL     OW17365   3.361   2.154   2.778 -0.0418  0.2303  0.0711
 1911SOL    HW117366   3.348   2.160   2.873  0.2120  2.4809 -0.0565
 1911SOL    HW217367   3.280   2.105   2.760  1.1060 -1.6257 -0.0022
 1912SOL     OW17368   3.234   4.176  12.068  0.0688  0.4804  0.3856
 1912SOL    HW117369   3.301   4.140  12.010 -1.2024  0.9783 -1.3965
 1912SOL    HW217370   3.190   4.232  12.004  1.3744  1.4656  0.3351
 1913SOL     OW17371   2.964   0.845  13.388  0.2625 -0.1943  0.5426
 1913SOL    HW117372   3.027   0.823  13.456 -0.9537 -1.8196  1.1408
 1913SOL    HW217373   2.936   0.755  13.371  0.5040 -0.2497  0.4425
 1914SOL     OW17374   0.295   4.266  16.409 -0.2272 -0.2486  0.0201
 1914SOL    HW117375   0.370   4.220  16.372 -2.1317 -0.7359 -3.2108
 1914SOL    HW217376   0.243   4.197  16.450  1.3256 -0.6487  1.3079
 1915SOL     OW17377   2.150   1.411   4.337 -0.1374  0.0894  0.0968
 1915SOL    HW117378   2.245   1.422   4.328 -0.2092  1.3698  0.9281
 1915SOL    HW217379   2.145   1.317   4.354 -0.8244 -0.0917 -1.1539
 1916SOL     OW17380   3.764   1.261  16.514 -0.2825  0.1590  0.1518
 1916SOL    HW117381   3.702   1.188  16.505 -0.2255  0.3358 -1.6667
 1916SOL    HW217382   3.800   1.262  16.426  1.3971 -3.1369  0.8076
 1917SOL     OW17383   1.455   1.563   7.814  0.0484 -0.5314  0.1292
 1917SOL    HW117384   1.441   1.469   7.827  0.9333 -0.7317 -0.2970
 1917SOL    HW217385   1.493   1.592   7.897  0.0027  0.2540 -0.1278
 1918SOL     OW17386   1.914   3.316   8.479 -0.2165 -0.0776  0.0365
 1918SOL    HW117387   1.889   3.316   8.572  3.2047  1.0469  0.9348
 1918SOL    HW217388   1.903   3.222   8.461  1.6435 -0.0773 -1.0352
 1919SOL     OW17389   2.596   3.421   6.500 -0.2597  0.0604 -0.4334
 1919SOL    HW117390   2.601   3.445   6.408  0.6168 -1.0834 -0.6840
 1919SOL    HW217391   2.664   3.480   6.532 -2.1122  0.5090  2.6915
 1920SOL     OW17392   4.531   3.791   2.478 -0.4210 -0.5937 -0.1346
 1920SOL    HW117393   4.470   3.772   2.550  0.2519  1.6189  1.0047
 1920SOL    HW217394   4.606   3.830   2.522 -1.1157 -0.2652  0.7632
 1921SOL     OW17395   3.645   2.701   2.657 -0.6813 -0.5119 -0.1020
 1921SOL    HW117396   3.643   2.765   2.727 -0.7687 -1.1888  0.5196
 1921SOL    HW217397   3.559   2.660   2.663 -2.6345  3.7616  0.6582
 1922SOL     OW17398   3.415   3.892   3.306 -0.4451  0.2355  0.4179
 1922SOL    HW117399   3.319   3.888   3.312 -0.6928  0.6738 -3.3172
 1922SOL    HW217400   3.434   3.800   3.285 -2.6611 -0.1224 -0.1074
 1923SOL     OW17401   3.445   3.124   4.660 -0.1504  0.1587  0.9046
 1923SOL    HW117402   3.413   3.089   4.577  0.1125  0.7178  0.5626
 1923SOL    HW217403   3.488   3.052   4.705  0.0856  0.2454  0.8179
 1924SOL     OW17404   1.146   2.798  15.070  0.2908 -0.0708 -0.0335
 1924SOL    HW117405   1.167   2.760  14.985 -0.7078  1.5075 -0.9954
 1924SOL    HW217406   1.159   2.888  15.040  1.4526 -0.2165  0.0277
 1925SOL     OW17407   0.162   0.527   5.214  0.1988 -0.1023  0.2717
 1925SOL    HW117408   0.077   0.555   5.247  0.4164  0.0128  0.7458
 1925SOL    HW217409   0.166   0.433   5.233 -0.9011  0.1563  1.7927
 1926SOL     OW17410   4.202   0.280   5.504 -0.1640  0.0391 -0.2914
 1926SOL    HW117411   4.145   0.303   5.578 -0.3477  0.1684 -0.4753
 1926SOL    HW217412   4.141   0.300   5.434 -0.4246 -3.9503 -1.1910
 1927SOL     OW17413   1.384   4.618   4.771 -0.5013  0.1808  0.0268
 1927SOL    HW117414   1.360   4.528   4.791  1.4352  0.1177  2.0860
 1927SOL    HW217415   1.299   4.657   4.750  0.0032  1.6604  0.7517
 1928SOL     OW17416   1.634   2.417  10.847  0.6295  0.4617  0.5501
 1928SOL    HW117417   1.622   2.374  10.931  0.7080  2.8481  1.7883
 1928SOL    HW217418   1.547   2.454  10.836  0.6559  1.1781  2.8437
 1929SOL     OW17419   3.866   0.739   5.640  0.3252 -0.1395  0.0820
 1929SOL    HW117420   3.886   0.702   5.726  0.7017 -1.2741 -0.4902
 1929SOL    HW217421   3.775   0.770   5.645  1.0067  1.5467  1.6163
 1930SOL     OW17422   1.467   2.679  16.729  0.2760  0.4356  0.1425
 1930SOL    HW117423   1.405   2.721  16.789  2.1960  0.8518  1.8561
 1930SOL    HW217424   1.414   2.601  16.712 -0.6295  0.9623  0.5991
 1931SOL     OW17425   0.577   2.308  13.639  0.1276 -0.7031  0.4530
 1931SOL    HW117426   0.614   2.387  13.599 -0.7474  0.8617  2.7481
 1931SOL    HW217427   0.647   2.247  13.617  0.6317 -0.5598  1.6185
 1932SOL     OW17428   4.368   3.523   8.200 -0.1098  0.0955 -0.5614
 1932SOL    HW117429   4.415   3.511   8.117  1.9930 -1.2716  0.8440
 1932SOL    HW217430   4.335   3.444   8.241  0.3597 -0.6665 -1.6614
 1933SOL     OW17431   2.270   1.448   3.111  0.4525  0.3411 -0.6102
 1933SOL    HW117432   2.189   1.495   3.133  0.3129  0.9856 -2.4665
 1933SOL    HW217433   2.323   1.502   3.053 -0.2698 -0.5571 -2.1033
 1934SOL     OW17434   2.226   1.487   8.439 -0.2064  0.1360 -0.5898
 1934SOL    HW117435   2.168   1.475   8.514 -1.8100  0.2581 -1.8108
 1934SOL    HW217436   2.173   1.463   8.363  0.7567  0.7357 -1.4530
 1935SOL     OW17437   0.605   1.911   8.436  0.2718  0.0598  0.8057
 1935SOL    HW117438   0.598   1.934   8.528 -1.3687  1.2107  0.4082
 1935SOL    HW217439   0.700   1.921   8.426  0.5193 -2.7535  0.5133
 1936SOL     OW17440   2.891   4.647   3.779 -0.3016 -0.2192  0.2671
 1936SOL    HW117441   2.887   4.591   3.856  0.3788  0.9629  1.1671
 1936SOL    HW217442   2.842   4.599   3.712 -1.0235 -0.0130  0.6483
 1937SOL     OW17443   1.747   2.863   9.581  0.1729  0.1592 -0.7471
 1937SOL    HW117444   1.795   2.946   9.591  0.0278  0.3856 -1.9472
 1937SOL    HW217445   1.660   2.896   9.558 -1.1961 -2.9752 -0.0095
 1938SOL     OW17446   3.138   0.450   4.665  0.0964 -0.0925  0.2441
 1938SOL    HW117447   3.096   0.533   4.689 -0.3076  0.0104 -0.8321
 1938SOL    HW217448   3.215   0.472   4.614 -0.7250 -0.4908 -1.1599
 1939SOL     OW17449   4.399   1.494   3.245  0.6055  0.0392  0.3245
 1939SOL    HW117450   4.337   1.426   3.271  0.8735 -0.0194  0.8053
 1939SOL    HW217451   4.381   1.565   3.307 -1.4270 -0.2739  0.0950
 1940SOL     OW17452   3.773   2.738   5.340 -0.0269  0.4461  0.6577
 1940SOL    HW117453   3.831   2.671   5.377 -0.7659 -0.5420  0.0319
 1940SOL    HW217454   3.821   2.754   5.259 -0.3697  1.6719  0.6956
 1941SOL     OW17455   2.402   0.639  11.219  0.0835 -0.4473 -0.1373
 1941SOL    HW117456   2.484   0.667  11.179  0.0289  0.0051  0.0577
 1941SOL    HW217457   2.429   0.634  11.311  0.1190  1.6209 -0.0182
 1942SOL     OW17458   2.745   3.107   3.278  0.0874 -0.3524  0.1490
 1942SOL    HW117459   2.662   3.123   3.233  0.6372  0.6899 -0.5026
 1942SOL    HW217460   2.778   3.039   3.219  1.2056  0.2609  0.0778
 1943SOL     OW17461   1.956   0.852   2.066 -0.0709 -0.1947 -0.2967
 1943SOL    HW117462   2.000   0.847   2.151  0.7876  1.6190 -0.6455
 1943SOL    HW217463   1.892   0.922   2.081 -0.6550 -0.7553 -0.1858
 1944SOL     OW17464   3.763   3.293  12.199  0.1891  0.3365  0.0584
 1944SOL    HW117465   3.808   3.230  12.256 -0.9192  0.0954  0.6540
 1944SOL    HW217466   3.833   3.358  12.189 -0.3612  0.7303 -1.2700
 1945SOL     OW17467   0.840   1.315   3.979  0.3207  0.2653  0.1010
 1945SOL    HW117468   0.771   1.327   3.914 -0.0067 -1.2834  0.1543
 1945SOL    HW217469   0.785   1.320   4.057  2.3719 -0.6990  1.6115
 1946SOL     OW17470   4.165   0.349   4.373  0.3289 -0.0078 -0.7108
 1946SOL    HW117471   4.125   0.306   4.448  1.4049  0.3824  0.0812
 1946SOL    HW217472   4.092   0.406   4.348  0.8108  0.3819 -1.2125
 1947SOL     OW17473   0.272   2.355   7.410 -0.0700 -0.3109  0.4550
 1947SOL    HW117474   0.324   2.429   7.378 -1.8818  0.1225 -1.5677
 1947SOL    HW217475   0.342   2.290   7.408  0.9706  0.8220  0.0343
 1948SOL     OW17476   0.862   3.507   8.986 -0.1482 -0.4962  0.5116
 1948SOL    HW117477   0.814   3.473   9.061 -1.0341 -2.8910 -1.1140
 1948SOL    HW217478   0.803   3.576   8.958  0.4595 -0.5744 -0.9563
 1949SOL     OW17479   3.786   1.192   7.360 -0.4444 -0.0822 -0.0871
 1949SOL    HW117480   3.835   1.256   7.412  2.4006 -3.1031  0.9195
 1949SOL    HW217481   3.742   1.148   7.432  2.4021 -0.9570  1.1292
 1950SOL     OW17482   4.517   2.508  16.269  0.0755  0.2774  0.3533
 1950SOL    HW117483   4.552   2.572  16.208 -0.5282  1.1396  0.9260
 1950SOL    HW217484   4.544   2.553  16.349  2.3764  2.5632 -1.7229
 1951SOL     OW17485   2.360   3.630   0.746 -0.4872 -0.1429  0.0982
 1951SOL    HW117486   2.274   3.656   0.711 -0.0082  0.1159 -0.8856
 1951SOL    HW217487   2.407   3.622   0.663  0.7384  0.8623  0.6929
 1952SOL     OW17488   4.093   3.722   8.553  0.3726 -0.1324 -0.1210
 1952SOL    HW117489   4.144   3.741   8.631 -1.0576  0.2961  0.7081
 1952SOL    HW217490   4.153   3.675   8.495 -0.5084 -1.4649  0.0398
 1953SOL     OW17491   1.879   0.596   8.942  0.3476  0.2081 -0.1930
 1953SOL    HW117492   1.925   0.534   8.886  2.2578  0.6433  0.8601
 1953SOL    HW217493   1.903   0.559   9.028  0.9855  0.1752 -0.3825
 1954SOL     OW17494   0.466   0.659   7.611 -0.1000 -0.1081  0.1812
 1954SOL    HW117495   0.441   0.677   7.520 -2.0797 -2.8567  0.1696
 1954SOL    HW217496   0.449   0.742   7.655  0.6390  0.7731 -1.2011
 1955SOL     OW17497   0.512   3.498   0.504 -0.0594 -0.2695 -0.5222
 1955SOL    HW117498   0.474   3.446   0.574 -0.6666  0.1841 -0.5199
 1955SOL    HW217499   0.447   3.563   0.478 -0.1131  0.5696  1.7865
 1956SOL     OW17500   4.640   3.035   6.169  0.0801  0.4775  0.2226
 1956SOL    HW117501   4.677   3.092   6.102  1.5367 -2.6901 -1.7112
 1956SOL    HW217502   4.552   3.072   6.159  0.4280  1.0081 -0.8407
 1957SOL     OW17503   4.714   3.179   2.059  0.6210  0.3243 -0.4033
 1957SOL    HW117504   0.020   3.169   1.974  0.9822  1.7533 -0.3875
 1957SOL    HW217505   4.734   3.272   2.068  0.5740  0.5029 -2.1499
 1958SOL     OW17506   3.446   3.690  17.172  0.2778 -0.0437 -0.5451
 1958SOL    HW117507   3.521   3.749  17.162 -0.8279  1.8503  2.2812
 1958SOL    HW217508   3.379   3.725  17.114 -0.3804  1.8258  1.3150
 1959SOL     OW17509   4.015   0.092   2.354 -0.6761 -0.6596 -0.0684
 1959SOL    HW117510   3.966   0.151   2.297 -0.3206 -0.8379 -0.5676
 1959SOL    HW217511   4.084   0.071   2.291 -0.0912  0.2111  0.2926
 1960SOL     OW17512   3.148   1.368   5.078  0.5120  0.2094  0.2762
 1960SOL    HW117513   3.124   1.460   5.090 -0.3381  0.4593 -3.3138
 1960SOL    HW217514   3.069   1.326   5.111  0.8830  1.1712  2.3615
 1961SOL     OW17515   2.889   0.301   5.796  0.0806 -0.3499  0.1672
 1961SOL    HW117516   2.873   0.207   5.784 -2.2026  0.0381  0.1874
 1961SOL    HW217517   2.967   0.298   5.851  0.0912 -0.3136  0.1545
 1962SOL     OW17518   1.204   3.362   0.756 -0.0664 -0.3104 -0.7104
 1962SOL    HW117519   1.137   3.360   0.688 -2.9670 -1.8802  2.2254
 1962SOL    HW217520   1.162   3.330   0.835  2.0510 -1.1413  0.0850
 1963SOL     OW17521   0.269   3.962   7.527 -0.2157 -0.5563 -0.3228
 1963SOL    HW117522   0.290   3.922   7.442  2.0868  2.3641 -1.1261
 1963SOL    HW217523   0.192   4.013   7.500 -0.5686 -0.9485 -0.0508
 1964SOL     OW17524   2.261   1.846   6.079  0.5358  0.1669 -0.3168
 1964SOL    HW117525   2.322   1.808   6.143 -1.4315 -0.6678  1.0743
 1964SOL    HW217526   2.191   1.881   6.135  1.3798 -0.9055  1.4035
 1965SOL     OW17527   3.320   4.157  14.306  0.3495 -0.0432  0.1919
 1965SOL    HW117528   3.405   4.128  14.337  0.2486  0.9017  1.3606
 1965SOL    HW217529   3.267   4.084  14.338  0.0836 -0.4448 -1.1468
 1966SOL     OW17530   0.190   1.079   9.713 -0.3590  0.4930  0.1775
 1966SOL    HW117531   0.170   1.170   9.736  1.9815  1.4361 -1.4416
 1966SOL    HW217532   0.210   1.047   9.801 -0.4523 -0.7701 -0.2673
 1967SOL     OW17533   2.903   3.817   0.981  0.4625  0.4621 -0.3234
 1967SOL    HW117534   2.822   3.780   0.945  0.5039 -0.3730  0.4335
 1967SOL    HW217535   2.874   3.810   1.072 -0.8051 -0.1116 -0.7685
 1968SOL     OW17536   2.912   4.206   8.736 -0.1928 -0.0856  0.5946
 1968SOL    HW117537   2.952   4.158   8.809 -0.5113 -1.3967 -0.0951
 1968SOL    HW217538   2.897   4.290   8.780  0.8358 -1.0168  2.7254
 1969SOL     OW17539   2.480   1.794   8.976  0.5675 -0.0997  0.0181
 1969SOL    HW117540   2.573   1.805   8.999  0.6940  2.5518 -1.7265
 1969SOL    HW217541   2.488   1.739   8.898 -0.7666  0.4316 -0.4977
 1970SOL     OW17542   0.451   0.987   4.097  0.5851  0.0268 -0.2836
 1970SOL    HW117543   0.464   0.903   4.051 -0.7262  0.5588 -1.6136
 1970SOL    HW217544   0.515   0.976   4.167 -0.5738 -0.4700  0.7050
 1971SOL     OW17545   3.632   2.135   7.158  0.6764 -0.3209  0.0010
 1971SOL    HW117546   3.561   2.074   7.173  0.3584  0.2760  0.9212
 1971SOL    HW217547   3.651   2.166   7.246  1.0604  1.2143 -0.6147
 1972SOL     OW17548   3.539   3.357   5.102 -0.5785 -0.2054 -0.0777
 1972SOL    HW117549   3.458   3.329   5.059 -1.7174  2.1315  0.5009
 1972SOL    HW217550   3.514   3.414   5.175 -0.5583 -2.6809  1.8651
 1973SOL     OW17551   0.181   0.235   3.075 -0.3318  0.6835 -0.0699
 1973SOL    HW117552   0.197   0.329   3.087  0.0191  0.4670  1.1653
 1973SOL    HW217553   0.153   0.226   2.984 -1.1455 -1.4643  0.3944
 1974SOL     OW17554   0.281   0.477   9.859  0.5187  0.2831  0.5251
 1974SOL    HW117555   0.368   0.470   9.899  0.3785 -1.8090  0.4636
 1974SOL    HW217556   0.279   0.406   9.795  1.5238 -0.1604  0.9804
 1975SOL     OW17557   0.439   3.252  15.966 -0.0696  0.1443  0.3973
 1975SOL    HW117558   0.438   3.157  15.977 -1.7970 -0.2046 -2.6466
 1975SOL    HW217559   0.410   3.291  16.048 -1.1679 -1.9336  1.0000
 1976SOL     OW17560   3.693   4.034   3.724 -0.5505  0.0691 -0.1782
 1976SOL    HW117561   3.698   4.096   3.652 -0.7098  2.5623  1.9262
 1976SOL    HW217562   3.652   4.080   3.798  0.6228  0.8480 -0.0199
 1977SOL     OW17563   2.423   0.755   7.026  0.1041  0.4388 -1.0601
 1977SOL    HW117564   2.483   0.750   7.101 -2.2206  0.6801  0.8207
 1977SOL    HW217565   2.445   0.677   6.976  1.4354 -1.7985  2.9657
 1978SOL     OW17566   0.321   3.912   1.774  0.2461 -0.3907  0.3242
 1978SOL    HW117567   0.271   3.949   1.702 -2.8122  0.1269  2.7507
 1978SOL    HW217568   0.342   3.825   1.740 -1.7136 -0.4959 -0.6137
 1979SOL     OW17569   3.523   0.394  14.899 -0.0521 -0.2627 -0.6670
 1979SOL    HW117570   3.534   0.392  14.804 -2.8544 -2.0414 -0.9694
 1979SOL    HW217571   3.477   0.313  14.922  0.1212 -0.0551  0.4192
 1980SOL     OW17572   0.060   1.127  17.059 -0.5451 -0.5047  0.3237
 1980SOL    HW117573   4.702   1.142  17.063 -0.5227 -0.2165 -0.2655
 1980SOL    HW217574   0.094   1.216  17.049 -0.4295 -0.9588 -3.1919
 1981SOL     OW17575   3.821   0.011   6.043 -0.5295 -0.4615  0.0885
 1981SOL    HW117576   3.765   0.037   5.970 -0.5909  1.3425  0.7975
 1981SOL    HW217577   3.767   4.683   6.089 -1.8793  0.1136 -0.6672
 1982SOL     OW17578   1.170   1.911   1.232  0.3298  0.1301 -0.1954
 1982SOL    HW117579   1.140   1.943   1.317 -0.1069  0.1342 -0.3569
 1982SOL    HW217580   1.203   1.989   1.188  1.5462 -0.3004 -0.0578
 1983SOL     OW17581   1.191   2.746   2.449  0.3129 -0.0417 -0.4823
 1983SOL    HW117582   1.161   2.700   2.370 -2.0171  0.3499  0.1705
 1983SOL    HW217583   1.263   2.690   2.478 -1.1065 -2.2515 -1.2055
 1984SOL     OW17584   0.414   3.606   5.654  0.2198  0.0634  0.3151
 1984SOL    HW117585   0.373   3.557   5.582  0.2579  1.0214 -0.3677
 1984SOL    HW217586   0.356   3.680   5.671 -0.8901 -0.8387  0.4167
 1985SOL     OW17587   2.701   1.586  16.413 -0.0650  0.5980  0.6432
 1985SOL    HW117588   2.623   1.603  16.466  0.6653  3.0639  0.9192
 1985SOL    HW217589   2.658   1.565  16.330  1.0757  0.1914  0.1491
 1986SOL     OW17590   1.704   2.666   5.486  0.0992 -0.0468 -0.5770
 1986SOL    HW117591   1.641   2.675   5.558 -1.8636 -1.6411 -2.1104
 1986SOL    HW217592   1.718   2.572   5.474 -1.0664 -0.0541 -1.8755
 1987SOL     OW17593   4.589   0.325   7.870  0.5089 -0.2662 -0.3782
 1987SOL    HW117594   4.631   0.244   7.899 -0.3313  0.2944  2.3301
 1987SOL    HW217595   4.664   0.376   7.839  0.2171 -1.0660 -2.4014
 1988SOL     OW17596   0.508   4.636   3.095 -0.3756  0.3028 -0.5759
 1988SOL    HW117597   0.490   4.612   3.186  2.0979 -1.9248 -0.6820
 1988SOL    HW217598   0.558   4.563   3.058 -1.5476 -0.1420 -1.2618
 1989SOL     OW17599   3.290   0.424   8.551  0.2242  0.1620 -0.2331
 1989SOL    HW117600   3.203   0.461   8.569  1.2287  2.3464  0.1389
 1989SOL    HW217601   3.281   0.370   8.473 -2.3174  1.0607 -0.5687
 1990SOL     OW17602   4.605   3.149   7.916  0.3151 -0.0137  0.0898
 1990SOL    HW117603   4.548   3.155   7.993  0.1686  0.1988 -0.0359
 1990SOL    HW217604   4.629   3.242   7.913  0.7014 -0.0840  1.0210
 1991SOL     OW17605   1.943   2.535   3.210 -0.8357  0.0065 -0.3062
 1991SOL    HW117606   1.915   2.508   3.298  1.6140  1.2787  0.8536
 1991SOL    HW217607   2.038   2.530   3.220 -0.7328 -0.2217 -1.3809
 1992SOL     OW17608   0.650   1.025   6.936 -0.1518  0.3896  0.4194
 1992SOL    HW117609   0.726   0.969   6.921  2.0550  3.2346  0.9031
 1992SOL    HW217610   0.629   0.997   7.025  0.0139 -1.8276 -0.2448
 1993SOL     OW17611   3.943   1.905   7.569  0.1117 -0.0988  0.4246
 1993SOL    HW117612   3.992   1.971   7.617 -0.9391  0.8787  0.1471
 1993SOL    HW217613   3.852   1.935   7.574  0.1236 -0.1261  0.7772
 1994SOL     OW17614   4.594   0.134   1.970  0.3663  0.1285 -0.2851
 1994SOL    HW117615   4.539   0.174   2.037  0.6856 -1.2271  0.7955
 1994SOL    HW217616   4.591   0.200   1.900  2.2807 -1.4709 -1.8881
 1995SOL     OW17617   1.197   4.069   6.962  0.2781 -0.2242  0.1362
 1995SOL    HW117618   1.211   4.015   6.884 -1.1642  0.1342 -0.3790
 1995SOL    HW217619   1.284   4.061   7.001  0.0723 -1.9808  0.2682
 1996SOL     OW17620   3.130   2.496  14.891  0.6744 -0.4694 -0.3575
 1996SOL    HW117621   3.152   2.587  14.911  0.5237 -0.6282  0.5219
 1996SOL    HW217622   3.185   2.443  14.949  1.9125  1.0062 -0.1785
 1997SOL     OW17623   0.247   3.877   0.583 -0.2872 -0.1437  0.3108
 1997SOL    HW117624   0.167   3.912   0.621 -0.9742 -2.4104  0.9465
 1997SOL    HW217625   0.197   3.831   0.515  2.1274 -0.7778 -1.0415
 1998SOL     OW17626   2.613   1.137   1.538  0.6756  0.2781  0.8802
 1998SOL    HW117627   2.606   1.211   1.599 -0.6195  2.0947 -1.4927
 1998SOL    HW217628   2.521   1.125   1.516  1.0881 -3.0411  1.0719
 1999SOL     OW17629   2.354   3.880   4.488 -0.5434  0.0818  0.1638
 1999SOL    HW117630   2.311   3.895   4.573 -2.2147 -1.1543 -0.4659
 1999SOL    HW217631   2.301   3.805   4.459 -0.6633  0.0234  0.5258
 2000SOL     OW17632   0.114   3.045   3.284  0.4134 -0.2089  0.5264
 2000SOL    HW117633   0.019   3.037   3.291  0.1984  0.8567 -1.0399
 2000SOL    HW217634   0.135   3.037   3.377 -1.4646  0.2386  0.9975
 2001SOL     OW17635   2.142   0.287   2.015 -0.5771  0.5586  0.5051
 2001SOL    HW117636   2.156   0.286   1.920  0.4013  0.4187  0.6552
 2001SOL    HW217637   2.094   0.368   2.033 -2.0390 -0.9266  3.2238
 2002SOL     OW17638   1.028   1.002   1.753  0.5247 -0.5666 -0.3081
 2002SOL    HW117639   1.061   1.087   1.781 -1.5122  0.8623 -2.2737
 2002SOL    HW217640   0.936   1.021   1.735  0.2128 -0.6698  1.1429
 2003SOL     OW17641   0.817   1.563   8.130 -0.2037  0.3099  0.1568
 2003SOL    HW117642   0.901   1.584   8.171  1.5706 -1.4516 -2.5861
 2003SOL    HW217643   0.760   1.551   8.206  0.3745 -1.6051  0.2716
 2004SOL     OW17644   2.926   3.769   5.652  0.2593  0.3679  0.5067
 2004SOL    HW117645   2.879   3.742   5.731  0.8112  1.8129  1.3395
 2004SOL    HW217646   2.856   3.814   5.606  1.3507  4.6813  2.9960
 2005SOL     OW17647   2.841   3.307   3.409  0.6240 -0.0525 -0.2838
 2005SOL    HW117648   2.798   3.245   3.350  0.9024 -2.2742  1.8426
 2005SOL    HW217649   2.914   3.250   3.430 -0.2910 -0.1778  2.4899
 2006SOL     OW17650   0.603   1.942  11.353 -0.2429  0.3800 -0.3735
 2006SOL    HW117651   0.542   1.874  11.383  1.4654 -0.0401  2.1994
 2006SOL    HW217652   0.574   2.003  11.421 -0.9926 -0.0929 -0.2667
 2007SOL     OW17653   1.163   0.964   6.706  0.3102  0.4851 -0.4735
 2007SOL    HW117654   1.165   0.920   6.791 -1.7899 -0.1987 -0.7731
 2007SOL    HW217655   1.102   1.034   6.728 -2.3276 -1.8430 -0.3095
 2008SOL     OW17656   3.834   1.123   4.742 -0.1095  0.3152 -0.4532
 2008SOL    HW117657   3.919   1.133   4.786 -1.1245  0.8082  1.4017
 2008SOL    HW217658   3.799   1.047   4.788  0.3253  0.2213 -0.2775
 2009SOL     OW17659   1.256   0.179   2.143 -0.0241  0.5378  0.2087
 2009SOL    HW117660   1.240   0.165   2.236  0.0334  1.6704  0.3953
 2009SOL    HW217661   1.324   0.247   2.148  1.4233 -0.8222 -0.6734
 2010SOL     OW17662   0.039   2.725   2.347 -0.5871 -0.2498  0.6033
 2010SOL    HW117663   0.009   2.635   2.361 -1.0883 -0.3315 -1.0068
 2010SOL    HW217664   4.722   2.747   2.424 -2.0189  0.1424 -0.5020
 2011SOL     OW17665   0.710   3.203   9.379 -0.0619  0.0636  0.1873
 2011SOL    HW117666   0.649   3.158   9.321  1.2641 -1.8777  0.3075
 2011SOL    HW217667   0.683   3.172   9.465  1.7290 -0.4703  0.5636
 2012SOL     OW17668   2.207   1.085   8.728  0.3160  0.2289 -0.1476
 2012SOL    HW117669   2.196   1.130   8.812 -0.6190  0.4792 -0.4058
 2012SOL    HW217670   2.218   0.994   8.756  2.8300  0.5484 -0.1125
 2013SOL     OW17671   4.114   3.517  11.264  0.0047 -0.3552 -0.0338
 2013SOL    HW117672   4.084   3.514  11.355  2.8864 -1.9849  0.8701
 2013SOL    HW217673   4.133   3.424  11.251  1.4189 -0.0805  0.0437
 2014SOL     OW17674   2.752   0.302   9.242  0.0148 -0.6745 -0.0487
 2014SOL    HW117675   2.835   0.259   9.264  0.1890  0.6920  1.9309
 2014SOL    HW217676   2.751   0.381   9.295 -0.6198 -0.8835  0.2545
 2015SOL     OW17677   1.430   0.283   6.109 -0.4912 -0.0512  0.3142
 2015SOL    HW117678   1.410   0.229   6.033  0.9043  0.3449 -0.3254
 2015SOL    HW217679   1.526   0.286   6.106 -0.5186 -0.6437 -0.8557
 2016SOL     OW17680   0.599   3.966   6.230 -0.2219 -0.9868 -0.2135
 2016SOL    HW117681   0.622   3.909   6.303  2.4725  0.9826  0.4671
 2016SOL    HW217682   0.604   4.056   6.262  2.6944 -0.8422 -1.1000
 2017SOL     OW17683   2.130   4.423  11.068  0.2135  0.2413 -0.3333
 2017SOL    HW117684   2.176   4.354  11.020  2.2222  1.3726 -0.0560
 2017SOL    HW217685   2.206   4.466  11.107  0.0732  0.0864  0.1110
 2018SOL     OW17686   1.607   4.143   2.104 -0.5963  0.0807  0.1422
 2018SOL    HW117687   1.573   4.062   2.143 -1.5486  0.6355  0.4575
 2018SOL    HW217688   1.671   4.166   2.171 -0.7147 -1.9545  0.9493
 2019SOL     OW17689   4.122   0.395   2.162  0.5014 -0.0313 -0.2323
 2019SOL    HW117690   4.055   0.379   2.228  4.0797  0.0902  3.3963
 2019SOL    HW217691   4.159   0.307   2.157  1.5802  0.4002  0.3309
 2020SOL     OW17692   2.562   2.544   3.234  0.2832  0.3623  0.0178
 2020SOL    HW117693   2.644   2.499   3.213 -0.7708 -1.3328 -0.4213
 2020SOL    HW217694   2.562   2.602   3.158 -1.9263  1.2669  0.7251
 2021SOL     OW17695   4.406   1.205   9.918  0.2805  0.1101 -0.0505
 2021SOL    HW117696   4.369   1.280   9.965 -0.9138 -0.4311 -0.1265
 2021SOL    HW217697   4.491   1.238   9.890  1.3027  0.0174  3.0230
 2022SOL     OW17698   3.381   2.817  15.251  0.0622  0.1631 -0.5402
 2022SOL    HW117699   3.315   2.789  15.315  1.3302 -3.0090 -0.5946
 2022SOL    HW217700   3.424   2.896  15.284  3.6889 -2.4755  1.1931
 2023SOL     OW17701   4.594   4.472  12.276 -0.1411 -0.2239 -0.1288
 2023SOL    HW117702   4.551   4.390  12.253  0.1385 -1.1153  2.5066
 2023SOL    HW217703   4.525   4.539  12.276 -0.2454 -0.3302 -0.2887
 2024SOL     OW17704   3.526   2.654   9.238 -0.3592 -0.5194 -0.6789
 2024SOL    HW117705   3.467   2.729   9.230 -2.7866 -2.2736  0.9516
 2024SOL    HW217706   3.605   2.706   9.255 -0.2158 -0.6061 -1.0848
 2025SOL     OW17707   0.370   2.488   3.805  0.1456 -0.3190  0.2860
 2025SOL    HW117708   0.408   2.410   3.846  1.7969 -0.1209 -0.8483
 2025SOL    HW217709   0.353   2.550   3.875 -0.6745  1.1205 -1.2074
 2026SOL     OW17710   2.664   0.838   4.759 -0.3814 -0.5734  0.3471
 2026SOL    HW117711   2.574   0.869   4.765  0.4196  2.0339 -1.2244
 2026SOL    HW217712   2.707   0.922   4.776 -0.7341 -0.6216  1.4602
 2027SOL     OW17713   1.501   3.227  15.423  0.0641 -0.3240 -0.0120
 2027SOL    HW117714   1.566   3.242  15.355  0.5445  0.2906  0.5832
 2027SOL    HW217715   1.449   3.305  15.403 -1.9707 -1.3508  1.1983
 2028SOL     OW17716   3.888   1.876   3.602 -0.1569 -0.3179 -0.6758
 2028SOL    HW117717   3.891   1.793   3.553  1.1062 -1.2935  1.0890
 2028SOL    HW217718   3.942   1.923   3.538 -1.0100  3.5599  1.4959
 2029SOL     OW17719   3.350   1.549   7.576 -0.6364  0.0662 -0.3817
 2029SOL    HW117720   3.289   1.476   7.580 -0.3864 -0.2060 -1.4340
 2029SOL    HW217721   3.301   1.610   7.632 -0.4881 -0.2930  0.1365
 2030SOL     OW17722   3.854   1.334   6.927  0.4859 -0.5295 -0.1204
 2030SOL    HW117723   3.930   1.277   6.941 -0.1015 -0.7767  2.0225
 2030SOL    HW217724   3.895   1.419   6.945 -1.2960  0.3771 -0.3818
 2031SOL     OW17725   2.270   2.335   8.983 -0.6659  0.2817 -0.0205
 2031SOL    HW117726   2.299   2.256   9.027 -0.8387 -0.9388 -2.0827
 2031SOL    HW217727   2.294   2.317   8.892  0.3301 -1.3936  0.5919
 2032SOL     OW17728   3.906   1.613   3.816  0.0995 -0.1167 -0.2535
 2032SOL    HW117729   3.821   1.617   3.773  0.5420 -1.5073 -1.2741
 2032SOL    HW217730   3.904   1.704   3.847 -1.0133 -0.6656  1.3097
 2033SOL     OW17731   2.017   3.598   6.044  0.5823 -0.3486  0.6609
 2033SOL    HW117732   1.959   3.536   6.000 -0.3712  0.9398  0.0861
 2033SOL    HW217733   1.959   3.627   6.114 -0.1847  1.7979 -0.8432
 2034SOL     OW17734   3.969   3.696   5.830  0.1103 -0.2062 -0.5790
 2034SOL    HW117735   3.927   3.774   5.868  0.2204 -0.8803  0.9322
 2034SOL    HW217736   3.897   3.633   5.837  1.3657 -1.4942  0.7421
 2035SOL     OW17737   4.230   0.006   8.248 -0.3065 -0.3084  0.3204
 2035SOL    HW117738   4.251   4.654   8.218 -0.0174 -0.6360  1.4579
 2035SOL    HW217739   4.317   0.035   8.277 -0.8041  2.2108 -0.7427
 2036SOL     OW17740   4.316   2.159  14.771 -0.5637  0.4009 -0.3533
 2036SOL    HW117741   4.390   2.135  14.826 -0.0637 -0.7371 -1.5181
 2036SOL    HW217742   4.267   2.077  14.762  3.5549 -1.8912 -1.7638
 2037SOL     OW17743   2.303   4.192  17.676 -0.7388 -0.2246 -0.0317
 2037SOL    HW117744   2.338   4.103  17.687  0.2291  0.4092  1.9216
 2037SOL    HW217745   2.382   4.232  17.641 -1.3660  1.5218  0.5845
 2038SOL     OW17746   3.220   3.312  13.900  0.2019 -0.3272 -0.0004
 2038SOL    HW117747   3.229   3.291  13.807  3.6469 -0.3486  0.3162
 2038SOL    HW217748   3.189   3.403  13.903  0.3205 -0.3044  0.4723
 2039SOL     OW17749   0.358   0.535   4.373 -0.1540 -0.2468 -0.1627
 2039SOL    HW117750   0.309   0.600   4.424 -2.2383 -0.5295 -1.8154
 2039SOL    HW217751   0.278   0.495   4.338 -0.1717 -0.4289  0.0875
 2040SOL     OW17752   1.917   0.071  14.366  0.3903 -0.9306 -0.5208
 2040SOL    HW117753   1.880   4.721  14.350  1.1957 -0.9431 -2.3435
 2040SOL    HW217754   1.859   0.132  14.320 -0.5312 -1.7195 -0.3856
 2041SOL     OW17755   4.245   4.673   6.463 -0.2682  0.3061 -0.2463
 2041SOL    HW117756   4.164   4.627   6.487  0.1894 -0.3208  0.0981
 2041SOL    HW217757   4.233   4.686   6.369  2.1599 -1.5616 -0.8149
 2042SOL     OW17758   0.971   0.165   6.571  0.0496  0.2200  0.2656
 2042SOL    HW117759   1.040   0.190   6.633 -0.5852 -0.0362  1.0682
 2042SOL    HW217760   0.971   0.069   6.571 -2.0418  0.2190  0.2822
 2043SOL     OW17761   0.655   0.327   7.358  0.2293 -0.5851 -0.8640
 2043SOL    HW117762   0.749   0.330   7.341  0.0159 -1.4650 -2.2561
 2043SOL    HW217763   0.654   0.238   7.393 -4.5669  0.2660  1.2365
 2044SOL     OW17764   4.500   2.989  12.164  0.4269 -0.1521 -0.0449
 2044SOL    HW117765   4.492   3.078  12.130 -0.0393 -0.9503 -2.0118
 2044SOL    HW217766   4.488   2.997  12.259 -1.5975 -0.9225 -0.2428
 2045SOL     OW17767   4.652   1.712   4.020 -0.1127 -0.3518  0.4211
 2045SOL    HW117768   4.695   1.740   4.101 -0.1348 -0.5545  0.5028
 2045SOL    HW217769   4.561   1.733   4.044 -0.2367  0.0082 -0.3469
 2046SOL     OW17770   0.425   1.963   5.553  0.2212 -0.3544 -0.2327
 2046SOL    HW117771   0.454   1.955   5.462 -0.5321 -0.1179 -0.4984
 2046SOL    HW217772   0.478   2.038   5.581 -0.4011 -0.4464  1.1642
 2047SOL     OW17773   1.955   0.838   8.875 -0.1534  0.6568 -0.0463
 2047SOL    HW117774   1.936   0.754   8.918  2.2237 -0.1471 -0.5595
 2047SOL    HW217775   2.051   0.841   8.880 -0.1764 -0.1564  0.9204
 2048SOL     OW17776   0.006   4.018   5.782  0.3153 -0.5629 -0.2650
 2048SOL    HW117777   4.676   3.965   5.824  1.4330  0.6510  3.0835
 2048SOL    HW217778   0.081   4.020   5.842  0.8168 -3.4194 -0.7921
 2049SOL     OW17779   0.694   4.543  15.751 -0.3659  0.3499 -0.0663
 2049SOL    HW117780   0.678   4.624  15.702 -1.2357  0.9799  1.2699
 2049SOL    HW217781   0.684   4.572  15.842  0.9626  0.5000  0.0282
 2050SOL     OW17782   4.166   4.206   7.190 -0.2463  0.3353  0.1988
 2050SOL    HW117783   4.167   4.155   7.271  2.1420  0.9400  0.5548
 2050SOL    HW217784   4.073   4.219   7.172  0.4471 -0.0008 -3.5670
 2051SOL     OW17785   2.094   3.081   2.104  0.6469  0.3035 -0.1605
 2051SOL    HW117786   2.036   3.157   2.113  0.3617  0.0321  0.2649
 2051SOL    HW217787   2.151   3.113   2.034 -0.5514 -1.5890 -1.9663
 2052SOL     OW17788   2.805   3.158   8.398 -0.2124  0.0060  0.3326
 2052SOL    HW117789   2.782   3.091   8.462 -0.5615 -1.3198 -1.1742
 2052SOL    HW217790   2.800   3.236   8.453  3.7045  1.2586 -1.0511
 2053SOL     OW17791   2.918   3.442   8.171  0.1808 -0.0032  0.5988
 2053SOL    HW117792   2.837   3.394   8.189 -0.8954  1.6718  0.3081
 2053SOL    HW217793   2.969   3.366   8.143  1.2263  0.8493  0.1865
 2054SOL     OW17794   3.332   3.856  16.787 -0.1813  0.0493 -0.4143
 2054SOL    HW117795   3.348   3.861  16.882 -0.3997  1.7112 -0.4754
 2054SOL    HW217796   3.241   3.885  16.776  0.3699  1.7224 -0.4667
 2055SOL     OW17797   4.534   0.699   2.673  0.0021  0.2716  0.0425
 2055SOL    HW117798   4.540   0.605   2.653  2.8536  0.2893  0.8237
 2055SOL    HW217799   4.626   0.709   2.698  0.2744 -1.6858 -0.1368
 2056SOL     OW17800   3.445   3.506  16.120 -0.1690 -0.4370  0.3251
 2056SOL    HW117801   3.431   3.416  16.150 -2.7206  0.1389  0.8784
 2056SOL    HW217802   3.410   3.556  16.194  0.7323  1.2097 -0.3535
 2057SOL     OW17803   2.842   1.126   7.943  0.6424 -0.0608 -0.6064
 2057SOL    HW117804   2.806   1.200   7.895 -0.3853 -0.2797 -0.1592
 2057SOL    HW217805   2.930   1.118   7.906  0.2613 -1.0088 -1.2878
 2058SOL     OW17806   0.198   3.132   1.870 -0.1131 -0.8261  0.5069
 2058SOL    HW117807   0.270   3.181   1.910 -1.0351  2.4507 -1.8839
 2058SOL    HW217808   0.210   3.052   1.922 -0.1546  0.1622  2.0352
 2059SOL     OW17809   2.355   3.369  11.758  0.3137  0.2125  0.4681
 2059SOL    HW117810   2.412   3.365  11.681  1.2636  1.9502  1.0836
 2059SOL    HW217811   2.387   3.289  11.799  0.1185 -1.7727 -3.2615
 2060SOL     OW17812   4.648   0.593   5.268 -0.0764 -0.0489  0.1888
 2060SOL    HW117813   4.632   0.606   5.175  1.4410  3.1499  0.3662
 2060SOL    HW217814   4.562   0.597   5.310 -1.7443 -0.8879 -3.2293
 2061SOL     OW17815   2.609   3.663   5.273  0.1420 -0.3761 -0.1740
 2061SOL    HW117816   2.636   3.572   5.260  1.2196  0.1498 -1.6134
 2061SOL    HW217817   2.679   3.707   5.224  1.6073 -1.7947  0.6593
 2062SOL     OW17818   0.714   0.443  10.326  0.1160  0.5934 -0.5145
 2062SOL    HW117819   0.638   0.389  10.347 -0.7262  1.4387 -1.3861
 2062SOL    HW217820   0.783   0.381  10.302 -1.1184 -1.0940  0.3188
 2063SOL     OW17821   1.426   4.280   7.170 -0.4257 -0.3675 -0.3104
 2063SOL    HW117822   1.498   4.226   7.137  1.4262  3.6780 -2.9640
 2063SOL    HW217823   1.471   4.362   7.150  1.5905 -1.7124 -1.3477
 2064SOL     OW17824   2.307   1.478   4.039 -0.4306  0.2472 -0.1535
 2064SOL    HW117825   2.333   1.563   4.073 -1.1819 -0.3290  1.8449
 2064SOL    HW217826   2.390   1.435   4.062  0.6188  1.6135 -1.3457
 2065SOL     OW17827   4.057   0.431   5.315 -0.3845  0.4610  0.1792
 2065SOL    HW117828   4.022   0.517   5.337 -2.4655 -0.2615 -0.3024
 2065SOL    HW217829   4.033   0.438   5.223 -1.5255  0.2974  0.4613
 2066SOL     OW17830   1.700   1.219   7.977 -0.9863 -0.5119  0.2359
 2066SOL    HW117831   1.727   1.303   8.013  1.8867 -1.5480  0.4708
 2066SOL    HW217832   1.642   1.245   7.905  0.1580  1.0166 -0.1344
 2067SOL     OW17833   4.409   2.971   7.572  0.2850 -0.8166 -0.8620
 2067SOL    HW117834   4.351   2.966   7.497 -1.1000 -0.8141  0.2073
 2067SOL    HW217835   4.355   2.916   7.629  0.8337  1.1233  1.5195
 2068SOL     OW17836   1.284   1.873   9.069  0.1712  0.0602 -0.0383
 2068SOL    HW117837   1.259   1.912   8.985  1.0127  1.9104  0.5914
 2068SOL    HW217838   1.205   1.898   9.116 -0.5855 -1.6246 -0.4061
 2069SOL     OW17839   0.725   2.951   8.806 -0.1153 -0.6397  0.7709
 2069SOL    HW117840   0.682   2.881   8.757 -0.6652 -0.0402  0.3953
 2069SOL    HW217841   0.669   2.956   8.884 -0.4899  0.7713  0.4210
 2070SOL     OW17842   3.032   0.653   6.579  0.0909  0.1260 -0.1503
 2070SOL    HW117843   3.006   0.703   6.501  1.4170 -0.9580 -1.2822
 2070SOL    HW217844   3.100   0.596   6.542  1.3513  1.4553  0.1082
 2071SOL     OW17845   3.683   4.154  17.059 -0.7432 -0.2289 -0.2629
 2071SOL    HW117846   3.775   4.180  17.052 -0.7122 -0.5005 -0.8530
 2071SOL    HW217847   3.650   4.210  16.988  0.9277  1.0781  0.0085
 2072SOL     OW17848   1.828   3.964   6.302  0.1506  0.1577 -0.0287
 2072SOL    HW117849   1.861   3.937   6.388 -0.2156  2.2835  0.7785
 2072SOL    HW217850   1.903   4.002   6.256 -0.2641  2.3203  1.0887
 2073SOL     OW17851   2.937   0.564  10.517  0.5913 -0.2541  0.2692
 2073SOL    HW117852   2.966   0.594  10.603 -0.9899  1.0684  0.3164
 2073SOL    HW217853   2.933   0.647  10.471  2.6663 -0.8393 -0.9794
 2074SOL     OW17854   4.654   3.159   4.585 -0.3437 -0.3235 -0.5800
 2074SOL    HW117855   0.005   3.122   4.585 -1.2797 -2.5273 -1.5780
 2074SOL    HW217856   4.658   3.189   4.495  1.0616  0.6358 -0.1895
 2075SOL     OW17857   0.097   3.766  10.047  0.0390 -0.0018 -0.5627
 2075SOL    HW117858   0.105   3.729   9.959 -1.1241  1.4777 -1.3127
 2075SOL    HW217859   0.080   3.685  10.094 -0.7609  0.3866 -0.1815
 2076SOL     OW17860   1.095   3.587   5.666 -0.5322 -0.0144  1.2832
 2076SOL    HW117861   1.148   3.507   5.669 -1.7689 -0.9734 -2.2327
 2076SOL    HW217862   1.022   3.552   5.615 -0.8390  1.4759  0.7143
 2077SOL     OW17863   3.746   4.730   3.480 -1.3057 -0.1424 -0.0302
 2077SOL    HW117864   3.672   4.707   3.535  0.2245 -1.3519  1.5275
 2077SOL    HW217865   3.719   0.074   3.436 -0.2765  0.5256  0.5465
 2078SOL     OW17866   3.414   0.188   5.753 -0.5070  0.7023 -0.0495
 2078SOL    HW117867   3.327   0.198   5.715 -0.9679 -0.9342  0.5597
 2078SOL    HW217868   3.465   0.222   5.680  0.5697 -0.6534  0.0747
 2079SOL     OW17869   4.556   1.567   8.657  0.0940 -0.2371 -0.2690
 2079SOL    HW117870   4.591   1.650   8.689 -1.3019  0.5075 -0.6962
 2079SOL    HW217871   4.467   1.580   8.690 -0.3743  0.5532 -1.8873
 2080SOL     OW17872   2.136   0.532   2.817 -0.0842  0.3184  0.6192
 2080SOL    HW117873   2.129   0.530   2.722  1.4342  1.6219  0.4769
 2080SOL    HW217874   2.218   0.580   2.827  0.6515 -0.5634 -1.1085
 2081SOL     OW17875   2.502   1.961   7.547  0.2534 -0.3704 -0.0734
 2081SOL    HW117876   2.522   2.018   7.474 -0.2767 -0.0464  0.0344
 2081SOL    HW217877   2.448   1.897   7.500  1.3573 -0.8576 -0.6965
 2082SOL     OW17878   4.415   2.934   5.907 -0.2674  0.5823 -0.7664
 2082SOL    HW117879   4.432   3.019   5.947  2.6552  0.3569 -1.5056
 2082SOL    HW217880   4.391   2.875   5.979  0.4586  1.3027  0.0699
 2083SOL     OW17881   4.354   1.050   3.751  0.4270 -0.1215  0.1987
 2083SOL    HW117882   4.326   1.112   3.820  0.4035  0.6236 -0.4778
 2083SOL    HW217883   4.450   1.051   3.753  0.4527 -1.3257 -1.4543
 2084SOL     OW17884   3.555   2.475  17.657  0.4694 -0.9085 -0.0361
 2084SOL    HW117885   3.504   2.406  17.615  0.4240 -0.5677 -0.5429
 2084SOL    HW217886   3.511   2.477  17.742 -0.2637 -0.5687 -0.4250
 2085SOL     OW17887   4.638   3.231   8.185 -0.3379  0.0045 -0.1362
 2085SOL    HW117888   4.666   3.318   8.155  2.1947 -0.4352  0.9467
 2085SOL    HW217889   4.721   3.184   8.179 -1.0039 -1.2469  0.4819
 2086SOL     OW17890   1.104   0.397   4.206  0.0429  0.0545  0.3774
 2086SOL    HW117891   1.035   0.459   4.182  1.6636  1.1229 -1.5426
 2086SOL    HW217892   1.155   0.415   4.127  2.1411 -0.0342  1.7098
 2087SOL     OW17893   3.610   1.974  15.147  0.4084  0.2730  0.2445
 2087SOL    HW117894   3.593   1.886  15.113 -0.9672  0.5335  0.2592
 2087SOL    HW217895   3.525   2.009  15.173  0.0315 -1.9626  1.9940
 2088SOL     OW17896   0.865   4.392  16.996  0.3489 -0.3541  0.9825
 2088SOL    HW117897   0.856   4.369  16.903 -0.1987  0.7079  0.7754
 2088SOL    HW217898   0.814   4.331  17.049  0.6794 -1.3241  0.1662
 2089SOL     OW17899   0.471   0.897  14.216 -0.1493 -0.1321  0.1587
 2089SOL    HW117900   0.490   0.867  14.127 -1.5493 -1.2763  0.2551
 2089SOL    HW217901   0.437   0.986  14.204  2.3539  1.0008  1.4869
 2090SOL     OW17902   2.316   1.386  13.694  0.4673  0.1717 -0.0596
 2090SOL    HW117903   2.284   1.322  13.758  0.8257 -0.2759 -0.3354
 2090SOL    HW217904   2.409   1.366  13.686  0.5382  0.8644 -0.8732
 2091SOL     OW17905   4.444   3.719  12.646  0.1080 -0.4085  0.1862
 2091SOL    HW117906   4.387   3.650  12.677 -1.1271  0.1845 -0.7948
 2091SOL    HW217907   4.465   3.682  12.560 -1.4891 -0.1898 -0.2949
 2092SOL     OW17908   4.459   1.097   6.949 -0.5395 -0.1875 -0.2937
 2092SOL    HW117909   4.475   1.021   6.893  1.0722 -1.0087  1.2474
 2092SOL    HW217910   4.368   1.118   6.928 -1.6641 -2.2471  2.5202
 2093SOL     OW17911   1.856   1.929   3.508 -0.1741  0.1323 -0.0592
 2093SOL    HW117912   1.889   1.851   3.553 -0.2902  0.9635  1.4476
 2093SOL    HW217913   1.941   1.965   3.481  0.2812 -0.8673  0.0439
 2094SOL     OW17914   1.801   3.243   1.693 -0.0925 -0.0810 -0.0253
 2094SOL    HW117915   1.859   3.240   1.617 -1.5647  0.2375 -1.1647
 2094SOL    HW217916   1.838   3.317   1.741 -1.4687 -0.2610  1.2890
 2095SOL     OW17917   1.549   1.421   5.872 -0.2349  0.1874  0.1716
 2095SOL    HW117918   1.563   1.498   5.928  1.5870 -0.0474  0.0133
 2095SOL    HW217919   1.621   1.421   5.809 -0.2488 -0.7968  0.1536
 2096SOL     OW17920   4.595   2.839   2.554 -0.0733 -0.0088  0.0194
 2096SOL    HW117921   4.573   2.920   2.508  0.2378 -0.1286 -0.3412
 2096SOL    HW217922   4.515   2.787   2.551  1.1884 -2.0151  0.3712
 2097SOL     OW17923   2.237   0.162  14.192  0.3407  0.4737 -0.4036
 2097SOL    HW117924   2.273   0.113  14.266  0.1083  1.3594  0.2962
 2097SOL    HW217925   2.312   0.192  14.142 -0.8143  2.3583 -1.0157
 2098SOL     OW17926   1.979   1.831   3.050 -0.0450 -0.1940  0.7869
 2098SOL    HW117927   1.903   1.889   3.055  0.5960  0.7331 -0.3941
 2098SOL    HW217928   2.035   1.879   3.110  3.5291 -2.2788 -0.9055
 2099SOL     OW17929   3.012   0.166   6.976  0.2887 -0.8064  0.2129
 2099SOL    HW117930   2.995   0.141   7.066  0.7868  2.6750  1.2665
 2099SOL    HW217931   3.062   0.247   6.985 -0.9374 -0.2012  1.4105
 2100SOL     OW17932   4.151   1.100   4.540 -0.2663 -0.1608  0.4154
 2100SOL    HW117933   4.138   1.007   4.518 -0.9911 -0.2536  1.2574
 2100SOL    HW217934   4.062   1.112   4.572  0.1282  2.4790  0.5020
 2101SOL     OW17935   1.423   0.209  10.971 -0.1506  0.3761  0.6255
 2101SOL    HW117936   1.412   0.151  11.046 -0.4145 -1.0808 -0.5392
 2101SOL    HW217937   1.516   0.197  10.949 -0.2383  1.2647 -0.2269
 2102SOL     OW17938   2.520   2.822   4.216  0.4041  0.5114 -0.3051
 2102SOL    HW117939   2.505   2.914   4.195 -1.1563  0.2835 -0.1813
 2102SOL    HW217940   2.507   2.784   4.130  1.5796 -0.1124 -0.2115
 2103SOL     OW17941   2.537   4.569   4.402 -0.1307 -0.3282 -0.3493
 2103SOL    HW117942   2.523   4.480   4.368  1.2829  0.1793 -2.2390
 2103SOL    HW217943   2.530   4.626   4.325  0.8784 -0.0698 -0.2411
 2104SOL     OW17944   2.366   2.701   6.597 -0.3561  0.3770  0.1296
 2104SOL    HW117945   2.342   2.732   6.684  1.1552  0.6266  0.4557
 2104SOL    HW217946   2.426   2.768   6.564  0.1280  0.5494  1.3587
 2105SOL     OW17947   3.269   0.068   1.692  0.0372  0.1076 -0.4747
 2105SOL    HW117948   3.216   0.136   1.735  2.6339  1.3675  0.6949
 2105SOL    HW217949   3.275   0.112   1.607  0.4954 -0.8583 -0.9355
 2106SOL     OW17950   2.397   1.822   8.655  0.7228  0.5036  0.1590
 2106SOL    HW117951   2.317   1.814   8.707  0.7015 -1.6995 -0.2386
 2106SOL    HW217952   2.431   1.734   8.669  0.1883  0.0308 -1.5331
 2107SOL     OW17953   0.088   1.050   4.163  0.5573  0.1466  0.1075
 2107SOL    HW117954   0.130   1.134   4.184  0.8065 -0.0116  0.2418
 2107SOL    HW217955   0.087   1.006   4.248 -2.4358 -0.7706 -0.4024
 2108SOL     OW17956   0.793   3.259  16.591  0.1343 -0.3501  0.2503
 2108SOL    HW117957   0.812   3.165  16.597 -2.8431 -0.9012  0.8907
 2108SOL    HW217958   0.701   3.275  16.572  0.1454  2.5379  2.5387
 2109SOL     OW17959   2.242   4.043  11.478 -0.2760 -0.1271  0.0129
 2109SOL    HW117960   2.158   4.052  11.525  1.5186  0.4212  3.1476
 2109SOL    HW217961   2.297   4.039  11.557 -0.4328  2.1461  0.2282
 2110SOL     OW17962   0.652   4.144   3.183 -0.0221  0.3145 -0.3252
 2110SOL    HW117963   0.643   4.112   3.273 -0.6122 -1.3327 -0.9814
 2110SOL    HW217964   0.628   4.236   3.195  2.2608  0.9290 -0.3061
 2111SOL     OW17965   0.347   4.493   3.468  0.2379 -0.3594  0.4356
 2111SOL    HW117966   0.338   4.587   3.451 -1.3563 -0.5602  0.2042
 2111SOL    HW217967   0.339   4.459   3.379 -1.5626 -3.3366  1.7512
 2112SOL     OW17968   1.503   0.195   5.688  0.3129 -0.6509  0.3005
 2112SOL    HW117969   1.473   0.285   5.676 -0.5730 -1.2300 -1.7353
 2112SOL    HW217970   1.517   0.172   5.596  1.1277 -0.1675  0.3078
 2113SOL     OW17971   4.400   4.043   2.663 -0.1262  0.0422  0.3368
 2113SOL    HW117972   4.404   4.116   2.601  0.5603 -0.5784 -0.3506
 2113SOL    HW217973   4.492   4.034   2.685 -0.2457  2.2711  1.7340
 2114SOL     OW17974   3.033   3.727  12.642 -0.1446 -0.6018 -0.3341
 2114SOL    HW117975   3.104   3.789  12.623 -0.9135  0.2219 -0.5028
 2114SOL    HW217976   3.062   3.680  12.720  3.6713 -0.1082 -1.4339
 2115SOL     OW17977   2.205   3.823   7.931  0.3736  0.0225 -0.1823
 2115SOL    HW117978   2.263   3.851   8.001 -0.4483 -0.3500  0.6504
 2115SOL    HW217979   2.220   3.730   7.917 -2.5121 -0.6008  0.7482
 2116SOL     OW17980   4.415   3.244   3.386  0.1879 -0.1611  0.2339
 2116SOL    HW117981   4.386   3.328   3.349  3.9618  0.7364 -0.5990
 2116SOL    HW217982   4.415   3.266   3.479 -0.7380  0.7707  0.0170
 2117SOL     OW17983   1.987   1.768   9.660  0.3997 -0.2416  0.2493
 2117SOL    HW117984   1.922   1.699   9.654 -1.7924  1.7300  1.3422
 2117SOL    HW217985   2.056   1.720   9.706  0.4464 -1.7627 -1.4240
 2118SOL     OW17986   0.407   4.528  12.289  0.5547 -0.1276  0.6591
 2118SOL    HW117987   0.436   4.495  12.204  0.7460  1.3095  0.1677
 2118SOL    HW217988   0.463   4.605  12.294 -1.1610  1.3991 -3.4258
 2119SOL     OW17989   0.526   4.436  16.074  0.0155  0.3761 -0.1661
 2119SOL    HW117990   0.594   4.503  16.071  1.9262 -1.5881 -0.6315
 2119SOL    HW217991   0.551   4.387  15.995  0.4722 -0.6533  0.6198
 2120SOL     OW17992   2.786   1.454   2.296 -0.0891  0.3145  0.5052
 2120SOL    HW117993   2.806   1.406   2.216  0.0149  0.9889  0.1240
 2120SOL    HW217994   2.697   1.420   2.309  0.4126 -1.1469  0.1634
 2121SOL     OW17995   0.172   0.442   6.924  0.7618  0.3569  0.4075
 2121SOL    HW117996   0.244   0.502   6.944  0.6585 -0.3843  3.0383
 2121SOL    HW217997   0.200   0.404   6.841  0.6735 -0.4268  0.7379
 2122SOL     OW17998   2.373   3.952   6.511  0.3445 -0.0396  0.5610
 2122SOL    HW117999   2.342   3.905   6.589 -1.2121 -1.9784 -1.2291
 2122SOL    HW218000   2.340   3.901   6.437  2.7083  0.6168 -0.9399
 2123SOL     OW18001   1.447   4.022   2.663 -0.1735 -0.7621  0.1494
 2123SOL    HW118002   1.435   3.936   2.704  1.5051 -0.2340  1.7661
 2123SOL    HW218003   1.471   4.086   2.730 -0.7288 -1.5930  1.1401
 2124SOL     OW18004   2.932   1.817   0.162  0.4067  0.1685  0.1208
 2124SOL    HW118005   2.866   1.838   0.097  1.1625 -1.5160 -1.1863
 2124SOL    HW218006   2.892   1.746   0.212 -0.1928  1.4161  1.4341
 2125SOL     OW18007   0.104   0.891   7.861 -0.3226  0.0173  0.3120
 2125SOL    HW118008   0.050   0.963   7.894  0.7081  0.7097  0.5057
 2125SOL    HW218009   0.054   0.818   7.897  1.5083 -1.8671 -0.9837
 2126SOL     OW18010   0.445   3.568   2.146  0.0247 -0.7440 -0.5082
 2126SOL    HW118011   0.377   3.516   2.188 -0.7987  0.9194  0.2334
 2126SOL    HW218012   0.405   3.596   2.063  0.1533 -1.7098 -0.8980
 2127SOL     OW18013   1.564   3.857   9.554  0.6029  0.6565  0.0980
 2127SOL    HW118014   1.610   3.934   9.519  1.2123  0.1236 -0.2795
 2127SOL    HW218015   1.590   3.861   9.646 -1.4811  0.3915  0.6768
 2128SOL     OW18016   4.277   4.524   2.574 -0.0931 -0.1071  0.2019
 2128SOL    HW118017   4.317   4.458   2.630 -0.8848 -1.1566 -0.4644
 2128SOL    HW218018   4.228   4.469   2.513  2.0848 -0.2057 -1.4314
 2129SOL     OW18019   3.839   0.199   4.207  0.0795  0.1823  0.1744
 2129SOL    HW118020   3.784   0.206   4.284  0.0552 -3.5809  0.5267
 2129SOL    HW218021   3.907   0.140   4.239  2.0356  2.2509 -0.2024
 2130SOL     OW18022   3.196   0.937   6.570  0.5928 -0.3610 -0.0409
 2130SOL    HW118023   3.168   0.890   6.491  1.2930 -0.2321 -0.3585
 2130SOL    HW218024   3.115   0.988   6.582  0.6688 -0.2272 -0.0966
 2131SOL     OW18025   3.512   0.684   6.764  0.2680  0.5343  0.2361
 2131SOL    HW118026   3.507   0.624   6.838  1.8404 -0.0340 -0.1170
 2131SOL    HW218027   3.420   0.700   6.745 -0.3487 -1.0236  1.9317
 2132SOL     OW18028   3.842   4.177  16.165 -0.1013  1.0184 -0.1233
 2132SOL    HW118029   3.927   4.222  16.165  0.2478  0.3703  1.0215
 2132SOL    HW218030   3.846   4.100  16.222 -1.6185  1.4803  0.5805
 2133SOL     OW18031   3.473   1.533   9.360  0.8712 -0.3735 -0.1729
 2133SOL    HW118032   3.443   1.544   9.450 -2.4996 -2.3547 -1.0726
 2133SOL    HW218033   3.495   1.626   9.349  0.1159 -0.4704 -2.5461
 2134SOL     OW18034   3.866   3.389   7.913  0.2663  0.4048 -0.0456
 2134SOL    HW118035   3.934   3.443   7.953  1.9127 -0.9284 -1.0243
 2134SOL    HW218036   3.919   3.310   7.924 -0.1292  0.4558  2.1525
 2135SOL     OW18037   0.196   0.713   4.119 -0.4338 -0.9443 -0.1540
 2135SOL    HW118038   0.160   0.629   4.091 -0.4084 -0.0860 -2.7968
 2135SOL    HW218039   0.117   0.748   4.159 -0.0156  0.8542 -0.9002
 2136SOL     OW18040   0.925   3.481   4.465 -0.0028  0.4055 -0.6378
 2136SOL    HW118041   0.874   3.518   4.537 -1.0135  0.1017 -1.2098
 2136SOL    HW218042   1.016   3.501   4.489  0.4683  0.9112 -2.8533
 2137SOL     OW18043   3.100   2.120   9.318  0.3493 -0.5852  0.2891
 2137SOL    HW118044   3.061   2.205   9.298 -0.1097 -1.3459 -2.1317
 2137SOL    HW218045   3.090   2.121   9.413  1.2441  2.1119  0.3627
 2138SOL     OW18046   1.619   0.515  11.883  0.3367 -0.4247 -0.5587
 2138SOL    HW118047   1.699   0.553  11.848  0.2874 -1.0871 -1.3999
 2138SOL    HW218048   1.658   0.434  11.916  1.7343  0.8428  0.8733
 2139SOL     OW18049   4.423   0.816   3.595 -0.1622  0.0043 -0.1795
 2139SOL    HW118050   4.387   0.893   3.640  1.1485  0.6314 -0.2200
 2139SOL    HW218051   4.353   0.803   3.531  0.9168 -0.2473 -1.2941
 2140SOL     OW18052   1.937   2.564   2.527 -0.3014  0.0109 -0.3144
 2140SOL    HW118053   1.917   2.641   2.474  1.3265  0.7824  0.1744
 2140SOL    HW218054   1.957   2.498   2.461  1.0260 -1.7656  1.8257
 2141SOL     OW18055   1.702   2.468   7.883  0.0682 -0.1077 -0.0290
 2141SOL    HW118056   1.780   2.423   7.852  0.2336  0.5680 -0.6041
 2141SOL    HW218057   1.642   2.459   7.808 -1.9413  2.4320  1.2640
 2142SOL     OW18058   0.772   1.508  10.324  0.1988  0.3131 -0.0266
 2142SOL    HW118059   0.778   1.515  10.419  0.6219 -1.8208  0.1083
 2142SOL    HW218060   0.864   1.503  10.298  0.4626  2.9265  0.3972
 2143SOL     OW18061   0.564   1.658   5.617  0.3589  0.5147  0.3780
 2143SOL    HW118062   0.630   1.708   5.665  0.0896 -0.1814  1.4767
 2143SOL    HW218063   0.565   1.707   5.534  1.3856 -1.5005 -0.7745
 2144SOL     OW18064   1.767   4.734   4.691  0.0146  0.5972 -0.1420
 2144SOL    HW118065   1.845   4.735   4.747 -0.3561  1.8659  0.3502
 2144SOL    HW218066   1.760   4.642   4.665  0.1297 -0.0161  1.9443
 2145SOL     OW18067   3.221   2.261  14.378  0.4361 -0.0370  0.3769
 2145SOL    HW118068   3.220   2.300  14.465  1.5894 -1.2040  0.9185
 2145SOL    HW218069   3.138   2.297  14.345  0.0687 -0.2458  1.0777
 2146SOL     OW18070   0.111   4.153   3.746  0.1940  0.0623 -0.2901
 2146SOL    HW118071   0.086   4.223   3.686 -0.2389  0.3362  0.2077
 2146SOL    HW218072   0.021   4.130   3.768  1.1203 -3.3521 -0.0676
 2147SOL     OW18073   1.638   1.795  16.854 -0.8565 -0.1426 -0.8392
 2147SOL    HW118074   1.661   1.704  16.872 -0.3735  0.1646  0.0888
 2147SOL    HW218075   1.566   1.782  16.792 -2.5625  0.9872  0.8872
 2148SOL     OW18076   1.848   4.360  14.429  0.5834  0.1933 -0.3553
 2148SOL    HW118077   1.766   4.366  14.380  0.1561 -2.4429  0.0429
 2148SOL    HW218078   1.826   4.316  14.511  2.1004  1.0545  0.5236
 2149SOL     OW18079   1.830   2.801   4.713 -0.0632 -0.0611  0.4063
 2149SOL    HW118080   1.769   2.769   4.779 -0.8171 -2.4456 -1.4275
 2149SOL    HW218081   1.863   2.876   4.761  0.2308 -0.3207  0.6080
 2150SOL     OW18082   2.412   3.680   5.933  0.1085  0.3304  0.2396
 2150SOL    HW118083   2.358   3.620   5.883 -0.2757 -0.5653  1.7260
 2150SOL    HW218084   2.433   3.628   6.011  0.4207 -0.1741 -0.1892
 2151SOL     OW18085   2.123   1.488   7.185  0.3771 -0.0973 -0.1273
 2151SOL    HW118086   2.123   1.393   7.199 -0.7544 -0.6270 -3.9287
 2151SOL    HW218087   2.130   1.512   7.278 -1.0312 -1.9887  0.4672
 2152SOL     OW18088   0.590   1.194   6.476 -0.0429 -0.5774 -0.5080
 2152SOL    HW118089   0.520   1.247   6.514 -0.4038 -0.5259 -1.2490
 2152SOL    HW218090   0.563   1.213   6.386  1.1030 -1.3471 -1.0233
 2153SOL     OW18091   2.976   0.196   9.339 -0.1559 -0.3259 -0.0695
 2153SOL    HW118092   3.050   0.247   9.372 -0.6694 -0.2800  1.0000
 2153SOL    HW218093   2.964   0.132   9.409  2.8471 -0.7834  0.0230
 2154SOL     OW18094   3.909   2.400   9.167  0.4449 -0.0407 -0.0009
 2154SOL    HW118095   3.823   2.397   9.209 -0.2642  0.1799 -1.4462
 2154SOL    HW218096   3.917   2.494   9.155  1.1791 -0.4067 -2.4297
 2155SOL     OW18097   1.095   4.542   8.702  0.2859  0.8064  0.2042
 2155SOL    HW118098   1.144   4.533   8.620  1.2052 -1.2555  0.9902
 2155SOL    HW218099   1.157   4.592   8.755  0.5555  0.2427  0.4164
 2156SOL     OW18100   2.564   1.356   4.084 -0.3952 -0.6219  0.8583
 2156SOL    HW118101   2.630   1.287   4.076  0.3556 -0.0529  2.0381
 2156SOL    HW218102   2.611   1.440   4.081 -1.1171 -0.2254  0.6466
 2157SOL     OW18103   1.261   0.996  12.381 -0.0130 -0.3848 -0.6240
 2157SOL    HW118104   1.301   1.079  12.354  0.8571 -0.5208  0.2650
 2157SOL    HW218105   1.321   0.935  12.336  1.8477  0.4601  0.7212
 2158SOL     OW18106   4.233   3.406   2.211  0.0378  0.3410 -0.6337
 2158SOL    HW118107   4.178   3.340   2.169  0.6993  0.5264 -1.7982
 2158SOL    HW218108   4.316   3.360   2.196 -0.0818 -0.1287  0.1432
 2159SOL     OW18109   0.189   1.239   6.872  0.4525 -0.0139 -0.3818
 2159SOL    HW118110   0.244   1.293   6.929 -0.3767 -0.5109  0.9028
 2159SOL    HW218111   0.243   1.160   6.874  2.3105  1.2688  0.3631
 2160SOL     OW18112   2.489   1.052   9.617  0.2102 -1.0532 -0.0107
 2160SOL    HW118113   2.439   0.971   9.619 -1.3137 -0.0641  1.3649
 2160SOL    HW218114   2.553   1.038   9.547 -1.5584 -0.1473 -1.8242
 2161SOL     OW18115   4.139   0.890   6.089  0.3004  0.1904  0.0562
 2161SOL    HW118116   4.076   0.960   6.072 -0.9468 -0.5650  1.5656
 2161SOL    HW218117   4.114   0.845   6.170  0.1599  0.2847  0.0650
 2162SOL     OW18118   2.478   2.489  11.243 -0.0089 -0.3748  0.1636
 2162SOL    HW118119   2.429   2.568  11.220  1.1084  0.3403  0.2422
 2162SOL    HW218120   2.477   2.485  11.339 -3.4184  2.2873  0.2360
 2163SOL     OW18121   1.524   0.998   9.195  0.2272  0.4967 -0.3713
 2163SOL    HW118122   1.561   1.081   9.227  0.6233 -0.2192  1.0693
 2163SOL    HW218123   1.430   1.014   9.201  0.9012  3.9077  1.0283
 2164SOL     OW18124   0.631   3.339   1.258 -0.5465 -0.5081  0.0825
 2164SOL    HW118125   0.559   3.278   1.241 -0.7920 -0.3647  0.6018
 2164SOL    HW218126   0.674   3.312   1.339 -0.4875 -1.0108 -0.1118
 2165SOL     OW18127   2.381   4.565   5.977 -0.1058  0.2619  0.0345
 2165SOL    HW118128   2.405   4.556   6.069  2.3533  0.8503 -0.5387
 2165SOL    HW218129   2.466   4.585   5.938  1.1342 -0.0698  2.5788
 2166SOL     OW18130   2.908   2.724   8.272  0.1883  0.3543 -0.7635
 2166SOL    HW118131   2.898   2.805   8.221  0.5892  2.1121  1.9581
 2166SOL    HW218132   2.913   2.773   8.354  1.1930 -0.1508 -0.5239
 2167SOL     OW18133   4.589   0.243  12.890  0.0234  0.0034  0.2028
 2167SOL    HW118134   4.533   0.288  12.827  1.2743 -0.3829 -1.1782
 2167SOL    HW218135   4.558   0.153  12.886 -0.4600  0.1722  0.1432
 2168SOL     OW18136   3.823   1.404   6.175 -0.3368 -0.4844 -0.4725
 2168SOL    HW118137   3.914   1.433   6.172 -0.8631  1.1446 -0.7309
 2168SOL    HW218138   3.776   1.452   6.106 -2.2856  0.4810  1.5086
 2169SOL     OW18139   2.501   0.410   2.927 -0.3246  1.1815  0.0944
 2169SOL    HW118140   2.541   0.421   3.013  0.1563  0.8810 -0.0953
 2169SOL    HW218141   2.416   0.375   2.954 -0.1166  1.2987  0.8773
 2170SOL     OW18142   0.057   3.103   9.717 -1.0614  0.5150  0.5021
 2170SOL    HW118143   0.152   3.090   9.710 -1.2972  0.9571 -3.6565
 2170SOL    HW218144   0.026   3.025   9.763 -1.4660 -0.4237 -1.3921
 2171SOL     OW18145   1.314   0.687   4.609  0.4603  0.9627  0.0888
 2171SOL    HW118146   1.273   0.644   4.533  4.0058 -1.8584 -0.1959
 2171SOL    HW218147   1.396   0.639   4.619 -1.3306 -2.5231 -1.8193
 2172SOL     OW18148   4.398   3.983  12.503 -0.0841 -0.1274  0.3536
 2172SOL    HW118149   4.334   3.920  12.537  0.8997 -0.4582  1.5905
 2172SOL    HW218150   4.338   4.053  12.479 -0.8404  0.1751  3.1041
 2173SOL     OW18151   0.160   3.866   5.975  0.4109  0.2053 -0.4461
 2173SOL    HW118152   0.081   3.813   5.983 -0.5919  1.8343  0.4612
 2173SOL    HW218153   0.216   3.844   6.049 -0.6235  0.6638  0.4695
 2174SOL     OW18154   1.834   1.943   4.685  0.6520  0.2975  0.3549
 2174SOL    HW118155   1.855   1.934   4.592  1.8879 -0.4106  0.7183
 2174SOL    HW218156   1.821   2.038   4.682 -2.8296 -0.2262 -0.9238
 2175SOL     OW18157   1.793   3.773  11.874  0.2732  0.7277 -0.5231
 2175SOL    HW118158   1.879   3.731  11.871 -0.1727 -0.2104  0.0722
 2175SOL    HW218159   1.748   3.714  11.934  0.3157 -0.2311 -1.4383
 2176SOL     OW18160   2.245   4.525  13.219  0.4556  0.0587 -0.4165
 2176SOL    HW118161   2.269   4.457  13.281 -0.3319 -1.1771 -1.4622
 2176SOL    HW218162   2.162   4.555  13.256 -0.0447 -0.5528 -1.0324
 2177SOL     OW18163   1.845   4.567   1.290 -0.2790  0.4685 -0.4349
 2177SOL    HW118164   1.861   4.498   1.354 -2.0270 -1.6175 -2.2789
 2177SOL    HW218165   1.750   4.579   1.288 -0.5859 -1.5568  1.6733
 2178SOL     OW18166   4.186   0.647   9.109 -0.3018 -0.4816 -0.0438
 2178SOL    HW118167   4.198   0.726   9.162  2.0201 -0.3802 -0.7403
 2178SOL    HW218168   4.091   0.636   9.118 -0.1737  1.2082  3.4914
 2179SOL     OW18169   0.210   4.177   4.661 -0.0811  0.2508  0.8338
 2179SOL    HW118170   0.217   4.272   4.671 -1.1415  0.0887  3.3740
 2179SOL    HW218171   0.249   4.154   4.746 -2.3623  0.9060  2.0702
 2180SOL     OW18172   0.678   0.996  11.245 -0.2136 -0.6454  0.4602
 2180SOL    HW118173   0.634   1.017  11.327 -0.0013 -2.6838  1.1104
 2180SOL    HW218174   0.767   1.023  11.267 -0.0488  0.6339 -1.7336
 2181SOL     OW18175   3.964   2.135  13.599 -0.2835 -0.1811 -0.3795
 2181SOL    HW118176   3.944   2.167  13.686 -1.0297 -0.3684 -0.4835
 2181SOL    HW218177   4.006   2.211  13.557 -0.1372  0.8686  1.6926
 2182SOL     OW18178   2.253   1.472   6.054 -0.2405  0.3440  0.2648
 2182SOL    HW118179   2.198   1.515   6.119  0.2615  0.4889  0.5956
 2182SOL    HW218180   2.242   1.380   6.076 -0.2112  0.5330  1.0454
 2183SOL     OW18181   4.734   4.466   1.899 -0.3319 -0.3137 -0.4322
 2183SOL    HW118182   4.682   4.473   1.979  0.2598 -0.2392 -0.0552
 2183SOL    HW218183   4.716   4.544   1.846  1.9256  0.9814  0.7120
 2184SOL     OW18184   2.334   4.118   4.364 -0.2434 -0.1280 -0.2948
 2184SOL    HW118185   2.412   4.165   4.394  0.3097 -1.2361 -0.0030
 2184SOL    HW218186   2.352   4.031   4.399 -3.5719 -0.8812 -0.4846
 2185SOL     OW18187   4.647   3.232   0.765  0.5134  0.2470  0.3471
 2185SOL    HW118188   4.558   3.199   0.757  0.8485 -1.1988  2.6132
 2185SOL    HW218189   4.625   3.297   0.833 -0.5981  0.6849 -0.4406
 2186SOL     OW18190   0.148   1.298   4.221  0.2697 -0.0990  0.2207
 2186SOL    HW118191   0.171   1.289   4.313  0.0079 -0.7278  0.2292
 2186SOL    HW218192   0.098   1.379   4.229 -2.4429 -1.6047 -1.5251
 2187SOL     OW18193   2.478   0.099   5.440 -0.0653  0.1085  0.5288
 2187SOL    HW118194   2.464   0.077   5.348  0.8520  2.6490 -0.2388
 2187SOL    HW218195   2.535   0.028   5.466 -0.3913 -0.4190 -0.2187
 2188SOL     OW18196   1.747   3.008  15.757 -0.0474  0.0728  0.0899
 2188SOL    HW118197   1.839   2.987  15.739 -0.5153 -1.3253 -0.6794
 2188SOL    HW218198   1.702   2.924  15.766  0.1971 -0.1438 -0.6417
 2189SOL     OW18199   1.124   3.026   3.269 -0.0481 -0.2518 -0.2980
 2189SOL    HW118200   1.066   2.988   3.335  0.2101  0.4646  0.3511
 2189SOL    HW218201   1.082   3.112   3.259 -1.1412 -0.5476  1.5567
 2190SOL     OW18202   4.679   3.747  16.941  0.1050 -0.3367  0.6969
 2190SOL    HW118203   0.026   3.720  16.980 -1.3629  0.5322  4.4162
 2190SOL    HW218204   4.710   3.725  16.853 -2.1952 -0.0038 -0.1918
 2191SOL     OW18205   2.748   2.570   7.344  0.4613  0.0095  0.1224
 2191SOL    HW118206   2.834   2.611   7.329  0.6539  0.4358  2.5000
 2191SOL    HW218207   2.734   2.596   7.435 -1.9642 -0.2278 -0.1988
 2192SOL     OW18208   3.391   2.048   9.307 -0.0817 -0.5734 -0.7315
 2192SOL    HW118209   3.313   2.077   9.356  0.9617  1.3321 -0.1780
 2192SOL    HW218210   3.358   2.055   9.218  1.0497 -1.0379 -1.1878
 2193SOL     OW18211   2.298   4.340   7.487  0.7825 -0.7175 -0.0031
 2193SOL    HW118212   2.328   4.338   7.578  1.2400 -0.0758 -0.1362
 2193SOL    HW218213   2.211   4.377   7.495  0.6086 -0.8210 -1.5008
 2194SOL     OW18214   2.487   1.587   8.736  0.0319  0.2154  0.5514
 2194SOL    HW118215   2.567   1.586   8.684  0.3588  1.1879  1.0455
 2194SOL    HW218216   2.477   1.493   8.750 -1.5688  0.2107 -0.5967
 2195SOL     OW18217   1.948   2.246   3.658 -0.2969 -0.1358 -0.3034
 2195SOL    HW118218   1.902   2.311   3.605  0.5656 -0.9753 -2.0749
 2195SOL    HW218219   2.012   2.210   3.597 -0.4887 -0.3643 -0.3702
 2196SOL     OW18220   4.654   0.467   2.860 -0.2965 -0.4375 -0.2483
 2196SOL    HW118221   4.730   0.413   2.880 -0.3058 -1.1521 -2.0839
 2196SOL    HW218222   4.645   0.441   2.768  2.6165  0.8767 -0.9126
 2197SOL     OW18223   1.306   4.046   1.567 -0.5484  0.4248  0.7215
 2197SOL    HW118224   1.260   4.114   1.518  0.1596  0.8607  0.6632
 2197SOL    HW218225   1.347   4.008   1.489  0.9560  2.3671  0.5703
 2198SOL     OW18226   3.377   3.819  11.931  0.6553 -0.1661 -0.0909
 2198SOL    HW118227   3.395   3.770  11.850 -0.8417 -0.7714 -0.0525
 2198SOL    HW218228   3.443   3.789  11.994  1.5018  0.7900 -0.5129
 2199SOL     OW18229   4.629   1.883  14.749 -0.5201 -0.0722 -0.2021
 2199SOL    HW118230   4.628   1.970  14.710  1.2433 -0.1653 -0.4644
 2199SOL    HW218231   4.590   1.913  14.830 -0.9748 -0.6932 -0.1903
 2200SOL     OW18232   4.400   3.681  11.584 -0.6783 -0.0136 -0.0547
 2200SOL    HW118233   4.473   3.641  11.536 -1.3956  0.4270 -1.5007
 2200SOL    HW218234   4.434   3.672  11.673 -0.7751 -1.9098 -0.2153
 2201SOL     OW18235   1.955   0.922   1.253 -0.4006 -0.1728 -0.1187
 2201SOL    HW118236   1.961   0.987   1.183 -1.1211  0.2332  0.2105
 2201SOL    HW218237   1.866   0.890   1.238 -0.3126 -0.0784 -0.8447
 2202SOL     OW18238   0.778   4.176   8.709 -0.4228 -0.0034  0.1293
 2202SOL    HW118239   0.854   4.137   8.752 -0.1943  0.9246  0.5809
 2202SOL    HW218240   0.714   4.153   8.776  2.1512 -0.9911  2.2744
 2203SOL     OW18241   1.531   2.890   3.455 -0.3402 -0.6287 -0.2565
 2203SOL    HW118242   1.524   2.904   3.549 -1.6043  0.0160 -0.4462
 2203SOL    HW218243   1.483   2.968   3.425  1.3951  1.6704  2.9946
 2204SOL     OW18244   3.293   3.891   5.389  0.4069 -0.1126  0.2157
 2204SOL    HW118245   3.259   3.846   5.466  2.4130  2.0183  2.3205
 2204SOL    HW218246   3.239   3.856   5.318 -1.1283 -1.0472  1.8538
 2205SOL     OW18247   0.459   4.225  17.265 -0.4627  0.2883  0.0226
 2205SOL    HW118248   0.532   4.244  17.207 -1.3913  0.5727 -1.0630
 2205SOL    HW218249   0.435   4.315  17.288 -0.0953  0.5111 -0.4793
 2206SOL     OW18250   0.543   0.100  16.137  0.2487 -0.4320 -0.1057
 2206SOL    HW118251   0.562   0.116  16.230 -1.3505 -1.7555  0.4634
 2206SOL    HW218252   0.447   0.106  16.142  0.3054  0.6876 -0.4071
 2207SOL     OW18253   1.872   4.456   2.221 -0.5548 -0.1232 -0.4738
 2207SOL    HW118254   1.801   4.478   2.160  0.5134 -0.2604 -1.7504
 2207SOL    HW218255   1.848   4.367   2.248  1.8878 -0.6280  0.0292
 2208SOL     OW18256   2.676   0.577  14.409 -0.0957 -0.4007 -0.2917
 2208SOL    HW118257   2.689   0.533  14.492 -2.7614  1.2827  1.0096
 2208SOL    HW218258   2.606   0.636  14.438  0.2259  0.4768 -1.2839
 2209SOL     OW18259   2.616   0.747   5.788  0.1730 -0.4964  0.4602
 2209SOL    HW118260   2.523   0.725   5.776  0.5789 -1.2047 -1.3130
 2209SOL    HW218261   2.655   0.663   5.764 -0.9309 -0.9002  0.0726
 2210SOL     OW18262   2.583   0.598   5.513  0.0632  0.8903  0.2583
 2210SOL    HW118263   2.665   0.626   5.473 -0.2705  2.1185  0.4305
 2210SOL    HW218264   2.627   0.565   5.591 -0.0739 -2.4243 -1.0696
 2211SOL     OW18265   2.690   2.552   3.798  0.2527  0.4604 -0.2356
 2211SOL    HW118266   2.713   2.519   3.711  0.3101 -0.5570  0.1614
 2211SOL    HW218267   2.765   2.608   3.818  1.2406 -0.4480 -1.4227
 2212SOL     OW18268   1.491   1.470   1.067 -0.0691 -0.0207  0.3081
 2212SOL    HW118269   1.400   1.496   1.084 -0.1387  0.1582 -0.3239
 2212SOL    HW218270   1.536   1.546   1.105  1.8977 -0.9152 -0.2336
 2213SOL     OW18271   0.770   0.593   5.963 -0.0584  0.1937 -0.2802
 2213SOL    HW118272   0.771   0.659   6.031  1.3143  0.1390 -0.2595
 2213SOL    HW218273   0.796   0.520   6.020  1.7667  0.5015 -0.7529
 2214SOL     OW18274   4.701   1.246   4.894 -0.0617 -0.3163 -0.5461
 2214SOL    HW118275   4.702   1.245   4.798 -0.6698  0.7658 -0.5635
 2214SOL    HW218276   0.054   1.243   4.928 -0.4172 -2.2348  0.1628
 2215SOL     OW18277   3.447   1.917   9.041  0.1828 -0.2321  0.0426
 2215SOL    HW118278   3.370   1.895   8.989 -0.2964  0.2251  0.5689
 2215SOL    HW218279   3.471   2.004   9.009  0.6877 -0.3044  0.2283
 2216SOL     OW18280   0.868   0.462  10.047  0.1504 -0.2582 -0.0882
 2216SOL    HW118281   0.887   0.371  10.071  0.5682 -0.0170  0.5031
 2216SOL    HW218282   0.856   0.453   9.953  0.1785  0.7877 -0.1970
 2217SOL     OW18283   4.345   0.441   5.257  0.7809 -0.1025 -0.6337
 2217SOL    HW118284   4.347   0.535   5.236  1.1699  0.4186  1.6294
 2217SOL    HW218285   4.260   0.424   5.298  1.3683 -3.0619 -0.6708
 2218SOL     OW18286   4.478   2.107  13.629  0.1617  0.5038  0.0010
 2218SOL    HW118287   4.448   2.164  13.700 -2.4964 -0.7872 -0.0654
 2218SOL    HW218288   4.430   2.138  13.552 -0.9525 -1.7763 -0.2189
 2219SOL     OW18289   3.023   4.167   4.410  0.0528 -0.2693  0.1649
 2219SOL    HW118290   3.105   4.184   4.457  0.4639 -0.0994 -0.6099
 2219SOL    HW218291   3.059   4.153   4.323 -2.0593 -0.9017 -0.6073
 2220SOL     OW18292   3.147   4.075   3.439 -0.1578  0.1257 -0.1438
 2220SOL    HW118293   3.140   4.016   3.364  1.5930 -1.4741  0.9563
 2220SOL    HW218294   3.092   4.026   3.499  2.0603 -0.9465  1.0206
 2221SOL     OW18295   1.244   0.534   4.397  0.6036 -0.0045  0.3928
 2221SOL    HW118296   1.306   0.462   4.392  0.2338 -0.3784  1.1877
 2221SOL    HW218297   1.162   0.485   4.385 -0.4302  1.7808  0.2254
 2222SOL     OW18298   2.961   3.948  13.688  0.0195 -0.0636  0.1889
 2222SOL    HW118299   3.022   3.904  13.629  2.3247  1.8374  1.1079
 2222SOL    HW218300   2.906   4.000  13.630 -2.2044 -1.3058  1.2016
 2223SOL     OW18301   4.213   1.577   2.353 -0.2725  0.2418  0.8702
 2223SOL    HW118302   4.134   1.620   2.386 -1.4320  0.0356 -1.5762
 2223SOL    HW218303   4.262   1.598   2.432 -0.9416  2.9381  0.5601
 2224SOL     OW18304   3.273   3.708   7.463  0.1231  0.0922 -0.0675
 2224SOL    HW118305   3.333   3.783   7.460 -1.1510  1.1269  0.5047
 2224SOL    HW218306   3.212   3.739   7.530 -0.5908  0.7241 -1.0080
 2225SOL     OW18307   2.401   2.392   4.318 -0.0121 -0.1130 -0.0287
 2225SOL    HW118308   2.359   2.404   4.403  2.7538  2.1274  1.0135
 2225SOL    HW218309   2.352   2.452   4.263 -1.7007 -0.8800  0.6118
 2226SOL     OW18310   3.677   0.037   4.006 -0.3173  0.3037 -0.6600
 2226SOL    HW118311   3.747   0.060   4.068 -0.0035  2.4533 -1.7871
 2226SOL    HW218312   3.603   0.078   4.051  0.0017  1.9621 -1.6413
 2227SOL     OW18313   0.353   4.147  10.798 -0.0170  0.5698  0.2498
 2227SOL    HW118314   0.263   4.131  10.770 -1.2249  2.1637  3.1350
 2227SOL    HW218315   0.400   4.097  10.732  0.3597 -0.6571  1.4577
 2228SOL     OW18316   3.344   3.262   8.322 -0.1575 -0.6371  0.1932
 2228SOL    HW118317   3.409   3.209   8.276  0.5828  1.8175 -1.6188
 2228SOL    HW218318   3.273   3.257   8.258  1.0457 -3.0711 -0.9510
 2229SOL     OW18319   0.213   2.613  12.949  0.1078  0.5073  0.3720
 2229SOL    HW118320   0.293   2.650  12.912  0.5166 -2.4914 -1.7151
 2229SOL    HW218321   0.254   2.569  13.024 -1.5128 -4.5509 -1.7273
 2230SOL     OW18322   3.910   2.901  10.626 -0.3994 -0.3765  0.2288
 2230SOL    HW118323   3.971   2.921  10.697 -2.8835  2.5373  1.5259
 2230SOL    HW218324   3.878   2.816  10.657 -1.4871  0.2731  0.9310
 2231SOL     OW18325   2.716   3.989  12.692  0.2764  0.5555 -0.7849
 2231SOL    HW118326   2.732   4.015  12.601 -0.9753  1.2307 -0.8220
 2231SOL    HW218327   2.726   3.894  12.687 -2.1801  0.1811  1.5785
 2232SOL     OW18328   2.144   0.520   5.531  0.5727  0.1119  0.4136
 2232SOL    HW118329   2.125   0.498   5.622  1.7203 -0.1157  0.6008
 2232SOL    HW218330   2.074   0.464   5.498  2.7033 -1.6683 -1.1354
 2233SOL     OW18331   0.156   1.306   5.366  0.6552 -0.0141 -0.5340
 2233SOL    HW118332   0.163   1.329   5.458 -2.6343 -1.6227  0.0909
 2233SOL    HW218333   0.215   1.372   5.329  0.6453  1.1335  1.5577
 2234SOL     OW18334   4.651   1.082   7.154  0.5751  0.4924  0.2119
 2234SOL    HW118335   4.609   1.023   7.217  1.1695 -0.4400 -0.2745
 2234SOL    HW218336   4.582   1.085   7.088  1.3122 -0.4236 -0.5758
 2235SOL     OW18337   3.301   2.195   8.782  0.2280  0.1060  0.2876
 2235SOL    HW118338   3.206   2.183   8.781  0.6034 -2.8169  0.8337
 2235SOL    HW218339   3.303   2.288   8.756 -0.1251  0.3673  1.1959
 2236SOL     OW18340   2.113   1.311   8.237  0.4212  0.6363  0.3069
 2236SOL    HW118341   2.051   1.247   8.272 -0.3588  1.7964  1.0623
 2236SOL    HW218342   2.164   1.260   8.174 -1.0308  1.4120 -1.4835
 2237SOL     OW18343   4.378   4.379   7.174  0.1822 -0.2762  0.3800
 2237SOL    HW118344   4.298   4.326   7.173  0.8234 -1.1960 -1.4573
 2237SOL    HW218345   4.445   4.316   7.148  0.2846 -1.2590  2.9867
 2238SOL     OW18346   0.459   0.692   5.674  0.2470  0.4060  0.1191
 2238SOL    HW118347   0.535   0.667   5.621 -0.7349  1.5399 -1.8279
 2238SOL    HW218348   0.394   0.699   5.603 -0.9802  1.0920  1.3223
 2239SOL     OW18349   0.904   2.047   8.111  0.5774 -0.5014 -0.3458
 2239SOL    HW118350   0.965   2.027   8.040 -2.3365 -0.4763 -2.8685
 2239SOL    HW218351   0.934   2.138   8.123  0.1942 -0.2344 -1.4117
 2240SOL     OW18352   3.940   3.370   7.087  1.0379  0.0541 -0.0226
 2240SOL    HW118353   3.857   3.369   7.135  1.7832 -0.7810  1.2303
 2240SOL    HW218354   3.994   3.388   7.164 -1.0006  2.0597  0.9258
 2241SOL     OW18355   4.477   1.818   4.527  0.2383 -0.1919 -0.0220
 2241SOL    HW118356   4.545   1.864   4.477  1.3464 -1.3469  0.4394
 2241SOL    HW218357   4.517   1.781   4.605 -0.1079 -0.0501  0.2238
 2242SOL     OW18358   0.517   1.556   5.025 -0.1259 -0.1721  0.3928
 2242SOL    HW118359   0.556   1.607   4.955  2.3779 -1.3977  0.9024
 2242SOL    HW218360   0.595   1.518   5.064 -0.3304 -0.2506  0.7259
 2243SOL     OW18361   3.637   1.004   7.512  0.1610 -0.9657  0.7620
 2243SOL    HW118362   3.583   0.954   7.574  1.3876  0.4110  2.9339
 2243SOL    HW218363   3.693   0.936   7.474 -0.3911 -1.3335  0.5981
 2244SOL     OW18364   0.374   0.351   3.297  0.1931  0.2496 -0.4485
 2244SOL    HW118365   0.291   0.391   3.323  0.7638  0.3896  1.2177
 2244SOL    HW218366   0.440   0.417   3.317  0.2822  0.5564 -1.7602
 2245SOL     OW18367   1.384   0.666   5.246 -0.2302 -0.4158 -0.2944
 2245SOL    HW118368   1.440   0.597   5.210 -0.0065  0.0075 -0.7594
 2245SOL    HW218369   1.302   0.621   5.267 -0.0248 -1.0776 -0.8964
 2246SOL     OW18370   2.923   1.238  11.329 -0.9523 -0.3861 -0.7282
 2246SOL    HW118371   2.962   1.326  11.331 -2.4298  0.2229  0.8304
 2246SOL    HW218372   2.985   1.200  11.266 -0.3781 -0.9473  0.1667
 2247SOL     OW18373   4.014   0.889   4.399  0.5037  0.2876 -0.0483
 2247SOL    HW118374   4.048   0.831   4.330  0.7215 -2.3025  2.2309
 2247SOL    HW218375   3.989   0.971   4.356 -0.8327 -0.9288 -1.6137
 2248SOL     OW18376   4.378   3.361   1.594 -0.3279  0.0245  0.1224
 2248SOL    HW118377   4.441   3.431   1.577 -2.0213  1.7398  0.8634
 2248SOL    HW218378   4.416   3.286   1.548  1.9326  1.0102  0.3911
 2249SOL     OW18379   1.858   0.866  14.633 -0.0881 -0.1142 -0.5181
 2249SOL    HW118380   1.847   0.785  14.684 -1.6076  0.8161  0.6305
 2249SOL    HW218381   1.782   0.866  14.576  0.2325 -2.8474 -0.9295
 2250SOL     OW18382   0.615   2.620  16.831 -0.1484 -0.3222 -0.3569
 2250SOL    HW118383   0.559   2.697  16.822 -0.0032 -0.1289  0.3501
 2250SOL    HW218384   0.647   2.638  16.920  0.3544  0.8591 -0.7755
 2251SOL     OW18385   1.017   0.270   4.661  0.2027 -0.5370  0.1073
 2251SOL    HW118386   0.989   0.185   4.628 -1.1788  0.3455 -1.0054
 2251SOL    HW218387   1.110   0.258   4.643 -0.5535 -0.5971 -3.9016
 2252SOL     OW18388   2.585   0.009   2.794  0.6490  0.1791  0.3110
 2252SOL    HW118389   2.506   4.730   2.846  1.5873 -1.5379  1.2286
 2252SOL    HW218390   2.554   4.713   2.710  2.5108  1.4322 -0.8592
 2253SOL     OW18391   2.545   3.171  11.005  0.0740 -0.2490  0.7294
 2253SOL    HW118392   2.625   3.147  11.053  1.1643  2.0534  0.0715
 2253SOL    HW218393   2.520   3.253  11.049  1.8276  0.3698  0.5963
 2254SOL     OW18394   0.338   0.492   1.420  0.4548 -0.8330 -0.1122
 2254SOL    HW118395   0.342   0.585   1.397 -1.4117 -0.1351  2.4026
 2254SOL    HW218396   0.353   0.498   1.514  0.3256  0.0152 -0.1467
 2255SOL     OW18397   3.278   3.221   5.007  0.2655  0.1225  0.7905
 2255SOL    HW118398   3.287   3.217   5.103 -2.1281  0.2677  1.0191
 2255SOL    HW218399   3.198   3.273   5.007 -0.1391 -0.5058  1.6569
 2256SOL     OW18400   1.139   3.591  15.710 -0.0786  0.1584  0.0024
 2256SOL    HW118401   1.143   3.668  15.653 -1.8244 -0.5480 -1.0954
 2256SOL    HW218402   1.077   3.539  15.659 -0.2609  1.1924 -0.8388
 2257SOL     OW18403   2.176   0.893   1.037 -0.1759 -0.4841 -1.2464
 2257SOL    HW118404   2.126   0.811   1.031 -2.9321  1.0711  0.2063
 2257SOL    HW218405   2.106   0.956   1.024  0.0928 -0.3398 -1.9751
 2258SOL     OW18406   0.058   2.837   1.828 -0.1746 -0.6063 -0.2439
 2258SOL    HW118407   4.735   2.911   1.816 -0.8038 -1.1524 -0.4596
 2258SOL    HW218408   0.022   2.808   1.912  2.8636 -0.5348  1.0910
 2259SOL     OW18409   1.474   2.472   5.627  0.0207  0.2967 -0.3022
 2259SOL    HW118410   1.539   2.513   5.684  0.6369 -1.1190 -0.0080
 2259SOL    HW218411   1.459   2.398   5.686  2.8411 -1.4551 -1.8150
 2260SOL     OW18412   1.537   4.552   4.188 -0.1516 -0.1888 -0.3801
 2260SOL    HW118413   1.631   4.559   4.174 -0.1461 -2.3865 -1.4729
 2260SOL    HW218414   1.526   4.475   4.243  2.6835 -0.9052 -0.8362
 2261SOL     OW18415   0.441   3.757   4.151  0.1899 -0.3307 -0.1850
 2261SOL    HW118416   0.404   3.780   4.065  1.9620 -0.5035 -1.0037
 2261SOL    HW218417   0.531   3.788   4.137  0.0050 -0.1652 -0.9996
 2262SOL     OW18418   4.295   4.178   5.376 -0.3310  0.2897 -0.3591
 2262SOL    HW118419   4.383   4.140   5.376 -0.1759  0.6499  0.4019
 2262SOL    HW218420   4.239   4.109   5.340  1.3932 -1.7555  0.8554
 2263SOL     OW18421   4.172   4.495   2.956 -0.5687 -0.2898 -0.0256
 2263SOL    HW118422   4.260   4.490   2.993  0.4975  1.3524 -2.3430
 2263SOL    HW218423   4.126   4.479   3.039 -0.3695 -1.8250 -0.2014
 2264SOL     OW18424   2.381   2.028   4.316 -0.0210  0.2832 -0.4892
 2264SOL    HW118425   2.390   2.055   4.407 -1.2376  1.1307 -0.6174
 2264SOL    HW218426   2.312   2.091   4.298  0.4792 -0.1809 -4.0719
 2265SOL     OW18427   2.305   3.572  10.877  0.4065 -0.7068 -0.3576
 2265SOL    HW118428   2.302   3.530  10.963 -0.2808 -1.1523 -0.5996
 2265SOL    HW218429   2.277   3.500  10.821 -0.0868 -0.3331 -0.5903
 2266SOL     OW18430   0.032   0.773   2.372 -0.1901 -0.0557  0.0044
 2266SOL    HW118431   0.017   0.724   2.453  0.9234  0.8221  0.7498
 2266SOL    HW218432   0.048   0.861   2.407  3.0854  0.2917 -2.3667
 2267SOL     OW18433   4.151   4.636  14.164 -0.1225  0.4731 -0.0167
 2267SOL    HW118434   4.209   4.710  14.148  0.2713  0.3829  0.9794
 2267SOL    HW218435   4.083   4.648  14.098  0.4342  1.9632 -0.3147
 2268SOL     OW18436   2.978   1.855   7.606  0.0960 -0.3391  0.2030
 2268SOL    HW118437   2.931   1.844   7.688 -1.8704 -1.0201 -1.0126
 2268SOL    HW218438   2.904   1.834   7.550 -0.7119  0.6411  0.9051
 2269SOL     OW18439   1.670   4.455   2.039  0.0639 -0.3025  0.3182
 2269SOL    HW118440   1.583   4.418   2.022 -1.3155  2.1920  1.9924
 2269SOL    HW218441   1.728   4.434   1.965 -0.1710  0.8691 -0.1979
 2270SOL     OW18442   1.114   1.638   5.636  0.3427 -0.2852  0.4763
 2270SOL    HW118443   1.184   1.572   5.638  1.6345  1.0877  0.3722
 2270SOL    HW218444   1.038   1.582   5.619  0.4360 -0.5658  0.9810
 2271SOL     OW18445   1.325   3.173   9.607 -0.4668 -0.0735  0.0075
 2271SOL    HW118446   1.255   3.125   9.651  2.7688 -4.2832  0.5944
 2271SOL    HW218447   1.299   3.169   9.515 -0.6317  1.1817  0.0085
 2272SOL     OW18448   3.670   1.595  13.072  0.1146  0.1518 -0.3378
 2272SOL    HW118449   3.721   1.595  13.153  0.3401  0.8343 -0.4852
 2272SOL    HW218450   3.728   1.646  13.015 -2.0131  2.1774 -0.6969
 2273SOL     OW18451   0.953   4.354  14.969 -0.6269 -0.1975 -0.7791
 2273SOL    HW118452   0.910   4.436  14.996  1.2887 -0.5766  3.3911
 2273SOL    HW218453   1.042   4.377  14.993 -0.7246 -0.0629 -0.5450
 2274SOL     OW18454   2.899   0.590   5.920  0.0628 -0.1201 -0.3308
 2274SOL    HW118455   2.848   0.552   5.991 -2.8991  0.0405 -2.3801
 2274SOL    HW218456   2.957   0.515   5.909 -0.6284 -0.4956 -1.4344
 2275SOL     OW18457   0.029   2.136   7.610  0.0904  0.5332 -1.1059
 2275SOL    HW118458   0.086   2.061   7.622 -2.3234 -1.1797 -0.3052
 2275SOL    HW218459   4.688   2.104   7.657  1.0547 -0.0637  0.0588
 2276SOL     OW18460   1.027   1.137   7.441 -0.4480  0.1137  0.2762
 2276SOL    HW118461   0.981   1.141   7.525  1.9095 -1.6779  1.6696
 2276SOL    HW218462   1.118   1.134   7.471 -1.0391 -1.0097  2.0206
 2277SOL     OW18463   2.750   0.878   6.475  0.0076 -0.9410  0.3344
 2277SOL    HW118464   2.681   0.945   6.474  0.7813 -0.1593 -0.6917
 2277SOL    HW218465   2.829   0.928   6.493 -2.0564  2.0884  0.9425
 2278SOL     OW18466   1.132   2.118  13.487 -0.2473 -0.6314 -0.1976
 2278SOL    HW118467   1.095   2.191  13.535  0.4063 -1.0263  0.9104
 2278SOL    HW218468   1.096   2.038  13.526 -0.4350 -1.1995 -1.5493
 2279SOL     OW18469   4.648   1.046   3.745  0.4275 -0.0277  0.2951
 2279SOL    HW118470   4.658   0.954   3.722  0.1607 -0.7280  3.0595
 2279SOL    HW218471   4.678   1.079   3.660 -0.7080  0.4309  0.0638
 2280SOL     OW18472   3.782   0.917   5.308 -0.3512  0.4397  0.5936
 2280SOL    HW118473   3.841   0.981   5.348  1.3194 -0.5949 -0.2379
 2280SOL    HW218474   3.737   0.884   5.385  1.0278 -0.8294  0.8562
 2281SOL     OW18475   0.068   2.370   9.155 -0.3407 -1.0098 -0.1773
 2281SOL    HW118476   4.711   2.362   9.135 -0.3161 -3.1801  0.5731
 2281SOL    HW218477   0.057   2.459   9.188  0.5128 -1.1442  0.4716
 2282SOL     OW18478   3.896   1.997   5.383 -0.4304  0.0559  0.6973
 2282SOL    HW118479   3.812   1.950   5.386  0.2122 -1.0417  1.4376
 2282SOL    HW218480   3.931   1.989   5.294 -0.0467  2.0492  0.6614
 2283SOL     OW18481   3.242   0.064   5.205  0.1542 -0.6011 -0.0560
 2283SOL    HW118482   3.190   0.038   5.281 -0.1891 -1.3168 -0.5360
 2283SOL    HW218483   3.330   0.059   5.242  0.0017 -3.0785 -0.0441
 2284SOL     OW18484   4.636   1.933   4.302  0.2496  0.0790 -0.4836
 2284SOL    HW118485   4.587   1.999   4.252 -0.1489 -1.1406 -1.6935
 2284SOL    HW218486   4.694   1.895   4.237  0.3643  0.3569 -0.5448
 2285SOL     OW18487   3.695   0.196  11.018 -0.1797  0.6469 -0.0529
 2285SOL    HW118488   3.665   0.140  11.090  0.4487  0.6469  0.2121
 2285SOL    HW218489   3.770   0.149  10.980 -0.3267  2.0468 -2.0896
 2286SOL     OW18490   0.220   0.104   6.654 -0.4501  0.3973  0.2275
 2286SOL    HW118491   0.168   0.184   6.643  0.3984  1.0382  0.7605
 2286SOL    HW218492   0.275   0.098   6.576 -0.8239 -0.5049  0.0446
 2287SOL     OW18493   2.318   4.244   6.233  0.0405 -0.2354 -0.1910
 2287SOL    HW118494   2.346   4.222   6.144 -1.4944  1.0766 -0.9829
 2287SOL    HW218495   2.339   4.337   6.240  1.7516 -0.7580  1.6248
 2288SOL     OW18496   0.602   0.266  13.339  0.4151  0.1900 -0.6690
 2288SOL    HW118497   0.683   0.227  13.306  1.3936  1.3119  0.4123
 2288SOL    HW218498   0.616   0.296  13.429 -2.6259  0.6356 -0.3568
 2289SOL     OW18499   0.427   4.434   2.194  0.2497  0.9500 -0.3419
 2289SOL    HW118500   0.464   4.513   2.234 -0.9470  0.1081  2.4270
 2289SOL    HW218501   0.414   4.453   2.101  1.3834  1.2377 -0.4418
 2290SOL     OW18502   1.531   3.242   8.190  0.0862 -0.2335  0.5248
 2290SOL    HW118503   1.589   3.188   8.244  0.9531 -1.1953 -1.3651
 2290SOL    HW218504   1.481   3.170   8.152 -1.1874  0.4349  0.9349
 2291SOL     OW18505   3.959   2.640   9.008  0.5537 -0.2216 -0.5022
 2291SOL    HW118506   3.897   2.696   8.961  0.3683  0.5657  0.6812
 2291SOL    HW218507   4.001   2.707   9.062 -0.8333 -2.0979  2.9022
 2292SOL     OW18508   0.375   1.356   4.704 -0.0699  0.2842  0.2103
 2292SOL    HW118509   0.444   1.422   4.690  0.3053 -0.1650 -0.0558
 2292SOL    HW218510   0.422   1.286   4.748 -0.2933 -0.7847 -1.2402
 2293SOL     OW18511   1.694   0.758   2.166 -0.2369 -0.1372 -0.0563
 2293SOL    HW118512   1.672   0.841   2.122  1.8539  0.1691 -0.5303
 2293SOL    HW218513   1.765   0.733   2.107  0.6960  2.1472  0.0788
 2294SOL     OW18514   2.234   2.058   9.122  0.1608 -0.4264  0.0636
 2294SOL    HW118515   2.188   2.044   9.039  2.5736  1.2598 -1.5600
 2294SOL    HW218516   2.160   2.059   9.183  0.4036  0.1609  0.3491
 2295SOL     OW18517   0.564   3.069   4.879  0.0977  0.1192  0.1440
 2295SOL    HW118518   0.652   3.067   4.842 -0.0604 -0.3496 -0.2097
 2295SOL    HW218519   0.572   2.995   4.939  2.3088 -0.7321 -1.2133
 2296SOL     OW18520   2.138   1.012  16.992 -0.0321 -0.4591 -0.1103
 2296SOL    HW118521   2.204   1.079  16.975 -1.7933  1.8569  2.2799
 2296SOL    HW218522   2.075   1.029  16.921  0.7677 -2.0480 -1.2234
 2297SOL     OW18523   0.992   4.097   3.189  0.0289 -0.1578 -0.1347
 2297SOL    HW118524   1.053   4.089   3.116  2.3589  2.5723  1.5189
 2297SOL    HW218525   0.965   4.006   3.202 -0.0031 -0.2010 -0.4930
 2298SOL     OW18526   2.968   2.179  15.379 -0.4151 -0.2476 -0.1865
 2298SOL    HW118527   3.063   2.190  15.383 -0.4445 -1.1782  4.0113
 2298SOL    HW218528   2.962   2.115  15.450 -1.0606  0.8086  0.7059
 2299SOL     OW18529   4.338   3.494   7.900  0.8101  0.2666  0.1122
 2299SOL    HW118530   4.274   3.563   7.883  1.0258 -0.1134 -2.1833
 2299SOL    HW218531   4.314   3.408   7.866  1.7650  0.3678 -0.8279
 2300SOL     OW18532   1.410   3.613   7.764  0.4014  0.0895  0.2932
 2300SOL    HW118533   1.467   3.540   7.786  1.7268  0.6307 -1.2890
 2300SOL    HW218534   1.329   3.574   7.730 -0.8207  3.3263 -0.5864
 2301SOL     OW18535   0.891   3.440   8.191  0.7272  0.2015 -0.2171
 2301SOL    HW118536   0.906   3.477   8.103 -0.1699  0.2894 -0.3303
 2301SOL    HW218537   0.848   3.512   8.238  0.9982 -1.0381  1.9081
 2302SOL     OW18538   0.821   1.799  11.212 -0.0132 -0.0576  0.7854
 2302SOL    HW118539   0.813   1.737  11.285 -1.5835 -1.2222 -0.3961
 2302SOL    HW218540   0.755   1.864  11.237  0.7094  1.2951 -0.8876
 2303SOL     OW18541   4.505   2.602   7.600 -0.2845  0.6052 -0.7412
 2303SOL    HW118542   4.417   2.624   7.630  1.3877  1.9379  3.1065
 2303SOL    HW218543   4.554   2.671   7.644  0.0068 -0.2501  0.2862
 2304SOL     OW18544   3.624   2.256  12.924  0.0263  0.2921 -1.1269
 2304SOL    HW118545   3.566   2.242  12.849  0.1475 -0.4005 -1.0939
 2304SOL    HW218546   3.559   2.268  12.994  2.0296 -1.4230  1.0201
 2305SOL     OW18547   0.390   1.646   2.334  0.7457  0.3035  0.9081
 2305SOL    HW118548   0.332   1.681   2.266 -0.6380 -0.5506  1.6502
 2305SOL    HW218549   0.337   1.580   2.378 -0.9285 -0.1697 -1.8313
 2306SOL     OW18550   1.658   1.068   1.823  0.1593 -0.4787 -0.0965
 2306SOL    HW118551   1.620   1.013   1.892  2.2526 -2.1894 -0.2758
 2306SOL    HW218552   1.590   1.057   1.756 -0.1595  0.6982  0.0451
 2307SOL     OW18553   1.890   0.568   3.275 -0.4787  0.1968  0.2299
 2307SOL    HW118554   1.917   0.641   3.330  1.5323  0.2903 -0.8718
 2307SOL    HW218555   1.975   0.560   3.231 -1.3181  0.4053 -1.4394
 2308SOL     OW18556   4.681   3.515   4.567 -0.6118  0.1138  0.0540
 2308SOL    HW118557   4.683   3.595   4.514  1.3634 -0.3823 -0.6084
 2308SOL    HW218558   4.606   3.469   4.529 -1.4410 -0.3366  2.2218
 2309SOL     OW18559   0.548   0.480  10.594 -0.0309 -0.9573  0.7371
 2309SOL    HW118560   0.582   0.393  10.572  0.9183 -0.2670 -0.5571
 2309SOL    HW218561   0.493   0.464  10.670 -0.4547  1.6630  0.9730
 2310SOL     OW18562   4.108   1.969   9.031  0.4478  0.6209  0.0955
 2310SOL    HW118563   4.128   2.039   8.968  0.5548  0.7622  0.2861
 2310SOL    HW218564   4.014   1.960   9.019  0.8445 -0.1750 -2.3718
 2311SOL     OW18565   1.781   0.318  11.247 -0.0177 -0.5851 -0.0516
 2311SOL    HW118566   1.706   0.365  11.284 -0.1984  1.3501 -2.9338
 2311SOL    HW218567   1.786   0.249  11.313 -2.3499 -1.2552 -0.5579
 2312SOL     OW18568   4.277   2.395   5.824  0.3913 -0.0407  0.1672
 2312SOL    HW118569   4.213   2.396   5.753  1.2819  0.3600 -0.6344
 2312SOL    HW218570   4.249   2.311   5.859 -1.1272 -0.2112 -1.4793
 2313SOL     OW18571   1.003   3.382  16.965 -0.3789  0.3780 -0.0439
 2313SOL    HW118572   0.927   3.427  16.928 -1.2021 -1.9402 -1.1572
 2313SOL    HW218573   1.075   3.436  16.932 -1.6700  2.2712  0.2211
 2314SOL     OW18574   4.164   3.742   7.883 -0.9491  0.1118 -0.7408
 2314SOL    HW118575   4.210   3.825   7.900 -0.1008 -0.9062  1.9774
 2314SOL    HW218576   4.178   3.749   7.789  0.8939  0.6928 -0.4262
 2315SOL     OW18577   2.220   0.211   6.534 -0.2362 -0.5957  0.1300
 2315SOL    HW118578   2.126   0.213   6.553 -0.0331  0.8425  1.0079
 2315SOL    HW218579   2.264   0.184   6.615  0.7755  1.6874  0.3403
 2316SOL     OW18580   1.299   3.199   7.719 -0.1737  0.3322  0.1478
 2316SOL    HW118581   1.221   3.246   7.751 -0.5426  0.4838 -0.9990
 2316SOL    HW218582   1.275   3.107   7.715  0.8908  0.0473  0.3132
 2317SOL     OW18583   3.383   2.219   1.778 -0.3705  0.4494 -0.1250
 2317SOL    HW118584   3.313   2.280   1.800  0.3279  1.4872 -0.7576
 2317SOL    HW218585   3.412   2.197   1.866 -1.9761  0.4538  0.3991
 2318SOL     OW18586   2.187   4.443   6.735  0.0576 -0.7231  0.2250
 2318SOL    HW118587   2.102   4.416   6.701  0.5997  0.4880 -2.0257
 2318SOL    HW218588   2.249   4.391   6.684 -1.4766 -0.9500 -1.4285
 2319SOL     OW18589   3.070   4.056   1.789 -0.1630  0.2237  0.0359
 2319SOL    HW118590   3.116   3.972   1.799 -1.3636 -0.3736  0.5239
 2319SOL    HW218591   2.979   4.026   1.791 -0.5814  1.5850  1.1186
 2320SOL     OW18592   1.452   2.142   9.495 -0.2654  0.5881 -0.0183
 2320SOL    HW118593   1.431   2.118   9.405 -0.2448  1.2756 -0.2058
 2320SOL    HW218594   1.530   2.193   9.475  1.7458 -2.9059 -0.9540
 2321SOL     OW18595   4.191   1.387   7.483 -0.3386 -0.2318  0.4974
 2321SOL    HW118596   4.135   1.407   7.408  0.7530  1.6292  0.1713
 2321SOL    HW218597   4.169   1.298   7.512  1.4443 -1.5732 -2.2553
 2322SOL     OW18598   3.735   1.650   2.121  0.4209 -0.2391  0.2899
 2322SOL    HW118599   3.782   1.706   2.059  1.1361 -0.4995  0.5890
 2322SOL    HW218600   3.698   1.705   2.189 -0.7816 -1.6131  0.7345
 2323SOL     OW18601   3.329   0.027   6.409  0.1706 -0.5137 -0.5671
 2323SOL    HW118602   3.395   0.075   6.359  0.1684  2.3034  2.1574
 2323SOL    HW218603   3.255   0.086   6.394  1.6268  1.9423  1.8576
 2324SOL     OW18604   4.421   0.831   4.651  0.6531 -0.0572  0.7137
 2324SOL    HW118605   4.514   0.838   4.629  0.1924 -1.1535 -1.5470
 2324SOL    HW218606   4.400   0.769   4.582  3.1084  1.0330 -0.9960
 2325SOL     OW18607   3.530   0.028   8.441 -0.3211  0.1626 -0.1516
 2325SOL    HW118608   3.469   4.700   8.477 -0.8792  0.6986 -0.1451
 2325SOL    HW218609   3.587   0.047   8.516  1.4874  0.6338 -1.6230
 2326SOL     OW18610   1.920   2.791   1.844  0.0732  0.2325  0.2739
 2326SOL    HW118611   2.006   2.760   1.814 -1.5335 -2.3173 -1.7116
 2326SOL    HW218612   1.948   2.816   1.932  1.3313  0.4132 -0.1749
 2327SOL     OW18613   0.766   2.668   7.242  0.1364  0.5855 -0.0273
 2327SOL    HW118614   0.726   2.708   7.165 -1.5354  0.2076  0.6271
 2327SOL    HW218615   0.799   2.586   7.205  0.9756  0.9868 -0.1519
 2328SOL     OW18616   0.607   3.935  16.880  0.3197 -0.1805 -0.5491
 2328SOL    HW118617   0.517   3.927  16.850 -0.4769  1.4090  1.4741
 2328SOL    HW218618   0.642   3.845  16.880 -0.4460 -0.4744  2.2823
 2329SOL     OW18619   1.551   3.239   6.875  0.1250  0.4047 -0.5860
 2329SOL    HW118620   1.463   3.274   6.888  1.1700  2.4651  1.1643
 2329SOL    HW218621   1.581   3.223   6.965 -0.0312  0.2116 -0.5684
 2330SOL     OW18622   1.783   1.488   8.039 -0.8689 -0.0927  0.4743
 2330SOL    HW118623   1.705   1.534   8.070 -0.8355  0.1467  0.2080
 2330SOL    HW218624   1.826   1.557   7.987 -0.3943 -1.3164 -0.7518
 2331SOL     OW18625   3.239   2.291   6.735  0.1063 -0.4179  0.5009
 2331SOL    HW118626   3.261   2.300   6.828  2.3493 -1.1440  0.0282
 2331SOL    HW218627   3.308   2.343   6.696  0.1889 -0.4292  0.6326
 2332SOL     OW18628   3.031   2.211   9.037 -0.1313  0.1782  0.6298
 2332SOL    HW118629   2.959   2.182   8.981  0.8969  0.0622 -0.6247
 2332SOL    HW218630   2.996   2.279   9.095  1.6048 -0.1976  2.1457
 2333SOL     OW18631   2.251   0.076  16.363 -0.1035  0.0869 -0.7003
 2333SOL    HW118632   2.265   0.020  16.439  0.6653  2.5873  1.0148
 2333SOL    HW218633   2.191   0.143  16.395 -0.5599 -0.2068 -0.9386
 2334SOL     OW18634   0.738   3.840  15.921  0.2231 -0.0032  1.2734
 2334SOL    HW118635   0.818   3.890  15.902  0.8436 -1.5328 -0.0629
 2334SOL    HW218636   0.681   3.913  15.947  1.9725  1.7794  0.1261
 2335SOL     OW18637   2.080   1.996   5.039  0.2120  0.1000 -0.2031
 2335SOL    HW118638   2.005   1.938   5.049 -1.5084  2.2771 -0.4271
 2335SOL    HW218639   2.141   1.936   5.083 -2.1794 -2.8467 -0.9573
 2336SOL     OW18640   3.058   3.207   1.295  0.3713  0.2241 -0.2368
 2336SOL    HW118641   3.124   3.259   1.341 -0.1925  2.5201 -2.0664
 2336SOL    HW218642   3.119   3.146   1.252 -0.0352 -0.6543  0.4433
 2337SOL     OW18643   0.925   2.607   6.359 -0.6487 -0.9860  1.0004
 2337SOL    HW118644   0.953   2.685   6.407 -1.6093 -0.7720  1.2200
 2337SOL    HW218645   0.830   2.615   6.363 -0.6326  0.6945 -1.5868
 2338SOL     OW18646   0.602   1.772   2.474 -0.1768  0.1121  0.0100
 2338SOL    HW118647   0.531   1.708   2.470  0.4656 -0.4667 -2.4197
 2338SOL    HW218648   0.629   1.781   2.382 -0.0004  2.5589  0.3015
 2339SOL     OW18649   2.935   4.225   5.640  0.1032 -0.1144 -0.1196
 2339SOL    HW118650   2.988   4.225   5.719  1.4286 -0.8214 -1.0084
 2339SOL    HW218651   2.994   4.177   5.582 -1.1539 -2.5459  0.6192
 2340SOL     OW18652   1.906   0.747   3.470  0.0219 -0.4459 -0.1357
 2340SOL    HW118653   1.851   0.768   3.545  1.9650  0.1567  1.1148
 2340SOL    HW218654   1.878   0.818   3.412  0.7538 -0.6506 -0.7379
 2341SOL     OW18655   0.618   2.805   7.671  0.6202 -0.2322  0.1691
 2341SOL    HW118656   0.553   2.818   7.602  1.8706 -1.8881 -1.2923
 2341SOL    HW218657   0.578   2.732   7.718  0.0298  0.1124  0.2123
 2342SOL     OW18658   4.731   2.869   9.845  0.4070 -0.3636  0.6847
 2342SOL    HW118659   4.684   2.798   9.889  2.1531 -1.3621  0.9465
 2342SOL    HW218660   0.083   2.859   9.879 -0.3773  0.7366  3.0572
 2343SOL     OW18661   4.557   0.726   4.197 -0.7337  0.1148  0.6916
 2343SOL    HW118662   4.554   0.754   4.105 -0.3684 -2.5789 -0.1430
 2343SOL    HW218663   4.545   0.808   4.244 -3.1732  0.5368 -0.6666
 2344SOL     OW18664   1.460   3.679   8.049  0.2726  0.7249 -0.1642
 2344SOL    HW118665   1.485   3.622   8.122  0.2696  1.5762  0.5035
 2344SOL    HW218666   1.492   3.619   7.981 -0.1579  3.5287 -2.7856
 2345SOL     OW18667   4.088   3.297   3.761  0.2646 -0.6174  0.0054
 2345SOL    HW118668   4.079   3.330   3.850  1.8532 -0.5540  0.1435
 2345SOL    HW218669   4.099   3.384   3.724  0.6052 -1.2791 -1.4409
 2346SOL     OW18670   2.328   3.462  11.148  0.6483 -1.0743  0.3481
 2346SOL    HW118671   2.424   3.461  11.146  0.6356  0.2127 -0.8006
 2346SOL    HW218672   2.314   3.455  11.242  0.0085 -1.0176  0.2539
 2347SOL     OW18673   1.032   1.386   3.686 -0.5174  0.1250  0.0476
 2347SOL    HW118674   0.937   1.385   3.696 -0.6274  2.1342 -0.9007
 2347SOL    HW218675   1.042   1.349   3.598  0.4101  1.6806 -0.5026
 2348SOL     OW18676   2.464   2.835  16.743  0.0176 -0.7020 -0.1507
 2348SOL    HW118677   2.473   2.852  16.650  0.8121 -1.3332 -0.1838
 2348SOL    HW218678   2.470   2.922  16.784 -0.3184 -0.6503 -0.2112
 2349SOL     OW18679   0.398   3.946   3.370  0.4595  0.3297  0.7801
 2349SOL    HW118680   0.307   3.956   3.344  0.7979  1.3761  0.0029
 2349SOL    HW218681   0.424   3.856   3.351  1.6493  0.4918  1.6055
 2350SOL     OW18682   0.494   0.178   4.624  0.2659  0.6356  0.0392
 2350SOL    HW118683   0.503   0.179   4.719 -0.9502  2.7655  0.1478
 2350SOL    HW218684   0.400   0.183   4.608  0.9382  1.8698 -3.4727
 2351SOL     OW18685   2.062   3.641  12.414 -0.4340  0.0336  0.7577
 2351SOL    HW118686   2.105   3.723  12.391 -0.5958  0.4536  1.9505
 2351SOL    HW218687   2.132   3.577  12.400 -0.1358  0.1824  1.6116
 2352SOL     OW18688   2.726   1.130   4.082 -0.3949  0.0903 -0.5148
 2352SOL    HW118689   2.652   1.089   4.126 -0.6459 -0.3858 -1.3762
 2352SOL    HW218690   2.779   1.057   4.052 -0.9567 -0.0507 -1.1898
 2353SOL     OW18691   2.862   1.471   4.258  0.0799 -0.0424 -0.2442
 2353SOL    HW118692   2.897   1.417   4.187 -0.1156 -0.2728 -0.1669
 2353SOL    HW218693   2.808   1.537   4.214 -0.3286  0.0577  0.4081
 2354SOL     OW18694   1.402   4.153   5.738  0.0541  0.7654  0.1749
 2354SOL    HW118695   1.404   4.200   5.654 -1.3928 -0.8462 -0.7655
 2354SOL    HW218696   1.315   4.115   5.724  0.6691  0.2077 -2.2628
 2355SOL     OW18697   2.456   0.903   6.327 -0.2390 -0.2409 -0.2949
 2355SOL    HW118698   2.455   0.948   6.242 -0.5938  0.2474 -0.0293
 2355SOL    HW218699   2.466   0.978   6.385  1.9499 -1.8053  1.3187
 2356SOL     OW18700   4.183   3.074   3.643  0.2211 -0.0603 -0.1782
 2356SOL    HW118701   4.274   3.096   3.661  0.2162 -0.7392  0.7309
 2356SOL    HW218702   4.143   3.146   3.692  0.1127 -1.0237  1.1508
 2357SOL     OW18703   4.701   0.022  14.548  0.2054 -0.2240  0.3400
 2357SOL    HW118704   4.650   0.061  14.619 -0.6992  2.6047 -1.9201
 2357SOL    HW218705   4.700   4.666  14.573  0.9653 -0.5234 -0.7168
 2358SOL     OW18706   0.869   4.308   6.075  0.0216 -0.4461 -0.6114
 2358SOL    HW118707   0.774   4.311   6.064  0.0436  2.0990  0.0182
 2358SOL    HW218708   0.872   4.306   6.171 -3.3843  2.3475 -0.4812
 2359SOL     OW18709   3.278   3.235   6.723 -0.4281 -0.4686  0.2434
 2359SOL    HW118710   3.287   3.147   6.685  1.8785  1.1074 -2.7596
 2359SOL    HW218711   3.365   3.252   6.758  0.1649 -1.5733 -0.7073
 2360SOL     OW18712   4.668   3.039   9.241 -0.7592  0.2004 -0.5163
 2360SOL    HW118713   4.615   2.967   9.208  0.3569 -0.9491  0.1779
 2360SOL    HW218714   4.625   3.120   9.216  1.8906  1.5926 -0.5934
 2361SOL     OW18715   2.314   2.366  10.395  0.4382  0.3894  0.1937
 2361SOL    HW118716   2.316   2.449  10.347  2.2969  1.5907  2.3698
 2361SOL    HW218717   2.227   2.337  10.367 -0.1354 -0.6392  3.1131
 2362SOL     OW18718   1.570   0.516   3.819  0.6942  0.0001  0.2896
 2362SOL    HW118719   1.581   0.438   3.874  0.4564  0.1004  0.4771
 2362SOL    HW218720   1.643   0.573   3.846  1.1001  0.1123 -1.0553
 2363SOL     OW18721   1.147   4.689   5.880  0.5191  0.0426  0.3120
 2363SOL    HW118722   1.158   4.723   5.968  2.6834 -1.2655  0.5504
 2363SOL    HW218723   1.102   4.605   5.890 -1.2326  0.7646 -1.4081
 2364SOL     OW18724   3.675   3.900  11.999 -0.2665  0.3418 -0.0187
 2364SOL    HW118725   3.644   3.816  12.034 -2.2550  0.0832 -2.3864
 2364SOL    HW218726   3.744   3.915  12.064  1.6618 -0.8792 -1.7797
 2365SOL     OW18727   4.653   4.323   4.031  0.1888 -0.4393 -0.5029
 2365SOL    HW118728   4.633   4.276   3.949 -0.5543 -0.4537 -0.3152
 2365SOL    HW218729   4.568   4.361   4.054  0.5594  0.3587 -0.4857
 2366SOL     OW18730   2.595   3.792  11.011 -0.3436  0.4754 -0.3559
 2366SOL    HW118731   2.507   3.808  11.046 -0.2006  2.4526 -0.9119
 2366SOL    HW218732   2.587   3.861  10.944  0.3050  0.0063 -0.9199
 2367SOL     OW18733   0.411   4.540   5.807  0.1359 -0.0266  0.2609
 2367SOL    HW118734   0.477   4.608   5.824 -1.3266  1.4746 -0.1485
 2367SOL    HW218735   0.373   4.522   5.893  1.8575 -0.6818  0.8857
 2368SOL     OW18736   2.566   4.467   3.973  0.4111 -0.3187 -0.4546
 2368SOL    HW118737   2.610   4.540   4.016 -0.7278  1.3268 -2.0913
 2368SOL    HW218738   2.544   4.416   4.051 -0.1192 -0.6594 -0.8185
 2369SOL     OW18739   1.556   2.659   4.584  0.0543 -0.3239 -0.2421
 2369SOL    HW118740   1.515   2.662   4.670 -0.5217  2.7245 -0.6109
 2369SOL    HW218741   1.505   2.730   4.545 -1.3913 -2.2024 -1.7860
 2370SOL     OW18742   4.361   1.894   7.748  0.7616 -0.1331 -0.0160
 2370SOL    HW118743   4.416   1.911   7.824  0.0242  1.3595  0.1825
 2370SOL    HW218744   4.297   1.835   7.789 -0.6199  1.1067 -0.3951
 2371SOL     OW18745   1.487   1.824   1.049  0.1231  0.2178  0.0172
 2371SOL    HW118746   1.513   1.899   1.102 -0.2672 -0.8843  1.7732
 2371SOL    HW218747   1.560   1.763   1.060  0.8143  1.3033  1.3817
 2372SOL     OW18748   1.081   2.222  13.936 -0.2044 -1.0794  0.0797
 2372SOL    HW118749   1.098   2.270  14.016 -1.4860  0.6034 -0.6668
 2372SOL    HW218750   1.008   2.175  13.976 -0.9939 -0.2297 -0.3758
 2373SOL     OW18751   0.367   0.631   7.017  0.2100 -0.0058  0.2918
 2373SOL    HW118752   0.429   0.646   6.946 -1.0499  0.0064 -0.8111
 2373SOL    HW218753   0.429   0.594   7.080  1.7801  0.0505 -1.2070
 2374SOL     OW18754   0.833   2.049   1.180 -0.0391 -0.2512 -0.5851
 2374SOL    HW118755   0.774   2.003   1.239  0.0208 -1.7535 -1.7041
 2374SOL    HW218756   0.873   2.114   1.238 -1.6067 -0.2139  0.4472
 2375SOL     OW18757   2.923   2.549   3.248 -0.2177  0.0590  0.6577
 2375SOL    HW118758   2.994   2.518   3.192 -1.0366  1.6654 -1.2545
 2375SOL    HW218759   2.901   2.469   3.296  1.3390 -0.7866 -0.0352
 2376SOL     OW18760   2.705   4.506   0.426  0.2100 -0.0766 -0.2588
 2376SOL    HW118761   2.798   4.501   0.405  0.3657 -1.1373  0.7054
 2376SOL    HW218762   2.668   4.551   0.350  0.8269 -2.1487 -1.7909
 2377SOL     OW18763   0.927   3.943   5.574 -0.5911  0.3692  0.5850
 2377SOL    HW118764   0.961   3.872   5.521 -1.0500  1.2213 -0.8469
 2377SOL    HW218765   0.905   4.009   5.508 -1.7231  1.2569  1.8226
 2378SOL     OW18766   2.227   2.470   2.991 -0.2945 -0.0235  0.0225
 2378SOL    HW118767   2.213   2.507   3.079 -0.2865  2.6341 -1.1117
 2378SOL    HW218768   2.240   2.552   2.945  1.1567 -0.6400 -0.6593
 2379SOL     OW18769   2.170   2.949  16.329 -0.2217  0.3725  0.1080
 2379SOL    HW118770   2.216   2.900  16.398  1.6983  0.5671 -1.0263
 2379SOL    HW218771   2.078   2.930  16.344 -0.7046  3.3665  0.9197
 2380SOL     OW18772   4.465   2.304   2.595 -0.3264  0.3534  0.5766
 2380SOL    HW118773   4.484   2.243   2.523  0.7955  0.9466  0.3629
 2380SOL    HW218774   4.486   2.253   2.673 -0.3694 -1.0106 -0.3110
 2381SOL     OW18775   2.059   2.270   2.976 -0.6384 -0.0038 -0.5618
 2381SOL    HW118776   2.013   2.297   2.897  0.2131  1.9684 -0.3861
 2381SOL    HW218777   2.102   2.349   3.011  0.7523 -0.9269 -0.1995
 2382SOL     OW18778   1.296   2.394   3.920  0.0603  0.1420 -0.3730
 2382SOL    HW118779   1.270   2.314   3.875 -0.6576  0.4225 -0.4642
 2382SOL    HW218780   1.311   2.452   3.845  2.0400 -0.1844 -0.2180
 2383SOL     OW18781   1.497   3.256   9.271  0.1605 -0.1746  0.6603
 2383SOL    HW118782   1.497   3.310   9.193 -1.6545 -0.0592  0.7486
 2383SOL    HW218783   1.501   3.165   9.242 -1.2868 -0.3458  1.0024
 2384SOL     OW18784   4.559   3.571  10.421 -0.8076 -0.2660 -0.4088
 2384SOL    HW118785   4.507   3.547  10.345  0.1030 -1.7730 -0.5595
 2384SOL    HW218786   4.494   3.598  10.485 -0.1573 -1.8736  0.9259
 2385SOL     OW18787   3.979   4.155  13.194 -0.0285  0.2995  0.2216
 2385SOL    HW118788   4.050   4.091  13.191 -2.2393 -2.0425 -2.9759
 2385SOL    HW218789   3.998   4.224  13.131 -0.3753  0.4394  0.2721
 2386SOL     OW18790   3.504   1.316   4.653 -0.2278  0.3220 -0.2009
 2386SOL    HW118791   3.507   1.395   4.706 -0.1903  1.0300 -1.2699
 2386SOL    HW218792   3.425   1.332   4.602 -1.3984 -2.9100  0.5851
 2387SOL     OW18793   4.514   2.884   3.391  0.0651 -0.2866 -0.3335
 2387SOL    HW118794   4.537   2.971   3.423 -0.1400 -1.2479  2.3580
 2387SOL    HW218795   4.548   2.840   3.468  0.2943  0.9828  0.2898
 2388SOL     OW18796   3.884   0.211  17.079 -0.3787  0.1884  0.1263
 2388SOL    HW118797   3.851   0.130  17.040  0.5394  0.0353 -0.3268
 2388SOL    HW218798   3.810   0.269  17.055 -1.0701  0.2871  2.5119
 2389SOL     OW18799   3.810   4.148  15.817  0.0239 -0.0257  0.7862
 2389SOL    HW118800   3.763   4.098  15.884 -0.3734 -2.0327 -1.0104
 2389SOL    HW218801   3.833   4.231  15.859 -3.1980  2.3334 -2.0520
 2390SOL     OW18802   1.730   2.085  17.625 -0.0646 -0.2517  0.2238
 2390SOL    HW118803   1.753   2.000  17.661  3.0306  0.4567 -0.0843
 2390SOL    HW218804   1.726   2.132  17.709 -0.7140 -1.0928  0.6649
 2391SOL     OW18805   0.579   0.021  17.010  0.0324 -0.1700 -0.5616
 2391SOL    HW118806   0.667   4.723  17.024 -0.2368 -0.9043 -0.7032
 2391SOL    HW218807   0.579   0.010  16.915  0.7057 -1.1569 -0.4437
 2392SOL     OW18808   4.389   1.444   7.940  0.1367 -0.1871  0.1226
 2392SOL    HW118809   4.421   1.517   7.993 -1.5834  0.3319  0.4525
 2392SOL    HW218810   4.384   1.479   7.851  1.7679  1.7404  0.7918
 2393SOL     OW18811   2.100   3.537  12.811 -0.1450  0.1458 -0.1221
 2393SOL    HW118812   2.188   3.567  12.837  1.6328 -2.8007 -2.8216
 2393SOL    HW218813   2.130   3.450  12.784 -1.3267 -1.2733  3.1755
 2394SOL     OW18814   2.666   4.424   8.278 -0.1632  0.6454 -0.3576
 2394SOL    HW118815   2.744   4.427   8.333  0.1629 -2.0198 -0.6817
 2394SOL    HW218816   2.611   4.499   8.300 -1.2089 -0.3653  0.4282
 2395SOL     OW18817   1.841   0.324  11.661 -0.1265  0.2947 -0.1744
 2395SOL    HW118818   1.852   0.318  11.756  1.3374 -1.4629 -0.4706
 2395SOL    HW218819   1.745   0.320  11.657 -0.1177  2.0451 -2.0659
 2396SOL     OW18820   3.204   2.064   8.205 -0.2523  0.1798  0.0167
 2396SOL    HW118821   3.295   2.094   8.202 -0.2518  0.3442  1.9822
 2396SOL    HW218822   3.180   2.066   8.298 -1.6919 -1.5157 -0.3215
 2397SOL     OW18823   1.148   0.716  12.103  0.3140  0.8749  0.6880
 2397SOL    HW118824   1.219   0.666  12.062 -1.8664  0.6831 -2.8643
 2397SOL    HW218825   1.154   0.679  12.192  2.2609 -0.4994 -0.0117
 2398SOL     OW18826   3.353   4.362   0.723  0.1158  0.4417  0.3683
 2398SOL    HW118827   3.267   4.319   0.731 -0.5297  1.7913  0.6883
 2398SOL    HW218828   3.401   4.289   0.685  0.0214  0.6069 -0.0629
 2399SOL     OW18829   4.270   4.260  10.697 -0.3460 -0.3623  0.3163
 2399SOL    HW118830   4.256   4.321  10.625  0.3371 -0.0765  0.4321
 2399SOL    HW218831   4.291   4.182  10.645 -0.8572  0.4165 -1.0513
 2400SOL     OW18832   0.244   1.954   2.481  0.4844 -0.4504  0.1724
 2400SOL    HW118833   0.232   1.913   2.396 -0.6119 -0.7238  0.4600
 2400SOL    HW218834   0.192   2.034   2.473 -1.0458 -1.1413  3.0760
 2401SOL     OW18835   1.003   0.984   3.738 -0.2052 -0.1488  1.0505
 2401SOL    HW118836   1.033   1.019   3.822  0.2093  0.7259  0.5321
 2401SOL    HW218837   0.990   0.890   3.755 -0.0008 -0.0802  1.6059
 2402SOL     OW18838   4.206   0.590   0.217 -0.3483  0.0302  0.2333
 2402SOL    HW118839   4.179   0.570   0.127  2.8980  0.6619 -0.8634
 2402SOL    HW218840   4.301   0.584   0.206 -0.3261 -0.2141  0.5640
 2403SOL     OW18841   2.331   0.699   3.041  0.6621  0.6908  0.2289
 2403SOL    HW118842   2.281   0.719   2.962 -2.3319 -1.2066  1.6539
 2403SOL    HW218843   2.394   0.771   3.045 -3.4822  4.3022 -0.3443
 2404SOL     OW18844   1.554   2.232   6.862 -0.0974  0.6842  0.0460
 2404SOL    HW118845   1.635   2.281   6.877  0.6130 -0.0776 -1.2767
 2404SOL    HW218846   1.558   2.221   6.767 -4.0994  2.7916 -0.3729
 2405SOL     OW18847   1.330   2.637   2.797 -0.2675  0.3338 -0.0724
 2405SOL    HW118848   1.379   2.707   2.841  1.1463  0.3016 -1.5581
 2405SOL    HW218849   1.381   2.557   2.804 -1.2661 -0.1544  1.5965
 2406SOL     OW18850   3.150   3.655   0.673 -0.3481  0.2250 -0.4358
 2406SOL    HW118851   3.215   3.723   0.656  1.1147 -0.5479  1.9848
 2406SOL    HW218852   3.070   3.688   0.632  0.8333  1.8378 -1.4425
 2407SOL     OW18853   1.875   1.876  12.723  0.4685  0.6963 -0.1022
 2407SOL    HW118854   1.785   1.905  12.740  0.8034  0.3395  2.3104
 2407SOL    HW218855   1.922   1.886  12.806 -2.5319 -0.2034  1.7103
 2408SOL     OW18856   0.459   3.590   6.370 -0.2109  0.3172 -0.6323
 2408SOL    HW118857   0.390   3.559   6.311  0.4695 -1.0104 -0.7083
 2408SOL    HW218858   0.416   3.602   6.455  1.8592  2.0919  0.1508
 2409SOL     OW18859   2.896   1.643   6.201  0.6155  0.1598  0.1069
 2409SOL    HW118860   2.954   1.717   6.180  0.8251 -0.0236  0.0322
 2409SOL    HW218861   2.808   1.664   6.172  0.1335 -0.0937  1.4153
 2410SOL     OW18862   2.210   2.370   6.273  0.1870 -0.3870 -0.1940
 2410SOL    HW118863   2.291   2.325   6.295  0.4118 -0.5130 -1.2893
 2410SOL    HW218864   2.236   2.458   6.300 -0.1530 -0.2254 -0.3853
 2411SOL     OW18865   2.327   0.790   7.815  0.0551 -0.6460 -0.3700
 2411SOL    HW118866   2.303   0.827   7.900 -2.4529  0.1565 -1.4260
 2411SOL    HW218867   2.333   0.874   7.770 -0.4824  0.4768  1.6777
 2412SOL     OW18868   2.103   2.719   8.637 -0.6178 -0.0420  0.3334
 2412SOL    HW118869   2.180   2.775   8.631 -0.2431 -0.3076  2.5673
 2412SOL    HW218870   2.122   2.675   8.720 -1.4493 -1.2861 -0.1305
 2413SOL     OW18871   2.742   1.818   7.483 -0.4474  0.2838  0.2952
 2413SOL    HW118872   2.677   1.865   7.534 -1.2911 -0.0618 -0.4680
 2413SOL    HW218873   2.728   1.857   7.397 -3.3332 -0.7297  0.3066
 2414SOL     OW18874   1.492   0.579   3.041 -0.2654  0.2992  0.0581
 2414SOL    HW118875   1.528   0.648   3.096  0.4574  0.3682 -0.4978
 2414SOL    HW218876   1.522   0.611   2.956  1.9078  0.8813  1.0520
 2415SOL     OW18877   4.097   3.394   5.678 -0.0194 -0.0379  0.2935
 2415SOL    HW118878   4.154   3.438   5.742 -1.0993  1.7108  0.0643
 2415SOL    HW218879   4.138   3.308   5.686 -0.9524 -0.3107  2.0532
 2416SOL     OW18880   0.325   1.766   9.477  0.2875 -0.8133  0.0695
 2416SOL    HW118881   0.273   1.748   9.555 -0.3560 -0.7821 -0.3503
 2416SOL    HW218882   0.349   1.675   9.456 -1.0551 -0.7329 -1.8713
 2417SOL     OW18883   2.805   3.882   7.704 -0.3276 -0.0090  0.7496
 2417SOL    HW118884   2.740   3.930   7.755  1.3626  2.1812  0.8259
 2417SOL    HW218885   2.890   3.903   7.742 -0.3612  0.2696  0.6758
 2418SOL     OW18886   3.858   4.137  11.569 -0.0239 -0.3124  0.2007
 2418SOL    HW118887   3.802   4.061  11.581 -2.5123  1.3171 -1.2147
 2418SOL    HW218888   3.908   4.112  11.491 -0.1939  2.1336 -0.6961
 2419SOL     OW18889   2.903   0.716   2.054  0.0782 -0.2488  0.1206
 2419SOL    HW118890   2.864   0.674   1.977 -1.1033  0.0017  0.5761
 2419SOL    HW218891   2.828   0.706   2.113 -0.5007  0.9860 -0.4083
 2420SOL     OW18892   2.533   0.821   2.045  0.1818 -0.1218 -0.1538
 2420SOL    HW118893   2.464   0.784   1.990  1.2310 -0.4747 -1.2516
 2420SOL    HW218894   2.590   0.841   1.970  0.2856 -0.9696 -0.3088
 2421SOL     OW18895   2.900   3.905   4.812 -0.3861  0.2826  0.0475
 2421SOL    HW118896   2.926   3.991   4.846  2.1816 -0.8917  1.0451
 2421SOL    HW218897   2.946   3.904   4.728 -1.5472  2.3859 -0.5962
 2422SOL     OW18898   0.837   1.145   4.802  0.0714 -0.1865 -0.3395
 2422SOL    HW118899   0.892   1.076   4.839  1.3191  2.2384  2.4218
 2422SOL    HW218900   0.853   1.227   4.850  1.3759 -0.1126 -0.8997
 2423SOL     OW18901   0.536   2.214   6.222  0.4513 -0.5670 -0.1406
 2423SOL    HW118902   0.591   2.214   6.301  3.1411  0.8271 -2.0400
 2423SOL    HW218903   0.566   2.148   6.160 -0.7812 -3.1897  2.0481
 2424SOL     OW18904   1.759   0.949   7.122 -0.2437 -0.0690  0.6546
 2424SOL    HW118905   1.764   0.958   7.027  0.7904  0.2473  0.7432
 2424SOL    HW218906   1.665   0.933   7.127 -0.5880  1.7666  0.0092
 2425SOL     OW18907   2.676   4.692   6.903 -0.5640 -0.4451 -0.3458
 2425SOL    HW118908   2.659   4.670   6.994 -1.0692  1.6717  0.0636
 2425SOL    HW218909   2.753   4.638   6.886  0.0941  1.1325 -2.4548
 2426SOL     OW18910   3.278   0.369   7.227 -0.2135 -0.0187  0.0057
 2426SOL    HW118911   3.357   0.316   7.224 -1.3052 -1.6449 -0.1713
 2426SOL    HW218912   3.241   0.362   7.139  2.3670  1.6289 -1.2084
 2427SOL     OW18913   0.737   4.216   7.414 -0.5071 -0.2436 -0.1476
 2427SOL    HW118914   0.784   4.283   7.463 -0.8234 -0.5165  0.5270
 2427SOL    HW218915   0.668   4.194   7.477 -0.2808  0.9390  0.5178
 2428SOL     OW18916   0.986   2.627   4.872 -0.3089  0.8098 -0.0161
 2428SOL    HW118917   0.927   2.566   4.916 -0.8485  0.5213 -1.1149
 2428SOL    HW218918   1.050   2.572   4.828 -0.5904  0.5139 -0.0572
 2429SOL     OW18919   2.545   2.070   3.134 -0.3577 -0.3018  0.6023
 2429SOL    HW118920   2.594   2.097   3.211 -0.1761 -1.6310  0.9600
 2429SOL    HW218921   2.473   2.132   3.132 -0.7960 -0.8679 -1.3786
 2430SOL     OW18922   4.628   4.483  16.489 -0.5789 -0.2040 -0.5296
 2430SOL    HW118923   4.599   4.539  16.417 -0.3619  1.1735  0.4470
 2430SOL    HW218924   4.635   4.402  16.440  3.1224  0.9001 -1.7638
 2431SOL     OW18925   3.592   2.670  13.105 -0.2393 -0.3997 -0.1733
 2431SOL    HW118926   3.640   2.622  13.037  2.7067  1.4994  0.5520
 2431SOL    HW218927   3.517   2.613  13.120 -1.2679  0.9588 -0.2107
 2432SOL     OW18928   2.742   3.639  13.109 -0.2666  0.6494 -0.9746
 2432SOL    HW118929   2.831   3.654  13.142 -0.4810  0.9540 -0.5477
 2432SOL    HW218930   2.685   3.678  13.174 -1.6956  0.0949 -1.8909
 2433SOL     OW18931   1.938   2.843   2.121 -0.1679  0.2449 -0.2158
 2433SOL    HW118932   2.011   2.904   2.135 -0.7691  0.5576  1.5252
 2433SOL    HW218933   1.983   2.759   2.132  2.5596  1.4995 -1.6660
 2434SOL     OW18934   1.496   0.139   2.752  0.5410 -0.7976 -0.3684
 2434SOL    HW118935   1.471   0.203   2.685 -2.4960 -0.1522  1.3909
 2434SOL    HW218936   1.485   0.189   2.833 -2.4704 -1.6957 -0.2322
 2435SOL     OW18937   2.810   0.235   4.818  0.6821 -0.3559  0.1119
 2435SOL    HW118938   2.858   0.297   4.874 -0.4941 -1.0960  1.9459
 2435SOL    HW218939   2.847   0.152   4.847 -0.6346 -0.9248  0.1636
 2436SOL     OW18940   3.511   0.705   6.317  0.7101 -0.6378  0.5070
 2436SOL    HW118941   3.552   0.680   6.400  0.0290  0.5069  1.1779
 2436SOL    HW218942   3.469   0.626   6.284  0.1360 -0.4048  0.6776
 2437SOL     OW18943   3.905   1.570   9.027  0.6094 -0.0295  0.2320
 2437SOL    HW118944   3.816   1.557   9.059 -0.1575  1.1985 -1.4197
 2437SOL    HW218945   3.906   1.666   9.021  0.8399 -0.0374  0.1243
 2438SOL     OW18946   4.155   1.282  17.462 -0.9798 -0.2790 -0.1963
 2438SOL    HW118947   4.098   1.302  17.387 -1.9544 -0.5090  0.4911
 2438SOL    HW218948   4.181   1.191  17.443 -2.0819 -0.6007 -0.1274
 2439SOL     OW18949   0.709   3.190   6.381 -0.1193 -0.1231  0.3320
 2439SOL    HW118950   0.634   3.180   6.323 -0.0195  1.0696  0.0086
 2439SOL    HW218951   0.766   3.119   6.350  0.0876  0.6648 -1.0910
 2440SOL     OW18952   4.633   0.054   9.191  0.1270  0.3485 -0.1000
 2440SOL    HW118953   4.724   0.036   9.214 -0.1003  2.4495  2.5494
 2440SOL    HW218954   4.608   4.698   9.187  0.4174  0.3257 -1.1857
 2441SOL     OW18955   3.571   2.174   8.972  0.8117  0.1359  0.3512
 2441SOL    HW118956   3.641   2.240   8.979  0.6440  0.3961 -0.4003
 2441SOL    HW218957   3.492   2.222   8.994 -0.1077 -0.7904 -0.9224
 2442SOL     OW18958   4.466   0.987   4.979  0.0255 -0.3861  0.6497
 2442SOL    HW118959   4.423   1.003   4.895  1.9600  0.3418 -0.1963
 2442SOL    HW218960   4.537   1.051   4.988 -1.4025  1.0395  1.6938
 2443SOL     OW18961   4.686   0.614   6.041 -0.5891 -0.2604  0.4466
 2443SOL    HW118962   4.628   0.601   6.115 -0.9442  0.0396  0.2208
 2443SOL    HW218963   0.029   0.628   6.092 -2.2192 -1.1550  3.2356
 2444SOL     OW18964   1.190   3.508   4.555  0.1650 -0.4221  0.1740
 2444SOL    HW118965   1.243   3.573   4.509  0.5453  0.1751  1.4364
 2444SOL    HW218966   1.224   3.516   4.644 -1.0018 -0.4867  0.6287
 2445SOL     OW18967   1.108   0.013   5.605  0.2568 -0.3498 -0.5846
 2445SOL    HW118968   1.120   0.004   5.699 -0.1089 -0.3210 -0.5347
 2445SOL    HW218969   1.158   0.095   5.605 -0.2034 -0.0728  0.8781
 2446SOL     OW18970   3.615   3.441  14.870  0.9108  0.6364 -1.1507
 2446SOL    HW118971   3.618   3.421  14.963  0.2499  0.7599 -1.1027
 2446SOL    HW218972   3.611   3.347  14.849  3.2423  0.2543  0.1695
 2447SOL     OW18973   3.640   2.396   4.481 -0.1225 -0.1579  0.2482
 2447SOL    HW118974   3.675   2.335   4.416  1.3782  0.4835  0.4534
 2447SOL    HW218975   3.650   2.341   4.558 -0.0202 -0.7752 -0.2095
 2448SOL     OW18976   3.890   0.875  16.080 -0.0687  0.7355  0.3088
 2448SOL    HW118977   3.883   0.935  16.006 -0.1009  1.6669  1.0755
 2448SOL    HW218978   3.914   0.931  16.153  2.4515 -0.4842  0.3956
 2449SOL     OW18979   3.672   2.085   1.872 -0.2545  0.1020  0.2064
 2449SOL    HW118980   3.731   2.143   1.921 -0.3288  0.6129 -0.3170
 2449SOL    HW218981   3.595   2.096   1.929  0.0632 -0.2575  0.7077
 2450SOL     OW18982   3.943   3.398   6.391 -0.1559  0.0227  0.2417
 2450SOL    HW118983   3.901   3.431   6.471 -1.1774 -2.5753  0.8097
 2450SOL    HW218984   4.037   3.398   6.407  0.1482 -0.6428 -1.5569
 2451SOL     OW18985   0.259   0.386   7.583  0.4394 -0.1560 -0.4333
 2451SOL    HW118986   0.344   0.353   7.612  0.2100 -1.3008 -1.0554
 2451SOL    HW218987   0.260   0.389   7.487  0.7964 -1.5930 -0.4772
 2452SOL     OW18988   1.075   1.667   2.027 -0.9951 -0.5705  0.0460
 2452SOL    HW118989   1.147   1.619   2.067 -0.9316  0.3352  1.0357
 2452SOL    HW218990   1.122   1.712   1.957 -1.2111  1.5474  1.2580
 2453SOL     OW18991   2.499   4.026  12.364  0.1923  0.3081  0.0194
 2453SOL    HW118992   2.589   4.049  12.341  0.0459 -0.0247 -0.8819
 2453SOL    HW218993   2.452   4.045  12.284  0.3712 -0.7439 -0.3371
 2454SOL     OW18994   1.156   1.562  16.231 -0.4317 -0.1937 -0.0079
 2454SOL    HW118995   1.157   1.590  16.323  2.2343  0.1302 -0.1429
 2454SOL    HW218996   1.249   1.542  16.220  0.3017  3.2392 -0.0706
 2455SOL     OW18997   4.361   0.223   2.750 -0.2198 -0.2819  0.5436
 2455SOL    HW118998   4.322   0.165   2.685  0.7399 -0.2213 -0.0861
 2455SOL    HW218999   4.283   0.268   2.782  1.3164  1.0878  2.3380
 2456SOL     OW19000   0.817   3.208   3.314  0.2932  0.4196  0.4846
 2456SOL    HW119001   0.808   3.113   3.313 -0.2825  0.4921 -1.1723
 2456SOL    HW219002   0.787   3.234   3.401 -1.1203 -0.5015  0.2577
 2457SOL     OW19003   0.138   2.465   5.935 -0.1464 -0.5330 -0.2867
 2457SOL    HW119004   0.067   2.408   5.904 -0.9005 -0.3798  1.1536
 2457SOL    HW219005   0.195   2.396   5.969  0.7740  0.6585  0.5533
 2458SOL     OW19006   3.968   1.479   7.785  0.0195 -0.5906  0.0347
 2458SOL    HW119007   3.957   1.385   7.796  1.4839 -0.7380  0.2269
 2458SOL    HW219008   4.022   1.494   7.862 -1.3333  0.7338  0.7343
 2459SOL     OW19009   3.620   1.401   5.839  0.4677  0.5128  0.2626
 2459SOL    HW119010   3.675   1.327   5.812  1.0629  1.0585 -0.0008
 2459SOL    HW219011   3.534   1.374   5.804  0.1645  2.6525 -0.6279
 2460SOL     OW19012   4.086   4.561  15.166 -0.0503  0.3637 -0.0545
 2460SOL    HW119013   4.061   4.653  15.180 -2.4878 -0.0532 -1.7796
 2460SOL    HW219014   4.180   4.578  15.156  0.0868 -1.7758 -2.2464
 2461SOL     OW19015   0.998   3.885  14.256 -0.3652  0.1632 -0.1914
 2461SOL    HW119016   0.988   3.806  14.309 -0.3930  0.8908  0.9079
 2461SOL    HW219017   0.911   3.884  14.217 -0.4657  1.2095  0.0177
 2462SOL     OW19018   1.267   0.048   6.284 -0.3355 -0.0507 -0.1192
 2462SOL    HW119019   1.311   0.061   6.368  0.2607  0.9482 -0.5825
 2462SOL    HW219020   1.341   0.061   6.225 -0.9081  2.4538 -0.3122
 2463SOL     OW19021   2.458   3.954   3.630 -0.1906 -0.1329  0.5609
 2463SOL    HW119022   2.446   3.955   3.725 -0.4221  2.6243  0.5144
 2463SOL    HW219023   2.456   4.046   3.602  1.3564  0.5829  2.7851
 2464SOL     OW19024   1.445   1.958   3.886 -0.6322 -0.0972 -0.3294
 2464SOL    HW119025   1.527   1.978   3.839 -0.9038 -1.5099 -1.3912
 2464SOL    HW219026   1.477   1.938   3.974  0.4139 -0.4377 -0.7776
 2465SOL     OW19027   3.891   4.247   5.189  0.4272  0.3113  0.4733
 2465SOL    HW119028   3.953   4.302   5.141 -1.2110  0.4381 -1.4915
 2465SOL    HW219029   3.891   4.166   5.139  0.0881  0.9421 -0.5725
 2466SOL     OW19030   3.450   3.671   5.695 -0.1922  0.1258  0.2199
 2466SOL    HW119031   3.474   3.760   5.671 -0.2912 -0.3354 -1.6094
 2466SOL    HW219032   3.359   3.667   5.667 -1.1223 -0.1771  3.3040
 2467SOL     OW19033   2.498   1.651  13.101 -0.5984 -0.0853  0.2079
 2467SOL    HW119034   2.521   1.741  13.076  1.5528 -0.4378  0.8974
 2467SOL    HW219035   2.437   1.643  13.027  2.6519  2.6517 -2.7687
 2468SOL     OW19036   3.310   2.203   9.041  0.0034 -0.1537 -0.5192
 2468SOL    HW119037   3.216   2.187   9.054 -0.1650  0.7479 -0.6513
 2468SOL    HW219038   3.317   2.201   8.946 -0.2695  1.7042 -0.5651
 2469SOL     OW19039   4.327   1.981  13.918  0.0852  0.0055  0.6295
 2469SOL    HW119040   4.304   2.060  13.968 -1.0568  0.1771 -0.1818
 2469SOL    HW219041   4.275   1.913  13.960 -1.7392  0.9355 -0.1145
 2470SOL     OW19042   3.613   3.807   3.575 -0.2626  0.1941  0.5562
 2470SOL    HW119043   3.520   3.821   3.561 -0.0250  1.3832  0.1495
 2470SOL    HW219044   3.630   3.887   3.625 -2.4307  2.0251 -1.6574
 2471SOL     OW19045   3.920   4.359  11.189 -0.1937  0.0688  0.6253
 2471SOL    HW119046   3.927   4.445  11.147  0.0172  0.2243  0.9700
 2471SOL    HW219047   3.987   4.317  11.136 -0.7397 -1.9850  1.5638
 2472SOL     OW19048   2.894   2.420   2.960 -0.0546 -0.1826  0.3499
 2472SOL    HW119049   2.854   2.335   2.975  1.8321 -0.7214  2.1772
 2472SOL    HW219050   2.835   2.450   2.890 -0.1910 -1.5533 -0.1130
 2473SOL     OW19051   1.667   0.482   5.177 -0.6152  0.3485  0.8097
 2473SOL    HW119052   1.748   0.530   5.189 -2.6992  4.0264  0.1022
 2473SOL    HW219053   1.666   0.467   5.082 -1.4121  3.1125  0.3952
 2474SOL     OW19054   3.139   0.883   4.954 -0.1719 -0.1666 -0.6963
 2474SOL    HW119055   3.050   0.900   4.922  0.3888  1.4051 -1.4151
 2474SOL    HW219056   3.139   0.788   4.954 -1.3799 -0.1740 -0.4669
 2475SOL     OW19057   4.614   1.816   6.442 -0.4088  0.3660 -0.4506
 2475SOL    HW119058   4.708   1.814   6.463 -0.1084 -0.4284 -1.9036
 2475SOL    HW219059   4.597   1.738   6.389 -1.0811 -1.6284  2.6827
 2476SOL     OW19060   0.732   1.864   7.963 -0.0355 -0.0811 -0.0742
 2476SOL    HW119061   0.778   1.922   8.025 -0.3585  1.8185 -1.5940
 2476SOL    HW219062   0.742   1.777   8.002  2.3428  0.3062  0.2101
 2477SOL     OW19063   1.042   2.409   2.113  0.6493  0.5075  0.2664
 2477SOL    HW119064   1.027   2.319   2.141  3.2865 -0.1877 -0.5759
 2477SOL    HW219065   1.116   2.407   2.052 -1.6702 -1.9881 -2.4662
 2478SOL     OW19066   2.155   3.480   2.429 -0.3545 -0.5725 -0.1972
 2478SOL    HW119067   2.080   3.431   2.393 -1.5010  0.2439  1.0860
 2478SOL    HW219068   2.170   3.434   2.512  0.9819 -0.2625 -0.2721
 2479SOL     OW19069   1.126   0.686  15.359  0.3492 -0.3348 -0.0684
 2479SOL    HW119070   1.059   0.754  15.363 -0.4978 -1.2600  1.3755
 2479SOL    HW219071   1.109   0.637  15.439  0.9052  0.6447  0.6387
 2480SOL     OW19072   4.483   3.936  16.984 -0.2251  0.7934  1.3035
 2480SOL    HW119073   4.566   3.888  16.984 -0.9869 -0.5239  0.0090
 2480SOL    HW219074   4.442   3.877  17.048  0.1833 -1.4369 -0.4790
 2481SOL     OW19075   3.263   2.807   6.470 -1.0247 -0.1893 -0.1046
 2481SOL    HW119076   3.246   2.719   6.502  2.4268 -2.0971 -3.4003
 2481SOL    HW219077   3.176   2.836   6.444 -0.8020 -0.6116 -1.3427
 2482SOL     OW19078   4.377   2.734   2.030 -0.0752 -0.0398  0.6481
 2482SOL    HW119079   4.315   2.689   1.972  1.9917 -0.1741 -1.4251
 2482SOL    HW219080   4.419   2.797   1.972 -0.6064  0.9016  1.2742
 2483SOL     OW19081   3.610   2.495   7.532  0.1522 -0.2612  0.4147
 2483SOL    HW119082   3.624   2.550   7.609  0.7100 -0.4438  0.4452
 2483SOL    HW219083   3.652   2.553   7.468  1.9577 -1.4544  0.5009
 2484SOL     OW19084   2.872   4.178  16.468  0.3123 -0.3311  0.2931
 2484SOL    HW119085   2.791   4.150  16.510  0.2757  1.7565  1.5964
 2484SOL    HW219086   2.933   4.124  16.520  0.9643  0.5949  0.4924
 2485SOL     OW19087   3.022   3.934  12.302 -0.6123  0.2415  0.7037
 2485SOL    HW119088   3.066   3.897  12.226 -0.5534 -0.1926  0.9487
 2485SOL    HW219089   3.095   3.973  12.348  0.6774  0.1261 -1.2516
 2486SOL     OW19090   3.691   3.965   2.226  0.1736 -0.4364  0.3277
 2486SOL    HW119091   3.710   4.028   2.157 -1.9909  0.3182  0.4268
 2486SOL    HW219092   3.612   4.004   2.263 -1.5889 -1.6093 -2.2323
 2487SOL     OW19093   0.795   3.706  13.684  0.0376 -0.4544 -0.0522
 2487SOL    HW119094   0.850   3.766  13.736 -0.8656 -0.2265  0.6516
 2487SOL    HW219095   0.823   3.619  13.712  2.2361  0.3170  0.1439
 2488SOL     OW19096   2.933   4.413   3.917 -0.2714 -0.4334 -0.5832
 2488SOL    HW119097   2.949   4.442   4.007 -1.8542 -0.7988 -0.1681
 2488SOL    HW219098   3.017   4.377   3.891  0.4635  1.4827 -0.8850
 2489SOL     OW19099   0.816   1.401  17.469  0.3439  0.6491  0.3718
 2489SOL    HW119100   0.765   1.480  17.490 -2.2900 -0.7404 -0.8274
 2489SOL    HW219101   0.772   1.340  17.528  2.4897  0.2048  1.5064
 2490SOL     OW19102   1.159   1.804   2.962 -0.1107  0.0305  0.1422
 2490SOL    HW119103   1.126   1.802   3.051 -0.6953 -0.7792 -0.0956
 2490SOL    HW219104   1.086   1.765   2.913 -0.9180  2.0873 -0.2912
 2491SOL     OW19105   2.118   2.312   8.597 -0.6187 -0.1589 -0.1919
 2491SOL    HW119106   2.077   2.239   8.642 -0.1292  0.7634  1.7457
 2491SOL    HW219107   2.206   2.326   8.632 -1.0028  1.4569  0.1130
 2492SOL     OW19108   1.840   1.233   1.387 -0.3195  0.1686 -0.2405
 2492SOL    HW119109   1.798   1.154   1.419 -1.0013  0.7322  0.2484
 2492SOL    HW219110   1.762   1.265   1.341 -0.1016  1.4049  0.2519
 2493SOL     OW19111   1.322   1.553   9.614 -0.7110  0.1908 -0.4641
 2493SOL    HW119112   1.379   1.608   9.668  1.2949  0.4424 -2.8290
 2493SOL    HW219113   1.388   1.529   9.548  2.0953  0.7137  2.1721
 2494SOL     OW19114   0.341   4.652   1.009 -0.8911 -0.3319  0.4736
 2494SOL    HW119115   0.376   4.733   1.046  0.2399 -1.3953  1.6833
 2494SOL    HW219116   0.403   4.588   1.043 -2.2880 -0.8718  2.0353
 2495SOL     OW19117   0.274   0.596   3.770  0.1284  0.3614 -0.2022
 2495SOL    HW119118   0.327   0.529   3.728 -0.6007 -0.4872  0.2233
 2495SOL    HW219119   0.334   0.630   3.836  0.9359 -1.5534  0.0444
 2496SOL     OW19120   0.276   2.916   3.563 -0.2369  0.2276  0.0385
 2496SOL    HW119121   0.305   3.008   3.558 -1.7867  0.7383  0.4167
 2496SOL    HW219122   0.364   2.879   3.552  0.0697  0.9728 -0.0966
 2497SOL     OW19123   1.091   0.589   6.865 -0.2379  0.7035 -0.1550
 2497SOL    HW119124   1.052   0.524   6.807  0.5135  1.4703 -1.5090
 2497SOL    HW219125   1.174   0.591   6.818 -0.2275  0.0483 -0.1610
 2498SOL     OW19126   0.871   1.310  12.885 -0.0870 -0.3327  0.0113
 2498SOL    HW119127   0.935   1.295  12.955  0.6673 -1.2439 -0.8703
 2498SOL    HW219128   0.902   1.395  12.855 -0.4216  0.2951  1.4235
 2499SOL     OW19129   2.962   4.311  12.250  0.0862 -0.6065 -0.1123
 2499SOL    HW119130   2.887   4.359  12.286 -0.1438 -1.5564  0.6760
 2499SOL    HW219131   2.924   4.241  12.197 -0.2097  0.2368 -0.9989
 2500SOL     OW19132   0.152   3.710  17.526 -0.2027  0.3908  0.0751
 2500SOL    HW119133   0.081   3.775  17.527 -2.9083 -2.5922  2.5818
 2500SOL    HW219134   0.116   3.627  17.495  0.3791  0.2692 -0.2625
 2501SOL     OW19135   1.145   3.919  10.119 -0.1201  0.0320 -0.0769
 2501SOL    HW119136   1.163   3.851  10.183 -1.3593 -0.0303  0.2172
 2501SOL    HW219137   1.059   3.899  10.080  0.6320  1.7682 -2.6610
 2502SOL     OW19138   2.129   2.213  10.230 -0.2869  0.1697 -0.2095
 2502SOL    HW119139   2.083   2.131  10.213  0.0389  0.2228 -1.3811
 2502SOL    HW219140   2.062   2.278  10.252  0.6586  0.9534  0.3409
 2503SOL     OW19141   1.749   1.973   3.123 -0.3472 -0.2324 -0.3396
 2503SOL    HW119142   1.684   1.952   3.056  0.9124  1.5126 -2.0808
 2503SOL    HW219143   1.707   1.982   3.209 -0.7884  2.2012 -0.7956
 2504SOL     OW19144   3.085   1.315   5.938 -0.0974 -0.4410  0.3137
 2504SOL    HW119145   3.037   1.239   5.903  0.1008 -1.3797  2.0507
 2504SOL    HW219146   3.152   1.268   5.989  1.0571 -0.0547 -0.8493
 2505SOL     OW19147   0.456   4.243   9.088  0.6618 -0.6404  0.3878
 2505SOL    HW119148   0.443   4.327   9.134 -1.8780 -0.6786 -0.2862
 2505SOL    HW219149   0.507   4.212   9.163  0.4762 -1.9218 -0.0252
 2506SOL     OW19150   4.137   3.788  13.422 -0.4468  0.1591  0.1306
 2506SOL    HW119151   4.058   3.734  13.420  0.8888 -1.7823 -0.7625
 2506SOL    HW219152   4.181   3.759  13.502  0.0877 -1.3435 -0.7087
 2507SOL     OW19153   2.439   0.538  15.424  0.8293  0.0944 -0.2467
 2507SOL    HW119154   2.422   0.586  15.343 -1.7849  0.0376  0.2739
 2507SOL    HW219155   2.413   0.601  15.492 -0.3082 -0.6767  0.0314
 2508SOL     OW19156   3.643   2.763   4.472  0.0929 -0.7354  1.1245
 2508SOL    HW119157   3.667   2.748   4.381  0.2430  0.0961  1.0266
 2508SOL    HW219158   3.551   2.775   4.448  0.5175 -0.6265 -0.4721
 2509SOL     OW19159   0.582   0.086   7.539  0.0980 -0.2158 -0.1025
 2509SOL    HW119160   0.491   0.078   7.512  0.0047 -0.8328  0.4135
 2509SOL    HW219161   0.572   0.169   7.586  0.3618  0.1988 -0.7768
 2510SOL     OW19162   3.487   2.812   8.433 -0.3153  0.0007 -0.7984
 2510SOL    HW119163   3.562   2.869   8.448 -1.8826  1.7870  0.2181
 2510SOL    HW219164   3.476   2.773   8.519 -1.7568  3.1425  0.4148
 2511SOL     OW19165   4.080   1.230   7.032 -0.3029 -0.2832 -0.7149
 2511SOL    HW119166   4.159   1.266   7.072  0.1463  0.0868 -1.9282
 2511SOL    HW219167   4.025   1.195   7.103  0.8607 -1.3723 -0.3537
 2512SOL     OW19168   3.260   3.009   1.739  0.3657  0.4629  0.3510
 2512SOL    HW119169   3.279   3.082   1.798  1.7193 -0.3311  0.9039
 2512SOL    HW219170   3.343   2.961   1.738 -1.6849 -3.1860  2.4637
 2513SOL     OW19171   2.239   4.317   2.222 -0.0402  0.0018 -0.1112
 2513SOL    HW119172   2.270   4.283   2.138 -1.6418  2.1170 -1.5401
 2513SOL    HW219173   2.258   4.410   2.211  2.6713 -0.7364 -1.5748
 2514SOL     OW19174   2.788   4.605   1.611  0.2910 -0.0447  0.1106
 2514SOL    HW119175   2.790   4.698   1.633 -1.5599 -0.3102  1.3854
 2514SOL    HW219176   2.819   4.560   1.689 -0.5070 -0.4447  0.1917
 2515SOL     OW19177   0.832   1.949   8.652  0.0609  0.2902  0.3049
 2515SOL    HW119178   0.922   1.979   8.644  0.1335  0.0272  0.1462
 2515SOL    HW219179   0.844   1.854   8.654  0.5587  0.3215 -0.8990
 2516SOL     OW19180   2.047   3.344   5.226 -0.3426 -0.0869  0.4223
 2516SOL    HW119181   2.043   3.311   5.136  1.8427  0.0956  0.2646
 2516SOL    HW219182   1.957   3.374   5.239 -0.4587 -0.7417  1.1463
 2517SOL     OW19183   1.664   4.495  13.899 -0.3825  0.2707  0.0193
 2517SOL    HW119184   1.714   4.576  13.907 -0.4236  0.4205 -1.2047
 2517SOL    HW219185   1.712   4.424  13.942  0.6493  1.2882  0.5476
 2518SOL     OW19186   1.205   3.234   8.004  0.5734 -0.3582  0.1623
 2518SOL    HW119187   1.157   3.152   8.010 -0.1654  0.1576  1.1354
 2518SOL    HW219188   1.296   3.213   7.984  1.2817  1.9638  0.9070
 2519SOL     OW19189   2.743   0.259   1.915  0.3121 -0.2062 -0.0686
 2519SOL    HW119190   2.664   0.239   1.966  0.7322  1.4714  1.2315
 2519SOL    HW219191   2.811   0.238   1.979 -0.9913 -1.5588  0.8760
 2520SOL     OW19192   3.391   3.314   3.353 -0.1500  0.4400 -0.2131
 2520SOL    HW119193   3.397   3.266   3.271 -1.6500 -0.7346  0.3884
 2520SOL    HW219194   3.381   3.402   3.316 -0.7289  0.3114 -0.3612
 2521SOL     OW19195   2.206   3.599   4.718  0.5452 -0.0888  0.0143
 2521SOL    HW119196   2.117   3.573   4.696  0.1117  2.3353 -0.9915
 2521SOL    HW219197   2.233   3.530   4.779 -0.9538  0.6866  1.5820
 2522SOL     OW19198   1.277   2.698   8.696 -0.2276  0.2213  0.5281
 2522SOL    HW119199   1.185   2.725   8.687  0.1464  0.9030 -1.1669
 2522SOL    HW219200   1.304   2.704   8.605 -0.7353 -1.0839  0.2891
 2523SOL     OW19201   3.286   4.230   1.059 -0.2450  0.4242  0.7549
 2523SOL    HW119202   3.259   4.199   1.146 -1.4180  0.2722  0.3312
 2523SOL    HW219203   3.208   4.280   1.035  1.2242  1.0802 -2.5879
 2524SOL     OW19204   3.551   1.490   2.891 -0.7238 -0.1998  0.3203
 2524SOL    HW119205   3.462   1.464   2.868 -0.8972  1.5695 -0.9571
 2524SOL    HW219206   3.587   1.402   2.906 -2.4524 -1.0990 -0.7677
 2525SOL     OW19207   0.797   4.068  13.937  0.3597  0.3039  0.7684
 2525SOL    HW119208   0.713   4.030  13.961  0.1073  0.0903 -0.4307
 2525SOL    HW219209   0.772   4.114  13.857 -1.8420  1.5216  2.1499
 2526SOL     OW19210   2.730   1.697   6.791  0.2967 -0.2262  0.4785
 2526SOL    HW119211   2.812   1.649   6.787  0.0307 -0.7406  1.3237
 2526SOL    HW219212   2.707   1.681   6.699  1.1536 -1.7210  0.5299
 2527SOL     OW19213   2.696   1.610   7.677 -0.1529  0.0093  0.8482
 2527SOL    HW119214   2.699   1.706   7.677  2.2479 -0.0644 -1.6719
 2527SOL    HW219215   2.754   1.583   7.605 -3.7012  1.2784 -2.5081
 2528SOL     OW19216   0.972   0.326   0.068 -0.2525 -0.0208 -0.2997
 2528SOL    HW119217   1.011   0.337   0.154 -1.3166 -0.0859  0.1862
 2528SOL    HW219218   1.041   0.278   0.023 -1.5113 -0.3929 -1.8627
 2529SOL     OW19219   3.643   0.509   3.872  0.0120  0.4762  0.3459
 2529SOL    HW119220   3.576   0.456   3.828  0.9110  1.0540 -1.7263
 2529SOL    HW219221   3.669   0.582   3.816  0.3085 -1.0304 -1.4894
 2530SOL     OW19222   2.752   3.180   1.921 -0.0829  0.6552 -0.3080
 2530SOL    HW119223   2.781   3.119   1.853  0.9910  0.1686  0.5781
 2530SOL    HW219224   2.734   3.136   2.005  1.2581  2.5149  0.9707
 2531SOL     OW19225   0.804   2.454   4.995  0.1025  0.3642 -0.2273
 2531SOL    HW119226   0.771   2.364   4.996 -3.1028  1.5573 -0.0435
 2531SOL    HW219227   0.749   2.492   4.927 -0.7506 -0.7123 -0.1315
 2532SOL     OW19228   0.717   0.532   3.822  0.4644 -0.4884  0.0675
 2532SOL    HW119229   0.643   0.477   3.796  1.0993 -0.3298 -2.0128
 2532SOL    HW219230   0.711   0.496   3.911  2.8102  0.8419  0.7715
 2533SOL     OW19231   1.335   0.151   8.647 -0.5374  0.6283 -0.4765
 2533SOL    HW119232   1.373   0.239   8.650  0.1753  0.3182 -0.4668
 2533SOL    HW219233   1.320   0.140   8.553 -0.9451  0.1677 -0.3606
 2534SOL     OW19234   1.660   1.220   8.634 -0.2068 -0.4154  0.4604
 2534SOL    HW119235   1.741   1.219   8.584 -0.2193 -0.6765  0.4419
 2534SOL    HW219236   1.685   1.279   8.705 -0.3779  0.5211 -0.2655
 2535SOL     OW19237   1.628   4.286   2.634 -0.7868 -0.4700  0.3335
 2535SOL    HW119238   1.590   4.247   2.713 -0.5892 -0.6713  0.3305
 2535SOL    HW219239   1.622   4.378   2.659  0.3798 -0.9004  2.2155
 2536SOL     OW19240   1.828   4.411   3.172 -0.6008 -0.0467 -0.7572
 2536SOL    HW119241   1.910   4.455   3.194 -1.5059  0.9092  0.7279
 2536SOL    HW219242   1.863   4.332   3.132  0.1816 -0.1726  0.1760
 2537SOL     OW19243   1.787   3.569   2.481  1.4084 -0.7181  0.7947
 2537SOL    HW119244   1.732   3.533   2.550  0.3421  1.0494  0.8464
 2537SOL    HW219245   1.806   3.494   2.424  1.1336 -0.4675  0.3732
 2538SOL     OW19246   2.219   4.559   6.429 -0.5740  0.3371  0.6823
 2538SOL    HW119247   2.147   4.497   6.411  0.6501 -1.8949  3.4928
 2538SOL    HW219248   2.244   4.529   6.517 -0.7941  2.3192  1.4097
 2539SOL     OW19249   2.827   4.180   4.607  0.2006  0.2434  0.3135
 2539SOL    HW119250   2.883   4.168   4.530 -0.7416  1.9710 -0.6478
 2539SOL    HW219251   2.837   4.274   4.622  0.5865  0.5874 -2.1699
 2540SOL     OW19252   0.389   2.212   6.671  0.4967  0.0739 -0.0787
 2540SOL    HW119253   0.458   2.268   6.638  0.3807  0.6700  0.6846
 2540SOL    HW219254   0.397   2.129   6.623  0.8395  1.0497 -1.6953
 2541SOL     OW19255   0.455   2.585   0.253  0.1802 -0.3720  0.1412
 2541SOL    HW119256   0.378   2.546   0.295 -0.2036 -0.5853 -0.7753
 2541SOL    HW219257   0.449   2.535   0.172  0.4937  0.2488 -0.2669
 2542SOL     OW19258   0.728   3.948   2.992 -0.0033  0.8743  0.1373
 2542SOL    HW119259   0.728   4.028   3.044 -2.4911  0.0570  1.4140
 2542SOL    HW219260   0.635   3.937   2.973 -0.1272 -0.5388  1.4790
 2543SOL     OW19261   4.261   1.345   2.213  0.1687 -0.7789 -0.0585
 2543SOL    HW119262   4.256   1.436   2.243 -0.9355  0.4533 -3.9721
 2543SOL    HW219263   4.354   1.341   2.192  0.1526 -0.3894 -0.2132
 2544SOL     OW19264   3.780   4.077   6.078  0.1722  0.3496  0.3974
 2544SOL    HW119265   3.846   4.029   6.128 -1.5169  0.4421  2.7009
 2544SOL    HW219266   3.708   4.014   6.086  0.1825  0.2275 -0.4709
 2545SOL     OW19267   3.407   3.118   3.149  0.1049  0.2228 -0.4926
 2545SOL    HW119268   3.409   3.024   3.133  0.2287  0.1919 -0.2868
 2545SOL    HW219269   3.319   3.130   3.113  0.6038 -1.6092 -2.2508
 2546SOL     OW19270   4.520   2.075  16.918  0.3834 -0.0291  0.5782
 2546SOL    HW119271   4.457   2.112  16.856 -0.4251 -1.2120  0.7119
 2546SOL    HW219272   4.468   1.998  16.941 -0.4564  0.2938 -0.2362
 2547SOL     OW19273   1.024   2.814   8.681 -0.2699  0.0053  0.3482
 2547SOL    HW119274   1.046   2.895   8.635 -0.3434 -0.0631  0.1940
 2547SOL    HW219275   1.051   2.835   8.771  0.6514  3.0253 -0.6294
 2548SOL     OW19276   1.727   3.369   7.429  0.2377 -0.1906 -0.3615
 2548SOL    HW119277   1.738   3.460   7.403  1.0272  0.1893  1.2784
 2548SOL    HW219278   1.692   3.386   7.517 -0.3219 -1.0725 -0.4054
 2549SOL     OW19279   1.922   3.877   8.150 -0.1278  0.3542 -0.8361
 2549SOL    HW119280   1.874   3.804   8.111 -1.8902  1.8890 -1.5420
 2549SOL    HW219281   1.857   3.913   8.211  3.1790 -3.0074  4.6779
 2550SOL     OW19282   1.081   3.969  15.002 -0.4736  0.9918  0.5797
 2550SOL    HW119283   1.133   3.987  15.080  2.8796  0.8850 -1.6134
 2550SOL    HW219284   1.049   3.880  15.014  1.0931  0.6019  1.9129
 2551SOL     OW19285   4.001   3.603  11.040  0.3598  0.7968  0.6982
 2551SOL    HW119286   4.031   3.556  11.118  3.0835 -0.2884 -1.0171
 2551SOL    HW219287   4.036   3.545  10.973 -0.3611 -0.3557  1.3091
 2552SOL     OW19288   4.251   0.737   3.375  0.4952  0.3129 -0.0708
 2552SOL    HW119289   4.332   0.699   3.342  0.4014 -1.8655  2.1912
 2552SOL    HW219290   4.188   0.713   3.307  0.1606 -1.0772  0.7294
 2553SOL     OW19291   0.131   3.756   6.833 -0.5541  0.6089 -0.0250
 2553SOL    HW119292   0.224   3.743   6.854 -0.2922  0.7922 -1.0710
 2553SOL    HW219293   0.081   3.685   6.875 -2.0136  0.4362 -2.0833
 2554SOL     OW19294   0.744   1.992   3.752 -0.2772 -0.1759 -0.6149
 2554SOL    HW119295   0.689   2.069   3.734 -1.1117 -0.2915  1.4782
 2554SOL    HW219296   0.694   1.929   3.701 -1.1590 -0.6354  0.8579
 2555SOL     OW19297   2.988   3.705  10.857 -0.5451  0.1580  0.3835
 2555SOL    HW119298   3.078   3.688  10.829 -0.2291  0.8510  0.9647
 2555SOL    HW219299   2.948   3.751  10.783 -2.5894  0.3445  1.6098
 2556SOL     OW19300   4.190   3.463   2.484 -0.3303 -0.1892  0.6678
 2556SOL    HW119301   4.214   3.451   2.392  1.3000 -2.0058  1.3094
 2556SOL    HW219302   4.151   3.379   2.509 -1.3509  0.6624  1.8756
 2557SOL     OW19303   1.577   0.030   3.700 -0.5501  0.3553  0.4291
 2557SOL    HW119304   1.497   0.004   3.747  0.4493 -1.2756  1.2425
 2557SOL    HW219305   1.551   0.109   3.653 -2.1689  0.7977  2.0470
 2558SOL     OW19306   0.809   2.392   9.542 -0.1544 -0.1701  0.0437
 2558SOL    HW119307   0.893   2.382   9.586 -0.2942 -0.2342  0.2975
 2558SOL    HW219308   0.769   2.472   9.577  1.6342  0.4170  0.7263
 2559SOL     OW19309   2.466   3.303   6.952  0.2868  0.4759 -0.2864
 2559SOL    HW119310   2.493   3.389   6.920  0.4333  0.5470  0.0319
 2559SOL    HW219311   2.456   3.326   7.044  0.3923 -0.5833 -0.0121
 2560SOL     OW19312   3.760   1.562   8.084 -0.3711 -0.5918  0.1078
 2560SOL    HW119313   3.823   1.578   8.155 -0.8113  0.5494  0.2342
 2560SOL    HW219314   3.714   1.645   8.082  1.4900  0.4309 -0.3693
 2561SOL     OW19315   0.674   3.383  11.729  0.7332 -0.5367  0.3590
 2561SOL    HW119316   0.759   3.352  11.760  2.1413  3.3079  0.2046
 2561SOL    HW219317   0.693   3.457  11.672 -2.0236 -0.0282  0.0657
 2562SOL     OW19318   0.911   1.899   3.128 -0.0790  0.5956 -0.4331
 2562SOL    HW119319   0.960   1.841   3.187  1.7796  2.0318 -0.5293
 2562SOL    HW219320   0.922   1.983   3.174 -4.6507  0.7218  0.3994
 2563SOL     OW19321   2.974   4.530   4.191  0.0494 -0.1402 -0.4970
 2563SOL    HW119322   2.984   4.584   4.269  0.1855  0.1890 -0.7455
 2563SOL    HW219323   3.054   4.560   4.148  0.5618  0.2965  0.7452
 2564SOL     OW19324   1.679   0.178  13.625  0.2415  0.0670  0.2207
 2564SOL    HW119325   1.631   0.166  13.707  1.5697 -1.7468  0.7371
 2564SOL    HW219326   1.620   0.128  13.569 -2.0718  1.0915  1.7456
 2565SOL     OW19327   4.322   3.721  14.878  0.0304  0.0643  0.4192
 2565SOL    HW119328   4.397   3.780  14.861 -1.3181  1.1171 -1.8896
 2565SOL    HW219329   4.366   3.652  14.928  1.0714  1.6198  1.6614
 2566SOL     OW19330   3.165   1.743  10.690 -0.0827 -0.5775 -0.3348
 2566SOL    HW119331   3.227   1.813  10.713 -0.4438  0.0948 -1.4110
 2566SOL    HW219332   3.079   1.781  10.708  1.2507  2.4472 -0.2453
 2567SOL     OW19333   2.126   3.918  13.001  0.1576  0.1548  0.2134
 2567SOL    HW119334   2.143   4.003  13.041 -1.5770  0.1534  0.9625
 2567SOL    HW219335   2.215   3.882  13.000  0.4881  0.9520  0.5723
 2568SOL     OW19336   2.969   1.490   3.259 -0.0766 -0.1433 -0.2846
 2568SOL    HW119337   2.993   1.414   3.312  0.2930 -1.4717 -2.3694
 2568SOL    HW219338   2.903   1.445   3.206 -2.1384  1.0733  1.2370
 2569SOL     OW19339   0.402   4.399   1.295  0.0510 -0.2702  0.1657
 2569SOL    HW119340   0.335   4.395   1.227 -1.6194 -0.6595  1.8451
 2569SOL    HW219341   0.353   4.409   1.376  0.3974 -0.4188  0.3943
 2570SOL     OW19342   4.126   0.768   8.393  0.1444 -0.0166 -0.1585
 2570SOL    HW119343   4.137   0.846   8.339 -1.6221  0.7483  0.5873
 2570SOL    HW219344   4.123   0.813   8.478  1.7898 -1.5946  0.7163
 2571SOL     OW19345   1.441   0.807   7.812 -0.0200  0.7373 -0.3904
 2571SOL    HW119346   1.494   0.881   7.841  1.3243 -0.9470  1.4480
 2571SOL    HW219347   1.484   0.780   7.731 -2.2434 -2.2851 -0.5841
 2572SOL     OW19348   2.230   1.996   0.761  0.0084 -0.5108 -0.4520
 2572SOL    HW119349   2.281   1.934   0.813 -1.0459 -1.7387 -0.8762
 2572SOL    HW219350   2.273   2.082   0.769 -0.9893  0.0598 -1.2457
 2573SOL     OW19351   2.674   4.384   1.418  0.0976 -0.4714  0.0646
 2573SOL    HW119352   2.641   4.439   1.347  1.0251  0.5605  0.4410
 2573SOL    HW219353   2.697   4.447   1.485 -2.1230  0.9423 -0.5136
 2574SOL     OW19354   4.129   4.485   7.432 -0.5292  0.0990 -0.3378
 2574SOL    HW119355   4.121   4.491   7.337 -0.1896  3.1282 -0.1786
 2574SOL    HW219356   4.112   4.576   7.455 -0.6285 -0.1300  0.5083
 2575SOL     OW19357   4.040   2.491   3.314  0.2872 -0.3715  0.6007
 2575SOL    HW119358   4.062   2.578   3.283  0.3577 -0.7906 -0.5136
 2575SOL    HW219359   3.946   2.482   3.299  0.4689 -2.5538  0.7435
 2576SOL     OW19360   2.066   0.530   4.735  0.3869  0.4272  0.0062
 2576SOL    HW119361   2.096   0.492   4.818  0.4047 -0.9973 -0.6500
 2576SOL    HW219362   2.026   0.606   4.779 -2.1049 -0.3083 -0.9680
 2577SOL     OW19363   3.276   2.164  15.359  0.3078 -0.0079 -0.0657
 2577SOL    HW119364   3.297   2.086  15.308 -1.8935 -0.5129 -0.1853
 2577SOL    HW219365   3.335   2.148  15.432  1.6949  1.3695 -0.8758
 2578SOL     OW19366   1.393   4.274   8.557 -0.0572  0.1852  0.5321
 2578SOL    HW119367   1.390   4.179   8.551 -0.2940  0.0702  2.2548
 2578SOL    HW219368   1.443   4.292   8.637  0.6398  0.8318 -0.0511
 2579SOL     OW19369   4.619   0.002   7.376 -0.5818 -0.0911 -0.0422
 2579SOL    HW119370   4.611   0.096   7.361 -0.0176 -0.0070  0.1504
 2579SOL    HW219371   4.562   4.707   7.306  0.0742 -0.6180 -0.3499
 2580SOL     OW19372   3.921   4.499   7.672  0.3189  0.4305 -0.9849
 2580SOL    HW119373   3.858   4.555   7.628  0.0407  0.4999 -0.4930
 2580SOL    HW219374   3.881   4.423   7.714 -2.2692  1.3862 -1.7123
 2581SOL     OW19375   1.446   4.333   4.371 -0.4329  0.2338  0.3223
 2581SOL    HW119376   1.351   4.337   4.361 -0.5744 -1.7483  0.8426
 2581SOL    HW219377   1.465   4.265   4.436  0.4236  1.6275  1.5246
 2582SOL     OW19378   3.574   3.473  15.745 -0.7025 -0.0363  0.6414
 2582SOL    HW119379   3.628   3.541  15.784  0.8696 -0.3166 -1.0740
 2582SOL    HW219380   3.504   3.472  15.811  1.0825 -0.3905  2.4994
 2583SOL     OW19381   0.289   1.639  13.461  0.3316 -0.1557 -0.0177
 2583SOL    HW119382   0.216   1.683  13.505 -0.6670 -2.4081  0.5858
 2583SOL    HW219383   0.279   1.673  13.372  0.7672 -0.2732 -0.1096
 2584SOL     OW19384   1.268   0.378   1.412 -0.5030 -0.6316 -0.0163
 2584SOL    HW119385   1.362   0.362   1.406 -0.2706  0.4259  0.5886
 2584SOL    HW219386   1.246   0.307   1.472 -2.7115  1.3417  1.5513
 2585SOL     OW19387   3.195   0.340   2.789  0.2620  0.0886 -0.4281
 2585SOL    HW119388   3.282   0.311   2.818 -0.3925 -1.2029  0.1913
 2585SOL    HW219389   3.215   0.431   2.764 -1.2891  0.2533 -1.0745
 2586SOL     OW19390   1.023   0.010   1.691  0.2437 -0.6889 -0.0546
 2586SOL    HW119391   1.026   0.033   1.784  1.6276  3.0494 -1.0492
 2586SOL    HW219392   0.957   4.677   1.698 -2.0698  1.3655 -1.6213
 2587SOL     OW19393   0.553   2.395  17.303  0.0717 -0.1961  0.6367
 2587SOL    HW119394   0.577   2.462  17.367  0.8532  0.0548  0.0831
 2587SOL    HW219395   0.539   2.443  17.221  0.9236 -1.3538 -0.1758
 2588SOL     OW19396   1.959   3.225  11.409 -0.0940  1.1715 -0.4658
 2588SOL    HW119397   1.865   3.205  11.399  0.0898  0.5504 -0.9709
 2588SOL    HW219398   1.982   3.133  11.396  0.4022  1.4781 -1.8236
 2589SOL     OW19399   4.034   2.822  11.024  0.6178 -0.3703  0.9443
 2589SOL    HW119400   3.962   2.775  10.981 -0.0978 -0.8912  2.7377
 2589SOL    HW219401   4.024   2.907  10.980  0.9040 -0.3657  0.8870
 2590SOL     OW19402   2.306   0.166   8.358 -0.1181  0.8932 -0.1715
 2590SOL    HW119403   2.212   0.174   8.373  0.3904  1.0729  3.0465
 2590SOL    HW219404   2.303   0.149   8.264 -4.7339  0.7270  0.0053
 2591SOL     OW19405   2.019   4.593   7.335 -0.1269 -0.0670 -0.3205
 2591SOL    HW119406   2.016   4.506   7.374  1.1363 -0.9002 -2.1215
 2591SOL    HW219407   2.091   4.632   7.385 -1.9320 -0.6995  2.7723
 2592SOL     OW19408   2.832   2.380  15.024  0.0691  0.1086 -0.5435
 2592SOL    HW119409   2.772   2.455  15.030 -2.9198 -2.1758 -1.4598
 2592SOL    HW219410   2.918   2.419  15.036 -0.8887  2.0238  0.1938
 2593SOL     OW19411   3.020   2.362   1.463  0.1499 -0.0866  0.5989
 2593SOL    HW119412   2.935   2.320   1.460 -0.2054  0.7225 -0.4695
 2593SOL    HW219413   3.079   2.294   1.431  0.2415 -0.1698  0.9347
 2594SOL     OW19414   1.424   2.024   9.240  0.2694 -0.1278  0.0052
 2594SOL    HW119415   1.375   1.965   9.183 -0.4262  1.6675 -1.2371
 2594SOL    HW219416   1.449   2.098   9.185 -0.3248  1.1152  1.4021
 2595SOL     OW19417   1.325   1.352   4.168  0.2303 -0.2280  0.4461
 2595SOL    HW119418   1.331   1.322   4.259 -0.5436 -1.1479  0.1959
 2595SOL    HW219419   1.246   1.406   4.168 -2.3017 -3.9905  2.2168
 2596SOL     OW19420   2.346   1.823  15.470  0.2746  0.2795  0.3396
 2596SOL    HW119421   2.431   1.779  15.475  0.0764 -0.2619 -1.0564
 2596SOL    HW219422   2.297   1.748  15.504 -1.3377  1.4680  0.6536
 2597SOL     OW19423   0.335   0.432  17.540  0.1568 -0.3573  0.1861
 2597SOL    HW119424   0.392   0.427  17.463  0.9710 -0.3332  0.7907
 2597SOL    HW219425   0.257   0.470  17.500 -0.9333 -1.8722  0.8735
 2598SOL     OW19426   1.206   2.235   9.190  0.2736  0.2479  0.9681
 2598SOL    HW119427   1.217   2.240   9.095 -0.3755 -1.4635  0.8078
 2598SOL    HW219428   1.165   2.150   9.202  1.6404 -0.6036 -0.3099
 2599SOL     OW19429   4.111   4.516   5.808  0.4212 -0.1514  0.3573
 2599SOL    HW119430   4.138   4.581   5.743 -2.5686  1.1903  0.4545
 2599SOL    HW219431   4.050   4.462   5.757 -0.7019 -0.5737  2.1523
 2600SOL     OW19432   2.633   1.114   8.407  0.4904  0.6257  0.4276
 2600SOL    HW119433   2.593   1.114   8.494  0.0694  1.7246  0.2331
 2600SOL    HW219434   2.555   1.107   8.352  0.0092  1.4817  0.9934
 2601SOL     OW19435   4.197   1.824  14.096 -0.0994  0.1671 -0.2135
 2601SOL    HW119436   4.265   1.863  14.150 -0.4122  0.3635  0.0371
 2601SOL    HW219437   4.173   1.749  14.150  1.0369  0.0959  0.1935
 2602SOL     OW19438   1.848   2.640  11.730  0.1467 -0.7864  0.4219
 2602SOL    HW119439   1.874   2.711  11.671 -2.3619 -0.9740 -0.9275
 2602SOL    HW219440   1.920   2.578  11.719  0.5702 -0.0796 -0.7680
 2603SOL     OW19441   3.767   4.269   3.972 -0.1142  0.5867  0.1251
 2603SOL    HW119442   3.673   4.291   3.974  0.1513  1.5745  1.5264
 2603SOL    HW219443   3.777   4.286   3.878 -0.7303  1.2397  0.1720
 2604SOL     OW19444   1.639   0.503   2.219 -0.5984  0.2490 -0.2449
 2604SOL    HW119445   1.631   0.490   2.125 -1.9593  0.3883 -0.1470
 2604SOL    HW219446   1.654   0.597   2.221 -0.6347  0.2617 -0.6769
 2605SOL     OW19447   0.703   4.717  10.083  0.4496 -0.0280 -0.9181
 2605SOL    HW119448   0.735   4.727  10.173 -0.7866 -2.9818 -0.1323
 2605SOL    HW219449   0.772   0.025  10.034  0.3670  2.6620  1.4036
 2606SOL     OW19450   1.944   3.915   7.869  0.0318  0.2959 -0.0287
 2606SOL    HW119451   2.028   3.960   7.875  1.3348 -1.8890 -2.3183
 2606SOL    HW219452   1.937   3.887   7.960  2.8867 -0.6583 -0.1181
 2607SOL     OW19453   3.168   3.675   0.938  0.0506  0.4734 -0.8405
 2607SOL    HW119454   3.175   3.654   0.845  1.0892 -2.6288 -0.0784
 2607SOL    HW219455   3.100   3.740   0.952 -0.1802  0.2495 -0.9111
 2608SOL     OW19456   1.658   1.178  13.578 -0.4262  0.7189 -0.0485
 2608SOL    HW119457   1.722   1.174  13.650  0.8948  0.3999 -1.2257
 2608SOL    HW219458   1.657   1.272  13.558  0.9713  0.4490 -1.3855
 2609SOL     OW19459   3.923   3.794   4.315 -0.3688 -0.2137 -0.0794
 2609SOL    HW119460   3.999   3.780   4.372  0.4899  0.6408 -1.0403
 2609SOL    HW219461   3.966   3.857   4.258  2.1544  0.0961  2.1676
 2610SOL     OW19462   4.169   4.670   4.203  0.4723 -0.7746  0.6741
 2610SOL    HW119463   4.167   0.029   4.191  2.9871 -1.0490 -1.7961
 2610SOL    HW219464   4.222   4.650   4.127 -1.1126  2.2710 -1.2297
 2611SOL     OW19465   4.189   3.617   3.896  0.0781 -0.8523 -0.2776
 2611SOL    HW119466   4.138   3.622   3.815 -0.9142 -4.1134  0.1361
 2611SOL    HW219467   4.121   3.631   3.962 -0.1023  0.3088 -0.7124
 2612SOL     OW19468   4.245   3.525   4.982  0.3454 -0.3204  0.0559
 2612SOL    HW119469   4.199   3.477   5.051  0.8011 -0.4091  0.2956
 2612SOL    HW219470   4.334   3.501   5.008  0.3823 -0.6595 -0.3672
 2613SOL     OW19471   2.717   2.416  17.679  0.9347  0.4262 -0.3203
 2613SOL    HW119472   2.797   2.460  17.705  0.3129  0.0162  2.2949
 2613SOL    HW219473   2.709   2.427  17.584  0.5881 -2.2694 -0.6118
 2614SOL     OW19474   0.392   0.908  14.532 -0.2198  0.6704  0.4127
 2614SOL    HW119475   0.401   0.866  14.618  1.9979  1.6273  0.6430
 2614SOL    HW219476   0.363   0.836  14.475 -1.5334  1.2235  0.3945
 2615SOL     OW19477   1.075   0.493   5.603 -0.0055 -0.1822  0.2779
 2615SOL    HW119478   1.089   0.411   5.555 -1.4690 -0.5526  0.4804
 2615SOL    HW219479   1.025   0.463   5.679 -0.2794 -0.4070  0.0088
 2616SOL     OW19480   1.871   0.291   9.348 -0.6500 -0.2006 -0.5634
 2616SOL    HW119481   1.799   0.229   9.360  2.0827 -2.6165  3.3497
 2616SOL    HW219482   1.861   0.339   9.431  0.2405 -1.6947  0.3995
 2617SOL     OW19483   1.288   2.707   9.485 -0.6940  0.5672  0.2223
 2617SOL    HW119484   1.268   2.664   9.402  0.6670  0.6894 -0.1697
 2617SOL    HW219485   1.263   2.648   9.555 -1.8397  1.6185  0.6931
 2618SOL     OW19486   3.104   4.632   1.520 -0.0854 -0.3292  0.0763
 2618SOL    HW119487   3.162   4.576   1.470  3.1573  1.4241  1.8957
 2618SOL    HW219488   3.146   4.636   1.606  0.0076 -0.9385  0.0575
 2619SOL     OW19489   0.982   1.137   8.872 -0.1510 -0.0463 -0.6011
 2619SOL    HW119490   0.892   1.147   8.841 -0.2250  2.1330  0.2883
 2619SOL    HW219491   0.987   1.134   8.967 -0.7022 -1.9677 -0.6464
 2620SOL     OW19492   0.841   1.566   9.825 -0.1841  0.1494 -0.2362
 2620SOL    HW119493   0.926   1.528   9.803 -1.4048 -2.1853 -0.8550
 2620SOL    HW219494   0.811   1.502   9.890  0.7846  0.7487  0.8024
 2621SOL     OW19495   4.533   3.885   2.939 -0.3175 -0.0461 -0.1334
 2621SOL    HW119496   4.586   3.838   3.004  1.9619 -0.8357 -2.5424
 2621SOL    HW219497   4.457   3.921   2.984  0.1879 -0.8608  1.3905
 2622SOL     OW19498   2.380   3.543  17.349 -0.0104 -0.0769  0.1534
 2622SOL    HW119499   2.387   3.470  17.410 -0.3476 -0.3757 -0.1704
 2622SOL    HW219500   2.298   3.517  17.308  1.2146 -0.4186 -2.1200
 2623SOL     OW19501   2.685   0.802  11.325  0.1586  0.1914 -0.1454
 2623SOL    HW119502   2.749   0.798  11.396  2.5517 -0.2938 -2.3153
 2623SOL    HW219503   2.608   0.774  11.374  0.4542  0.3653  0.4182
 2624SOL     OW19504   0.860   0.104   5.839  0.1977  0.0599 -0.0303
 2624SOL    HW119505   0.853   0.046   5.915 -2.2621  1.6362  0.9611
 2624SOL    HW219506   0.953   0.124   5.829 -0.2125  1.8914 -0.1891
 2625SOL     OW19507   3.943   2.707  13.291  0.1460 -0.3118  0.2278
 2625SOL    HW119508   3.871   2.764  13.316  0.8921  0.1689  1.3004
 2625SOL    HW219509   3.915   2.668  13.209 -0.0437 -2.4908  1.3013
 2626SOL     OW19510   0.498   1.907   5.297 -0.1629 -0.2571 -0.5586
 2626SOL    HW119511   0.514   1.927   5.205  0.0169  1.5701 -0.1330
 2626SOL    HW219512   0.461   1.819   5.298  0.8793 -0.7029 -1.8102
 2627SOL     OW19513   2.706   0.169   4.119 -0.0341 -0.5956 -0.1951
 2627SOL    HW119514   2.773   0.202   4.179  1.7959  0.0817 -2.5701
 2627SOL    HW219515   2.705   0.238   4.053  1.4644  1.3620  1.8707
 2628SOL     OW19516   0.520   0.327   7.641 -0.0330 -0.1863 -0.0627
 2628SOL    HW119517   0.563   0.400   7.596  0.3721 -0.3071  0.1271
 2628SOL    HW219518   0.552   0.331   7.731  2.0930 -0.4456 -0.8096
 2629SOL     OW19519   0.137   3.012   4.686  0.0215 -0.0789 -0.9347
 2629SOL    HW119520   0.116   2.961   4.764 -0.4717 -0.0057 -1.0158
 2629SOL    HW219521   0.231   3.002   4.676  0.0113 -0.5186 -0.5954
 2630SOL     OW19522   0.793   3.304   5.347 -0.1964 -0.7466 -0.9704
 2630SOL    HW119523   0.803   3.210   5.330  2.0619 -0.7241  0.3318
 2630SOL    HW219524   0.698   3.309   5.356 -0.2005  1.5252 -2.4013
 2631SOL     OW19525   3.098   0.819   6.341  0.0368 -0.5508 -0.1008
 2631SOL    HW119526   3.156   0.798   6.268 -1.5338 -0.6533 -1.3244
 2631SOL    HW219527   3.012   0.811   6.299  0.2982  4.7844 -1.6251
 2632SOL     OW19528   1.544   2.309  15.322  0.0907  0.2979  0.0060
 2632SOL    HW119529   1.524   2.232  15.269  2.4810  0.0171 -0.4520
 2632SOL    HW219530   1.549   2.275  15.412 -1.5109  1.2946  0.4731
 2633SOL     OW19531   3.626   2.245   7.424  0.0965  0.2289  0.3312
 2633SOL    HW119532   3.624   2.328   7.470  1.6592 -0.6793  2.0707
 2633SOL    HW219533   3.539   2.244   7.385  0.2865  0.1114 -0.0956
 2634SOL     OW19534   3.739   0.337   6.451 -0.5448  0.5723  0.2559
 2634SOL    HW119535   3.677   0.276   6.490 -1.5073  1.0611 -0.5193
 2634SOL    HW219536   3.719   0.314   6.361  0.8167  1.8972 -0.3875
 2635SOL     OW19537   2.642   0.340   3.463 -0.1919  0.1135  1.0326
 2635SOL    HW119538   2.657   0.396   3.387  2.1576  0.3591  1.6759
 2635SOL    HW219539   2.549   0.359   3.472 -0.6127 -0.6588 -1.5980
 2636SOL     OW19540   1.941   1.268   3.746 -0.1735 -0.2618  0.4152
 2636SOL    HW119541   1.894   1.348   3.766 -1.4264 -0.4727 -1.6331
 2636SOL    HW219542   2.008   1.267   3.814  0.1646  1.2990  0.1001
 2637SOL     OW19543   0.651   4.097   2.069  1.0297  0.1738  0.1551
 2637SOL    HW119544   0.607   4.138   1.995  0.5686 -2.5286 -1.0714
 2637SOL    HW219545   0.572   4.082   2.121  1.6740 -0.9910  0.7889
 2638SOL     OW19546   3.885   3.719   5.538  0.4356 -0.5152 -0.0320
 2638SOL    HW119547   3.959   3.779   5.538 -1.1000  1.4002  0.8820
 2638SOL    HW219548   3.848   3.735   5.625 -1.8137  1.9913 -1.4139
 2639SOL     OW19549   4.410   0.485   9.126  0.2089 -0.3071  0.4163
 2639SOL    HW119550   4.479   0.538   9.087  0.0442  0.4286  1.1254
 2639SOL    HW219551   4.330   0.538   9.126  0.6539  0.3178 -2.8865
 2640SOL     OW19552   4.732   0.377   4.789  0.1329 -0.2737  0.1233
 2640SOL    HW119553   4.673   0.434   4.838 -0.8580 -0.2194 -1.1327
 2640SOL    HW219554   0.078   0.379   4.837 -0.9724 -0.0282  2.0089
 2641SOL     OW19555   1.506   3.539   5.665 -0.0240  0.0564 -0.4881
 2641SOL    HW119556   1.510   3.515   5.757 -0.3250 -2.0591 -1.0414
 2641SOL    HW219557   1.495   3.634   5.671  1.2018 -0.0450  3.2154
 2642SOL     OW19558   2.293   2.999   7.554 -0.2137  0.4405  0.0091
 2642SOL    HW119559   2.347   2.926   7.584 -0.2756  0.5783  0.4580
 2642SOL    HW219560   2.295   3.062   7.626 -2.1779  2.0999 -1.4020
 2643SOL     OW19561   0.746   3.831  16.235  0.3106 -0.1164  0.2488
 2643SOL    HW119562   0.821   3.786  16.274 -0.0705  0.1827  1.3117
 2643SOL    HW219563   0.716   3.769  16.168 -0.9418 -0.6361  1.2820
 2644SOL     OW19564   1.132   3.731   8.209  0.0153 -0.3151  0.3020
 2644SOL    HW119565   1.104   3.676   8.282  0.4388  0.5991  1.1539
 2644SOL    HW219566   1.156   3.665   8.143  0.1980  0.9804 -0.9253
 2645SOL     OW19567   3.810   2.319   2.257 -0.1719 -0.0774 -0.2715
 2645SOL    HW119568   3.886   2.376   2.242 -0.8133  0.7253 -0.4865
 2645SOL    HW219569   3.812   2.333   2.351 -1.0946  0.2125 -0.2933
 2646SOL     OW19570   0.365   2.765   5.737  0.1185 -0.2929 -0.5126
 2646SOL    HW119571   0.378   2.686   5.686  0.5767  0.2898 -1.3002
 2646SOL    HW219572   0.430   2.820   5.693  1.4881 -0.4797  1.2637
 2647SOL     OW19573   4.212   1.309   3.876  0.1027  0.0796  0.5359
 2647SOL    HW119574   4.290   1.304   3.819 -0.9813 -1.0814 -0.8477
 2647SOL    HW219575   4.234   1.384   3.931  1.7218  0.8334 -1.1031
 2648SOL     OW19576   4.294   1.162   7.909 -0.1913 -0.4451 -0.6742
 2648SOL    HW119577   4.323   1.121   7.990 -0.1832 -0.4811 -0.6953
 2648SOL    HW219578   4.329   1.251   7.919  0.6181 -0.8612  0.2300
 2649SOL     OW19579   3.056   3.567   6.879  0.0820  0.0275  0.0009
 2649SOL    HW119580   3.018   3.642   6.925 -2.5762  0.0928 -2.2365
 2649SOL    HW219581   3.004   3.489   6.898 -0.3727  0.0200 -1.2208
 2650SOL     OW19582   1.408   3.044   8.070  0.0798 -0.0415  0.3637
 2650SOL    HW119583   1.349   2.985   8.118 -0.7216 -0.4051 -1.0900
 2650SOL    HW219584   1.431   2.980   8.003 -0.4661  0.2790 -0.1208
 2651SOL     OW19585   4.572   1.592   7.566  0.1140 -0.0189 -0.1268
 2651SOL    HW119586   4.478   1.579   7.576  0.4367 -1.8026  0.7418
 2651SOL    HW219587   4.575   1.687   7.573 -1.0774  0.0893 -1.1121
 2652SOL     OW19588   0.913   4.033   6.365 -1.0410  0.4912  0.3939
 2652SOL    HW119589   0.995   4.024   6.415  0.5171  0.4903 -2.1604
 2652SOL    HW219590   0.900   4.127   6.356  0.1044  0.5203 -0.8949
 2653SOL     OW19591   1.088   0.334  17.309  0.6828 -0.1247  0.2878
 2653SOL    HW119592   1.045   0.330  17.223  1.0834 -0.2147  0.0908
 2653SOL    HW219593   1.078   0.420  17.349  1.0982  0.5578 -1.0791
 2654SOL     OW19594   3.628   3.427   2.109 -0.3591  0.6818  0.1072
 2654SOL    HW119595   3.638   3.497   2.044 -0.7596  0.5970 -0.0417
 2654SOL    HW219596   3.617   3.481   2.187  1.4712  1.0867  0.0877
 2655SOL     OW19597   0.750   3.455   3.195 -0.1796 -0.2529 -0.5130
 2655SOL    HW119598   0.741   3.495   3.281 -2.3688 -3.1886  0.6131
 2655SOL    HW219599   0.751   3.363   3.222  1.8218 -0.3868 -1.0233
 2656SOL     OW19600   3.288   0.325  11.543 -0.2378 -0.3978 -0.4633
 2656SOL    HW119601   3.331   0.377  11.475 -1.8921  0.8404 -0.5497
 2656SOL    HW219602   3.351   0.332  11.614 -0.6112  0.0436 -0.1730
 2657SOL     OW19603   0.609   4.338   5.948  0.6740 -0.0800  0.2722
 2657SOL    HW119604   0.518   4.361   5.968  0.1358 -2.1934  0.2809
 2657SOL    HW219605   0.619   4.349   5.854  0.1370 -0.5770  0.1575
 2658SOL     OW19606   0.019   4.380  14.114 -0.6961  0.2609 -0.1527
 2658SOL    HW119607   0.097   4.335  14.080 -1.7479  0.1413 -2.4315
 2658SOL    HW219608   0.031   4.459  14.061 -1.4588 -0.4790 -1.4383
 2659SOL     OW19609   0.553   0.064   3.730 -0.0606 -0.2930 -0.6756
 2659SOL    HW119610   0.591   4.717   3.703  1.0075 -0.2795  0.7871
 2659SOL    HW219611   0.577   0.112   3.651  0.4267  1.2439  0.4095
 2660SOL     OW19612   0.579   3.361  16.429 -0.5003  0.4326  0.4485
 2660SOL    HW119613   0.524   3.296  16.386  2.2864 -2.8192  1.7786
 2660SOL    HW219614   0.629   3.381  16.350  1.4134 -2.0802  1.0170
 2661SOL     OW19615   2.512   2.683   3.984 -0.2804  0.1873  0.4790
 2661SOL    HW119616   2.589   2.652   3.936 -0.2345 -1.4115  1.6115
 2661SOL    HW219617   2.442   2.646   3.930 -0.5695 -0.8295  1.5608
 2662SOL     OW19618   3.250   2.740  14.969  0.6635  0.4119  0.2949
 2662SOL    HW119619   3.282   2.735  15.059  0.7535  0.4708  0.2663
 2662SOL    HW219620   3.328   2.773  14.926  0.9324  2.2564  2.2245
 2663SOL     OW19621   0.119   3.433   3.534 -0.2065  0.1109  0.8355
 2663SOL    HW119622   0.074   3.466   3.612  2.5855 -0.0085  2.5324
 2663SOL    HW219623   0.182   3.505   3.522 -0.4823  0.2561  0.2952
 2664SOL     OW19624   1.445   2.525   9.842 -0.2732  0.5215 -0.5950
 2664SOL    HW119625   1.380   2.549   9.775  0.4432  4.3387  0.0919
 2664SOL    HW219626   1.495   2.605   9.856 -0.3838  0.5839 -0.5495
 2665SOL     OW19627   3.666   1.977   4.740  0.2609 -0.0368  0.4857
 2665SOL    HW119628   3.671   1.981   4.836  2.3549  0.8116  0.3300
 2665SOL    HW219629   3.594   1.916   4.723 -0.1166  0.6016 -0.1694
 2666SOL     OW19630   2.682   4.704   4.588  0.4943  0.0751  0.2485
 2666SOL    HW119631   2.615   0.019   4.632 -1.3744 -0.5004 -1.9456
 2666SOL    HW219632   2.627   4.650   4.531  0.0494 -0.6109  1.3353
 2667SOL     OW19633   1.853   3.431   8.243  0.4090  0.5131  0.0015
 2667SOL    HW119634   1.848   3.340   8.212  1.0297  0.4014  0.2446
 2667SOL    HW219635   1.867   3.416   8.337  0.7645  0.2971 -0.0861
 2668SOL     OW19636   2.254   3.161   7.771 -0.2660  0.0784  0.3853
 2668SOL    HW119637   2.337   3.154   7.818 -0.2360 -0.7228  0.2106
 2668SOL    HW219638   2.239   3.253   7.794 -1.6214  0.3550 -1.6132
 2669SOL     OW19639   2.635   4.546  12.326 -0.2550  0.5071  0.0469
 2669SOL    HW119640   2.574   4.526  12.255 -0.6424 -0.3742  0.6327
 2669SOL    HW219641   2.586   4.608  12.379  2.5025  1.4217  1.5491
 2670SOL     OW19642   1.766   2.022   5.401 -0.2517  0.2840 -0.0407
 2670SOL    HW119643   1.825   2.087   5.364 -0.6893 -0.7850 -2.5948
 2670SOL    HW219644   1.709   2.079   5.453  0.4377  1.1311 -0.2025
 2671SOL     OW19645   1.324   3.291   6.048 -0.0372  0.2966 -0.2357
 2671SOL    HW119646   1.252   3.330   6.098  0.5969  1.8542 -0.5507
 2671SOL    HW219647   1.396   3.347   6.074  0.1596  0.1947 -0.5628
 2672SOL     OW19648   2.472   1.794   6.576 -0.1635  0.2867  0.0648
 2672SOL    HW119649   2.535   1.863   6.557  1.2666 -1.3881 -1.2169
 2672SOL    HW219650   2.439   1.826   6.660 -0.0620  1.4325 -0.3375
 2673SOL     OW19651   3.667   0.491   7.187 -0.0598 -0.3099 -0.1906
 2673SOL    HW119652   3.668   0.493   7.282 -0.6272  1.4265 -0.2289
 2673SOL    HW219653   3.664   0.582   7.159 -3.5332  0.0192  1.3596
 2674SOL     OW19654   1.295   4.430   8.891 -0.5303 -0.7830 -0.3028
 2674SOL    HW119655   1.226   4.383   8.843 -1.5127  2.6906 -2.2959
 2674SOL    HW219656   1.257   4.418   8.978  1.4715 -1.1406  0.5235
 2675SOL     OW19657   0.866   2.904   3.041 -0.4200  0.6307  0.6767
 2675SOL    HW119658   0.895   2.813   3.029 -0.5554  0.6939 -0.0849
 2675SOL    HW219659   0.872   2.932   2.950 -0.7467 -0.6938  0.2365
 2676SOL     OW19660   3.308   0.356  11.949  0.6715 -0.0570 -0.0155
 2676SOL    HW119661   3.351   0.350  11.864 -0.1138  0.5370 -0.4417
 2676SOL    HW219662   3.293   0.263  11.970 -0.3253  0.1549  0.2187
 2677SOL     OW19663   4.083   3.686   2.746 -0.3201 -0.5144  0.4761
 2677SOL    HW119664   4.145   3.693   2.674  0.1710 -1.2719  0.8231
 2677SOL    HW219665   3.999   3.706   2.705 -0.9634 -1.1127  1.5047
 2678SOL     OW19666   1.337   3.658   9.628 -0.5372 -0.6328  0.5082
 2678SOL    HW119667   1.388   3.726   9.585 -0.4433 -1.3479 -0.5065
 2678SOL    HW219668   1.342   3.577   9.578 -0.9625 -0.9995  1.0580
 2679SOL     OW19669   2.275   3.970   5.758 -0.4319  0.1224  0.0650
 2679SOL    HW119670   2.223   4.049   5.767 -0.1418  0.3970 -0.6109
 2679SOL    HW219671   2.225   3.905   5.807 -0.2400 -0.4310 -0.4668
 2680SOL     OW19672   4.488   2.463   6.743  0.1333 -0.1032 -0.0735
 2680SOL    HW119673   4.584   2.458   6.740  0.1992  2.0214 -1.3726
 2680SOL    HW219674   4.473   2.537   6.685 -0.9599  0.1011  0.4668
 2681SOL     OW19675   3.516   3.288   4.341 -0.0066  0.0950  0.1218
 2681SOL    HW119676   3.441   3.310   4.285 -0.6048  1.0036  1.2803
 2681SOL    HW219677   3.564   3.236   4.276  0.6646 -0.7236  1.2771
 2682SOL     OW19678   2.535   1.024   2.456 -0.3781 -0.3126  0.5138
 2682SOL    HW119679   2.609   1.083   2.441  1.1566 -1.7693  2.3870
 2682SOL    HW219680   2.562   0.989   2.541 -0.4888  1.5153  1.3111
 2683SOL     OW19681   3.351   2.364  12.017 -0.3049 -0.1183 -0.1696
 2683SOL    HW119682   3.422   2.364  11.953 -0.4617 -1.5564 -0.3418
 2683SOL    HW219683   3.305   2.445  11.996  1.5514  1.0418  0.3099
 2684SOL     OW19684   2.901   0.350  13.826 -0.2131  0.2135  0.4034
 2684SOL    HW119685   2.989   0.333  13.793  0.4554 -0.5365  2.5819
 2684SOL    HW219686   2.881   0.438  13.792 -4.5030 -0.5017  1.0479
 2685SOL     OW19687   3.286   0.593   7.390  0.1727  0.2503 -0.1757
 2685SOL    HW119688   3.305   0.541   7.313 -0.6995  0.1747 -0.3442
 2685SOL    HW219689   3.339   0.550   7.457 -1.0166  0.8778  1.1928
 2686SOL     OW19690   1.453   4.592   9.575  0.0452  0.7763 -0.0614
 2686SOL    HW119691   1.459   4.609   9.481  1.6139  0.0512 -0.0823
 2686SOL    HW219692   1.469   4.498   9.572  0.6674  0.8906 -0.4278
 2687SOL     OW19693   3.107   0.344   3.903  0.2893 -0.6805 -0.4403
 2687SOL    HW119694   3.065   0.269   3.861 -2.4380  1.1986 -1.0865
 2687SOL    HW219695   3.097   0.416   3.841  0.7492 -1.5102 -1.4947
 2688SOL     OW19696   1.656   3.012  11.267  0.2192 -0.0198 -0.0377
 2688SOL    HW119697   1.652   2.917  11.279  0.7167 -0.3158 -2.1622
 2688SOL    HW219698   1.634   3.050  11.352 -1.3732 -1.9689  0.4265
 2689SOL     OW19699   2.952   0.160   7.291  0.5162  0.1240  0.3474
 2689SOL    HW119700   2.916   0.171   7.379  0.5253  1.1775  0.2281
 2689SOL    HW219701   2.912   0.239   7.256  1.4754  0.3585 -0.2341
 2690SOL     OW19702   1.496   0.584   2.561 -1.0178 -0.1735  0.2150
 2690SOL    HW119703   1.436   0.645   2.518 -1.0170 -0.9293 -0.8584
 2690SOL    HW219704   1.564   0.573   2.495 -1.9313  1.3897 -0.9693
 2691SOL     OW19705   3.307   0.597  15.154  0.2018 -0.5862  0.0976
 2691SOL    HW119706   3.253   0.645  15.091 -0.1283 -0.2323  0.6551
 2691SOL    HW219707   3.337   0.673  15.205 -1.1730 -0.7673  1.1611
 2692SOL     OW19708   1.177   0.890   6.961  0.3872 -0.1275 -0.3144
 2692SOL    HW119709   1.136   0.909   7.046  0.1684  1.5434 -0.7949
 2692SOL    HW219710   1.223   0.809   6.979  0.2069 -0.2154 -0.2460
 2693SOL     OW19711   1.442   3.642   8.786 -0.3286  0.3133 -0.0276
 2693SOL    HW119712   1.488   3.650   8.870  0.2448  0.6813 -0.3704
 2693SOL    HW219713   1.365   3.597   8.818  0.6765  0.1915  2.2221
 2694SOL     OW19714   2.836   3.647   7.909 -0.0799  0.2352  0.0311
 2694SOL    HW119715   2.887   3.569   7.930 -1.6374 -0.9275 -0.5590
 2694SOL    HW219716   2.752   3.608   7.934 -0.6462 -0.0114 -2.2824
 2695SOL     OW19717   2.993   2.344   2.566  0.8705  0.3717 -0.0961
 2695SOL    HW119718   3.046   2.419   2.592  2.6215 -1.5863  2.1194
 2695SOL    HW219719   2.952   2.385   2.490  0.8738  3.0432  1.3544
 2696SOL     OW19720   4.301   0.989   9.665  0.6903  0.3666  0.2405
 2696SOL    HW119721   4.231   1.012   9.725  0.8364 -0.6994  0.8140
 2696SOL    HW219722   4.313   1.071   9.616 -1.3346  1.3237  1.3469
 2697SOL     OW19723   3.878   2.289   5.869 -0.1949 -0.1997 -0.3210
 2697SOL    HW119724   3.819   2.261   5.799 -0.7100  0.3453 -0.1036
 2697SOL    HW219725   3.957   2.285   5.816  0.7864 -0.7389  1.1696
 2698SOL     OW19726   2.030   1.581   1.479  0.1127 -0.0195 -0.0242
 2698SOL    HW119727   2.079   1.653   1.519  0.7477 -1.7587  2.2994
 2698SOL    HW219728   2.023   1.518   1.550  1.0081  0.3194  0.3670
 2699SOL     OW19729   2.786   2.406  14.532  0.1552 -0.3312  0.2403
 2699SOL    HW119730   2.776   2.498  14.509 -0.8426 -0.4844  0.0610
 2699SOL    HW219731   2.857   2.389  14.470  0.4174  1.8220 -0.0411
 2700SOL     OW19732   4.707   0.155   5.214  0.5491  0.0653  0.3456
 2700SOL    HW119733   4.645   0.224   5.190  0.5146  0.1830  0.7700
 2700SOL    HW219734   4.648   0.101   5.267  1.1216 -1.5747 -0.7113
 2701SOL     OW19735   2.736   3.388   2.288  0.3516  0.3211 -0.1508
 2701SOL    HW119736   2.719   3.308   2.338  0.0993  0.1534 -0.5050
 2701SOL    HW219737   2.823   3.378   2.250  0.3253  0.6153 -0.2906
 2702SOL     OW19738   4.701   2.924   6.397  0.4536  0.2965  0.0512
 2702SOL    HW119739   4.699   2.971   6.314  0.2756 -0.8546 -0.6019
 2702SOL    HW219740   4.623   2.869   6.387  0.4283  0.0918  1.3848
 2703SOL     OW19741   0.954   0.693  10.208 -0.0896 -0.1775  0.2457
 2703SOL    HW119742   0.872   0.711  10.254 -1.3272 -0.4223 -1.8496
 2703SOL    HW219743   0.931   0.614  10.160  1.2472 -2.3640  3.2498
 2704SOL     OW19744   2.163   3.906   7.430  0.3141  0.1951 -0.5210
 2704SOL    HW119745   2.213   3.890   7.510  3.2994  3.3795 -1.7711
 2704SOL    HW219746   2.106   3.829   7.420  1.5196 -0.7551 -0.0348
 2705SOL     OW19747   2.674   1.278   8.998  0.2834  0.3618 -0.3048
 2705SOL    HW119748   2.687   1.194   9.042  1.6428  0.3430 -0.7444
 2705SOL    HW219749   2.759   1.320   9.007  0.1732  0.9909 -2.3178
 2706SOL     OW19750   0.740   4.123  15.924 -0.0208 -0.3857 -0.4625
 2706SOL    HW119751   0.793   4.141  15.847 -0.3346  0.6896 -0.4339
 2706SOL    HW219752   0.681   4.198  15.933  0.6538 -0.0134  0.9769
 2707SOL     OW19753   1.605   3.772   6.644  0.0042  0.0756  0.0559
 2707SOL    HW119754   1.557   3.691   6.628  0.5425 -0.1389 -0.4991
 2707SOL    HW219755   1.666   3.767   6.570  2.8322 -0.1951  2.3697
 2708SOL     OW19756   1.979   3.457  12.187 -0.4035 -0.7515 -0.3319
 2708SOL    HW119757   2.069   3.489  12.198 -0.8697  0.4221  0.0795
 2708SOL    HW219758   1.996   3.387  12.124  1.9404  0.1137 -0.6749
 2709SOL     OW19759   1.040   3.031   5.570 -0.1119 -0.3917 -0.8103
 2709SOL    HW119760   1.000   3.069   5.649  1.1287 -0.6971 -0.0254
 2709SOL    HW219761   1.130   3.016   5.601 -0.4155 -0.2397  0.1534
 2710SOL     OW19762   2.107   3.540   2.003 -0.4190  0.7686  0.2281
 2710SOL    HW119763   2.142   3.598   1.935 -0.1860 -1.1442 -1.2916
 2710SOL    HW219764   2.168   3.572   2.069 -2.8464  2.9752  1.4140
 2711SOL     OW19765   0.148   0.503   6.583  0.0056  0.0939  0.2750
 2711SOL    HW119766   0.085   0.431   6.577  1.4336 -1.3876  2.7472
 2711SOL    HW219767   0.224   0.464   6.539 -1.4051 -2.0543 -0.3015
 2712SOL     OW19768   1.506   4.215   2.862  0.2361 -0.0871 -0.0018
 2712SOL    HW119769   1.527   4.143   2.922 -0.2147 -1.3548 -1.3638
 2712SOL    HW219770   1.495   4.288   2.923 -0.6162 -2.3100  2.5777
 2713SOL     OW19771   0.602   3.537  16.626 -0.1897 -0.3036 -0.0897
 2713SOL    HW119772   0.621   3.620  16.583  0.6471 -0.2501  0.3665
 2713SOL    HW219773   0.605   3.485  16.546  0.6720 -0.4414  0.0286
 2714SOL     OW19774   4.549   0.948   5.642  0.6609 -0.2409 -0.5692
 2714SOL    HW119775   4.574   0.879   5.704  1.2638 -0.5168 -1.1284
 2714SOL    HW219776   4.562   1.019   5.705 -0.2690  0.0773 -0.7384
 2715SOL     OW19777   3.145   4.501  12.170 -0.0059 -0.1469  0.5461
 2715SOL    HW119778   3.075   4.439  12.192 -0.0731 -0.0383  0.6464
 2715SOL    HW219779   3.138   4.504  12.075  0.1502  1.1365  0.5767
 2716SOL     OW19780   2.758   0.577   4.662  0.3407  0.2788 -0.3750
 2716SOL    HW119781   2.730   0.668   4.653  0.9716  0.4521 -0.6347
 2716SOL    HW219782   2.846   0.604   4.689  0.7837 -0.5838 -0.9500
 2717SOL     OW19783   3.538   0.369  14.626  0.5069 -0.1287  0.5009
 2717SOL    HW119784   3.468   0.321  14.582  2.6702 -1.9131 -1.0325
 2717SOL    HW219785   3.519   0.459  14.601  1.9417  0.2467  0.7299
 2718SOL     OW19786   1.768   1.356   8.359  0.0614  0.2287  0.5266
 2718SOL    HW119787   1.857   1.324   8.376  0.6180  2.3047  1.5069
 2718SOL    HW219788   1.717   1.276   8.353 -0.7800  0.7774  0.4426
 2719SOL     OW19789   0.770   2.198   8.593  0.6060  0.5114  0.2361
 2719SOL    HW119790   0.775   2.118   8.646  1.6077 -0.8349 -1.9338
 2719SOL    HW219791   0.836   2.251   8.637  1.8516  0.2703 -1.3675
 2720SOL     OW19792   3.556   1.832   7.707 -0.2817  0.3208  0.1096
 2720SOL    HW119793   3.561   1.808   7.614 -0.5971  0.4119  0.0677
 2720SOL    HW219794   3.639   1.819   7.752 -0.6272  1.8407  1.2074
 2721SOL     OW19795   0.984   2.190   3.639  0.0802  0.3968 -0.4635
 2721SOL    HW119796   1.068   2.169   3.681  0.4440 -2.0402 -2.4491
 2721SOL    HW219797   0.919   2.162   3.703  0.0113 -1.7049 -1.4627
 2722SOL     OW19798   3.515   4.119  15.479 -0.3423  0.4424 -0.5181
 2722SOL    HW119799   3.481   4.031  15.493 -0.4093  0.2968 -1.5872
 2722SOL    HW219800   3.509   4.131  15.384  1.2595 -0.5160 -0.7424
 2723SOL     OW19801   0.237   4.311   3.246  0.9787 -0.1515 -0.1928
 2723SOL    HW119802   0.226   4.216   3.258  0.0776  0.1642  1.5691
 2723SOL    HW219803   0.154   4.322   3.199  1.1171 -0.4569 -0.5060
 2724SOL     OW19804   0.963   1.384   4.440  0.0459 -0.1717 -0.1293
 2724SOL    HW119805   1.041   1.329   4.443  0.4472  0.4746  1.5132
 2724SOL    HW219806   0.974   1.428   4.524  3.2178 -1.0176 -0.0843
 2725SOL     OW19807   3.492   2.511   4.250 -0.2802  0.0800 -0.1282
 2725SOL    HW119808   3.433   2.438   4.269  1.6865 -2.2805 -3.0234
 2725SOL    HW219809   3.554   2.497   4.322 -1.8680 -0.7337  1.0702
 2726SOL     OW19810   1.196   2.765   6.647 -0.4418 -0.2717 -0.3207
 2726SOL    HW119811   1.242   2.715   6.579  0.3881 -0.8506  0.6775
 2726SOL    HW219812   1.143   2.824   6.592  2.4019  1.4288 -1.2435
 2727SOL     OW19813   2.490   0.859   4.993  0.0246  0.5024 -0.3367
 2727SOL    HW119814   2.549   0.924   5.032 -0.1509  1.2510 -1.3095
 2727SOL    HW219815   2.438   0.906   4.927 -1.4535 -1.7184 -0.7615
 2728SOL     OW19816   1.142   0.974   5.858  0.1591 -0.7891 -0.3566
 2728SOL    HW119817   1.106   0.942   5.941 -1.0909  0.7015 -0.3281
 2728SOL    HW219818   1.136   0.895   5.804 -1.6125  0.3430 -1.7988
 2729SOL     OW19819   4.442   1.507  14.905 -0.5511  0.2552  0.4114
 2729SOL    HW119820   4.450   1.483  14.812  0.3496  0.7849  0.3535
 2729SOL    HW219821   4.363   1.559  14.917 -0.5156  0.0466  1.5457
 2730SOL     OW19822   1.100   2.835   5.262  0.2496  0.1760 -0.2458
 2730SOL    HW119823   1.062   2.777   5.328  1.9084  1.7587  2.0919
 2730SOL    HW219824   1.194   2.840   5.280 -0.0548  1.1131  1.0229
 2731SOL     OW19825   1.863   2.702   6.185 -0.5539 -0.1022 -0.0425
 2731SOL    HW119826   1.774   2.722   6.155 -0.2149 -0.8743 -1.5700
 2731SOL    HW219827   1.882   2.641   6.113  1.5820  0.3324  0.1305
 2732SOL     OW19828   2.965   0.205   8.445  0.8160 -0.2922 -0.2548
 2732SOL    HW119829   2.971   0.298   8.423  1.0892 -0.2010  0.2292
 2732SOL    HW219830   3.018   0.195   8.524 -0.2809  1.1873  0.6773
 2733SOL     OW19831   1.661   2.147  14.126  0.3110 -0.2580  0.2077
 2733SOL    HW119832   1.669   2.184  14.038 -1.0217  2.7808  1.3702
 2733SOL    HW219833   1.698   2.059  14.116 -0.3718 -0.5718  0.4371
 2734SOL     OW19834   1.743   1.127   4.050  0.5449 -0.4528 -0.4887
 2734SOL    HW119835   1.693   1.122   3.968 -0.1190  1.1929 -0.1923
 2734SOL    HW219836   1.792   1.046   4.036  1.6611  0.2344 -0.5436
 2735SOL     OW19837   0.930   2.205   0.482 -0.8433  0.5682  0.1321
 2735SOL    HW119838   0.993   2.277   0.483  0.5378 -0.7085  3.4831
 2735SOL    HW219839   0.912   2.200   0.388  2.0875 -0.6357 -0.3503
 2736SOL     OW19840   1.369   3.104   3.373  0.0263  0.5982 -0.1324
 2736SOL    HW119841   1.333   3.179   3.419 -1.8941 -0.1008 -0.4623
 2736SOL    HW219842   1.292   3.061   3.334 -2.1882  2.7114  1.9446
 2737SOL     OW19843   0.593   4.096   9.267  0.2128 -0.1897 -0.2454
 2737SOL    HW119844   0.677   4.138   9.253  0.1290 -0.0164 -0.2276
 2737SOL    HW219845   0.597   4.036   9.192  0.5879 -1.0845  0.4864
 2738SOL     OW19846   0.773   0.359   5.781 -0.1581 -0.2118  0.4094
 2738SOL    HW119847   0.786   0.271   5.817 -0.5795 -0.0399  0.9829
 2738SOL    HW219848   0.733   0.406   5.855  2.6382  0.6007  1.4071
 2739SOL     OW19849   4.124   3.043   5.460 -0.1801  0.7477  0.2303
 2739SOL    HW119850   4.174   3.107   5.510 -1.4762  1.3924  0.6798
 2739SOL    HW219851   4.103   2.985   5.534  1.2946  0.8755  0.7539
 2740SOL     OW19852   0.776   4.098  16.214 -0.3707  0.5692 -0.1284
 2740SOL    HW119853   0.798   4.095  16.120 -1.1025 -1.3465 -0.2506
 2740SOL    HW219854   0.782   4.006  16.241 -1.5702  0.8827  1.1934
 2741SOL     OW19855   3.196   2.610   9.755  0.3215 -0.1365 -0.2928
 2741SOL    HW119856   3.112   2.578   9.789  0.6265 -0.6687 -0.0343
 2741SOL    HW219857   3.207   2.558   9.676  0.3818 -3.1378  1.7002
 2742SOL     OW19858   4.580   1.722   4.790 -0.4833 -0.0849  0.6966
 2742SOL    HW119859   4.596   1.792   4.853 -0.8852  1.7002 -1.1783
 2742SOL    HW219860   4.607   1.643   4.837  0.0077 -0.3750 -0.0840
 2743SOL     OW19861   0.597   0.829   7.893  0.3045  0.3153  0.0636
 2743SOL    HW119862   0.611   0.779   7.973  0.9860 -0.1767 -0.3545
 2743SOL    HW219863   0.503   0.825   7.874  0.2149  0.1087  0.5604
 2744SOL     OW19864   2.492   0.459   1.374  0.4306  0.1047 -0.9027
 2744SOL    HW119865   2.470   0.367   1.355 -0.0769  0.0777 -0.2035
 2744SOL    HW219866   2.539   0.481   1.294 -0.9533  0.3944 -1.6362
 2745SOL     OW19867   0.935   0.065  11.147 -0.0525 -0.4534 -0.6368
 2745SOL    HW119868   0.875   0.001  11.184 -2.6681  2.0731 -0.5421
 2745SOL    HW219869   1.010   0.053  11.206  0.5807 -0.3501 -1.4126
 2746SOL     OW19870   3.807   3.829  11.780 -0.3396 -0.0173  0.1602
 2746SOL    HW119871   3.832   3.744  11.818  3.4296  0.8422 -0.4783
 2746SOL    HW219872   3.751   3.862  11.851 -1.6950 -1.3487 -0.2853
 2747SOL     OW19873   0.145   0.205  13.065 -0.2289 -0.5273  0.3538
 2747SOL    HW119874   0.228   0.219  13.111 -0.5263 -1.2774  1.1063
 2747SOL    HW219875   0.177   0.150  12.992  0.7530  1.7190 -0.8917
 2748SOL     OW19876   0.581   2.248  15.722 -0.0377 -0.2204  0.1176
 2748SOL    HW119877   0.507   2.265  15.663 -1.2781 -0.3212  1.6388
 2748SOL    HW219878   0.620   2.334  15.736  0.4646 -0.1697 -1.5565
 2749SOL     OW19879   1.863   3.837   2.588 -0.2478 -0.4135 -0.2076
 2749SOL    HW119880   1.869   3.743   2.571 -1.6708 -0.1086 -2.4129
 2749SOL    HW219881   1.772   3.855   2.561 -0.5751 -0.5654  0.8148
 2750SOL     OW19882   3.993   3.516   0.411 -0.3596  0.1184 -0.4879
 2750SOL    HW119883   3.990   3.513   0.315 -1.4450 -0.3363 -0.4472
 2750SOL    HW219884   4.069   3.460   0.427 -1.0218 -0.2338  1.3049
 2751SOL     OW19885   3.394   0.605   4.921 -0.3889 -0.6877  0.1377
 2751SOL    HW119886   3.391   0.668   4.993  0.9775 -0.2847 -0.1476
 2751SOL    HW219887   3.300   0.588   4.911 -0.9245  3.0487 -1.2268
 2752SOL     OW19888   4.711   2.948   4.074 -0.3584 -0.1993 -0.3311
 2752SOL    HW119889   4.715   3.042   4.093  1.4136 -0.2699 -0.3506
 2752SOL    HW219890   4.657   2.955   3.995 -0.4289 -2.9399 -0.5070
 2753SOL     OW19891   4.025   4.439   9.692 -0.1443  0.1134  0.1256
 2753SOL    HW119892   3.982   4.385   9.759 -1.1104  0.4748 -0.2099
 2753SOL    HW219893   4.113   4.401   9.690 -0.1263  0.1623  0.0115
 2754SOL     OW19894   1.291   3.058   5.129 -0.6945 -0.5783  0.0504
 2754SOL    HW119895   1.332   3.140   5.155 -0.3281 -1.1523  1.2643
 2754SOL    HW219896   1.302   3.001   5.205  2.3460 -1.0324 -0.7159
 2755SOL     OW19897   0.687   2.326   4.661 -0.4541  0.0122 -0.3270
 2755SOL    HW119898   0.678   2.245   4.711  1.1146  0.2767  0.3799
 2755SOL    HW219899   0.603   2.365   4.686  0.0877  0.5540  0.6476
 2756SOL     OW19900   1.825   1.163   2.525 -0.1902 -0.4041 -0.7213
 2756SOL    HW119901   1.793   1.210   2.602 -0.3829 -0.4566 -0.7711
 2756SOL    HW219902   1.815   1.074   2.558 -2.9025  0.1433 -0.0878
 2757SOL     OW19903   1.939   2.460   8.335 -0.2725 -0.6932 -0.3550
 2757SOL    HW119904   2.019   2.449   8.387 -0.6198 -0.6280  0.1924
 2757SOL    HW219905   1.918   2.545   8.372 -0.0062 -0.4561 -0.7541
 2758SOL     OW19906   1.772   2.413   0.041 -0.3250  0.1197 -0.3153
 2758SOL    HW119907   1.867   2.419   0.032 -0.3776  1.0748 -0.1987
 2758SOL    HW219908   1.760   2.327   0.080 -1.2788  0.5492  0.3503
 2759SOL     OW19909   1.509   3.570  13.366 -0.0008  0.6265  0.2869
 2759SOL    HW119910   1.563   3.640  13.330 -1.6136  0.0619 -3.2191
 2759SOL    HW219911   1.495   3.525  13.283  0.5211  3.4450 -1.3134
 2760SOL     OW19912   1.258   4.376   3.529  0.2940 -0.0096  0.3337
 2760SOL    HW119913   1.246   4.456   3.580 -3.3123 -0.5700  0.3438
 2760SOL    HW219914   1.323   4.342   3.592  1.3333 -2.0237 -1.8301
 2761SOL     OW19915   2.264   3.113   8.263  0.0694  0.4122  0.2270
 2761SOL    HW119916   2.207   3.093   8.338 -0.5107  0.6171 -0.1554
 2761SOL    HW219917   2.331   3.170   8.301  1.1827 -1.8025  1.5765
 2762SOL     OW19918   2.390   0.241  12.904  0.8732 -0.0981 -0.4240
 2762SOL    HW119919   2.450   0.168  12.922  2.4997  0.9160 -1.6464
 2762SOL    HW219920   2.327   0.199  12.846  0.4485 -0.4311  0.2831
 2763SOL     OW19921   3.160   1.826  10.221 -0.0348 -0.0510 -0.1040
 2763SOL    HW119922   3.088   1.859  10.167 -0.0364 -0.3770 -0.3033
 2763SOL    HW219923   3.205   1.763  10.165 -1.2524 -2.1741  1.3099
 2764SOL     OW19924   1.002   1.647   2.757  0.1532 -0.1127 -0.3265
 2764SOL    HW119925   0.923   1.601   2.784 -1.1351  0.9406 -2.2672
 2764SOL    HW219926   0.961   1.724   2.718  0.6652  0.9919  1.3052
 2765SOL     OW19927   2.866   4.621   7.768 -0.1939  0.2252 -0.3904
 2765SOL    HW119928   2.951   4.613   7.727 -0.7004  3.7042 -2.0568
 2765SOL    HW219929   2.872   4.550   7.832  1.6035  0.6658 -0.0739
 2766SOL     OW19930   2.330   4.339   0.397  0.1950  0.0534 -0.1315
 2766SOL    HW119931   2.381   4.354   0.317  3.7324  0.8247  2.2824
 2766SOL    HW219932   2.384   4.273   0.440  1.8493  1.4354 -0.0935
 2767SOL     OW19933   1.189   2.804  16.042  0.5922  0.6315 -0.5281
 2767SOL    HW119934   1.237   2.721  16.040 -1.4080 -0.5448  0.4367
 2767SOL    HW219935   1.181   2.831  16.134 -0.5244 -0.3706 -0.3444
 2768SOL     OW19936   1.388   1.055   5.066 -0.2255  0.3744 -0.3661
 2768SOL    HW119937   1.304   1.012   5.084 -0.9376  1.6781 -0.5684
 2768SOL    HW219938   1.366   1.148   5.058 -2.4065 -0.1258 -0.3845
 2769SOL     OW19939   1.906   4.155   9.753  0.1865  0.0989 -0.0253
 2769SOL    HW119940   1.916   4.245   9.722  0.5312 -1.1644 -3.4694
 2769SOL    HW219941   1.813   4.158   9.775  0.4074 -0.0310  0.9688
 2770SOL     OW19942   0.540   3.307   1.593  0.3129 -0.6985  0.0302
 2770SOL    HW119943   0.522   3.394   1.628  1.4960 -0.3827 -0.1398
 2770SOL    HW219944   0.507   3.241   1.653  1.3360 -1.0800  0.1879
 2771SOL     OW19945   3.162   3.182   9.107  0.2336  0.5364  0.1262
 2771SOL    HW119946   3.247   3.155   9.140 -0.1942  0.3880  1.1027
 2771SOL    HW219947   3.103   3.181   9.182  0.2597  0.0036  0.1412
 2772SOL     OW19948   1.710   1.016   1.472  0.0635 -0.1114  0.4546
 2772SOL    HW119949   1.691   0.974   1.389  0.8914 -0.5111  0.4606
 2772SOL    HW219950   1.648   0.978   1.534 -0.8368 -0.8037 -0.8848
 2773SOL     OW19951   2.224   1.216   5.287 -0.2045 -0.1253  0.1950
 2773SOL    HW119952   2.316   1.233   5.268 -0.1235  0.7652  1.4207
 2773SOL    HW219953   2.212   1.274   5.362 -0.3001 -1.0259  0.8842
 2774SOL     OW19954   3.577   1.578   6.025 -0.1607  0.2089 -0.7950
 2774SOL    HW119955   3.588   1.508   5.960 -0.4747  0.9618 -1.6538
 2774SOL    HW219956   3.518   1.528   6.082  1.1461 -0.7399 -0.2653
 2775SOL     OW19957   4.283   3.755   7.640 -0.2090 -0.4692 -0.2393
 2775SOL    HW119958   4.344   3.823   7.667  0.2159 -0.4966 -1.1465
 2775SOL    HW219959   4.297   3.760   7.546  3.7128  2.1484  0.4859
 2776SOL     OW19960   0.219   0.788  13.992 -0.2088 -0.3267  0.3809
 2776SOL    HW119961   0.282   0.773  13.921 -0.2633  1.0999  0.0296
 2776SOL    HW219962   0.167   0.858  13.953 -1.0054 -0.9488  0.3372
 2777SOL     OW19963   3.542   2.665   6.740  0.5332  0.1730 -0.0548
 2777SOL    HW119964   3.528   2.573   6.716  0.3624  0.3166 -0.4950
 2777SOL    HW219965   3.557   2.710   6.657 -1.5237  2.3621  0.7604
 2778SOL     OW19966   1.814   3.646   2.032 -0.0160  0.2150 -0.4857
 2778SOL    HW119967   1.808   3.691   2.116  1.5091  1.6954 -1.1744
 2778SOL    HW219968   1.901   3.612   2.051 -0.3030 -0.4159 -0.3130
 2779SOL     OW19969   2.878   1.460   7.260  0.6039 -0.6369  0.4068
 2779SOL    HW119970   2.954   1.419   7.220  1.4767  0.4655  0.9341
 2779SOL    HW219971   2.880   1.544   7.214 -1.8104 -1.7415 -1.7333
 2780SOL     OW19972   1.515   2.225   7.579 -0.3301 -0.6083 -0.3772
 2780SOL    HW119973   1.506   2.315   7.612  1.6229 -1.5950  2.7562
 2780SOL    HW219974   1.609   2.212   7.587 -0.2176  0.1429 -0.4332
 2781SOL     OW19975   4.547   0.313   5.539 -0.0612  0.0366  0.1045
 2781SOL    HW119976   4.533   0.341   5.449 -0.7403 -0.5307  0.0339
 2781SOL    HW219977   4.541   0.401   5.575  1.0698  0.6515 -1.2086
 2782SOL     OW19978   1.563   3.968   6.269  0.2269 -0.2718 -0.2478
 2782SOL    HW119979   1.552   3.875   6.290  4.9533 -0.5984  0.7840
 2782SOL    HW219980   1.654   3.974   6.297  0.1003 -2.0618  0.5640
 2783SOL     OW19981   4.225   3.563   2.986 -0.0764  0.1036  0.4126
 2783SOL    HW119982   4.145   3.553   3.038 -0.8130 -1.9037 -1.0982
 2783SOL    HW219983   4.178   3.597   2.910 -1.0819  2.0293  1.8970
 2784SOL     OW19984   1.843   2.827   5.824 -0.1987  0.5204 -0.1438
 2784SOL    HW119985   1.894   2.760   5.870 -1.9332  0.6619  1.9914
 2784SOL    HW219986   1.894   2.850   5.746  0.5574  0.4933  0.3422
 2785SOL     OW19987   0.584   2.918   4.476 -0.1556 -0.1642  0.2383
 2785SOL    HW119988   0.589   2.970   4.395 -1.4941 -0.7102 -0.1978
 2785SOL    HW219989   0.675   2.895   4.495  0.0543 -0.0955 -0.6587
 2786SOL     OW19990   0.554   1.568   4.697 -0.1687  0.0225 -0.0038
 2786SOL    HW119991   0.491   1.638   4.678 -0.8182 -0.5976 -0.1605
 2786SOL    HW219992   0.632   1.603   4.654  2.1228 -3.1383  1.6099
 2787SOL     OW19993   3.215   1.588   1.663 -0.0117 -0.2543 -0.1289
 2787SOL    HW119994   3.259   1.578   1.579  0.9791  0.7946  0.2649
 2787SOL    HW219995   3.243   1.506   1.703  1.4085  0.1365 -0.3263
 2788SOL     OW19996   2.884   1.499   0.193  0.2399 -0.6794  0.8904
 2788SOL    HW119997   2.804   1.446   0.192  0.4505 -0.9888  0.8760
 2788SOL    HW219998   2.957   1.445   0.222  2.1854  0.6614 -1.5338
 2789SOL     OW19999   0.310   1.823   5.750  0.5356 -0.4248 -0.0027
 2789SOL    HW120000   0.371   1.858   5.685 -1.1429  0.0525 -1.3339
 2789SOL    HW220001   0.245   1.892   5.763  2.1803  1.3711 -1.3526
 2790SOL     OW20002   2.257   1.364   7.747 -0.4672 -0.1133  0.0374
 2790SOL    HW120003   2.214   1.395   7.827  2.2541  0.5812  1.2254
 2790SOL    HW220004   2.292   1.450   7.724 -0.3218  0.6116  2.9184
 2791SOL     OW20005   0.259   0.981  11.388  0.3140  0.2273 -0.5749
 2791SOL    HW120006   0.299   0.909  11.340 -1.4107 -0.5485 -0.8677
 2791SOL    HW220007   0.174   0.940  11.404  0.9888 -0.4624  1.2292
 2792SOL     OW20008   4.076   3.558   8.063 -0.4880  0.1407 -0.2291
 2792SOL    HW120009   4.075   3.624   7.994  2.6519  0.5326  0.1055
 2792SOL    HW220010   4.166   3.561   8.094  0.3614 -1.2298 -2.6455
 2793SOL     OW20011   0.640   1.942   6.156 -0.3469 -0.0646 -0.3632
 2793SOL    HW120012   0.596   1.885   6.093  1.2060 -0.7410 -0.8204
 2793SOL    HW220013   0.707   1.983   6.102  1.0333 -0.2709  1.2259
 2794SOL     OW20014   0.541   2.697   6.684  0.2437 -0.2867  0.0983
 2794SOL    HW120015   0.521   2.765   6.619  1.6170 -0.5183 -0.5612
 2794SOL    HW220016   0.497   2.731   6.762  0.7740 -1.1418  0.7668
 2795SOL     OW20017   1.875   2.962   1.091  0.4403 -0.0869  0.2524
 2795SOL    HW120018   1.834   2.978   1.176  3.1184 -1.4514  1.7880
 2795SOL    HW220019   1.856   3.041   1.040 -0.2162 -0.5474 -0.2273
 2796SOL     OW20020   1.649   1.267   9.912  0.3391  0.9916 -1.2194
 2796SOL    HW120021   1.680   1.315   9.988  0.0425  1.0793 -1.1546
 2796SOL    HW220022   1.700   1.187   9.915 -2.6627 -0.8558  0.2559
 2797SOL     OW20023   0.988   1.940   9.475 -0.0443 -0.6621  0.3436
 2797SOL    HW120024   0.978   1.978   9.563 -1.4529  1.5655 -0.7991
 2797SOL    HW220025   0.895   1.919   9.467 -0.0009 -0.9450  0.5611
 2798SOL     OW20026   2.171   3.040   8.509 -0.9216  0.0065 -0.0092
 2798SOL    HW120027   2.216   2.965   8.547 -3.4104 -1.1390  0.6523
 2798SOL    HW220028   2.078   3.023   8.524 -0.7213  0.6233  1.9924
 2799SOL     OW20029   1.649   1.683  16.468 -0.2316 -0.2779  0.4491
 2799SOL    HW120030   1.612   1.729  16.393 -0.4196 -0.7535  0.2477
 2799SOL    HW220031   1.706   1.615  16.433  0.8969  0.8548  0.0911
 2800SOL     OW20032   1.273   2.718   4.282  0.4047  0.0389  0.4440
 2800SOL    HW120033   1.191   2.688   4.320 -0.4913  1.8410 -0.0769
 2800SOL    HW220034   1.325   2.741   4.359 -0.2929  0.6186  0.7488
 2801SOL     OW20035   2.701   2.673   4.791  0.0126 -0.4520  1.0619
 2801SOL    HW120036   2.792   2.649   4.804  0.3502  1.1044  1.5663
 2801SOL    HW220037   2.703   2.763   4.758  0.2366 -0.4858  0.9876
 2802SOL     OW20038   2.513   2.826  16.369  0.7839  0.1948  0.4497
 2802SOL    HW120039   2.516   2.802  16.276 -0.2421 -1.0368  0.7327
 2802SOL    HW220040   2.423   2.817  16.401  0.3475  1.8491 -0.3217
 2803SOL     OW20041   1.113   3.345   6.238  0.0469 -0.2542  0.0183
 2803SOL    HW120042   1.053   3.419   6.241 -1.5231 -1.4464 -1.5007
 2803SOL    HW220043   1.136   3.339   6.331  0.2610  1.4846  0.0652
 2804SOL     OW20044   0.689   4.214   8.961  0.1499  0.1855 -0.1189
 2804SOL    HW120045   0.605   4.230   9.005 -0.3289  1.1645 -1.4085
 2804SOL    HW220046   0.702   4.302   8.926 -1.2228  0.8960  1.1296
 2805SOL     OW20047   1.001   2.736   5.508 -0.0928 -0.1862  0.5941
 2805SOL    HW120048   0.922   2.686   5.530  0.0326 -1.1594 -1.1525
 2805SOL    HW220049   0.987   2.820   5.551  0.4221  0.5549 -0.6705
 2806SOL     OW20050   0.052   4.210   7.798  0.4435  0.2491 -0.3594
 2806SOL    HW120051   4.734   4.253   7.732 -0.3424 -0.0109  0.1350
 2806SOL    HW220052   0.139   4.249   7.784  0.3722  0.9349  1.0761
 2807SOL     OW20053   4.647   0.201  10.609  0.3774 -0.2428 -0.2707
 2807SOL    HW120054   4.613   0.191  10.698 -0.7889 -1.8830 -0.8760
 2807SOL    HW220055   4.654   0.296  10.606  2.2374 -0.3545  1.0896
 2808SOL     OW20056   3.105   4.487   7.223 -0.6601  0.7351  0.2276
 2808SOL    HW120057   3.085   4.408   7.172  0.8461 -0.6482  1.8125
 2808SOL    HW220058   3.030   4.544   7.205  0.8460  2.4543 -0.6068
 2809SOL     OW20059   4.444   2.630   9.674  0.4529  0.4806 -0.2816
 2809SOL    HW120060   4.507   2.628   9.746  0.1520  2.0800  0.0181
 2809SOL    HW220061   4.490   2.580   9.607 -0.4241  0.0490 -0.5534
 2810SOL     OW20062   0.711   2.605   0.810  0.1874  0.0341  0.3143
 2810SOL    HW120063   0.754   2.525   0.840 -2.3660 -0.5141  2.4874
 2810SOL    HW220064   0.762   2.670   0.859  1.2931  0.1548 -0.9902
 2811SOL     OW20065   3.225   4.221   1.339 -0.0996 -0.8627  0.2796
 2811SOL    HW120066   3.260   4.132   1.342  0.6806 -0.5493  0.5370
 2811SOL    HW220067   3.146   4.201   1.389  0.3624  0.8744  1.7043
 2812SOL     OW20068   2.979   4.502   7.496 -0.1722 -0.1858  0.5127
 2812SOL    HW120069   2.885   4.514   7.504 -0.0059  1.2886  0.3386
 2812SOL    HW220070   2.990   4.531   7.406  0.8624  0.3674  0.8119
 2813SOL     OW20071   1.221   0.588  16.254  0.0793  0.1092  0.6632
 2813SOL    HW120072   1.230   0.563  16.346  0.9437  0.9363  0.7995
 2813SOL    HW220073   1.129   0.615  16.252 -0.1762 -0.8295 -0.4467
 2814SOL     OW20074   1.589   3.539   1.896 -0.6085  0.0568  0.4742
 2814SOL    HW120075   1.663   3.557   1.954 -0.3626  0.0625  0.1586
 2814SOL    HW220076   1.517   3.587   1.939 -0.9589 -0.1920  0.1661
 2815SOL     OW20077   1.966   1.401   6.601 -0.0375  0.5940 -0.1488
 2815SOL    HW120078   2.056   1.424   6.578  0.6005 -0.6465  1.1365
 2815SOL    HW220079   1.926   1.381   6.516 -1.9333 -0.0107  0.8799
 2816SOL     OW20080   0.033   4.040  15.772  0.8995 -0.2842 -0.7231
 2816SOL    HW120081   4.710   4.068  15.842  0.1463 -1.9750 -0.6909
 2816SOL    HW220082   0.098   3.987  15.817  0.0192 -0.8901 -0.1470
 2817SOL     OW20083   2.151   1.915   7.368  0.4240  0.2266  0.2875
 2817SOL    HW120084   2.066   1.917   7.323 -0.0531 -2.2591  1.1090
 2817SOL    HW220085   2.194   1.845   7.320  0.5268 -2.0603  3.7431
 2818SOL     OW20086   3.361   3.460   7.627  0.2689 -0.0208  0.2442
 2818SOL    HW120087   3.371   3.544   7.582  0.4332  0.4056  1.0547
 2818SOL    HW220088   3.416   3.470   7.705 -0.0759  0.8901  0.3710
 2819SOL     OW20089   2.250   4.506   0.094 -0.2333  0.2484  0.6449
 2819SOL    HW120090   2.172   4.484   0.043  0.0102  2.8715 -0.8751
 2819SOL    HW220091   2.319   4.462   0.044 -2.0569 -3.5129  1.4339
 2820SOL     OW20092   4.331   1.659   3.480 -0.2484  0.2104 -0.4082
 2820SOL    HW120093   4.395   1.675   3.549 -0.1816  0.9016 -0.6350
 2820SOL    HW220094   4.256   1.628   3.530 -0.0349  1.4566  0.6858
 2821SOL     OW20095   2.489   0.282   9.169  0.3610  0.0648 -0.6093
 2821SOL    HW120096   2.576   0.298   9.204 -0.4026  1.0619  0.8673
 2821SOL    HW220097   2.464   0.197   9.205  3.6375 -0.2588  0.8152
 2822SOL     OW20098   2.483   3.346   1.922 -0.4461  0.1449 -0.1657
 2822SOL    HW120099   2.529   3.276   1.967  1.1429  0.7079 -0.9197
 2822SOL    HW220100   2.488   3.420   1.983 -0.8700 -1.5381  1.9086
 2823SOL     OW20101   4.230   2.567   7.262 -0.7196  0.3695 -0.5095
 2823SOL    HW120102   4.294   2.610   7.318 -0.4219  0.9607 -1.2988
 2823SOL    HW220103   4.279   2.581   7.181 -0.1527  0.2312 -0.1862
 2824SOL     OW20104   0.438   3.574   5.030  0.3435 -0.6895  0.0577
 2824SOL    HW120105   0.479   3.553   4.946  1.4008 -0.5527  0.5372
 2824SOL    HW220106   0.352   3.584   4.989  0.7439  2.6820  0.0412
 2825SOL     OW20107   3.075   2.527   8.286  0.2479  0.1715 -0.0135
 2825SOL    HW120108   3.137   2.585   8.241 -1.7855  0.2058 -2.7759
 2825SOL    HW220109   3.002   2.588   8.295  0.3337  0.6223 -2.2421
 2826SOL     OW20110   4.556   1.714   5.387 -0.0771  0.5910 -0.2845
 2826SOL    HW120111   4.501   1.668   5.450 -0.5365 -0.0539 -1.1640
 2826SOL    HW220112   4.641   1.722   5.431  1.8539 -2.4582 -3.4200
 2827SOL     OW20113   2.988   3.494  13.352 -0.3084  0.1546 -0.5366
 2827SOL    HW120114   3.002   3.477  13.445 -1.2172 -0.7028 -0.5584
 2827SOL    HW220115   2.913   3.437  13.337 -2.3333  2.2021  1.8162
 2828SOL     OW20116   0.965   4.177   9.446  0.1061 -0.0781 -0.0519
 2828SOL    HW120117   0.897   4.213   9.388 -1.5370  0.4027  2.1608
 2828SOL    HW220118   0.991   4.261   9.486  0.6761 -0.4326  0.3132
 2829SOL     OW20119   3.613   1.944   3.303 -0.0052 -0.5576 -0.3552
 2829SOL    HW120120   3.624   1.866   3.358  0.3679 -0.8967 -0.9009
 2829SOL    HW220121   3.578   1.904   3.223  0.8892 -1.9183 -0.0745
 2830SOL     OW20122   0.437   4.005   2.549 -0.2206 -0.1214 -0.8153
 2830SOL    HW120123   0.471   3.956   2.623  0.5368  0.6605 -0.6453
 2830SOL    HW220124   0.521   4.035   2.513 -0.6543 -0.2709 -1.9641
 2831SOL     OW20125   3.292   1.341   4.374  0.3661  0.0125 -0.0353
 2831SOL    HW120126   3.375   1.372   4.338  1.2655  0.9669  2.8291
 2831SOL    HW220127   3.276   1.412   4.435  1.0930  1.1231 -1.1555
 2832SOL     OW20128   1.601   1.070  15.841 -0.4595 -0.1485  0.4670
 2832SOL    HW120129   1.526   1.064  15.781  0.3847  0.5379 -0.6677
 2832SOL    HW220130   1.669   1.026  15.790 -0.7704  0.4448 -0.4643
 2833SOL     OW20131   3.672   2.777   9.538 -0.0565 -0.0155  0.0338
 2833SOL    HW120132   3.622   2.740   9.610 -0.5404  0.7787  0.1050
 2833SOL    HW220133   3.756   2.730   9.538 -1.3588 -2.3046  1.3021
 2834SOL     OW20134   3.988   0.569   6.242  1.1450 -0.3100  0.0863
 2834SOL    HW120135   3.969   0.515   6.319 -0.1842  0.8115  0.5411
 2834SOL    HW220136   4.043   0.510   6.190 -0.8623 -0.8096 -1.4411
 2835SOL     OW20137   1.947   3.003   4.878  1.1575  0.3911  0.6660
 2835SOL    HW120138   2.025   2.948   4.879 -0.2705 -1.6239  2.5573
 2835SOL    HW220139   1.902   2.986   4.961 -0.8987 -1.4639 -0.8123
 2836SOL     OW20140   2.350   0.756   8.383  0.0205  0.0354  0.5527
 2836SOL    HW120141   2.297   0.690   8.429 -1.8832  1.3153  0.2064
 2836SOL    HW220142   2.288   0.829   8.392 -0.1809 -0.1311  0.5333
 2837SOL     OW20143   3.188   2.387  14.653  0.3862 -0.1118  0.2429
 2837SOL    HW120144   3.149   2.426  14.731 -0.5107  0.6493 -0.5899
 2837SOL    HW220145   3.146   2.301  14.654 -1.1803  0.6435  0.0496
 2838SOL     OW20146   4.103   0.568  17.714 -0.6192 -0.2234 -0.5507
 2838SOL    HW120147   4.103   0.490  17.659 -0.4515 -1.3248  1.0340
 2838SOL    HW220148   4.051   0.628  17.660 -0.8024 -1.3773 -1.6559
 2839SOL     OW20149   0.704   2.662   8.191  0.2832 -0.4290 -0.2417
 2839SOL    HW120150   0.754   2.629   8.265  1.0919  1.0724 -0.1274
 2839SOL    HW220151   0.620   2.693   8.226  0.4482 -2.8884  2.3123
 2840SOL     OW20152   1.221   0.828   4.112  0.4370 -0.3079 -0.2181
 2840SOL    HW120153   1.240   0.784   4.029 -0.4360 -1.9290  0.4466
 2840SOL    HW220154   1.176   0.751   4.148  1.8823  0.0804  2.4022
 2841SOL     OW20155   3.311   1.308   6.843  0.3486  0.2972 -0.1935
 2841SOL    HW120156   3.291   1.388   6.891 -1.8465  0.0625 -0.7243
 2841SOL    HW220157   3.402   1.290   6.864  0.2805  0.0197 -0.1286
 2842SOL     OW20158   0.994   1.500   4.729  0.2444  0.3518  0.2949
 2842SOL    HW120159   1.051   1.567   4.767  0.3315 -0.7919  2.1966
 2842SOL    HW220160   0.973   1.443   4.803  3.3127  0.6132  1.3621
 2843SOL     OW20161   3.569   1.896  10.397 -0.5380 -0.1627  0.0366
 2843SOL    HW120162   3.488   1.943  10.379  0.2858  0.2879 -2.4643
 2843SOL    HW220163   3.544   1.823  10.454  0.5571 -1.1927 -0.8137
 2844SOL     OW20164   1.972   2.605   5.906 -0.3425  0.0907  0.2342
 2844SOL    HW120165   1.982   2.582   5.814 -0.7624 -0.1717  0.2532
 2844SOL    HW220166   1.906   2.543   5.937 -0.3641  1.2939  2.6379
 2845SOL     OW20167   0.246   1.844   8.800  0.2925  0.1872  0.1906
 2845SOL    HW120168   0.249   1.792   8.880  2.4534 -1.0000 -0.6490
 2845SOL    HW220169   0.226   1.933   8.830 -2.5876 -0.3105 -0.3243
 2846SOL     OW20170   3.049   1.272   6.921 -0.0321 -0.2382  0.0550
 2846SOL    HW120171   3.138   1.274   6.886 -0.6170 -1.3664 -1.5007
 2846SOL    HW220172   3.001   1.302   6.843  0.6251  1.5959  0.3467
 2847SOL     OW20173   4.123   1.038   3.592  0.3143 -0.4144 -0.2092
 2847SOL    HW120174   4.061   1.022   3.663 -0.9892 -1.1396 -1.5039
 2847SOL    HW220175   4.204   1.044   3.642  0.7501 -1.1532 -0.8152
 2848SOL     OW20176   1.510   1.936  11.608  0.1603 -0.4495 -0.2624
 2848SOL    HW120177   1.464   1.888  11.676  0.0531  1.3814  0.9694
 2848SOL    HW220178   1.483   1.885  11.532 -2.0954 -0.1836  0.3908
 2849SOL     OW20179   4.212   2.802   3.607 -0.1494 -0.2823  0.4341
 2849SOL    HW120180   4.207   2.879   3.663  0.4996 -0.7858  1.1784
 2849SOL    HW220181   4.217   2.849   3.523  1.0206 -0.1800  0.5542
 2850SOL     OW20182   4.181   3.647   6.702  0.1077  0.0202  0.1189
 2850SOL    HW120183   4.230   3.696   6.636  1.7851 -2.0252 -0.1764
 2850SOL    HW220184   4.108   3.703   6.725 -0.4812 -1.0540  0.8588
 2851SOL     OW20185   0.168   3.093   8.583  0.6031 -0.0911 -0.0410
 2851SOL    HW120186   0.106   3.160   8.554  1.4168 -0.2707 -2.1915
 2851SOL    HW220187   0.253   3.121   8.551  0.8093 -1.4338 -0.6503
 2852SOL     OW20188   3.716   2.850   9.176 -0.2711 -0.2806  0.1432
 2852SOL    HW120189   3.807   2.827   9.192  0.2088  1.9695  0.7131
 2852SOL    HW220190   3.712   2.831   9.082 -0.9825 -1.6601  0.4574
 2853SOL     OW20191   2.852   0.376   8.793  0.2573 -0.2192 -0.3785
 2853SOL    HW120192   2.772   0.324   8.780  0.8630 -0.7859 -1.8583
 2853SOL    HW220193   2.819   0.450   8.743 -2.0267  0.4894  2.1510
 2854SOL     OW20194   0.781   4.527  16.198  0.4364 -0.5549 -0.2822
 2854SOL    HW120195   0.851   4.463  16.208 -0.4110 -1.5907 -1.0372
 2854SOL    HW220196   0.808   4.607  16.244  1.1425 -0.8016 -0.2798
 2855SOL     OW20197   1.606   3.220  12.482 -0.3661  0.3141  0.1677
 2855SOL    HW120198   1.659   3.300  12.477 -3.3266  2.2134 -0.5254
 2855SOL    HW220199   1.664   3.157  12.438  0.4150  1.9336 -1.1223
 2856SOL     OW20200   1.643   1.275   6.706 -0.2394 -0.3205  0.0503
 2856SOL    HW120201   1.644   1.323   6.623  1.8329 -1.3222 -0.4997
 2856SOL    HW220202   1.728   1.308   6.735 -0.7954  1.6280 -0.5116
 2857SOL     OW20203   2.661   3.839   5.478  0.8286  0.4810  0.5925
 2857SOL    HW120204   2.652   3.799   5.391 -1.7955  4.1921 -0.8349
 2857SOL    HW220205   2.628   3.925   5.454  0.1022  0.1855  0.5502
 2858SOL     OW20206   0.521   3.444   4.133  0.0245 -0.3731  0.0977
 2858SOL    HW120207   0.541   3.488   4.215 -0.6093 -0.8563  0.5106
 2858SOL    HW220208   0.465   3.513   4.099  0.5319  0.2681  0.5716
 2859SOL     OW20209   3.129   2.080   7.512 -0.5324 -0.1910  0.2926
 2859SOL    HW120210   3.178   2.063   7.593 -0.1883 -1.6579 -0.2101
 2859SOL    HW220211   3.058   2.020   7.536 -0.3288 -0.5423  0.0171
 2860SOL     OW20212   2.683   3.679   1.991 -0.6560 -0.6761  0.3489
 2860SOL    HW120213   2.691   3.679   2.086 -0.1310  1.5761  0.3056
 2860SOL    HW220214   2.738   3.607   1.960  2.3936  2.3395 -1.2866
 2861SOL     OW20215   1.111   1.021  11.294  0.1218  0.1476 -0.0058
 2861SOL    HW120216   1.137   0.952  11.355 -2.3557 -1.2402 -0.5148
 2861SOL    HW220217   1.195   1.065  11.306 -0.0090  0.6615 -0.9724
 2862SOL     OW20218   1.125   0.789   1.598  0.2721 -0.1732  0.0074
 2862SOL    HW120219   1.076   0.858   1.643  1.0209  1.3504 -1.4716
 2862SOL    HW220220   1.170   0.844   1.533 -2.3259 -0.6923 -2.2254
 2863SOL     OW20221   4.333   2.263   6.634  0.3102  0.2717 -0.0829
 2863SOL    HW120222   4.387   2.323   6.686 -1.4291  1.4921  0.3532
 2863SOL    HW220223   4.392   2.192   6.609  0.6564 -0.1806  1.9596
 2864SOL     OW20224   0.599   1.683   8.296  0.5566  0.3027 -0.1578
 2864SOL    HW120225   0.527   1.684   8.233  0.7523  1.3788 -0.3551
 2864SOL    HW220226   0.594   1.773   8.326  0.2733  0.7498 -1.5542
 2865SOL     OW20227   0.678   2.034  14.151 -0.3731 -0.3498  0.0875
 2865SOL    HW120228   0.677   1.949  14.196  2.3853 -0.9116 -0.8643
 2865SOL    HW220229   0.771   2.058  14.146  0.1470 -2.2939  0.1064
 2866SOL     OW20230   3.096   2.072   8.463 -0.0982  0.2178 -0.0337
 2866SOL    HW120231   3.002   2.087   8.452 -0.8477 -3.4886  1.1206
 2866SOL    HW220232   3.100   2.093   8.557  0.4128  1.8191 -0.4192
 2867SOL     OW20233   1.652   3.222   2.965  0.0332 -0.0307  0.2276
 2867SOL    HW120234   1.581   3.263   3.015  0.3033 -0.8412  1.2805
 2867SOL    HW220235   1.691   3.187   3.045  1.0275 -2.5576 -1.3783
 2868SOL     OW20236   3.959   1.756  15.919  0.3909 -0.1231 -0.3632
 2868SOL    HW120237   4.027   1.714  15.971 -1.1302 -2.0174  0.0932
 2868SOL    HW220238   3.965   1.848  15.943  1.5386 -0.5710  1.0424
 2869SOL     OW20239   3.725   2.903   9.960 -0.1876 -0.3756 -0.5396
 2869SOL    HW120240   3.673   2.973  10.000 -3.0073 -1.1680 -2.7526
 2869SOL    HW220241   3.775   2.863  10.030  0.9501  3.2113  0.6763
 2870SOL     OW20242   2.239   3.588   7.758  0.0229 -0.2686  0.1259
 2870SOL    HW120243   2.298   3.570   7.685 -2.1920 -0.7219 -1.5702
 2870SOL    HW220244   2.242   3.504   7.804 -2.6816  0.1038  1.0079
 2871SOL     OW20245   2.764   1.433   2.720 -0.2748 -0.0418  0.0211
 2871SOL    HW120246   2.793   1.518   2.689  2.8008 -1.2248 -0.2925
 2871SOL    HW220247   2.697   1.457   2.785 -1.3615  0.8370 -1.4216
 2872SOL     OW20248   0.830   4.612   7.059 -0.3040 -0.2016  0.3115
 2872SOL    HW120249   0.790   4.663   6.989 -1.6146 -1.8725 -0.1456
 2872SOL    HW220250   0.800   4.655   7.140 -2.9045 -2.5238  0.5710
 2873SOL     OW20251   0.628   1.932   1.834 -0.3845 -0.0142 -0.8089
 2873SOL    HW120252   0.664   1.988   1.902  0.0143 -1.0117 -0.2028
 2873SOL    HW220253   0.665   1.986   1.764  0.7552 -2.4963 -2.1038
 2874SOL     OW20254   1.516   4.502  11.683  0.2467  0.1970 -0.4629
 2874SOL    HW120255   1.540   4.577  11.736 -0.2904  0.3057 -0.3708
 2874SOL    HW220256   1.434   4.478  11.728  0.3881  0.6001  0.0114
 2875SOL     OW20257   1.405   1.868   7.260  0.0909  0.2826 -0.7521
 2875SOL    HW120258   1.474   1.919   7.216 -1.1795 -0.1640 -3.2379
 2875SOL    HW220259   1.415   1.892   7.352  0.4050 -0.3435 -0.6207
 2876SOL     OW20260   1.069   4.045  16.550 -0.2186 -0.0898 -0.1889
 2876SOL    HW120261   1.055   3.976  16.615  2.4103 -1.8298 -1.4529
 2876SOL    HW220262   1.089   4.107  16.620  0.3067 -2.4236  1.6986
 2877SOL     OW20263   1.720   3.719   7.104  0.1212  0.0557 -0.1709
 2877SOL    HW120264   1.806   3.677   7.108 -1.2296 -2.4786  1.6233
 2877SOL    HW220265   1.749   3.810   7.093 -0.3140  0.1913 -0.2173
 2878SOL     OW20266   3.053   0.833   4.456 -0.0510 -0.8104  0.2880
 2878SOL    HW120267   2.976   0.858   4.405  0.0527  0.3763  0.7169
 2878SOL    HW220268   3.123   0.878   4.410 -1.2397  0.3886 -0.3282
 2879SOL     OW20269   0.977   3.596  16.601 -0.1008 -0.5405 -0.0206
 2879SOL    HW120270   0.941   3.576  16.515 -1.9008 -0.5247  0.7369
 2879SOL    HW220271   0.914   3.549  16.656  0.3085 -0.0830  0.8496
 2880SOL     OW20272   1.103   3.746  15.974  0.0932  0.0881 -0.1349
 2880SOL    HW120273   1.152   3.690  15.914 -0.6344 -0.5912 -0.1031
 2880SOL    HW220274   1.052   3.804  15.917  2.2960  1.1878 -0.9724
 2881SOL     OW20275   2.829   1.179   3.601 -0.6720 -0.5544  0.1965
 2881SOL    HW120276   2.859   1.103   3.651 -0.0051  0.0132  0.6705
 2881SOL    HW220277   2.813   1.236   3.677  1.3342  0.9988 -0.5634
 2882SOL     OW20278   4.519   0.645  17.423  0.1194 -0.4053 -0.0469
 2882SOL    HW120279   4.562   0.694  17.353  2.2973  1.2525  2.4564
 2882SOL    HW220280   4.598   0.634  17.476  0.0312 -2.1096 -0.2668
 2883SOL     OW20281   4.657   2.262   8.594  0.0869  0.1717  0.1468
 2883SOL    HW120282   4.664   2.209   8.514  1.8197  3.3542 -1.8232
 2883SOL    HW220283   4.682   2.205   8.666  1.8347  0.4191 -0.2694
 2884SOL     OW20284   3.914   1.091   3.221 -0.0163 -0.9108 -0.0605
 2884SOL    HW120285   3.902   1.143   3.301 -1.9110 -1.2603 -0.1291
 2884SOL    HW220286   4.008   1.104   3.204  0.4523 -3.8890  0.2596
 2885SOL     OW20287   4.579   0.790   8.048 -0.4977 -0.4396  0.3235
 2885SOL    HW120288   4.533   0.706   8.045 -1.1937 -0.0121 -0.7213
 2885SOL    HW220289   4.539   0.838   8.120  0.0274  1.0775 -0.4018
 2886SOL     OW20290   2.021   2.082   9.292  0.2705 -0.1760 -0.3835
 2886SOL    HW120291   2.066   2.164   9.313 -0.3950 -0.4550  2.1227
 2886SOL    HW220292   1.947   2.110   9.237 -0.5730 -1.0855  0.3008
 2887SOL     OW20293   3.392   4.234   1.603  0.5678  0.2790 -1.0988
 2887SOL    HW120294   3.326   4.283   1.554 -1.2070 -1.5279 -0.4695
 2887SOL    HW220295   3.422   4.174   1.535  1.2374  0.5860 -1.0782
 2888SOL     OW20296   2.495   2.194  11.480 -0.6443  0.5552  0.5867
 2888SOL    HW120297   2.506   2.128  11.548 -0.0620  0.3285  0.2665
 2888SOL    HW220298   2.582   2.233  11.470 -0.6218  0.3998  0.1939
 2889SOL     OW20299   0.070   3.431  10.483  0.3541 -0.0209 -0.2636
 2889SOL    HW120300   0.047   3.347  10.443 -2.0850  2.0921 -3.3421
 2889SOL    HW220301   4.733   3.488  10.457  0.4996  0.0716 -0.4672
 2890SOL     OW20302   0.438   2.873   1.881 -0.3985  0.2055 -0.5050
 2890SOL    HW120303   0.411   2.782   1.893  0.2551  0.1081  0.2004
 2890SOL    HW220304   0.471   2.887   1.969 -0.0961  1.8019 -0.8678
 2891SOL     OW20305   0.890   0.624  12.848 -0.2528 -0.2810 -0.5072
 2891SOL    HW120306   0.836   0.692  12.808 -2.3422 -0.9894  1.1295
 2891SOL    HW220307   0.889   0.655  12.939 -0.4835 -2.2589  0.1630
 2892SOL     OW20308   0.273   0.517  13.258 -0.1917 -0.8612  0.3058
 2892SOL    HW120309   0.357   0.558  13.236 -0.5381 -0.2738  0.0984
 2892SOL    HW220310   0.214   0.590  13.245  0.7671  0.0492  1.0537
 2893SOL     OW20311   4.627   3.722   3.465 -0.5942 -0.1659 -0.3507
 2893SOL    HW120312   4.636   3.633   3.433 -1.2827 -0.1564 -0.5562
 2893SOL    HW220313   4.541   3.705   3.502 -1.1732  2.5411 -0.4391
 2894SOL     OW20314   1.760   1.584   6.691  0.3803 -0.1254  0.0539
 2894SOL    HW120315   1.689   1.584   6.628  0.5046 -0.2895 -0.0877
 2894SOL    HW220316   1.832   1.535   6.651 -0.8578 -2.1454  0.2692
 2895SOL     OW20317   0.451   1.021   1.691 -0.2029  0.2665  0.3030
 2895SOL    HW120318   0.409   1.067   1.619 -1.4679 -0.4504  0.5858
 2895SOL    HW220319   0.425   1.079   1.763 -3.0035 -0.0058 -0.5118
 2896SOL     OW20320   1.904   1.609   5.740  0.1850  0.0677  0.2798
 2896SOL    HW120321   1.891   1.704   5.733 -1.2240  0.0244  2.2289
 2896SOL    HW220322   1.986   1.613   5.789  0.3973  1.1871 -0.1535
 2897SOL     OW20323   3.738   0.099   7.393 -0.3220  0.2780 -0.3389
 2897SOL    HW120324   3.817   0.129   7.437 -0.6836  1.0968 -0.2614
 2897SOL    HW220325   3.766   0.100   7.301  1.0786  1.4119  0.1244
 2898SOL     OW20326   3.411   1.769  15.063 -0.4425 -0.2349  0.2067
 2898SOL    HW120327   3.385   1.682  15.093 -1.0782 -0.1464 -0.0891
 2898SOL    HW220328   3.444   1.746  14.976 -1.9871 -1.5933 -0.0168
 2899SOL     OW20329   3.121   0.017   7.662  0.1597  0.1921 -0.2554
 2899SOL    HW120330   3.151   4.736   7.573  0.0504  0.0332 -0.2607
 2899SOL    HW220331   3.162   4.679   7.706 -2.0986 -0.9394 -0.0994
 2900SOL     OW20332   1.776   2.666  14.989  0.0821 -0.0961 -0.2726
 2900SOL    HW120333   1.862   2.625  14.978  0.9494  0.8988  2.8155
 2900SOL    HW220334   1.760   2.708  14.904  1.4284  1.0254  0.0360
 2901SOL     OW20335   3.435   1.823   4.659  0.1667  0.5323 -0.5544
 2901SOL    HW120336   3.380   1.858   4.589 -1.1790 -0.5546 -0.0409
 2901SOL    HW220337   3.375   1.794   4.728  1.6573 -0.4843  0.3331
 2902SOL     OW20338   1.361   4.071   3.495  0.2016 -0.6757  0.2872
 2902SOL    HW120339   1.368   4.077   3.400 -2.2052  0.5679  0.1830
 2902SOL    HW220340   1.269   4.097   3.501  1.0680  2.1792  1.0646
 2903SOL     OW20341   4.453   0.981   3.128 -0.4035 -0.1600  0.6135
 2903SOL    HW120342   4.543   0.951   3.141 -0.4371  0.5201  2.3860
 2903SOL    HW220343   4.476   1.059   3.077 -0.5928 -0.6366 -0.2014
 2904SOL     OW20344   0.643   3.672   3.748  0.3834  0.2545 -0.5647
 2904SOL    HW120345   0.723   3.640   3.791  0.6982  0.4106 -1.0379
 2904SOL    HW220346   0.665   3.758   3.712  1.9462  1.3407  2.9990
 2905SOL     OW20347   2.253   0.890   4.121  0.2777  0.1156 -0.1521
 2905SOL    HW120348   2.263   0.816   4.061  0.7750  1.3843 -1.6378
 2905SOL    HW220349   2.280   0.844   4.201 -1.8285  0.5920  0.8405
 2906SOL     OW20350   3.993   0.318   5.845 -0.1019 -0.4796 -0.3465
 2906SOL    HW120351   4.055   0.359   5.905  1.1604 -1.9857 -0.5952
 2906SOL    HW220352   3.923   0.381   5.858  0.9335  0.5409  0.2765
 2907SOL     OW20353   2.595   4.062   3.102 -0.5511  0.6127  0.1675
 2907SOL    HW120354   2.605   4.134   3.040 -0.8346  1.4754  1.1260
 2907SOL    HW220355   2.549   4.099   3.178 -1.7325  0.3272 -0.4131
 2908SOL     OW20356   4.673   1.227   8.413  0.0966 -0.3150  0.3087
 2908SOL    HW120357   4.665   1.322   8.422  0.5073  0.0904 -3.4985
 2908SOL    HW220358   4.588   1.200   8.448  0.2281 -1.5929 -0.3345
 2909SOL     OW20359   2.837   0.558   2.836 -0.1394 -0.2245  0.1116
 2909SOL    HW120360   2.896   0.506   2.890 -2.2408 -0.8795  1.7763
 2909SOL    HW220361   2.862   0.505   2.761  1.6390 -1.5213  1.6275
 2910SOL     OW20362   2.682   2.702   9.609  0.5373  0.3680  0.3023
 2910SOL    HW120363   2.755   2.664   9.559  0.0239  1.0123 -0.9465
 2910SOL    HW220364   2.740   2.755   9.663  2.0697 -0.4011 -0.5731
 2911SOL     OW20365   2.223   0.265   5.317  0.4245 -0.1818  0.6564
 2911SOL    HW120366   2.298   0.215   5.350  1.7132  0.4441 -1.3008
 2911SOL    HW220367   2.261   0.302   5.237 -2.1520 -2.2568 -1.5119
 2912SOL     OW20368   0.233   1.994   1.270  0.4978  0.6185  0.1388
 2912SOL    HW120369   0.150   2.038   1.252 -0.6198 -0.7958  1.8134
 2912SOL    HW220370   0.258   1.965   1.183 -0.8249  1.6032 -0.5673
 2913SOL     OW20371   2.241   4.479   9.503  0.0096  0.1951 -0.2213
 2913SOL    HW120372   2.222   4.524   9.421  0.1380 -1.5343 -1.1913
 2913SOL    HW220373   2.298   4.537   9.554  2.1436 -1.6363 -0.4978
 2914SOL     OW20374   2.308   3.110   6.330 -0.2288 -0.5273 -0.1231
 2914SOL    HW120375   2.283   3.019   6.312  1.5868 -0.6347 -2.0394
 2914SOL    HW220376   2.402   3.099   6.341 -0.4967 -0.2574  2.5985
 2915SOL     OW20377   2.779   3.299   7.045 -0.4536 -0.6001  0.2962
 2915SOL    HW120378   2.794   3.335   7.132 -1.4314 -1.7197  0.9418
 2915SOL    HW220379   2.802   3.208   7.066  1.3534  0.0126  0.9024
 2916SOL     OW20380   4.499   1.286   0.566 -0.0274  0.1045  0.7403
 2916SOL    HW120381   4.582   1.252   0.532  0.4348 -0.0413  2.0074
 2916SOL    HW220382   4.525   1.304   0.656 -0.9172 -1.3705  1.3041
 2917SOL     OW20383   0.946   0.751   7.909  0.3145 -0.4004 -0.1731
 2917SOL    HW120384   0.859   0.789   7.918 -0.1929 -1.9469  1.5046
 2917SOL    HW220385   0.943   0.689   7.982 -1.7362 -1.7092 -1.3323
 2918SOL     OW20386   1.675   3.766   5.437  0.0685  0.1722  0.1041
 2918SOL    HW120387   1.655   3.673   5.424 -0.5671  0.1221  1.4722
 2918SOL    HW220388   1.601   3.794   5.491 -1.0597  0.1662 -1.4546
 2919SOL     OW20389   0.841   3.658   5.800  0.5789  0.1665  0.6945
 2919SOL    HW120390   0.852   3.651   5.894 -0.7780 -1.6489  0.6968
 2919SOL    HW220391   0.935   3.664   5.780  0.6468 -2.0894  0.3086
 2920SOL     OW20392   1.593   1.417   4.704  0.1978  0.3697  0.2173
 2920SOL    HW120393   1.632   1.349   4.649  1.0292 -0.2438  1.5699
 2920SOL    HW220394   1.667   1.478   4.699 -1.9728  2.8071 -1.6895
 2921SOL     OW20395   2.771   2.179   6.597  0.3571  0.1339  0.5918
 2921SOL    HW120396   2.783   2.222   6.682 -1.5640 -1.2950  1.6028
 2921SOL    HW220397   2.844   2.216   6.547  1.7323 -2.5114  0.6628
 2922SOL     OW20398   1.509   0.895   1.617 -0.4068 -0.6026 -0.0901
 2922SOL    HW120399   1.426   0.904   1.570  0.5714 -1.5679 -1.9968
 2922SOL    HW220400   1.475   0.834   1.683  2.8307 -0.0404  2.0963
 2923SOL     OW20401   0.762   0.235  13.617 -0.0077  0.7174 -0.2847
 2923SOL    HW120402   0.832   0.300  13.615  0.6617  0.0645  2.2691
 2923SOL    HW220403   0.741   0.214  13.708  1.3116 -0.8825 -0.3743
 2924SOL     OW20404   2.996   3.888   3.599 -0.1355 -0.1110 -0.2206
 2924SOL    HW120405   2.908   3.850   3.592 -1.5680  2.7516  2.1273
 2924SOL    HW220406   3.048   3.808   3.601  1.3526  0.8855  0.2150
 2925SOL     OW20407   4.115   2.873   5.667  0.4234 -0.3902  0.0251
 2925SOL    HW120408   4.052   2.816   5.710  0.3655  0.8983  1.6516
 2925SOL    HW220409   4.200   2.834   5.688  1.4580  0.5674 -2.4064
 2926SOL     OW20410   2.902   2.944   7.656  0.2052  0.1572 -0.0619
 2926SOL    HW120411   2.961   2.949   7.731  1.9159  0.7300 -1.4428
 2926SOL    HW220412   2.833   3.005   7.678 -0.9069 -1.5029  1.0643
 2927SOL     OW20413   3.747   0.752   7.097 -0.2452 -0.1609  0.5818
 2927SOL    HW120414   3.688   0.816   7.057 -2.0567 -2.8726 -1.1541
 2927SOL    HW220415   3.812   0.733   7.029  2.0943 -0.3404  2.8929
 2928SOL     OW20416   1.129   1.461  17.001 -0.2126 -0.0353 -0.2135
 2928SOL    HW120417   1.085   1.481  16.919 -1.0708  0.0725  0.2718
 2928SOL    HW220418   1.153   1.550  17.030 -0.3328  0.1449 -0.6779
 2929SOL     OW20419   3.042   4.485  11.462  0.2849 -0.2165 -0.6891
 2929SOL    HW120420   2.969   4.423  11.469  0.9495 -0.7823  1.4755
 2929SOL    HW220421   3.053   4.489  11.367  1.2206  0.3718 -0.5552
 2930SOL     OW20422   1.085   2.192   6.478  0.3711  0.3900  0.1943
 2930SOL    HW120423   1.020   2.235   6.533 -1.3603  0.2967 -1.8105
 2930SOL    HW220424   1.045   2.208   6.393  0.5081 -0.4180 -0.0232
 2931SOL     OW20425   3.686   0.542   7.462 -0.4821 -0.1090  0.4368
 2931SOL    HW120426   3.765   0.523   7.513 -0.1951  0.5708  0.2484
 2931SOL    HW220427   3.616   0.529   7.526 -1.9929  3.4770 -0.4941
 2932SOL     OW20428   0.682   2.637   1.835  0.1153 -0.1523 -0.6365
 2932SOL    HW120429   0.649   2.628   1.925  1.0113  0.3375 -0.2660
 2932SOL    HW220430   0.597   2.636   1.790 -0.3074 -3.4637  0.1786
 2933SOL     OW20431   2.548   0.426   0.300 -0.2257  0.2215 -0.5836
 2933SOL    HW120432   2.520   0.374   0.376 -0.6620  0.2940 -0.6982
 2933SOL    HW220433   2.629   0.462   0.336 -0.6490  0.4723  0.1255
 2934SOL     OW20434   2.514   0.568   4.968 -0.1743  0.3134  0.0007
 2934SOL    HW120435   2.513   0.662   4.949 -0.8925  0.4051  0.5136
 2934SOL    HW220436   2.564   0.562   5.050  0.4219 -2.0883 -0.5482
 2935SOL     OW20437   4.346   2.832  10.881  0.5155  0.0819 -0.1709
 2935SOL    HW120438   4.301   2.917  10.885  1.9743  0.8026  0.5178
 2935SOL    HW220439   4.438   2.852  10.894  0.0240  1.1851  1.5844
 2936SOL     OW20440   4.655   1.832   9.202 -0.7886  0.3188 -0.2002
 2936SOL    HW120441   4.698   1.822   9.286 -2.0665  0.4932  0.4779
 2936SOL    HW220442   4.596   1.757   9.190  0.8958 -1.0842  0.3563
 2937SOL     OW20443   1.124   1.465  15.627 -0.6364 -0.0545  0.1915
 2937SOL    HW120444   1.088   1.543  15.670  1.5866  0.9508  0.2185
 2937SOL    HW220445   1.164   1.421  15.702 -0.0678  1.1547  0.5978
 2938SOL     OW20446   3.971   2.800   6.701 -0.6347 -0.1233  0.1214
 2938SOL    HW120447   3.937   2.771   6.786 -3.0316  0.5659 -0.6357
 2938SOL    HW220448   3.938   2.734   6.640  0.0327  0.9209 -1.3477
 2939SOL     OW20449   1.549   1.245   9.281  0.1447  0.2456  0.0242
 2939SOL    HW120450   1.562   1.298   9.202  0.1149 -0.1834 -0.2666
 2939SOL    HW220451   1.491   1.308   9.325 -0.0378 -0.5059  0.8580
 2940SOL     OW20452   1.747   0.075   1.941 -0.1976  0.4136 -0.1657
 2940SOL    HW120453   1.815   0.109   1.883  2.2054 -2.2024  1.1674
 2940SOL    HW220454   1.756   4.721   1.912  0.5003  0.3648  0.2137
 2941SOL     OW20455   3.788   3.403   9.739  0.1963 -0.4656 -0.1610
 2941SOL    HW120456   3.754   3.320   9.772  2.6856 -1.2820  0.3519
 2941SOL    HW220457   3.820   3.366   9.656 -0.4205  2.6305 -1.7613
 2942SOL     OW20458   1.110   3.633  17.497 -0.0859 -0.1874  0.5688
 2942SOL    HW120459   1.177   3.656  17.434 -3.8328  1.2178 -2.9213
 2942SOL    HW220460   1.034   3.660  17.445 -0.6540 -2.1422  0.3615
 2943SOL     OW20461   0.254   3.173  15.278 -0.2136 -0.4127 -0.1689
 2943SOL    HW120462   0.177   3.143  15.231 -0.5307 -1.3293  0.9384
 2943SOL    HW220463   0.240   3.119  15.355 -0.4476  0.0293  0.1019
 2944SOL     OW20464   0.668   2.367   7.383  0.1841  0.2674  0.1213
 2944SOL    HW120465   0.728   2.308   7.428  0.9598  0.1743 -1.0387
 2944SOL    HW220466   0.699   2.372   7.292  1.5105 -2.1591  0.4543
 2945SOL     OW20467   3.981   4.530   1.528  0.0762  0.2642 -0.1408
 2945SOL    HW120468   4.036   4.605   1.504 -0.1871  0.7161  0.6892
 2945SOL    HW220469   3.923   4.581   1.584 -0.6008 -1.5263  0.7551
 2946SOL     OW20470   2.271   2.012   8.195 -0.0164 -0.1286  0.6329
 2946SOL    HW120471   2.310   1.969   8.272  2.9986 -1.1215 -1.4376
 2946SOL    HW220472   2.300   1.947   8.131 -0.5295  0.3874 -0.1076
 2947SOL     OW20473   0.663   2.191   5.037 -0.0772 -0.0007 -0.1221
 2947SOL    HW120474   0.584   2.215   5.086  1.0441  0.8561  1.2795
 2947SOL    HW220475   0.619   2.157   4.959  1.1142  0.7569 -1.1234
 2948SOL     OW20476   1.740   4.290   4.205 -0.1021 -0.0529  0.4286
 2948SOL    HW120477   1.818   4.250   4.167 -1.1641 -2.3660  0.6806
 2948SOL    HW220478   1.751   4.240   4.286  0.6416 -0.5297  0.0350
 2949SOL     OW20479   3.459   1.592   0.142  0.0475 -0.3949 -0.4170
 2949SOL    HW120480   3.409   1.511   0.140 -0.1286 -0.2501 -1.8486
 2949SOL    HW220481   3.540   1.555   0.177  0.2386  0.2553 -0.1808
 2950SOL     OW20482   1.611   1.102  10.194  0.1481  0.4106  0.2304
 2950SOL    HW120483   1.658   1.037  10.245 -0.0361  0.5935  0.6299
 2950SOL    HW220484   1.614   1.172  10.258 -1.2644  0.6536  0.0463
 2951SOL     OW20485   3.416   0.824   1.216 -0.2940  0.0891  0.1258
 2951SOL    HW120486   3.496   0.873   1.197  0.1366  0.2613  2.3748
 2951SOL    HW220487   3.394   0.797   1.127 -0.5952  0.5676  0.0597
 2952SOL     OW20488   1.706   0.830   7.416  0.3054  0.8863 -0.1482
 2952SOL    HW120489   1.796   0.833   7.384  0.5629  0.3302  0.5202
 2952SOL    HW220490   1.689   0.921   7.438 -0.8346  1.3453 -2.8760
 2953SOL     OW20491   1.192   3.860   1.312  0.1375 -0.2454 -0.3593
 2953SOL    HW120492   1.177   3.836   1.403 -1.3253  1.1006 -0.2576
 2953SOL    HW220493   1.287   3.873   1.304 -0.1889  0.9816 -2.2576
 2954SOL     OW20494   4.526   0.405   6.984  1.4763 -0.0502  0.5095
 2954SOL    HW120495   4.506   0.396   6.891 -0.3893  1.0297  0.8078
 2954SOL    HW220496   4.544   0.499   6.989  0.8328  0.1890 -1.8401
 2955SOL     OW20497   4.409   1.256  10.304 -0.5850 -0.1508 -0.5559
 2955SOL    HW120498   4.494   1.224  10.274 -0.4599 -2.1899  1.9532
 2955SOL    HW220499   4.431   1.346  10.327 -0.2322 -0.8929  2.1085
 2956SOL     OW20500   4.650   4.535   0.964  0.4853 -0.3696  0.1372
 2956SOL    HW120501   4.644   4.449   1.005  0.4369  0.2033  1.3392
 2956SOL    HW220502   4.555   4.546   0.959  0.5256 -1.2428 -2.6165
 2957SOL     OW20503   0.901   0.061  11.524 -0.2666  0.1329  0.2198
 2957SOL    HW120504   0.980   0.074  11.470  0.1431 -2.7031  0.1491
 2957SOL    HW220505   0.925   0.110  11.603  0.3812 -0.2626  0.2750
 2958SOL     OW20506   0.830   2.061  10.269 -0.0149 -0.6935  0.0462
 2958SOL    HW120507   0.771   2.132  10.295  0.2254 -0.4201 -0.1612
 2958SOL    HW220508   0.823   2.068  10.174  1.8103  1.6332  0.0964
 2959SOL     OW20509   1.566   1.941   6.683  0.5834 -0.0461  0.1876
 2959SOL    HW120510   1.563   2.023   6.635 -0.7671 -0.2232 -0.0125
 2959SOL    HW220511   1.566   1.885   6.605  2.3556  1.1973 -0.6961
 2960SOL     OW20512   1.009   2.338   2.719  0.0977  0.8110  0.1887
 2960SOL    HW120513   1.026   2.413   2.662 -1.2471  1.7596  1.0475
 2960SOL    HW220514   1.090   2.350   2.769 -0.0172  0.7834  0.3814
 2961SOL     OW20515   1.509   3.611  12.514  0.2158 -0.3535  0.2395
 2961SOL    HW120516   1.549   3.579  12.595 -0.9793 -0.1653  0.9110
 2961SOL    HW220517   1.560   3.689  12.491 -0.7376 -0.1200 -1.0937
 2962SOL     OW20518   2.002   1.299   2.111  0.1262  0.0574 -0.0915
 2962SOL    HW120519   2.056   1.229   2.148  1.1154 -0.2693 -2.1460
 2962SOL    HW220520   1.943   1.236   2.070 -1.1989 -0.6744  2.8941
 2963SOL     OW20521   3.555   2.567  10.825 -0.2059  0.4943 -0.1824
 2963SOL    HW120522   3.578   2.545  10.915  0.3934  1.6228 -0.0561
 2963SOL    HW220523   3.633   2.588  10.773 -0.5142  1.4123 -0.2856
 2964SOL     OW20524   3.903   4.139   9.787  0.7401 -0.1992 -0.0534
 2964SOL    HW120525   3.833   4.153   9.850  0.3790 -2.0698 -0.0373
 2964SOL    HW220526   3.910   4.043   9.784  3.2821 -0.0008 -1.2580
 2965SOL     OW20527   0.601   3.880   4.881  0.3390  0.2781  0.1556
 2965SOL    HW120528   0.670   3.814   4.885 -0.0774 -0.3266 -3.0055
 2965SOL    HW220529   0.532   3.832   4.926  0.8842  0.1618  0.8769
 2966SOL     OW20530   2.338   3.363  12.674 -0.0949  0.2956  0.4229
 2966SOL    HW120531   2.292   3.283  12.699 -2.6465  2.1346  1.6161
 2966SOL    HW220532   2.333   3.411  12.757  0.5786  0.9470  0.0849
 2967SOL     OW20533   1.971   4.346   0.821 -0.3379  0.2875 -0.3250
 2967SOL    HW120534   1.986   4.398   0.743  1.3036 -0.4867 -0.5279
 2967SOL    HW220535   1.921   4.275   0.782 -1.1020 -0.0327  1.2269
 2968SOL     OW20536   3.860   4.590   3.861 -0.2926  0.1809 -0.2150
 2968SOL    HW120537   3.835   4.568   3.950 -1.5459  1.4058 -0.2746
 2968SOL    HW220538   3.880   4.682   3.876  1.4037 -0.1182 -0.5814
 2969SOL     OW20539   2.071   2.965   7.778 -0.3580  0.3865 -0.0019
 2969SOL    HW120540   2.063   2.992   7.869  0.3012  1.2147 -0.1877
 2969SOL    HW220541   2.134   3.034   7.759  0.7898 -1.0760 -1.5272
 2970SOL     OW20542   1.207   0.226   9.442 -0.2881  0.4209  0.5677
 2970SOL    HW120543   1.269   0.202   9.511  1.4617 -1.5611 -1.6658
 2970SOL    HW220544   1.265   0.271   9.380 -2.2778  2.7876  0.4720
 2971SOL     OW20545   4.055   2.942   9.524  0.0020 -0.1797  0.2574
 2971SOL    HW120546   4.052   3.017   9.583  0.0397  1.1752 -1.4636
 2971SOL    HW220547   4.111   2.882   9.572  0.4565 -0.0480 -0.1127
 2972SOL     OW20548   1.939   0.507   6.456 -0.2184  0.4390 -0.2669
 2972SOL    HW120549   1.968   0.572   6.392 -0.0158 -1.3645 -2.0042
 2972SOL    HW220550   2.009   0.508   6.522  1.3881 -2.4189 -1.9226
 2973SOL     OW20551   1.797   2.077   2.819 -0.5612  0.5285 -0.2418
 2973SOL    HW120552   1.880   2.087   2.773  0.2608 -1.6423  0.7797
 2973SOL    HW220553   1.807   2.135   2.895  2.5549  0.1275 -0.3493
 2974SOL     OW20554   4.352   4.669   6.853  0.2282 -0.5207  0.3089
 2974SOL    HW120555   4.331   0.001   6.790 -1.2766 -0.6448  0.6794
 2974SOL    HW220556   4.266   4.626   6.851 -1.1681  2.3049  0.7101
 2975SOL     OW20557   0.970   0.624   7.365  0.7225  0.1979  0.5799
 2975SOL    HW120558   1.031   0.652   7.433  0.4193 -0.0275  0.9422
 2975SOL    HW220559   0.967   0.530   7.384 -0.1154  0.9119  3.8939
 2976SOL     OW20560   1.719   0.347   1.982  0.5475  0.1804  0.4409
 2976SOL    HW120561   1.735   0.258   1.949  0.3904  0.2296  0.2343
 2976SOL    HW220562   1.802   0.392   1.966 -0.0783  0.3316 -2.2438
 2977SOL     OW20563   2.149   1.238  11.149  0.5539  0.1320  0.4185
 2977SOL    HW120564   2.151   1.323  11.193 -0.0045 -0.3565  1.3923
 2977SOL    HW220565   2.059   1.238  11.114  0.7487 -1.3344 -0.0773
 2978SOL     OW20566   3.889   0.791   8.265 -0.3692 -0.7940 -0.1153
 2978SOL    HW120567   3.979   0.772   8.289 -0.1170 -2.6067 -2.4588
 2978SOL    HW220568   3.839   0.716   8.298 -0.3491 -0.0044  1.6789
 2979SOL     OW20569   3.142   4.315   9.889  0.1119 -0.0279 -0.9853
 2979SOL    HW120570   3.151   4.260   9.811  1.5516  4.0235 -3.6375
 2979SOL    HW220571   3.222   4.286   9.933 -0.0226 -1.1634 -1.4890
 2980SOL     OW20572   0.006   1.109   2.725 -0.2292 -0.3705  0.1281
 2980SOL    HW120573   0.032   1.088   2.636  0.5462 -0.1159  0.2914
 2980SOL    HW220574   0.086   1.082   2.770 -0.3233  0.9796  1.1127
 2981SOL     OW20575   1.048   4.023   8.217 -0.1775 -0.3844 -0.7184
 2981SOL    HW120576   1.092   3.946   8.181  0.8217  0.4438 -1.2643
 2981SOL    HW220577   1.117   4.056   8.276 -1.0516 -3.7787  2.2016
 2982SOL     OW20578   0.686   0.225   2.386 -0.2201  0.5002 -0.1295
 2982SOL    HW120579   0.620   0.156   2.383 -0.6480  0.9353 -0.9441
 2982SOL    HW220580   0.764   0.171   2.379 -1.0402 -0.5738 -0.8727
 2983SOL     OW20581   1.413   4.274   5.493 -0.0398  0.3068 -0.3134
 2983SOL    HW120582   1.398   4.367   5.505  2.0318  0.5337  0.5053
 2983SOL    HW220583   1.504   4.275   5.462  1.3338 -0.6716  3.6574
 2984SOL     OW20584   2.659   2.448   6.164  0.0674  0.4264 -0.5721
 2984SOL    HW120585   2.601   2.461   6.090  0.2072 -0.9697 -0.9349
 2984SOL    HW220586   2.729   2.390   6.132  0.8872  2.6109 -2.7101
 2985SOL     OW20587   2.737   4.054   2.327  0.4141 -0.1663 -0.6361
 2985SOL    HW120588   2.797   4.020   2.393 -0.5470  1.5835  1.1355
 2985SOL    HW220589   2.705   4.131   2.375 -0.4268 -0.6497 -0.4124
 2986SOL     OW20590   0.161   4.582   6.709  0.0825  0.0522 -0.0562
 2986SOL    HW120591   0.203   4.665   6.686  0.0930 -0.7427 -2.9019
 2986SOL    HW220592   0.083   4.609   6.661  0.6091  0.9563 -0.4036
 2987SOL     OW20593   2.370   2.014  14.557  0.1479 -0.2499 -0.2643
 2987SOL    HW120594   2.360   1.950  14.628  1.8598  0.5939  0.7428
 2987SOL    HW220595   2.442   2.064  14.597  0.2360 -0.3297 -0.3237
 2988SOL     OW20596   3.099   4.665  12.380 -0.2622 -0.2027 -0.9364
 2988SOL    HW120597   3.116   4.612  12.302  1.2935  1.2624 -1.5853
 2988SOL    HW220598   3.164   4.629  12.440  0.3998 -1.0372 -2.1422
 2989SOL     OW20599   4.611   3.540  13.223 -0.5047  0.0130 -0.0925
 2989SOL    HW120600   4.528   3.569  13.260  0.7802 -2.3370  4.6839
 2989SOL    HW220601   4.662   3.620  13.228 -0.7077  0.0975  0.5287
 2990SOL     OW20602   3.334   3.315   4.152 -0.3451  0.3548  0.0999
 2990SOL    HW120603   3.338   3.279   4.063 -1.6076  3.5020 -1.2177
 2990SOL    HW220604   3.241   3.334   4.157  0.0619  2.1992  0.4514
 2991SOL     OW20605   2.135   0.835   5.917  0.0835  0.2074 -0.5166
 2991SOL    HW120606   2.222   0.805   5.892  0.4234 -1.9494  3.2432
 2991SOL    HW220607   2.075   0.784   5.862 -0.4283  0.9614 -0.6497
 2992SOL     OW20608   1.972   0.355   5.379 -0.3026 -0.1927 -0.0418
 2992SOL    HW120609   1.931   0.272   5.353  0.7355 -0.2702 -1.4193
 2992SOL    HW220610   2.059   0.316   5.372 -0.4999 -0.3830 -1.3666
 2993SOL     OW20611   1.949   1.573   5.100  0.4501 -0.1567 -0.1416
 2993SOL    HW120612   2.017   1.548   5.037  0.0997  2.1305 -1.4315
 2993SOL    HW220613   1.893   1.496   5.093  1.6753 -1.3505  3.2725
 2994SOL     OW20614   3.799   0.358   2.993  0.1826  0.0178 -0.3043
 2994SOL    HW120615   3.730   0.418   3.019 -0.7326 -0.4310 -1.6983
 2994SOL    HW220616   3.764   0.275   3.025 -0.2451  0.3561  0.0992
 2995SOL     OW20617   2.573   1.604  16.890 -0.1237 -0.1381 -0.5924
 2995SOL    HW120618   2.635   1.577  16.958  0.6527  0.9273 -0.8831
 2995SOL    HW220619   2.561   1.692  16.926 -1.7151 -1.6685  2.6152
 2996SOL     OW20620   0.387   4.501   2.885 -0.1924  0.2132  0.3346
 2996SOL    HW120621   0.377   4.566   2.955  2.9256  1.0811 -0.0151
 2996SOL    HW220622   0.444   4.443   2.934  1.3383  2.1322  0.8497
 2997SOL     OW20623   4.664   0.686  12.782  0.0247 -0.0576  0.1473
 2997SOL    HW120624   4.591   0.693  12.720  0.0627  0.0159  0.1109
 2997SOL    HW220625   4.722   0.755  12.751  0.6767  0.0968  1.7465
 2998SOL     OW20626   1.248   2.917   5.792 -0.3293 -0.2487  0.5428
 2998SOL    HW120627   1.248   2.880   5.881 -0.3649 -1.2505  0.1337
 2998SOL    HW220628   1.284   3.005   5.802  0.6698 -0.7220  1.1368
 2999SOL     OW20629   1.627   0.369   7.078  0.1259  0.4083 -0.2287
 2999SOL    HW120630   1.606   0.359   7.170 -0.0994 -3.9404 -0.7274
 2999SOL    HW220631   1.599   0.281   7.051 -0.0745  0.1242  0.9092
 3000SOL     OW20632   0.873   3.679   7.683 -0.6651 -0.3063  0.3429
 3000SOL    HW120633   0.919   3.737   7.623  0.5873 -2.3901 -0.7020
 3000SOL    HW220634   0.827   3.746   7.734 -1.2673 -0.4181 -0.0442
 3001SOL     OW20635   0.519   2.731   8.564 -0.1986  0.2728 -0.0509
 3001SOL    HW120636   0.431   2.752   8.533 -0.0436 -0.9738 -1.3554
 3001SOL    HW220637   0.529   2.642   8.530 -1.1480  0.3106 -0.4111
 3002SOL     OW20638   0.021   4.415   6.241  0.3582 -0.5953 -0.5939
 3002SOL    HW120639   4.672   4.405   6.281  0.9956 -1.8391  0.4279
 3002SOL    HW220640   0.079   4.359   6.291 -0.2755 -1.9415 -1.3817
 3003SOL     OW20641   3.806   3.080   0.469  0.4618  0.3019  0.8157
 3003SOL    HW120642   3.854   3.158   0.442  2.1952 -0.0229  2.9720
 3003SOL    HW220643   3.720   3.083   0.426  0.1915 -0.9796  1.2724
 3004SOL     OW20644   0.951   3.796  15.444  0.1411  0.4289  0.2282
 3004SOL    HW120645   0.877   3.791  15.505 -1.6931 -0.2893 -2.0677
 3004SOL    HW220646   0.947   3.888  15.418  1.5848  0.1736 -0.8590
 3005SOL     OW20647   3.831   3.326  11.607 -0.1312  0.4472  0.3705
 3005SOL    HW120648   3.773   3.342  11.681  1.5059  0.1387  1.7342
 3005SOL    HW220649   3.847   3.413  11.571  3.2340 -1.5690 -3.0375
 3006SOL     OW20650   3.342   0.818   7.029  0.3433 -0.1240 -0.0657
 3006SOL    HW120651   3.330   0.737   6.979  0.4157  0.1133 -0.4656
 3006SOL    HW220652   3.320   0.885   6.965 -0.7282 -0.1638  0.2630
 3007SOL     OW20653   3.599   3.180  14.900  0.3300 -0.3953 -1.0518
 3007SOL    HW120654   3.592   3.085  14.895  0.3784 -0.5257  1.3402
 3007SOL    HW220655   3.556   3.186  14.984 -1.4990  2.0043 -2.1601
 3008SOL     OW20656   0.295   3.581   1.881  0.8135  0.6261 -0.3503
 3008SOL    HW120657   0.289   3.487   1.864 -1.6167  0.8711 -0.7570
 3008SOL    HW220658   0.207   3.617   1.875  0.8024  0.7577  0.5204
 3009SOL     OW20659   1.641   2.844   8.680  0.3154  0.3561  0.1614
 3009SOL    HW120660   1.639   2.876   8.590  0.5056  0.7404  0.2927
 3009SOL    HW220661   1.621   2.752   8.664 -0.8098  0.4644  0.9548
 3010SOL     OW20662   0.949   1.508  14.257  0.4036 -0.5243  0.1389
 3010SOL    HW120663   0.881   1.568  14.226 -0.2970 -1.1678  0.4162
 3010SOL    HW220664   0.998   1.570  14.311  0.8803 -0.0048 -0.8949
 3011SOL     OW20665   3.310   0.377   4.101  0.3220  0.2082  0.1756
 3011SOL    HW120666   3.247   0.372   4.030 -0.4430  1.5731  0.7579
 3011SOL    HW220667   3.254   0.410   4.172  0.7190  0.1358  0.5223
 3012SOL     OW20668   1.020   2.687   4.333  0.3659 -0.5736  0.5309
 3012SOL    HW120669   0.944   2.734   4.296 -0.1080  0.0729  2.3165
 3012SOL    HW220670   0.986   2.649   4.413 -0.5430  0.4138  0.6221
 3013SOL     OW20671   1.987   2.776   8.152 -0.4574 -0.0680  0.3435
 3013SOL    HW120672   1.910   2.741   8.107  1.1061 -1.2554 -1.3960
 3013SOL    HW220673   2.000   2.858   8.105  0.3192  0.2967  1.1954
 3014SOL     OW20674   0.013   2.104   2.452 -0.0832  0.5525  0.0635
 3014SOL    HW120675   4.655   2.097   2.466  0.2069  0.4209  1.8532
 3014SOL    HW220676   0.014   2.111   2.356 -1.5278 -1.5484 -0.1081
 3015SOL     OW20677   3.454   0.225   7.953 -0.6369 -0.3340  0.5334
 3015SOL    HW120678   3.444   0.132   7.975  3.1308 -0.8455  0.0755
 3015SOL    HW220679   3.398   0.237   7.876 -0.4377  0.0146  0.4417
 3016SOL     OW20680   2.063   0.474   2.536 -0.0651  0.4342 -0.2309
 3016SOL    HW120681   1.985   0.485   2.482 -0.0022 -0.9142 -0.6115
 3016SOL    HW220682   2.073   0.379   2.534  1.4078  0.5487  2.1780
 3017SOL     OW20683   1.183   0.172   8.422  0.2996  0.7309 -0.3373
 3017SOL    HW120684   1.122   0.101   8.403  1.7132 -0.7892  0.8283
 3017SOL    HW220685   1.129   0.226   8.479  1.2217  2.4915 -1.1348
 3018SOL     OW20686   2.456   3.255   7.972  0.1142  0.7528 -0.2502
 3018SOL    HW120687   2.493   3.172   7.942 -1.0474 -0.0895  0.6836
 3018SOL    HW220688   2.494   3.243   8.059 -0.1665 -0.5228 -0.2998
 3019SOL     OW20689   0.678   4.370   7.189  0.0062  0.3361 -0.5559
 3019SOL    HW120690   0.612   4.426   7.230  0.0655 -1.0051  1.3764
 3019SOL    HW220691   0.705   4.310   7.259  0.9480  1.7929  0.3165
 3020SOL     OW20692   3.675   2.184  11.044 -0.1917 -0.0602 -0.0497
 3020SOL    HW120693   3.667   2.246  11.116  1.7075 -0.1398  0.2283
 3020SOL    HW220694   3.759   2.212  11.008  1.9892 -1.7894  3.6409
 3021SOL     OW20695   2.023   0.926  15.830 -0.1411 -0.6740 -0.3682
 3021SOL    HW120696   1.969   1.004  15.815  0.7040  0.3435  1.8149
 3021SOL    HW220697   2.049   0.905  15.741 -0.4279  0.3730 -0.6981
 3022SOL     OW20698   0.758   3.816   9.359 -0.2859  0.0300  1.1635
 3022SOL    HW120699   0.681   3.781   9.403 -0.0166 -1.9416  0.0705
 3022SOL    HW220700   0.720   3.858   9.281  3.0554 -1.7717 -1.4370
 3023SOL     OW20701   3.387   3.149   7.605 -0.3384  0.1755 -0.0179
 3023SOL    HW120702   3.368   3.145   7.511  1.5478  2.2987 -0.4706
 3023SOL    HW220703   3.472   3.189   7.622  0.2843 -0.2684 -2.1630
 3024SOL     OW20704   2.572   1.670   5.276  0.9736 -0.1854 -0.6705
 3024SOL    HW120705   2.568   1.616   5.355 -2.2347 -1.0564 -1.4556
 3024SOL    HW220706   2.545   1.606   5.210  1.4925 -0.9740 -0.1188
 3025SOL     OW20707   3.718   1.557   7.477 -0.5624 -0.2819 -0.4865
 3025SOL    HW120708   3.731   1.468   7.443 -0.1269 -0.1538 -0.6545
 3025SOL    HW220709   3.797   1.603   7.450  0.6896 -1.1460  1.6538
 3026SOL     OW20710   3.465   1.304   3.552  0.1522  0.2745  0.3498
 3026SOL    HW120711   3.439   1.374   3.493 -1.0873  0.6829  1.3832
 3026SOL    HW220712   3.557   1.304   3.527  0.5552 -0.0706  1.8525
 3027SOL     OW20713   3.328   3.847   4.915 -0.6880 -0.2218  0.3555
 3027SOL    HW120714   3.317   3.902   4.838 -2.3443  0.4156  1.0401
 3027SOL    HW220715   3.379   3.771   4.887  1.7191  1.6599 -0.3350
 3028SOL     OW20716   3.117   4.199   5.859  0.1779 -0.4198 -0.1768
 3028SOL    HW120717   3.079   4.128   5.910  1.4143 -0.1299  1.1442
 3028SOL    HW220718   3.201   4.159   5.837 -0.0751 -0.4806 -1.0433
 3029SOL     OW20719   2.297   2.760   7.267  0.0905  0.4397 -0.0741
 3029SOL    HW120720   2.213   2.741   7.310  0.5715  2.1261  1.5974
 3029SOL    HW220721   2.313   2.688   7.206 -2.3567  0.4150 -0.7044
 3030SOL     OW20722   0.346   1.559  15.267 -0.1169 -0.1849  0.5286
 3030SOL    HW120723   0.390   1.567  15.183  0.1911 -1.1358  0.5978
 3030SOL    HW220724   0.341   1.464  15.279  1.7845 -0.2609  0.7601
 3031SOL     OW20725   4.466   3.124  13.479  0.0945  0.0359 -0.2746
 3031SOL    HW120726   4.386   3.169  13.454  1.9686  3.8482  0.4780
 3031SOL    HW220727   4.465   3.125  13.575 -1.7656 -0.6136 -0.2915
 3032SOL     OW20728   2.657   4.084   7.222 -0.7670 -0.4371  0.0869
 3032SOL    HW120729   2.574   4.132   7.230 -0.4310 -0.0664  1.4565
 3032SOL    HW220730   2.715   4.154   7.253 -0.0551 -1.7607  1.7003
 3033SOL     OW20731   2.959   3.066   8.770  0.2971  0.2767 -0.5475
 3033SOL    HW120732   2.980   3.111   8.688  1.9487  0.1062 -0.2108
 3033SOL    HW220733   3.022   3.110   8.827 -1.3282 -0.6560  1.9686
 3034SOL     OW20734   3.931   4.067   4.101  0.2486 -0.0363  0.2405
 3034SOL    HW120735   3.876   4.118   4.041  1.8661  2.5492  0.9793
 3034SOL    HW220736   3.972   4.130   4.159  0.1492  2.1696 -2.0724
 3035SOL     OW20737   2.037   2.777   5.479  0.1701  0.2421 -0.3986
 3035SOL    HW120738   2.016   2.853   5.533  1.5629  0.1006  0.3386
 3035SOL    HW220739   1.988   2.794   5.399 -1.8348  0.4775  0.8897
 3036SOL     OW20740   1.981   4.184   5.316  0.5514  0.0024  0.0990
 3036SOL    HW120741   1.949   4.232   5.240  0.9907 -0.5339 -0.4237
 3036SOL    HW220742   1.913   4.117   5.320  2.6687 -2.1423  0.3218
 3037SOL     OW20743   3.172   0.510   2.019 -0.0446  0.9064 -0.4424
 3037SOL    HW120744   3.127   0.572   2.077 -0.0267 -1.0772  1.6691
 3037SOL    HW220745   3.227   0.457   2.076 -0.7802  0.5000 -0.1002
 3038SOL     OW20746   0.073   1.679   5.791  0.5145  0.3007 -0.7932
 3038SOL    HW120747   0.046   1.753   5.845 -0.4195  0.0874 -0.9677
 3038SOL    HW220748   0.161   1.703   5.766  0.4531  0.2025 -1.0997
 3039SOL     OW20749   1.661   2.255   3.294  0.4030 -0.3715  0.1154
 3039SOL    HW120750   1.570   2.263   3.267  0.6540  1.9768 -0.0817
 3039SOL    HW220751   1.651   2.166   3.328 -1.1226  0.6746  2.4497
 3040SOL     OW20752   1.215   4.407  13.965  0.0410  0.3032 -0.0709
 3040SOL    HW120753   1.301   4.365  13.965  1.2501  2.7725  1.0073
 3040SOL    HW220754   1.235   4.459  14.042 -3.9449  0.0545  1.1560
 3041SOL     OW20755   2.368   0.583   5.369 -0.6404  0.3393  0.1118
 3041SOL    HW120756   2.444   0.586   5.426 -0.0517  0.6797 -0.6935
 3041SOL    HW220757   2.299   0.554   5.428 -0.0530 -0.0275  0.6200
 3042SOL     OW20758   0.791   1.583  15.859 -0.7518 -0.1240  0.2177
 3042SOL    HW120759   0.832   1.547  15.937  0.5318  0.9425  0.0214
 3042SOL    HW220760   0.870   1.605  15.810 -2.2316 -0.6004 -2.3906
 3043SOL     OW20761   3.518   3.930   5.620  0.3195  0.1340 -0.6570
 3043SOL    HW120762   3.497   3.912   5.529 -1.9669  3.2273 -0.7224
 3043SOL    HW220763   3.572   4.009   5.615  1.3360 -0.3900  2.0004
 3044SOL     OW20764   2.857   3.146   2.581 -1.0826  0.6084 -0.0407
 3044SOL    HW120765   2.795   3.156   2.508  0.3570 -1.1475 -1.4812
 3044SOL    HW220766   2.840   3.229   2.626  0.7176  0.2361  1.3037
 3045SOL     OW20767   1.432   3.065   1.772  0.2172  0.4965  0.1218
 3045SOL    HW120768   1.440   3.150   1.815  0.8461  0.8648 -0.7232
 3045SOL    HW220769   1.523   3.042   1.752 -0.2653  0.0847 -1.6036
 3046SOL     OW20770   2.602   2.817   1.867 -0.3167  0.4102  0.0415
 3046SOL    HW120771   2.573   2.909   1.869  1.0544  0.8148  1.4267
 3046SOL    HW220772   2.692   2.846   1.879 -1.2020  3.4395 -0.5352
 3047SOL     OW20773   1.520   0.739   5.898 -0.1209 -0.7436  0.0453
 3047SOL    HW120774   1.507   0.680   5.972  0.4144 -2.2495 -1.0558
 3047SOL    HW220775   1.428   0.762   5.887  0.0238 -1.5912 -2.9209
 3048SOL     OW20776   3.189   2.573   3.475  0.4878  0.1200  0.3071
 3048SOL    HW120777   3.165   2.563   3.567  0.7426  3.7987  0.7985
 3048SOL    HW220778   3.278   2.606   3.486  0.6995 -0.1416 -0.6328
 3049SOL     OW20779   1.324   3.207   4.250  0.1042 -0.2353 -0.0042
 3049SOL    HW120780   1.253   3.157   4.290 -2.9451  1.6046 -3.1601
 3049SOL    HW220781   1.286   3.294   4.265 -0.6429 -0.4589 -0.6628
 3050SOL     OW20782   0.593   1.232   9.773  0.1660  0.6847  0.1680
 3050SOL    HW120783   0.685   1.247   9.752  0.7849 -2.8387  0.3140
 3050SOL    HW220784   0.562   1.322   9.763  0.9350  0.9899  0.5073
 3051SOL     OW20785   1.283   3.281   3.069  0.1787 -0.2778  0.2243
 3051SOL    HW120786   1.240   3.337   3.133  1.8007 -0.5956  1.5864
 3051SOL    HW220787   1.211   3.250   3.014 -0.5914  0.6592  0.7100
 3052SOL     OW20788   1.449   4.309   7.471  0.5078 -0.3119 -0.1315
 3052SOL    HW120789   1.531   4.263   7.491 -1.0092 -1.5932  3.3359
 3052SOL    HW220790   1.403   4.238   7.427 -1.2985  0.1416  1.0239
 3053SOL     OW20791   3.025   0.069  11.258 -0.1624  0.1166  0.4485
 3053SOL    HW120792   2.993   0.159  11.259 -0.4716 -0.0123  2.3185
 3053SOL    HW220793   3.106   0.078  11.207 -0.0630 -1.8052  0.2750
 3054SOL     OW20794   0.919   3.095   3.645  0.2908 -0.5881  0.0335
 3054SOL    HW120795   1.013   3.103   3.662  0.1377  1.7836 -0.1796
 3054SOL    HW220796   0.919   3.023   3.582  0.2757 -0.0619 -0.5705
 3055SOL     OW20797   1.436   4.255  13.971 -0.0551  0.0549  0.5927
 3055SOL    HW120798   1.443   4.244  13.877 -2.9127  0.2292  0.3600
 3055SOL    HW220799   1.415   4.166  14.000  2.9320 -0.6549  0.5654
 3056SOL     OW20800   0.134   1.747   6.514 -0.2582 -0.3139 -0.3996
 3056SOL    HW120801   0.164   1.662   6.483  0.3203 -1.1380  2.4307
 3056SOL    HW220802   0.200   1.803   6.472 -0.8401  0.7641  0.1146
 3057SOL     OW20803   1.508   0.919   2.031 -0.0346  0.2592  0.6393
 3057SOL    HW120804   1.431   0.971   2.006 -0.2680 -1.2098 -1.7852
 3057SOL    HW220805   1.464   0.859   2.091  0.2694  0.3628  0.9650
 3058SOL     OW20806   0.869   0.507   2.192 -0.5052  0.0456  0.2285
 3058SOL    HW120807   0.783   0.484   2.155 -1.6712 -0.1699  3.0824
 3058SOL    HW220808   0.884   0.446   2.264  2.4865 -0.4410 -0.8019
 3059SOL     OW20809   3.741   3.434   9.197  0.0965 -0.1370 -0.3118
 3059SOL    HW120810   3.671   3.461   9.256 -0.0342  0.4735 -0.7456
 3059SOL    HW220811   3.769   3.358   9.247  1.3616  0.3812 -0.2300
 3060SOL     OW20812   3.073   1.670   8.698  0.2051 -0.0462 -0.2592
 3060SOL    HW120813   3.093   1.697   8.608  2.3777 -0.3322  0.1237
 3060SOL    HW220814   3.133   1.595   8.703  2.3575  1.5802 -1.3692
 3061SOL     OW20815   3.464   3.050   8.651  0.2347  0.1206  0.2089
 3061SOL    HW120816   3.369   3.034   8.649  0.1872  0.3777  0.2836
 3061SOL    HW220817   3.477   3.070   8.743 -1.4020  2.1219  0.0181
 3062SOL     OW20818   4.124   4.293  11.033  0.5868  0.2175 -0.4403
 3062SOL    HW120819   4.107   4.370  10.979  1.8374 -0.1948 -1.4190
 3062SOL    HW220820   4.216   4.308  11.055  0.1590  2.1568  0.0343
 3063SOL     OW20821   2.778   3.017   3.537  0.1743 -0.4810  0.0644
 3063SOL    HW120822   2.814   3.070   3.466 -2.2303  0.3956 -0.5004
 3063SOL    HW220823   2.685   3.036   3.525  0.9040  1.7551 -2.0160
 3064SOL     OW20824   2.733   4.067  17.652 -0.2117 -0.0922 -0.5806
 3064SOL    HW120825   2.807   4.082  17.594 -0.5522 -1.3989 -1.3626
 3064SOL    HW220826   2.779   4.029  17.728 -1.6838  1.0218  0.8617
 3065SOL     OW20827   3.155   4.718  16.258  0.3257  0.1934 -0.2039
 3065SOL    HW120828   3.193   4.630  16.248  1.0097  0.5028 -0.3051
 3065SOL    HW220829   3.064   4.698  16.277  0.5168  0.8175  1.3364
 3066SOL     OW20830   0.772   0.025  10.325  0.0576 -0.3569  0.1764
 3066SOL    HW120831   0.856   0.014  10.371 -0.2034  1.3554  1.0427
 3066SOL    HW220832   0.755   0.119  10.330  2.9957  0.2259 -0.4021
 3067SOL     OW20833   2.034   3.370  11.189  0.5043  0.0027 -0.5271
 3067SOL    HW120834   1.974   3.317  11.242 -0.0872 -0.7704 -1.9435
 3067SOL    HW220835   2.121   3.352  11.223  0.8018 -0.1240 -1.3504
 3068SOL     OW20836   2.706   1.828  12.509  0.1194 -0.2121  0.5751
 3068SOL    HW120837   2.620   1.857  12.540  0.3317  0.1468  0.8171
 3068SOL    HW220838   2.768   1.861  12.574 -1.2253  1.2187  1.1229
 3069SOL     OW20839   1.681   4.527  14.777 -0.0912 -0.3824 -0.1938
 3069SOL    HW120840   1.648   4.568  14.697 -0.5033  0.8107  0.5961
 3069SOL    HW220841   1.718   4.448  14.738 -2.7746 -1.7105 -0.0545
 3070SOL     OW20842   2.414   2.112   9.320 -0.0717 -0.2271 -0.3304
 3070SOL    HW120843   2.458   2.028   9.332 -0.8207 -0.4855  0.5120
 3070SOL    HW220844   2.365   2.105   9.238  2.2125  1.7454 -1.8942
 3071SOL     OW20845   1.499   1.692   9.809  0.0270 -0.8870  0.8932
 3071SOL    HW120846   1.520   1.771   9.858 -0.1519  0.4369 -1.1389
 3071SOL    HW220847   1.578   1.693   9.754 -1.2447  3.0078 -0.8386
 3072SOL     OW20848   3.205   4.538   3.372 -0.3977  0.1852  0.6562
 3072SOL    HW120849   3.195   4.454   3.416  3.9175 -0.4688  0.4419
 3072SOL    HW220850   3.158   4.585   3.440  2.7212  0.6619  2.4464
 3073SOL     OW20851   4.490   1.529   2.367  0.1561  0.5622  0.0972
 3073SOL    HW120852   4.575   1.571   2.376  0.8909 -1.6448  3.3334
 3073SOL    HW220853   4.469   1.565   2.280 -0.7487  2.4517  1.0855
 3074SOL     OW20854   2.633   3.041   4.392  0.8580  0.3565  0.3374
 3074SOL    HW120855   2.580   3.054   4.313  0.5782 -0.1675  0.4416
 3074SOL    HW220856   2.717   3.070   4.356  0.3865 -0.6886 -1.6168
 3075SOL     OW20857   0.742   2.511  13.286 -0.6534  0.1243  0.1053
 3075SOL    HW120858   0.752   2.436  13.344  0.5698  0.0529 -0.1902
 3075SOL    HW220859   0.794   2.483  13.211  1.4364  1.3448  1.0838
 3076SOL     OW20860   1.548   3.644  13.624  0.3611  0.3538 -0.1276
 3076SOL    HW120861   1.604   3.586  13.674  0.2162 -1.1611 -1.7180
 3076SOL    HW220862   1.567   3.607  13.538 -0.4179 -0.3880  0.0149
 3077SOL     OW20863   4.502   1.581   6.964 -0.1749 -0.2169  0.0673
 3077SOL    HW120864   4.535   1.638   6.894  0.0123 -0.1344  0.2255
 3077SOL    HW220865   4.515   1.494   6.925  0.2167  0.6219 -1.7107
 3078SOL     OW20866   0.603   0.658   8.107  0.0791 -0.3328  0.5120
 3078SOL    HW120867   0.648   0.675   8.190 -0.6266 -0.0265  0.8305
 3078SOL    HW220868   0.554   0.577   8.118 -1.2097  0.3929  0.1834
 3079SOL     OW20869   0.898   1.681   8.641  0.1785  0.0150 -0.0429
 3079SOL    HW120870   0.963   1.615   8.667  0.9854  1.1493  0.8390
 3079SOL    HW220871   0.831   1.627   8.600 -1.5238  0.6344  1.9366
 3080SOL     OW20872   1.669   4.468  11.132 -0.0178 -0.1733  0.2845
 3080SOL    HW120873   1.619   4.408  11.189 -3.2970  0.5736 -1.7979
 3080SOL    HW220874   1.721   4.405  11.082 -0.5684 -0.0849 -0.4085
 3081SOL     OW20875   4.454   3.709   5.153 -0.0304 -0.0704 -0.3534
 3081SOL    HW120876   4.520   3.706   5.222  0.1091 -1.2824 -0.5270
 3081SOL    HW220877   4.502   3.749   5.080 -0.6058 -0.6455 -1.0502
 3082SOL     OW20878   0.694   4.437   3.312 -0.3102  0.4694 -0.0804
 3082SOL    HW120879   0.761   4.389   3.263 -1.1620 -1.9728  1.1483
 3082SOL    HW220880   0.704   4.394   3.397 -0.4116  0.9828  0.1898
 3083SOL     OW20881   3.879   1.133   2.304  0.0610 -0.4805 -0.2245
 3083SOL    HW120882   3.958   1.106   2.258  1.5015 -0.1186  2.0789
 3083SOL    HW220883   3.858   1.223   2.278  1.3091 -0.0694  0.1946
 3084SOL     OW20884   0.362   4.618   9.060 -0.7352  0.0329 -0.5569
 3084SOL    HW120885   0.342   4.575   8.977 -1.4270  0.3211 -0.5316
 3084SOL    HW220886   0.458   4.624   9.056 -0.5717 -1.6889  0.9505
 3085SOL     OW20887   3.440   4.238   7.725  0.0193  0.0450  0.4036
 3085SOL    HW120888   3.472   4.263   7.638 -0.2060 -2.4794 -0.4193
 3085SOL    HW220889   3.345   4.241   7.711  0.3270 -2.1661 -2.1994
 3086SOL     OW20890   3.787   2.122   3.213  0.1605 -0.1796  0.4775
 3086SOL    HW120891   3.729   2.056   3.250  1.2120 -1.1760  0.3160
 3086SOL    HW220892   3.735   2.199   3.236 -0.7185 -0.2696 -1.1784
 3087SOL     OW20893   3.291   4.351   8.328  0.0426  0.3354  0.8243
 3087SOL    HW120894   3.345   4.313   8.397  0.4721  0.6728  0.6735
 3087SOL    HW220895   3.206   4.353   8.371  0.2046 -3.4107  1.2871
 3088SOL     OW20896   2.528   4.665   2.496 -0.4648  0.0168 -0.5851
 3088SOL    HW120897   2.460   4.729   2.475 -0.9686 -0.3376 -0.0425
 3088SOL    HW220898   2.522   4.607   2.421  0.7005  2.8764 -2.9019
 3089SOL     OW20899   2.914   1.459   9.079  0.3476  0.0810  0.3861
 3089SOL    HW120900   2.867   1.529   9.033  1.7714 -0.0650 -1.2954
 3089SOL    HW220901   2.888   1.460   9.171 -0.6528 -0.0642  0.1126
 3090SOL     OW20902   2.275   3.397  11.401 -0.1583  0.0291 -0.3032
 3090SOL    HW120903   2.234   3.389  11.487  1.3132 -2.2670  0.1517
 3090SOL    HW220904   2.282   3.304  11.380 -1.0290 -0.4392  1.4793
 3091SOL     OW20905   0.777   2.018   4.383  0.5015  0.6022 -0.0327
 3091SOL    HW120906   0.819   1.955   4.325 -1.0284 -1.2073  0.8292
 3091SOL    HW220907   0.838   2.008   4.457  0.2869 -1.5838 -0.1490
 3092SOL     OW20908   3.906   2.572   2.679 -0.1876 -0.0674  0.0167
 3092SOL    HW120909   3.903   2.526   2.763  0.4893 -2.2456 -1.1402
 3092SOL    HW220910   3.811   2.582   2.671 -0.2544 -1.5536 -0.9982
 3093SOL     OW20911   3.084   2.052  14.231  0.9102 -0.3824  0.4873
 3093SOL    HW120912   3.155   2.111  14.205 -1.2240  2.9720  2.1617
 3093SOL    HW220913   3.117   2.033  14.319 -2.1946 -1.2019  1.4804
 3094SOL     OW20914   4.383   3.246  17.468  0.2978 -0.3053 -0.1539
 3094SOL    HW120915   4.336   3.329  17.458 -2.1430 -1.8000 -1.1936
 3094SOL    HW220916   4.317   3.178  17.478  1.5274 -1.8573 -2.5155
 3095SOL     OW20917   0.979   1.189   7.047  0.0646  0.1384  0.0893
 3095SOL    HW120918   1.014   1.215   6.962 -0.8297  0.2040 -0.2574
 3095SOL    HW220919   0.888   1.165   7.026  0.4087 -0.0074 -1.2049
 3096SOL     OW20920   0.865   1.764   6.235  0.2720  0.4177 -0.0651
 3096SOL    HW120921   0.832   1.679   6.206  1.3073 -0.1163  0.3418
 3096SOL    HW220922   0.781   1.807   6.218 -0.8900 -1.6969  0.3482
 3097SOL     OW20923   0.646   4.457   9.940 -0.1565  0.2259  0.2860
 3097SOL    HW120924   0.635   4.528  10.004 -0.9481 -0.0345  0.4434
 3097SOL    HW220925   0.694   4.384   9.978 -0.7771 -0.0478  0.5500
 3098SOL     OW20926   3.669   3.368   2.619 -0.5099 -0.6492 -0.5609
 3098SOL    HW120927   3.601   3.426   2.653  1.5174  1.9732 -0.9791
 3098SOL    HW220928   3.693   3.315   2.695  0.0927  2.9175  1.7508
 3099SOL     OW20929   2.259   3.750   0.314  0.2917  0.0526  0.2850
 3099SOL    HW120930   2.239   3.658   0.331  0.3257  0.3827  2.1522
 3099SOL    HW220931   2.166   3.774   0.320  0.0880 -0.6603 -0.0393
 3100SOL     OW20932   1.479   0.940   4.181 -0.1875  0.1949 -0.3275
 3100SOL    HW120933   1.383   0.939   4.180 -0.1542 -1.6132 -1.7054
 3100SOL    HW220934   1.486   1.008   4.114  0.8558  0.3721 -0.0342
 3101SOL     OW20935   1.262   2.573   7.909 -0.1503 -0.3127  0.0355
 3101SOL    HW120936   1.221   2.658   7.926  0.4422 -0.2341  1.0854
 3101SOL    HW220937   1.273   2.531   7.994 -1.3231 -0.1422  0.2701
 3102SOL     OW20938   2.560   2.632   2.298  0.2457 -0.2499  0.0962
 3102SOL    HW120939   2.506   2.567   2.343 -2.5122 -0.0846 -2.9930
 3102SOL    HW220940   2.518   2.626   2.212  0.7958  4.6359 -0.5051
 3103SOL     OW20941   1.805   2.889  10.111 -0.0212 -0.2624  0.2294
 3103SOL    HW120942   1.712   2.870  10.101 -0.0151  0.2741 -0.8598
 3103SOL    HW220943   1.839   2.804  10.081  0.8420  0.5989 -1.2692
 3104SOL     OW20944   3.925   0.846   3.494  0.2498 -0.5129 -0.9407
 3104SOL    HW120945   3.947   0.796   3.415 -1.1659 -0.1277 -1.5769
 3104SOL    HW220946   4.001   0.904   3.498  0.4061 -0.6517 -1.7535
 3105SOL     OW20947   2.376   3.140  11.997 -0.1808  0.5002  0.7961
 3105SOL    HW120948   2.365   3.055  11.955  0.0420  1.8228 -1.9094
 3105SOL    HW220949   2.291   3.144  12.041  0.6983  1.7394  2.3802
 3106SOL     OW20950   0.744   1.041   3.120  0.1047 -0.0549  0.1973
 3106SOL    HW120951   0.754   0.999   3.205 -1.4049  0.6089  0.7161
 3106SOL    HW220952   0.770   1.132   3.134 -2.1560  0.4668  0.9482
 3107SOL     OW20953   0.717   3.549   6.828 -0.4191  0.4563  0.2449
 3107SOL    HW120954   0.687   3.501   6.905  1.5844 -1.5681 -0.2446
 3107SOL    HW220955   0.809   3.561   6.851 -0.4041  0.5550  0.1342
 3108SOL     OW20956   1.892   3.702  15.239  0.3572  0.0983 -0.3914
 3108SOL    HW120957   1.982   3.736  15.242  0.1209  0.8046 -1.3530
 3108SOL    HW220958   1.842   3.777  15.271  0.6054  0.4375 -0.8036
 3109SOL     OW20959   3.320   3.218   0.336  0.2291 -0.0585 -0.0114
 3109SOL    HW120960   3.387   3.255   0.278 -0.8673  0.7201 -0.7732
 3109SOL    HW220961   3.328   3.276   0.411 -1.7604 -3.9046  3.1373
 3110SOL     OW20962   3.227   1.152   6.216  0.2375  0.2053  0.4324
 3110SOL    HW120963   3.310   1.200   6.215 -2.1114  4.2755 -1.3540
 3110SOL    HW220964   3.255   1.068   6.181 -1.3768  0.5623 -1.6848
 3111SOL     OW20965   3.216   4.350  11.638 -0.8201 -0.7670 -0.5719
 3111SOL    HW120966   3.162   4.392  11.571  0.5436  3.4146  0.8997
 3111SOL    HW220967   3.163   4.351  11.718 -0.3997  1.8312 -0.3014
 3112SOL     OW20968   2.690   4.178   8.572  0.0038  0.0174 -0.0062
 3112SOL    HW120969   2.648   4.262   8.552  1.2554  0.8850  0.9885
 3112SOL    HW220970   2.751   4.195   8.644 -1.4310  1.9668  0.7373
 3113SOL     OW20971   4.041   1.211   1.807  0.4419  0.3570 -0.3720
 3113SOL    HW120972   4.088   1.200   1.889  0.2017  0.3255 -0.2393
 3113SOL    HW220973   4.003   1.124   1.795  2.0562 -0.2677 -1.0362
 3114SOL     OW20974   4.156   2.290   9.105 -0.6882 -0.5631  0.2493
 3114SOL    HW120975   4.143   2.272   9.012  1.9487  2.3229 -0.6456
 3114SOL    HW220976   4.082   2.346   9.129 -0.1749 -0.1978  0.9543
 3115SOL     OW20977   2.423   2.839   4.694 -0.4584  0.0438 -0.3576
 3115SOL    HW120978   2.408   2.792   4.612  2.3382 -0.3465 -0.6163
 3115SOL    HW220979   2.509   2.880   4.686 -0.8081  0.5873 -1.3045
 3116SOL     OW20980   2.938   3.103  11.097 -0.3417 -0.5550  0.5091
 3116SOL    HW120981   2.937   3.011  11.068  0.8128 -0.7245  0.9807
 3116SOL    HW220982   3.009   3.104  11.162 -1.3644 -1.6897  1.6570
 3117SOL     OW20983   0.029   1.543   4.325 -0.1252  0.1693  0.1517
 3117SOL    HW120984   0.095   1.569   4.389 -0.4868 -0.7289  0.8915
 3117SOL    HW220985   4.716   1.624   4.314 -1.1706 -0.3511  1.0609
 3118SOL     OW20986   0.844   3.692   7.260  0.0692 -0.5960 -0.2376
 3118SOL    HW120987   0.880   3.779   7.243  0.6004 -1.0168 -1.2819
 3118SOL    HW220988   0.920   3.636   7.277  0.2353  0.1677  1.5603
 3119SOL     OW20989   4.495   0.910  10.342  0.2967  0.6861  0.8177
 3119SOL    HW120990   4.483   0.923  10.436  0.3181 -1.0230  1.0468
 3119SOL    HW220991   4.405   0.911  10.309  0.8943 -0.0790 -0.8135
 3120SOL     OW20992   2.289   3.877   6.258  0.0434  0.7407 -0.4537
 3120SOL    HW120993   2.354   3.901   6.191 -0.4922  0.2706 -1.1424
 3120SOL    HW220994   2.218   3.941   6.256  1.0790  1.8966  0.4287
 3121SOL     OW20995   3.722   2.906   5.542 -0.1506  0.2545 -0.1584
 3121SOL    HW120996   3.626   2.899   5.543 -0.1224  0.0181  1.0060
 3121SOL    HW220997   3.743   2.840   5.476  2.3828  1.6442 -0.7195
 3122SOL     OW20998   0.389   2.935   2.865 -0.0780 -0.5507  0.3068
 3122SOL    HW120999   0.468   2.945   2.918 -0.1156 -0.5451  0.3612
 3122SOL    HW221000   0.329   2.920   2.938  0.4945 -4.5101 -0.0133
 3123SOL     OW21001   3.795   1.770   7.855  0.1529  0.0067 -0.4077
 3123SOL    HW121002   3.819   1.679   7.838  0.5505 -0.0549  0.4864
 3123SOL    HW221003   3.857   1.793   7.924 -0.6579  1.4115 -0.1326
 3124SOL     OW21004   1.776   3.974   7.004  0.5877  0.5107  0.4664
 3124SOL    HW121005   1.866   4.000   7.022  0.1145  1.5653  1.2481
 3124SOL    HW221006   1.780   3.959   6.909  1.9668 -3.3736  1.1199
 3125SOL     OW21007   4.455   3.208  16.730 -0.2930 -0.0394  0.3968
 3125SOL    HW121008   4.427   3.117  16.721  1.1214 -0.7096  2.8200
 3125SOL    HW221009   4.532   3.207  16.674 -0.8793 -0.7325 -0.3946
 3126SOL     OW21010   3.743   4.712   2.260 -0.1443  0.2536 -0.0072
 3126SOL    HW121011   3.783   0.024   2.188 -1.0891 -0.0572 -0.7433
 3126SOL    HW221012   3.650   4.733   2.249 -0.0734 -0.5363 -2.0603
 3127SOL     OW21013   0.984   0.218  12.514 -0.7454  0.2015  0.0406
 3127SOL    HW121014   0.908   0.163  12.534  0.2097 -0.0418  3.1046
 3127SOL    HW221015   0.978   0.278  12.589  1.2935  1.0219 -0.4520
 3128SOL     OW21016   1.950   2.068   1.940 -0.2335 -0.2939 -0.4377
 3128SOL    HW121017   1.885   2.106   1.880  0.1509  0.5466 -0.3197
 3128SOL    HW221018   1.899   2.103   2.013  2.6128  0.0537  1.3340
 3129SOL     OW21019   2.675   3.402   0.443  0.3174 -0.1082  0.0034
 3129SOL    HW121020   2.691   3.360   0.359 -1.3520 -1.4531  0.3451
 3129SOL    HW221021   2.669   3.492   0.412 -0.1694  0.1212  0.7440
 3130SOL     OW21022   0.376   1.114   3.445 -0.2026  0.3909 -0.1348
 3130SOL    HW121023   0.330   1.072   3.518  1.1419  0.2004  0.5961
 3130SOL    HW221024   0.394   1.198   3.486 -1.7899  0.2233  0.9161
 3131SOL     OW21025   2.099   4.274   4.637 -0.0047 -0.6944 -0.0127
 3131SOL    HW121026   2.053   4.315   4.711  1.6484 -0.4986  0.8929
 3131SOL    HW221027   2.071   4.189   4.670 -0.6822  0.5565  2.6853
 3132SOL     OW21028   3.002   4.499  14.540  0.0624  0.6078  0.0299
 3132SOL    HW121029   3.025   4.592  14.531 -3.9456  1.5112 -1.2009
 3132SOL    HW221030   3.065   4.466  14.476  1.0307  0.5413  1.0237
 3133SOL     OW21031   4.320   2.798   9.167 -0.4468 -0.1481 -0.1109
 3133SOL    HW121032   4.299   2.884   9.203 -1.5208 -0.3340 -0.2922
 3133SOL    HW221033   4.287   2.749   9.242 -1.4388  0.0759 -0.3890
 3134SOL     OW21034   4.455   1.941   6.278  0.6583 -1.1386  0.0484
 3134SOL    HW121035   4.519   1.916   6.344 -1.1409 -2.9692  1.0897
 3134SOL    HW221036   4.398   1.864   6.277  0.1932 -0.8015  0.4750
 3135SOL     OW21037   4.098   2.011   5.601 -0.0913  0.2264 -0.7865
 3135SOL    HW121038   4.186   2.012   5.563  0.4298 -3.4996  0.3489
 3135SOL    HW221039   4.043   1.983   5.528 -3.5117 -1.0721  2.2868
 3136SOL     OW21040   2.050   1.366   4.586  0.5800 -0.0059  0.1337
 3136SOL    HW121041   2.004   1.287   4.559  0.3696  0.5329 -1.1059
 3136SOL    HW221042   2.061   1.423   4.510 -2.1906  1.8558  1.1463
 3137SOL     OW21043   2.741   1.750  14.403 -0.1379  0.1393  0.4702
 3137SOL    HW121044   2.794   1.792  14.335  1.1746 -1.7364  0.3349
 3137SOL    HW221045   2.801   1.700  14.458  3.3663  0.6261 -2.9649
 3138SOL     OW21046   1.077   2.646   2.227  0.5318  0.4363  0.7177
 3138SOL    HW121047   1.048   2.710   2.161  3.2419 -0.7266 -1.5714
 3138SOL    HW221048   1.091   2.566   2.177  1.3339  2.0112 -1.6176
 3139SOL     OW21049   3.947   4.404   2.076 -0.5660 -0.1708 -0.0609
 3139SOL    HW121050   3.958   4.479   2.017  0.6135  0.5717  1.1044
 3139SOL    HW221051   4.037   4.384   2.100 -0.3091  0.7108 -0.2595
 3140SOL     OW21052   1.560   3.847   4.443  0.2785  0.1166  0.9084
 3140SOL    HW121053   1.551   3.919   4.380 -3.2333  0.0781  1.3699
 3140SOL    HW221054   1.548   3.899   4.523 -0.6607 -2.0153  2.1463
 3141SOL     OW21055   4.107   4.337   1.706  0.4271  0.2850  0.4801
 3141SOL    HW121056   4.068   4.417   1.672  0.0601 -0.5874 -1.1602
 3141SOL    HW221057   4.132   4.366   1.794  2.3639  1.4869 -0.4585
 3142SOL     OW21058   1.230   3.937  16.108 -0.1708 -0.2576 -0.2674
 3142SOL    HW121059   1.174   3.863  16.083 -1.8949  1.2044 -0.7382
 3142SOL    HW221060   1.286   3.938  16.030 -0.9561 -0.5531 -0.8362
 3143SOL     OW21061   3.484   0.544   0.873 -0.0974  0.0552  0.6121
 3143SOL    HW121062   3.418   0.485   0.838 -0.0589  0.6839 -0.4945
 3143SOL    HW221063   3.556   0.494   0.913 -0.2073 -1.2405 -0.8261
 3144SOL     OW21064   4.054   2.777   9.961  0.1915 -0.3490  0.1918
 3144SOL    HW121065   4.098   2.702   9.920  0.7559  0.3528 -0.4850
 3144SOL    HW221066   4.032   2.749  10.050 -1.1539  1.5459  0.4477
 3145SOL     OW21067   2.157   1.136   7.358 -0.2520 -0.3371 -0.1182
 3145SOL    HW121068   2.085   1.155   7.298  0.2001  2.3885  0.2271
 3145SOL    HW221069   2.124   1.075   7.424  0.3736 -0.4088  0.1299
 3146SOL     OW21070   3.614   1.569   6.397 -0.3699 -0.4637 -0.5835
 3146SOL    HW121071   3.559   1.584   6.474 -0.7537  0.0247 -0.9606
 3146SOL    HW221072   3.630   1.475   6.411 -2.1467 -0.7075 -0.2269
 3147SOL     OW21073   0.859   4.319   6.345 -0.3473  0.2993 -0.0621
 3147SOL    HW121074   0.799   4.363   6.405 -0.2653 -0.8670  0.8919
 3147SOL    HW221075   0.949   4.335   6.376 -0.1855 -0.3798 -0.1650
 3148SOL     OW21076   0.011   4.242   4.290  0.6190  0.4763  0.4581
 3148SOL    HW121077   4.665   4.211   4.252  2.1308  0.0882 -2.4955
 3148SOL    HW221078   0.018   4.322   4.237  1.5008  0.2160  0.1857
 3149SOL     OW21079   0.408   3.123   2.213 -0.4617  0.0258 -0.1637
 3149SOL    HW121080   0.476   3.137   2.279  0.2163 -2.1466 -0.4067
 3149SOL    HW221081   0.340   3.092   2.272 -0.5815 -2.6272 -1.7163
 3150SOL     OW21082   0.465   3.057   8.934  0.4215  0.1672 -0.4602
 3150SOL    HW121083   0.466   2.967   8.902  0.3695 -0.6607  1.8609
 3150SOL    HW221084   0.373   3.080   8.924 -0.3756 -1.8368  2.1568
 3151SOL     OW21085   2.619   2.946   9.442 -0.0842  0.0381 -0.2034
 3151SOL    HW121086   2.579   2.929   9.357 -1.3490 -0.5389  0.5061
 3151SOL    HW221087   2.599   2.862   9.482 -0.1646  0.0330 -0.2527
 3152SOL     OW21088   0.441   2.244   1.285  1.2602  0.5416 -0.0412
 3152SOL    HW121089   0.455   2.265   1.378  0.0100 -0.6929  0.4291
 3152SOL    HW221090   0.356   2.201   1.294  0.1628  2.2154 -2.5453
 3153SOL     OW21091   0.612   0.758   6.715 -0.3107 -0.1724  0.2736
 3153SOL    HW121092   0.707   0.765   6.727 -0.4374  3.0553 -0.5565
 3153SOL    HW221093   0.591   0.708   6.794 -2.8320  0.9310  0.2866
 3154SOL     OW21094   4.552   3.524   1.245 -0.1763 -0.7049  0.7383
 3154SOL    HW121095   4.559   3.503   1.338  0.9446 -0.8638  0.6182
 3154SOL    HW221096   4.461   3.510   1.220  0.1768 -1.4749 -0.1166
 3155SOL     OW21097   0.839   2.979   4.812 -0.2390 -0.0102  0.6060
 3155SOL    HW121098   0.845   2.896   4.765  2.4436  1.6005 -1.9011
 3155SOL    HW221099   0.875   2.946   4.895  0.4507 -0.4948  0.1164
 3156SOL     OW21100   1.796   2.210  12.016 -0.1230  0.0816  0.3387
 3156SOL    HW121101   1.869   2.272  12.021  0.6274 -0.9553  1.8483
 3156SOL    HW221102   1.765   2.231  11.927 -0.9559 -0.8579  0.4095
 3157SOL     OW21103   2.740   4.033  17.098  0.8620 -0.7606  0.1439
 3157SOL    HW121104   2.694   4.063  17.177 -1.3145  0.9048 -1.7521
 3157SOL    HW221105   2.700   4.087  17.031 -2.4876 -1.8696  1.2301
 3158SOL     OW21106   1.334   1.207   8.409 -0.2268  0.0651 -0.3204
 3158SOL    HW121107   1.246   1.169   8.414  0.7354 -1.9290  1.1483
 3158SOL    HW221108   1.314   1.259   8.330  0.6482 -0.3587 -0.8226
 3159SOL     OW21109   2.212   1.195   3.078  0.4296  0.3274 -0.0623
 3159SOL    HW121110   2.252   1.170   2.994  2.3298  0.3909  0.8255
 3159SOL    HW221111   2.241   1.286   3.087  2.2434 -0.1896 -0.6177
 3160SOL     OW21112   0.876   1.199  13.562 -0.2558 -0.0316 -0.1854
 3160SOL    HW121113   0.781   1.207  13.561 -0.2254  0.0390 -1.8999
 3160SOL    HW221114   0.891   1.148  13.642 -1.4284  0.3213  0.2629
 3161SOL     OW21115   1.260   4.511   7.259  0.0465  0.6063  0.1254
 3161SOL    HW121116   1.321   4.438   7.253  0.9036  1.3426 -0.0750
 3161SOL    HW221117   1.295   4.559   7.335 -2.8969  2.0199  0.5957
 3162SOL     OW21118   1.620   1.171  10.643 -0.5883 -0.6026 -0.1044
 3162SOL    HW121119   1.681   1.099  10.630  0.1618 -0.0252  0.2068
 3162SOL    HW221120   1.606   1.209  10.557 -0.7761 -1.5738 -0.4976
 3163SOL     OW21121   2.352   1.158   1.464  0.2494  0.4211 -0.1551
 3163SOL    HW121122   2.283   1.223   1.455 -1.0448 -0.9536 -0.3046
 3163SOL    HW221123   2.290   1.087   1.480 -0.8840  2.0642  2.6289
 3164SOL     OW21124   0.500   0.456   9.551  0.3753 -0.0939 -0.5643
 3164SOL    HW121125   0.524   0.364   9.566  0.8074 -0.1199 -1.4087
 3164SOL    HW221126   0.404   0.448   9.546  0.3609 -0.7415  0.8283
 3165SOL     OW21127   0.683   3.543   3.453 -0.2791 -0.0828  0.3778
 3165SOL    HW121128   0.715   3.482   3.520  1.2984 -0.2859 -0.5432
 3165SOL    HW221129   0.681   3.627   3.498 -0.9167 -0.3285  0.7948
 3166SOL     OW21130   1.015   3.462  16.337  0.0331 -0.0203  0.3538
 3166SOL    HW121131   1.093   3.443  16.284  0.5480  0.4379  0.9589
 3166SOL    HW221132   0.943   3.413  16.296  1.0653 -1.1379 -0.1286
 3167SOL     OW21133   3.361   0.352   5.321 -0.3923 -0.1414 -0.1759
 3167SOL    HW121134   3.384   0.276   5.374  1.0793 -0.8108 -1.7580
 3167SOL    HW221135   3.300   0.311   5.261  0.0700 -0.7437 -0.2364
 3168SOL     OW21136   4.717   0.608   8.868 -0.1338  0.0412 -0.6025
 3168SOL    HW121137   4.639   0.611   8.923  0.4524 -1.1059  0.2800
 3168SOL    HW221138   0.050   0.654   8.915 -1.4636  1.3532  0.0747
 3169SOL     OW21139   1.166   2.558   5.761  0.0884  0.4575 -0.1169
 3169SOL    HW121140   1.193   2.580   5.671  1.0731 -1.0729 -0.1977
 3169SOL    HW221141   1.071   2.574   5.756  0.0642  0.2779 -0.2203
 3170SOL     OW21142   4.006   2.155   9.977 -0.1000  0.4005 -0.7143
 3170SOL    HW121143   3.955   2.078   9.953 -0.3757  0.3121  0.1708
 3170SOL    HW221144   4.086   2.110  10.004  0.1181  0.1320 -1.8287
 3171SOL     OW21145   1.606   2.685   6.083 -0.4503  0.0727  0.7803
 3171SOL    HW121146   1.563   2.771   6.082 -1.0606 -0.2311  2.0589
 3171SOL    HW221147   1.539   2.618   6.086  0.9853 -1.2900  1.9569
 3172SOL     OW21148   0.142   3.846   8.401 -0.0397  0.1768 -0.5111
 3172SOL    HW121149   0.186   3.794   8.334  1.6694  0.6618  0.2292
 3172SOL    HW221150   0.060   3.833   8.353  0.9381  1.0704 -2.4128
 3173SOL     OW21151   0.188   2.620   8.763 -0.1603  0.1356 -0.0631
 3173SOL    HW121152   0.196   2.698   8.709 -0.3273 -1.5548 -2.5127
 3173SOL    HW221153   0.167   2.546   8.706 -0.0240 -2.1017  2.7476
 3174SOL     OW21154   4.169   3.374   5.183  0.2161 -0.5403 -0.4192
 3174SOL    HW121155   4.083   3.345   5.214 -0.7095  0.2263 -2.2569
 3174SOL    HW221156   4.190   3.437   5.253  0.2026  0.4519 -1.3143
 3175SOL     OW21157   3.305   1.330  13.713  0.6187  0.0009 -0.0189
 3175SOL    HW121158   3.380   1.289  13.669  0.2897 -0.1007 -0.4912
 3175SOL    HW221159   3.258   1.358  13.635 -1.9346  0.1968  1.6034
 3176SOL     OW21160   3.972   3.424   9.044 -0.2577  0.2764 -0.3519
 3176SOL    HW121161   4.000   3.411   9.135 -0.7144 -2.9156 -0.6737
 3176SOL    HW221162   3.882   3.453   9.059 -0.0557  0.4420  0.5278
 3177SOL     OW21163   0.473   1.052   2.708 -0.2185  0.5098 -0.5640
 3177SOL    HW121164   0.469   1.089   2.619  1.1725  1.7022 -0.1226
 3177SOL    HW221165   0.520   0.969   2.693 -2.1877 -0.6020 -0.5147
 3178SOL     OW21166   1.858   0.584   3.842  0.1258  0.5056 -0.0153
 3178SOL    HW121167   1.934   0.590   3.785 -1.7897  2.1462 -2.4175
 3178SOL    HW221168   1.894   0.566   3.929 -2.3232 -1.5156  0.5736
 3179SOL     OW21169   1.265   2.689  13.657  0.2781  0.3855  0.4137
 3179SOL    HW121170   1.344   2.723  13.698  0.7563  0.3615 -0.4810
 3179SOL    HW221171   1.248   2.757  13.592 -1.1868  0.7457  1.1666
 3180SOL     OW21172   0.919   3.871   5.150  0.3034  0.6653  0.2674
 3180SOL    HW121173   0.967   3.820   5.216 -1.4466  0.0088  1.0241
 3180SOL    HW221174   0.871   3.925   5.213 -1.9346 -0.4612 -0.4734
 3181SOL     OW21175   2.919   0.472   4.160  0.1496  0.0727 -0.1757
 3181SOL    HW121176   2.903   0.391   4.207  0.5895  0.4183  0.5623
 3181SOL    HW221177   2.847   0.526   4.191 -1.5204 -0.7338 -2.6164
 3182SOL     OW21178   2.090   1.539   8.936  0.1127 -0.2706  0.1406
 3182SOL    HW121179   2.004   1.497   8.935 -0.5285  1.0935 -1.6363
 3182SOL    HW221180   2.094   1.561   9.029  0.0695  0.7228 -0.0937
 3183SOL     OW21181   2.462   2.506   5.876 -0.2876  0.4914 -0.0821
 3183SOL    HW121182   2.372   2.482   5.899  0.7280  0.7438  4.2132
 3183SOL    HW221183   2.474   2.460   5.793 -2.0183  2.1263 -1.2513
 3184SOL     OW21184   0.062   3.780   1.554  0.6310 -0.1835  0.0021
 3184SOL    HW121185   0.018   3.750   1.474 -1.4376 -1.2876  1.5458
 3184SOL    HW221186   0.144   3.731   1.554  1.2637  0.8694  2.0066
 3185SOL     OW21187   4.334   1.649   5.063 -0.2932 -0.6497 -0.7298
 3185SOL    HW121188   4.279   1.684   5.133  0.2866  0.1473 -0.6791
 3185SOL    HW221189   4.282   1.574   5.033 -0.2212 -1.2164  0.5319
 3186SOL     OW21190   1.505   4.590   6.131 -0.3106 -0.7227  0.2267
 3186SOL    HW121191   1.413   4.563   6.135 -0.6217  0.3404  0.3929
 3186SOL    HW221192   1.522   4.535   6.054 -2.3513  0.7671 -1.2928
 3187SOL     OW21193   1.797   1.047   2.124  0.2219  0.1157  0.0564
 3187SOL    HW121194   1.717   1.068   2.075  1.5473  2.8538 -0.8886
 3187SOL    HW221195   1.800   1.120   2.186  0.5153  1.5794 -1.7145
 3188SOL     OW21196   2.423   0.971   4.765  0.6741  0.1459 -0.1365
 3188SOL    HW121197   2.436   1.058   4.727 -0.2549  0.2144 -0.2876
 3188SOL    HW221198   2.348   0.942   4.715  0.1648 -1.4633  1.5550
 3189SOL     OW21199   1.818   3.947   5.068  0.3799  0.5626  0.2219
 3189SOL    HW121200   1.909   3.973   5.082  0.1150  1.1260  0.8642
 3189SOL    HW221201   1.801   3.996   4.988 -0.2056 -0.3682 -0.2209
 3190SOL     OW21202   2.424   2.379   7.408 -0.1682 -0.0316  0.9369
 3190SOL    HW121203   2.396   2.456   7.457 -1.1190  2.3164 -3.2140
 3190SOL    HW221204   2.505   2.356   7.453 -0.0097  3.1390  2.2887
 3191SOL     OW21205   2.356   0.811   9.630 -0.1420 -0.1560  0.1351
 3191SOL    HW121206   2.277   0.791   9.580  1.3967 -0.0348 -2.3633
 3191SOL    HW221207   2.354   0.749   9.703  0.3429  0.8577  1.0260
 3192SOL     OW21208   0.839   4.456  11.077  0.2699  0.8622  0.0523
 3192SOL    HW121209   0.824   4.362  11.080 -1.7775  1.1310 -2.2081
 3192SOL    HW221210   0.836   4.468  10.982  3.2096 -2.7457 -0.4883
 3193SOL     OW21211   2.296   1.623   5.644 -0.7635 -0.3894 -0.2228
 3193SOL    HW121212   2.287   1.694   5.581 -2.6694  0.6926  1.3003
 3193SOL    HW221213   2.218   1.647   5.693  1.8175  3.0134  2.2185
 3194SOL     OW21214   3.322   1.998  10.380 -0.2631  0.3649 -1.2411
 3194SOL    HW121215   3.266   1.926  10.350  0.4575 -1.2280  1.2817
 3194SOL    HW221216   3.266   2.045  10.442 -1.8485  0.9605 -3.1024
 3195SOL     OW21217   0.919   4.126   6.695 -0.2504 -0.1757  0.0591
 3195SOL    HW121218   0.933   4.138   6.788 -2.9657 -0.0447  0.4676
 3195SOL    HW221219   0.987   4.184   6.661 -0.5602 -1.3105 -2.5375
 3196SOL     OW21220   1.572   2.993  16.748 -0.6601  0.0390  0.5188
 3196SOL    HW121221   1.510   2.926  16.717 -0.9304  1.8602 -2.8690
 3196SOL    HW221222   1.646   2.977  16.690  0.5213 -0.6142  2.1867
 3197SOL     OW21223   0.957   1.035   8.071 -0.0862 -0.3358 -0.4973
 3197SOL    HW121224   1.027   1.018   8.007  0.6312  2.2687 -0.4314
 3197SOL    HW221225   0.969   0.961   8.130  1.6415  0.7578  0.5176
 3198SOL     OW21226   4.377   1.842  12.435  0.0217 -0.3505 -0.5482
 3198SOL    HW121227   4.370   1.746  12.433 -0.8738 -0.2960  0.2282
 3198SOL    HW221228   4.417   1.868  12.518 -0.0758  0.0327 -0.6212
 3199SOL     OW21229   1.490   3.750   0.489  0.0030  0.6381  0.0659
 3199SOL    HW121230   1.409   3.796   0.469 -0.4877  0.0585  0.7064
 3199SOL    HW221231   1.450   3.696   0.557 -0.3195  2.7469  1.5323
 3200SOL     OW21232   2.675   3.607  12.846 -0.4032 -0.2106 -0.4006
 3200SOL    HW121233   2.654   3.634  12.936 -1.9534  0.1361 -0.8684
 3200SOL    HW221234   2.609   3.650  12.792 -0.2871  2.4993  1.5891
 3201SOL     OW21235   0.698   3.592   8.681  0.1167  0.3343 -0.1443
 3201SOL    HW121236   0.695   3.644   8.762  0.4770  0.5799 -0.2840
 3201SOL    HW221237   0.768   3.641   8.635  1.2768 -2.3044 -1.1860
 3202SOL     OW21238   1.930   1.956  13.511 -0.1510 -0.0194 -0.2572
 3202SOL    HW121239   1.837   1.975  13.497  0.0624  0.0728 -1.5599
 3202SOL    HW221240   1.924   1.860  13.506 -0.5976 -0.0031  0.0058
 3203SOL     OW21241   0.751   4.127   9.654 -0.5183  0.0098  0.1969
 3203SOL    HW121242   0.703   4.051   9.620 -2.4478  0.4659  1.9168
 3203SOL    HW221243   0.838   4.095   9.632 -1.3326 -2.5721  0.7413
 3204SOL     OW21244   3.051   0.166  11.610 -0.0685 -0.2340  0.1695
 3204SOL    HW121245   2.992   0.241  11.604  0.1390 -0.1399 -0.7622
 3204SOL    HW221246   3.135   0.202  11.582  0.2368 -2.4148 -1.7638
 3205SOL     OW21247   0.674   1.242   3.362 -0.6702  0.0191 -0.4283
 3205SOL    HW121248   0.695   1.186   3.436 -1.9419  0.1419  0.0408
 3205SOL    HW221249   0.587   1.272   3.388 -0.0324  2.5299 -1.1930
 3206SOL     OW21250   1.084   4.287   8.077  0.2981 -0.7227 -0.7689
 3206SOL    HW121251   1.087   4.246   8.163 -2.2692 -0.9995 -0.8290
 3206SOL    HW221252   1.145   4.225   8.036 -1.4496 -1.5355 -2.1124
 3207SOL     OW21253   3.439   4.184  11.655 -0.2382 -0.0170 -0.4583
 3207SOL    HW121254   3.360   4.239  11.657 -0.2802 -0.1965  3.1438
 3207SOL    HW221255   3.461   4.197  11.563  2.2983 -0.5227  0.0637
 3208SOL     OW21256   0.554   0.499   2.677 -0.2459  0.0833 -0.1066
 3208SOL    HW121257   0.582   0.530   2.591 -0.4455  1.3539  0.2842
 3208SOL    HW221258   0.625   0.534   2.731  0.5460  0.1420 -1.1970
 3209SOL     OW21259   0.659   0.096   6.144 -0.5697 -0.2338  0.1968
 3209SOL    HW121260   0.566   0.085   6.166 -0.6609 -1.3606 -0.7673
 3209SOL    HW221261   0.697   0.014   6.175 -1.8147 -0.6604  0.6024
 3210SOL     OW21262   2.952   4.625   2.881 -0.2509  0.1530  0.2843
 3210SOL    HW121263   3.017   4.610   2.950 -0.6362  4.0057  1.4644
 3210SOL    HW221264   3.017   4.642   2.813  0.8584  0.9515  1.5527
 3211SOL     OW21265   2.165   3.811  15.174 -0.2765 -0.6048 -0.1798
 3211SOL    HW121266   2.106   3.881  15.147  0.7317  0.0016 -0.8442
 3211SOL    HW221267   2.207   3.846  15.252  0.0128 -0.8727 -0.2133
 3212SOL     OW21268   3.759   0.648   4.306 -0.0410  0.4254  0.1716
 3212SOL    HW121269   3.728   0.728   4.348  2.3208  1.3256  0.2493
 3212SOL    HW221270   3.686   0.621   4.252 -1.1462  0.3552  1.7073
 3213SOL     OW21271   3.349   3.148   7.345 -0.0596  0.2262  0.0972
 3213SOL    HW121272   3.330   3.119   7.256 -1.7844  1.0724  0.2026
 3213SOL    HW221273   3.272   3.191   7.381  0.1531  1.3535 -0.8239
 3214SOL     OW21274   4.734   1.963   5.105 -0.3362  0.2628 -0.4195
 3214SOL    HW121275   4.725   1.956   5.200 -5.0868  0.0485 -0.8599
 3214SOL    HW221276   4.731   1.872   5.075 -1.5776 -0.8906  3.1746
 3215SOL     OW21277   4.639   3.257  17.576 -0.0890  0.3832  0.0807
 3215SOL    HW121278   4.545   3.263  17.554 -0.0073 -0.6267 -0.5402
 3215SOL    HW221279   4.691   3.302  17.509  2.5732 -2.8600  0.0138
 3216SOL     OW21280   3.355   3.674   8.946 -0.1243 -0.0547  0.4379
 3216SOL    HW121281   3.440   3.656   8.985  0.2960  1.1328  0.0703
 3216SOL    HW221282   3.301   3.621   9.005  0.6557  0.5563  1.7019
 3217SOL     OW21283   3.934   2.319   8.689  0.2361 -0.1082 -0.4188
 3217SOL    HW121284   3.854   2.267   8.678 -0.5876  1.3978 -1.3983
 3217SOL    HW221285   3.898   2.407   8.678 -0.0583 -0.4096 -1.7760
 3218SOL     OW21286   2.694   0.864  10.186  0.0921  0.1612  0.0886
 3218SOL    HW121287   2.712   0.904  10.101  0.5994 -0.9355 -0.3278
 3218SOL    HW221288   2.781   0.840  10.218 -0.0243  0.6758  0.7761
 3219SOL     OW21289   2.905   3.243   4.733  0.0903 -0.5760  0.1136
 3219SOL    HW121290   2.832   3.201   4.688 -0.5058 -0.7859  1.2618
 3219SOL    HW221291   2.979   3.207   4.686 -0.2868  0.5696 -1.3496
 3220SOL     OW21292   1.159   1.569   6.893 -0.3130 -0.0275  0.9660
 3220SOL    HW121293   1.212   1.649   6.890  1.2266 -1.0707  0.3160
 3220SOL    HW221294   1.230   1.506   6.909  0.3615  0.0070 -1.7838
 3221SOL     OW21295   4.522   4.019   5.359  0.0187 -0.4217  0.1369
 3221SOL    HW121296   4.598   4.042   5.306 -0.6016  2.5632  0.5890
 3221SOL    HW221297   4.534   3.924   5.371  0.0114 -0.3487  0.6987
 3222SOL     OW21298   2.984   0.574   3.516  0.0922  0.7857 -0.1550
 3222SOL    HW121299   2.952   0.486   3.495 -1.1174  1.3529 -0.6935
 3222SOL    HW221300   2.971   0.616   3.431 -0.9403 -1.7405 -1.2629
 3223SOL     OW21301   2.154   3.533   6.307  0.3735 -0.2700 -0.3057
 3223SOL    HW121302   2.153   3.459   6.245  0.7088  0.3099 -1.0065
 3223SOL    HW221303   2.232   3.583   6.280 -1.0848  2.0619 -0.1573
 3224SOL     OW21304   2.095   2.129   4.310 -0.2937  0.7256  0.3143
 3224SOL    HW121305   2.061   2.217   4.327 -0.3831  0.1012  3.3430
 3224SOL    HW221306   2.063   2.107   4.223  0.9137 -0.8721  0.2809
 3225SOL     OW21307   3.799   1.661   8.627  0.2123  0.0453 -0.5417
 3225SOL    HW121308   3.740   1.703   8.691 -1.5238 -1.6716 -1.0008
 3225SOL    HW221309   3.730   1.634   8.566  0.2653  0.4287 -0.7734
 3226SOL     OW21310   3.755   1.394  13.774 -0.2561  0.3452  0.2070
 3226SOL    HW121311   3.778   1.481  13.806  3.0951 -0.3876 -0.2656
 3226SOL    HW221312   3.760   1.387  13.679  3.9149 -1.0075  0.5490
 3227SOL     OW21313   3.522   3.233  17.112  0.4686 -0.3537  0.0289
 3227SOL    HW121314   3.572   3.311  17.089  2.2131 -1.3715  0.3823
 3227SOL    HW221315   3.550   3.168  17.047  1.9681  0.3546 -0.0455
 3228SOL     OW21316   2.902   4.070   5.197 -0.4349  0.1792 -0.6865
 3228SOL    HW121317   2.948   4.085   5.115 -1.0192 -0.4820 -1.1345
 3228SOL    HW221318   2.971   4.093   5.259 -1.0203 -3.1839  1.1900
 3229SOL     OW21319   0.896   1.488   5.602  0.3134 -0.2636 -0.5496
 3229SOL    HW121320   0.823   1.543   5.628  0.3092 -2.1909  3.4673
 3229SOL    HW221321   0.893   1.419   5.667  0.3434 -0.5197 -0.8187
 3230SOL     OW21322   3.031   0.292  15.268  0.4982  0.5807 -0.1007
 3230SOL    HW121323   3.085   0.292  15.347  1.8765 -0.8402 -1.0323
 3230SOL    HW221324   3.102   0.318  15.209 -1.0160 -0.7001 -2.4547
 3231SOL     OW21325   4.686   1.491   8.437 -0.1349  0.6049 -0.0980
 3231SOL    HW121326   0.024   1.550   8.434  1.1557 -1.0511 -0.8373
 3231SOL    HW221327   4.639   1.518   8.516  1.5813  1.0140  0.7726
 3232SOL     OW21328   3.534   0.663   9.116  0.2834  0.0185  0.2046
 3232SOL    HW121329   3.449   0.632   9.085 -0.4340 -0.2666  2.4126
 3232SOL    HW221330   3.605   0.609   9.080 -0.6932  0.4329 -2.3417
 3233SOL     OW21331   0.092   4.565   7.022  0.2335  0.3518 -0.0125
 3233SOL    HW121332   0.000   4.582   7.000 -0.0125  1.5140  1.9322
 3233SOL    HW221333   0.120   4.536   6.935 -1.5582 -1.1319 -0.1155
 3234SOL     OW21334   2.868   2.881   5.365 -0.2394  0.0976  0.2946
 3234SOL    HW121335   2.866   2.907   5.457 -0.4177  0.0638  0.2999
 3234SOL    HW221336   2.962   2.887   5.347 -0.4950 -0.4852 -1.1999
 3235SOL     OW21337   1.147   0.603   7.795  0.4546  0.3485 -0.4074
 3235SOL    HW121338   1.192   0.687   7.794  1.3419 -0.1201  0.8341
 3235SOL    HW221339   1.071   0.629   7.848  1.4602 -0.7418  1.5781
 3236SOL     OW21340   4.436   3.868  16.407  0.0016 -0.0188  0.3663
 3236SOL    HW121341   4.507   3.913  16.362  0.6160  0.1346  1.4853
 3236SOL    HW221342   4.363   3.915  16.366 -0.5502  0.2912  1.6974
 3237SOL     OW21343   1.296   2.447  14.618  0.2040 -0.0887  0.0827
 3237SOL    HW121344   1.269   2.430  14.528 -2.4840 -1.8940  1.2282
 3237SOL    HW221345   1.211   2.459  14.661 -0.1185 -0.2206 -0.5145
 3238SOL     OW21346   4.680   3.896  16.032 -0.1480  0.0527 -0.2458
 3238SOL    HW121347   0.038   3.903  16.018 -0.0318 -1.3453 -0.1618
 3238SOL    HW221348   4.660   3.805  16.011 -0.4165  0.1761 -0.5209
 3239SOL     OW21349   4.394   4.412   4.055  0.1445 -0.2103  0.2725
 3239SOL    HW121350   4.320   4.453   4.010  0.1852  0.1886  0.5690
 3239SOL    HW221351   4.385   4.320   4.029  0.6191  0.5789 -2.6921
 3240SOL     OW21352   1.315   0.747   3.391 -0.0844  0.6915  0.3105
 3240SOL    HW121353   1.236   0.768   3.440 -0.0915 -0.3765  0.7666
 3240SOL    HW221354   1.299   0.804   3.316 -1.4272 -1.2060 -0.8215
 3241SOL     OW21355   4.243   4.569   3.880  0.0132 -0.6024 -0.4071
 3241SOL    HW121356   4.287   4.546   3.798 -0.3187  0.2451 -0.8160
 3241SOL    HW221357   4.265   4.662   3.875  2.2509 -1.0394  0.8373
 3242SOL     OW21358   2.095   4.060   5.017  0.0801 -0.6403 -0.0376
 3242SOL    HW121359   2.138   3.993   5.070 -0.0874 -1.5830 -1.0926
 3242SOL    HW221360   2.166   4.112   4.979 -0.7787  0.0998 -0.6203
 3243SOL     OW21361   4.584   1.370   1.401  0.1865  0.1626  0.3746
 3243SOL    HW121362   4.611   1.338   1.314  0.0614  0.3158  0.2799
 3243SOL    HW221363   4.552   1.290   1.443 -1.3767  1.3242  1.3721
 3244SOL     OW21364   3.150   1.501   5.763 -0.1517 -0.3307 -0.2597
 3244SOL    HW121365   3.134   1.420   5.810 -0.3465 -0.2584 -0.2002
 3244SOL    HW221366   3.137   1.569   5.829  0.7610 -1.8844  1.4876
 3245SOL     OW21367   2.131   0.954   1.464 -0.1013 -0.1600  0.9393
 3245SOL    HW121368   2.063   0.962   1.397 -0.5641  1.2677  1.5624
 3245SOL    HW221369   2.082   0.994   1.536 -0.7271 -0.3852  0.6276
 3246SOL     OW21370   0.397   0.487   8.735  0.1800  0.6247 -0.6348
 3246SOL    HW121371   0.303   0.468   8.735  0.2173  0.5319  1.6403
 3246SOL    HW221372   0.392   0.557   8.669 -1.8054  0.9690 -0.1042
 3247SOL     OW21373   3.138   3.580   2.879  0.2144 -0.2688  0.4937
 3247SOL    HW121374   3.089   3.503   2.906 -0.9927 -1.0202 -3.8505
 3247SOL    HW221375   3.156   3.564   2.786 -1.9711  4.1770 -0.7192
 3248SOL     OW21376   2.108   1.186  15.502 -0.4729 -0.0592 -0.2226
 3248SOL    HW121377   2.056   1.266  15.501  0.7795  0.6894 -3.1455
 3248SOL    HW221378   2.181   1.203  15.443 -1.2863 -3.3566 -2.2049
 3249SOL     OW21379   2.508   4.698   7.405  0.6415  0.1038 -0.1119
 3249SOL    HW121380   2.428   4.710   7.456 -0.0727 -2.1296 -0.6979
 3249SOL    HW221381   2.553   0.045   7.415 -0.2955  0.3757  1.9614
 3250SOL     OW21382   1.630   1.649   8.573  0.3974  0.0791 -0.2298
 3250SOL    HW121383   1.573   1.709   8.621  0.6165 -0.3752  0.5808
 3250SOL    HW221384   1.560   1.586   8.556 -0.0515  0.5931 -0.2997
 3251SOL     OW21385   4.250   0.950   8.866 -0.0214 -0.0390 -0.2554
 3251SOL    HW121386   4.291   0.864   8.856 -3.0195 -1.4060 -0.8137
 3251SOL    HW221387   4.320   1.014   8.880  0.6758 -0.8116 -0.2179
 3252SOL     OW21388   3.142   3.516  10.598 -0.0618  0.0475 -0.2550
 3252SOL    HW121389   3.187   3.539  10.679 -1.1177  0.0001  0.3510
 3252SOL    HW221390   3.114   3.607  10.585  2.9517  0.7075 -2.0925
 3253SOL     OW21391   1.028   0.679   0.101 -0.2812  0.5723 -0.0742
 3253SOL    HW121392   1.114   0.720   0.088 -0.4042  0.6299 -0.6993
 3253SOL    HW221393   1.059   0.595   0.134  2.9635  1.4814 -0.8030
 3254SOL     OW21394   1.941   2.979   6.119  0.6439 -0.0808  0.2646
 3254SOL    HW121395   1.942   2.919   6.194  2.0160  1.6079  1.5819
 3254SOL    HW221396   1.992   2.926   6.058  0.6809  0.2972 -0.0320
 3255SOL     OW21397   0.283   1.152  11.671 -0.6033 -0.2447 -0.1363
 3255SOL    HW121398   0.200   1.173  11.715 -0.0367 -0.8088  1.2032
 3255SOL    HW221399   0.259   1.080  11.613 -0.2981 -1.8516  1.7247
 3256SOL     OW21400   0.171   0.086   7.034  0.3691 -0.5886  0.4970
 3256SOL    HW121401   0.149   4.729   7.033  1.4249 -0.8118 -0.9481
 3256SOL    HW221402   0.100   0.122   6.981  2.0186  0.4194 -1.0099
 3257SOL     OW21403   0.307   0.641   4.951  0.0610 -0.2352 -0.3948
 3257SOL    HW121404   0.264   0.601   5.026  1.2692 -1.0377 -0.1294
 3257SOL    HW221405   0.267   0.727   4.966  0.0929 -0.5799  1.6374
 3258SOL     OW21406   2.710   2.859  16.978 -0.1193 -0.2066  0.0408
 3258SOL    HW121407   2.780   2.895  17.032  0.2626  2.6420 -2.3146
 3258SOL    HW221408   2.702   2.935  16.920  2.0654 -1.0291 -1.3303
 3259SOL     OW21409   2.197   1.617  15.572 -0.2321  0.6708  0.2282
 3259SOL    HW121410   2.124   1.563  15.545  0.8926 -0.8934  0.3229
 3259SOL    HW221411   2.229   1.569  15.648  2.8808  0.3833 -1.2468
 3260SOL     OW21412   1.692   1.265  13.200  0.2646 -0.0050  0.3429
 3260SOL    HW121413   1.667   1.173  13.206  0.9325 -0.2686 -0.9048
 3260SOL    HW221414   1.760   1.264  13.132 -0.7959  0.7945 -0.7291
 3261SOL     OW21415   2.138   0.197   4.573 -0.3260  0.0281  0.3210
 3261SOL    HW121416   2.172   0.109   4.560 -2.5726 -0.5366 -1.5481
 3261SOL    HW221417   2.171   0.243   4.496 -1.2464  0.1121 -0.0103
 3262SOL     OW21418   0.440   2.254   5.167  0.1617  0.7487 -0.0049
 3262SOL    HW121419   0.434   2.343   5.200  1.8456  0.1405  1.9454
 3262SOL    HW221420   0.350   2.241   5.138  0.4548 -0.0833 -0.5425
 3263SOL     OW21421   0.009   3.253   1.472  0.3515  0.0287 -0.1648
 3263SOL    HW121422   0.084   3.216   1.519  0.9690  2.5289  0.8157
 3263SOL    HW221423   0.044   3.332   1.431 -1.2940 -0.6693 -2.8718
 3264SOL     OW21424   3.358   3.976   4.675 -0.1243 -0.1595  0.4081
 3264SOL    HW121425   3.271   3.938   4.665 -0.4639  0.0391  2.7126
 3264SOL    HW221426   3.338   4.069   4.670 -0.4155 -0.3311 -1.8145
 3265SOL     OW21427   1.289   4.692   5.169  0.0988  0.0095  0.1713
 3265SOL    HW121428   1.322   4.602   5.167 -0.5300 -0.1997 -0.7052
 3265SOL    HW221429   1.203   4.683   5.210  0.7510 -1.3911  1.2305
 3266SOL     OW21430   0.939   3.271   6.042  0.3737 -0.2275 -0.3185
 3266SOL    HW121431   1.016   3.279   6.099 -0.1980 -1.3856  0.6203
 3266SOL    HW221432   0.892   3.344   6.083 -0.1570 -1.5864  1.4940
 3267SOL     OW21433   1.746   3.114  12.277 -0.5806  0.0587  0.0713
 3267SOL    HW121434   1.824   3.136  12.328 -0.9247  1.1183  0.1335
 3267SOL    HW221435   1.795   3.075  12.205  2.2483  0.1678  1.9065
 3268SOL     OW21436   3.863   0.430   4.021  0.1022 -0.0472 -0.0595
 3268SOL    HW121437   3.786   0.478   3.993 -1.2640 -2.2832 -0.1145
 3268SOL    HW221438   3.831   0.342   4.041  0.1510  0.5371  2.5321
 3269SOL     OW21439   3.109   0.860   4.177 -0.4362  0.0137  0.5225
 3269SOL    HW121440   3.105   0.778   4.128  0.5341  1.1007 -1.3751
 3269SOL    HW221441   3.033   0.908   4.145 -0.1852 -0.4966 -0.8409
 3270SOL     OW21442   1.063   1.332   9.124  0.0799  0.0924 -0.2060
 3270SOL    HW121443   1.080   1.406   9.182 -0.9180  0.5650 -0.5255
 3270SOL    HW221444   1.122   1.350   9.051 -1.3977 -2.3159 -1.9850
 3271SOL     OW21445   4.224   2.432  14.853 -0.4206 -0.0510 -0.4682
 3271SOL    HW121446   4.237   2.342  14.824  3.2419  0.3672 -0.0655
 3271SOL    HW221447   4.311   2.472  14.847 -0.3552  0.0725  1.2808
 3272SOL     OW21448   4.212   3.814   9.281  0.4536  0.0899  0.0484
 3272SOL    HW121449   4.147   3.745   9.290 -0.2937  0.8468  0.5012
 3272SOL    HW221450   4.235   3.836   9.372 -2.4817 -0.8599  1.0077
 3273SOL     OW21451   0.293   4.043  17.353 -0.2392  0.4763 -0.5671
 3273SOL    HW121452   0.358   4.101  17.315 -0.5792  0.3085 -1.4074
 3273SOL    HW221453   0.238   4.111  17.392 -0.2126  0.7408 -1.0047
 3274SOL     OW21454   3.485   1.876  13.294 -0.1980  0.3747 -0.1317
 3274SOL    HW121455   3.424   1.804  13.276 -0.2765  0.0950  1.2371
 3274SOL    HW221456   3.451   1.911  13.376  0.3743 -2.2658  1.2341
 3275SOL     OW21457   3.027   3.100  10.732 -0.4410  0.2460  0.4305
 3275SOL    HW121458   2.933   3.113  10.718 -0.4824  1.0075  1.3822
 3275SOL    HW221459   3.050   3.015  10.696  0.1237  0.8942 -0.7161
 3276SOL     OW21460   4.291   0.037   4.983  0.7425 -0.9741  0.4626
 3276SOL    HW121461   4.300   0.060   5.075 -1.2890  1.4601  0.0377
 3276SOL    HW221462   4.274   0.124   4.946  1.3212 -1.3320 -0.6621
 3277SOL     OW21463   4.215   2.987   2.448  0.0553  0.1513  0.2058
 3277SOL    HW121464   4.216   2.901   2.491 -0.7172 -0.8305 -1.7418
 3277SOL    HW221465   4.171   2.970   2.364 -0.8554 -2.3838  1.1838
 3278SOL     OW21466   3.886   2.560   6.519 -0.6789 -0.3029 -0.6670
 3278SOL    HW121467   3.844   2.479   6.545  2.0923 -1.6214 -0.2809
 3278SOL    HW221468   3.976   2.530   6.535 -0.8306  0.7529  2.1282
 3279SOL     OW21469   3.578   1.694   3.118 -0.3807  0.5147 -0.0148
 3279SOL    HW121470   3.507   1.743   3.076  0.7160  1.2859 -0.9580
 3279SOL    HW221471   3.588   1.622   3.057 -2.3881  0.7421 -0.6124
 3280SOL     OW21472   3.246   3.650   7.879  0.4100  0.1459  0.3687
 3280SOL    HW121473   3.205   3.648   7.793 -1.0139 -0.8936  1.0599
 3280SOL    HW221474   3.335   3.623   7.855 -1.3227 -3.2580 -2.1869
 3281SOL     OW21475   1.005   4.219  14.099 -0.8083 -0.2918  0.3248
 3281SOL    HW121476   0.947   4.164  14.045 -2.2759  1.2915  0.2853
 3281SOL    HW221477   1.048   4.275  14.035 -1.3104 -2.1521 -1.6445
 3282SOL     OW21478   4.492   0.563   0.165  0.2491 -0.1743  0.5655
 3282SOL    HW121479   4.510   0.490   0.106  0.7703 -0.3102  0.8935
 3282SOL    HW221480   4.580   0.572   0.203  1.0893  0.4133 -1.4956
 3283SOL     OW21481   4.123   3.219   2.543  0.1375 -0.3998 -0.0547
 3283SOL    HW121482   4.036   3.180   2.556 -0.7291  0.5689 -3.0398
 3283SOL    HW221483   4.165   3.140   2.509  1.4231  0.5829 -0.7519
 3284SOL     OW21484   0.750   1.813   1.417 -0.5795 -0.0413 -1.0468
 3284SOL    HW121485   0.695   1.890   1.403 -0.4720 -0.0095 -1.3076
 3284SOL    HW221486   0.698   1.768   1.484  0.7965 -0.7210 -0.4476
 3285SOL     OW21487   3.977   0.286   2.785 -0.3043 -0.4654  0.1811
 3285SOL    HW121488   3.916   0.345   2.828  1.4854  0.9914  0.7368
 3285SOL    HW221489   3.940   0.201   2.807 -0.0439 -0.4237  0.8034
 3286SOL     OW21490   2.946   2.019  14.864 -0.0027  0.2875 -0.3335
 3286SOL    HW121491   2.955   2.048  14.954  0.1204  0.4017 -0.3825
 3286SOL    HW221492   2.851   2.005  14.862 -0.0570  0.4916  0.8190
 3287SOL     OW21493   0.981   3.592   2.802 -0.8751 -0.2784  0.3832
 3287SOL    HW121494   0.984   3.683   2.833  2.3883 -0.2584 -0.0296
 3287SOL    HW221495   0.948   3.542   2.876  1.4360 -0.5653  1.2207
 3288SOL     OW21496   0.225   0.015   8.175 -0.7629  0.4878 -0.3341
 3288SOL    HW121497   0.145   4.702   8.198 -0.6433  0.1395 -0.6705
 3288SOL    HW221498   0.198   0.084   8.116 -1.8961  0.1630 -0.2081
 3289SOL     OW21499   0.827   3.868   3.242  0.1229  0.1510  1.0827
 3289SOL    HW121500   0.804   3.922   3.318 -2.4910  1.2309 -0.4705
 3289SOL    HW221501   0.750   3.870   3.184  0.8548  2.2083  0.1560
 3290SOL     OW21502   2.734   4.414   0.094  0.2754  0.0468 -0.1259
 3290SOL    HW121503   2.718   4.488   0.153 -0.0795  0.1878 -0.4014
 3290SOL    HW221504   2.665   4.357   0.127  1.1119  0.0274  1.6402
 3291SOL     OW21505   1.946   4.452   0.555 -0.4130  0.3598  0.0945
 3291SOL    HW121506   1.939   4.448   0.459  1.5354  1.8895 -0.1243
 3291SOL    HW221507   2.034   4.490   0.565 -0.3074 -0.0461  0.6645
 3292SOL     OW21508   1.527   0.601   6.976  0.1511 -0.4560  0.8682
 3292SOL    HW121509   1.545   0.522   7.026 -3.0133  0.3146  3.1928
 3292SOL    HW221510   1.613   0.616   6.937 -0.6632  1.0414 -0.3985
 3293SOL     OW21511   4.673   3.593  16.053 -0.1105 -0.0726  0.1013
 3293SOL    HW121512   4.664   3.573  16.146 -1.3300 -0.8021 -0.1712
 3293SOL    HW221513   0.031   3.599  16.046 -0.1730  1.7763  1.0532
 3294SOL     OW21514   3.634   4.506   8.252  0.4319  0.9378 -0.1342
 3294SOL    HW121515   3.589   4.589   8.234 -1.6809  0.0681  1.1856
 3294SOL    HW221516   3.707   4.543   8.303 -0.7046  0.1138  2.1157
 3295SOL     OW21517   1.105   4.065   2.904 -0.3383 -0.1311  0.1947
 3295SOL    HW121518   1.186   4.112   2.922 -0.5674  0.6658 -0.9147
 3295SOL    HW221519   1.097   4.063   2.809 -0.2813 -0.7508  0.1971
 3296SOL     OW21520   2.044   1.718   3.660 -0.4799  0.0187  0.2980
 3296SOL    HW121521   1.996   1.636   3.643 -2.1801  0.7032  1.7642
 3296SOL    HW221522   2.086   1.688   3.741  0.3576 -2.9034 -1.2386
 3297SOL     OW21523   3.679   2.237   2.954  0.6020  0.4069 -0.3526
 3297SOL    HW121524   3.663   2.149   2.919 -1.0096 -0.3950  2.3894
 3297SOL    HW221525   3.701   2.204   3.041  0.2081 -0.4110 -0.5574
 3298SOL     OW21526   3.328   4.019  14.760  0.3675 -0.1176  0.1174
 3298SOL    HW121527   3.373   3.997  14.678  0.1087  2.0940 -0.6146
 3298SOL    HW221528   3.377   4.091  14.798 -3.1660  2.0143  0.6660
 3299SOL     OW21529   4.386   4.404   4.461 -0.0847  0.1751  0.3957
 3299SOL    HW121530   4.481   4.399   4.473  0.1417  1.0380 -1.0238
 3299SOL    HW221531   4.375   4.493   4.428 -0.7189  1.0542  2.9708
 3300SOL     OW21532   0.040   0.688  17.194  0.1365  0.0428 -0.1181
 3300SOL    HW121533   0.018   0.737  17.274 -0.8473 -1.0018  0.2489
 3300SOL    HW221534   0.090   0.760  17.156 -2.1079 -0.1046 -3.3892
 3301SOL     OW21535   0.496   0.217   8.602 -0.1932  0.2706  0.4682
 3301SOL    HW121536   0.411   0.178   8.582 -0.9440  0.9537  2.3953
 3301SOL    HW221537   0.523   0.162   8.675  2.4614  1.0729  0.1093
 3302SOL     OW21538   2.934   3.196  17.492 -0.3072  0.3031  0.7675
 3302SOL    HW121539   2.873   3.127  17.467  0.1127  0.9400 -2.0195
 3302SOL    HW221540   3.007   3.169  17.437  0.2028  1.3755  0.9128
 3303SOL     OW21541   1.545   2.177   4.471 -0.4629  0.1630 -0.3273
 3303SOL    HW121542   1.463   2.193   4.425  0.7390  3.8240 -1.1590
 3303SOL    HW221543   1.582   2.100   4.426 -2.1443 -0.2340 -1.0142
 3304SOL     OW21544   2.156   4.265   5.726 -0.7174  0.2876 -0.0836
 3304SOL    HW121545   2.136   4.358   5.736 -1.9151  0.1063 -0.9153
 3304SOL    HW221546   2.224   4.274   5.659 -0.8007 -1.2269 -0.3768
 3305SOL     OW21547   2.499   4.723   3.504  0.6785  0.6562 -0.0481
 3305SOL    HW121548   2.537   4.652   3.557  0.8232 -0.3294 -1.4674
 3305SOL    HW221549   2.498   0.059   3.567 -1.4279 -0.3439  1.0631
 3306SOL     OW21550   1.644   2.413   1.773 -0.2578  0.2331  0.6301
 3306SOL    HW121551   1.594   2.423   1.693  1.8846 -0.4586 -0.7976
 3306SOL    HW221552   1.656   2.503   1.803 -1.2631  1.2050 -1.8962
 3307SOL     OW21553   0.659   3.768  16.488  0.2497 -0.2603  0.4151
 3307SOL    HW121554   0.728   3.828  16.519 -0.9515  1.2121  0.2721
 3307SOL    HW221555   0.648   3.774  16.393  1.7066 -0.9672  0.2104
 3308SOL     OW21556   3.056   2.319   5.966 -0.2752  0.5996  0.2058
 3308SOL    HW121557   3.106   2.399   5.951  0.0192  0.2748 -0.5238
 3308SOL    HW221558   3.112   2.255   5.922  2.2861  2.5722  0.6129
 3309SOL     OW21559   1.058   3.641   9.213  0.1561  0.3852 -0.6867
 3309SOL    HW121560   0.964   3.638   9.197  0.1653  1.2237 -0.9217
 3309SOL    HW221561   1.064   3.725   9.259  0.1266 -0.8227  1.5171
 3310SOL     OW21562   3.889   2.328   7.275  0.4196  0.5424 -0.1845
 3310SOL    HW121563   3.930   2.335   7.189  1.5849  1.5692  0.4561
 3310SOL    HW221564   3.946   2.263   7.317 -0.9318 -0.7946 -0.4068
 3311SOL     OW21565   1.349   3.253  12.523 -0.0162 -0.1820  0.3467
 3311SOL    HW121566   1.445   3.256  12.514  0.2055 -0.7070  2.3887
 3311SOL    HW221567   1.341   3.278  12.615 -0.8194 -2.4528  0.8834
 3312SOL     OW21568   0.732   0.374   3.337 -0.0480 -0.2021  0.0061
 3312SOL    HW121569   0.791   0.369   3.262 -2.4034  1.4282 -1.9479
 3312SOL    HW221570   0.772   0.437   3.398  1.4662  1.3550 -2.6046
 3313SOL     OW21571   1.117   0.729   3.846 -0.0287  0.0979  0.0305
 3313SOL    HW121572   1.193   0.780   3.819  0.2603 -0.8572 -0.9340
 3313SOL    HW221573   1.107   0.655   3.786  0.6324 -0.4782  0.6284
 3314SOL     OW21574   2.567   2.049   2.628  0.7438 -0.2877 -0.6537
 3314SOL    HW121575   2.494   2.070   2.570  1.3302  0.5367 -1.1105
 3314SOL    HW221576   2.634   2.021   2.565  1.4409 -0.8167  0.3253
 3315SOL     OW21577   3.209   2.573   5.860 -0.1937 -0.1792 -0.1695
 3315SOL    HW121578   3.303   2.563   5.846 -0.0254  1.3459 -0.0699
 3315SOL    HW221579   3.184   2.516   5.787 -0.2839 -2.0062  1.2766
 3316SOL     OW21580   1.299   4.708  11.766 -0.1208  0.4706 -0.1604
 3316SOL    HW121581   1.379   0.019  11.791 -0.3339  1.1859 -0.8390
 3316SOL    HW221582   1.275   4.667  11.849 -0.2072  0.0700 -0.3859
 3317SOL     OW21583   2.060   2.813   1.396  0.4642 -0.6006  0.0429
 3317SOL    HW121584   2.118   2.833   1.469  0.9071  2.4360 -1.1324
 3317SOL    HW221585   1.974   2.832   1.432  1.3349  1.4963  0.9761
 3318SOL     OW21586   3.072   2.587   2.862  0.1184 -0.0128 -0.7118
 3318SOL    HW121587   3.139   2.586   2.930 -2.0338 -1.2026  1.3625
 3318SOL    HW221588   3.009   2.519   2.885 -0.4705  0.4000 -1.0970
 3319SOL     OW21589   3.609   0.231   7.083 -0.1192 -0.3192 -0.1393
 3319SOL    HW121590   3.686   0.182   7.113  1.5749  2.2408 -0.3279
 3319SOL    HW221591   3.620   0.307   7.140  1.5212 -0.3311 -0.4487
 3320SOL     OW21592   3.737   4.194   0.185  0.3051  0.6346 -0.0494
 3320SOL    HW121593   3.648   4.222   0.164 -0.3381 -0.4294  1.2659
 3320SOL    HW221594   3.726   4.103   0.210 -1.3987  0.1791 -2.4426
 3321SOL     OW21595   1.750   0.808   3.694  0.5135 -0.1587 -0.0779
 3321SOL    HW121596   1.772   0.729   3.742 -1.0452  0.4146  1.5812
 3321SOL    HW221597   1.667   0.786   3.652 -0.8549  0.6622  2.2378
 3322SOL     OW21598   3.832   4.298   8.086 -0.0835  0.2105 -0.1394
 3322SOL    HW121599   3.924   4.325   8.082 -0.4684  1.6141  0.5523
 3322SOL    HW221600   3.798   4.358   8.152 -1.1491 -1.6209  0.9668
 3323SOL     OW21601   2.821   2.001   4.694 -0.0053 -0.3669 -0.0442
 3323SOL    HW121602   2.772   2.084   4.695  1.5575  0.5507 -0.2612
 3323SOL    HW221603   2.908   2.035   4.677 -0.3900  1.8082  2.2596
 3324SOL     OW21604   2.227   0.019   9.019  0.2069  0.1409  0.3092
 3324SOL    HW121605   2.165   4.734   8.949  0.0318  0.8064  0.2560
 3324SOL    HW221606   2.306   4.726   8.973  0.8836  2.2341  0.0916
 3325SOL     OW21607   4.313   0.165   5.826  0.0215 -0.2336 -0.0340
 3325SOL    HW121608   4.274   0.235   5.773  1.8943  0.4671 -0.4951
 3325SOL    HW221609   4.402   0.162   5.790  0.2781  1.0544  0.4753
 3326SOL     OW21610   3.354   3.021  11.059  0.4337  0.2861 -0.0536
 3326SOL    HW121611   3.411   3.096  11.074  0.7115 -0.2577  1.6152
 3326SOL    HW221612   3.420   2.977  11.004  0.1259  0.5957 -0.6713
 3327SOL     OW21613   0.998   0.846   9.196 -0.1666 -0.2607 -0.1215
 3327SOL    HW121614   0.937   0.810   9.260 -0.2497 -0.4643 -0.3182
 3327SOL    HW221615   0.993   0.941   9.205  2.3414 -0.0374 -0.9878
 3328SOL     OW21616   2.622   4.205   1.733  0.4526  0.6255  0.1459
 3328SOL    HW121617   2.605   4.140   1.802 -1.1319 -0.8693 -1.6513
 3328SOL    HW221618   2.698   4.163   1.692  0.1963 -0.4237  0.7564
 3329SOL     OW21619   1.753   4.625   9.596 -0.2185 -0.2421  0.1611
 3329SOL    HW121620   1.795   4.671   9.669 -0.3617 -0.2195  0.2281
 3329SOL    HW221621   1.667   4.663   9.612  0.0797  0.5403 -0.0554
 3330SOL     OW21622   0.043   2.210   3.470  0.0352 -0.0745  0.1635
 3330SOL    HW121623   0.134   2.240   3.474  0.3449 -0.9709 -0.0742
 3330SOL    HW221624   0.040   2.143   3.401 -1.3922  0.3978 -0.2379
 3331SOL     OW21625   2.492   2.739   3.055  0.4885  0.0269  0.0489
 3331SOL    HW121626   2.538   2.822   3.056  0.6356 -0.0704  0.9426
 3331SOL    HW221627   2.409   2.756   3.010  1.4123  1.0356 -1.2915
 3332SOL     OW21628   3.527   2.742   6.452  0.0576  0.0649 -0.4994
 3332SOL    HW121629   3.435   2.766   6.464  0.0149 -0.8473  1.0775
 3332SOL    HW221630   3.525   2.678   6.381  0.3651 -0.8328  0.2996
 3333SOL     OW21631   3.029   3.422   8.485  0.4034 -0.3365  0.5378
 3333SOL    HW121632   2.996   3.390   8.401 -1.5660  1.5511  0.6027
 3333SOL    HW221633   2.966   3.493   8.496  1.9563  1.1145  0.1814
 3334SOL     OW21634   1.906   3.783   4.718 -0.0692 -0.0613 -0.8772
 3334SOL    HW121635   1.865   3.766   4.803  1.7594 -2.3946 -0.4582
 3334SOL    HW221636   1.933   3.696   4.689  0.5156 -0.8620  2.0048
 3335SOL     OW21637   2.864   4.118  14.482  0.2061 -1.1902  0.0632
 3335SOL    HW121638   2.843   4.036  14.526  1.3842 -2.0567 -0.9787
 3335SOL    HW221639   2.843   4.099  14.390 -0.9985 -0.4339  0.1835
 3336SOL     OW21640   0.181   1.716  13.225  0.2861  0.4414 -0.4653
 3336SOL    HW121641   0.147   1.738  13.138  0.4245 -0.1922 -0.6819
 3336SOL    HW221642   0.098   1.714  13.273 -1.2128 -0.2053 -3.0993
 3337SOL     OW21643   4.066   0.180   4.563  0.4732 -0.6439  0.1691
 3337SOL    HW121644   4.033   0.091   4.549  0.1357 -0.0293 -2.8495
 3337SOL    HW221645   4.159   0.157   4.573 -0.7883 -4.8402  2.3017
 3338SOL     OW21646   3.192   3.033   5.565 -0.5824 -0.1535  0.2476
 3338SOL    HW121647   3.180   3.127   5.553 -0.3565 -0.1206  0.2783
 3338SOL    HW221648   3.105   2.994   5.560 -0.2089 -1.0770  1.0252
 3339SOL     OW21649   2.701   0.121   8.452 -0.4876  0.3218 -0.2394
 3339SOL    HW121650   2.687   0.167   8.370  0.1940 -1.6023 -1.4220
 3339SOL    HW221651   2.793   0.146   8.462 -0.9833  1.3445  1.8745
 3340SOL     OW21652   0.848   3.611   1.328  0.1901  0.3374 -0.6673
 3340SOL    HW121653   0.804   3.625   1.244  0.5421  0.0480 -0.9002
 3340SOL    HW221654   0.848   3.516   1.324 -0.4999  0.2735  0.8893
 3341SOL     OW21655   1.275   3.163   6.381  0.2222 -0.0821  1.0464
 3341SOL    HW121656   1.332   3.239   6.388 -0.2084  0.0377  3.2981
 3341SOL    HW221657   1.278   3.151   6.287  1.9342  0.0418  1.0877
 3342SOL     OW21658   0.359   2.307   3.440 -0.3211 -0.1808 -0.6041
 3342SOL    HW121659   0.430   2.307   3.376  0.7255 -0.2301  0.5549
 3342SOL    HW221660   0.351   2.400   3.461 -0.3536 -0.3150 -0.0177
 3343SOL     OW21661   3.576   4.434   7.160 -0.2080  0.1660  1.0431
 3343SOL    HW121662   3.511   4.497   7.130 -0.6072 -1.0845 -0.6850
 3343SOL    HW221663   3.595   4.470   7.247 -1.5170 -3.6894  2.9360
 3344SOL     OW21664   0.824   0.429   5.072 -0.0787 -0.0528  0.2565
 3344SOL    HW121665   0.841   0.377   5.151 -0.7957  0.4287  0.7229
 3344SOL    HW221666   0.904   0.406   5.025  0.9250 -0.0866  1.9620
 3345SOL     OW21667   3.289   3.515   0.242 -0.4173  0.0647 -0.1543
 3345SOL    HW121668   3.205   3.531   0.286 -0.3849 -0.9779  0.2900
 3345SOL    HW221669   3.266   3.536   0.151 -0.9953  1.3751  0.3020
 3346SOL     OW21670   4.732   1.253   6.682  0.3067 -0.1263 -0.7095
 3346SOL    HW121671   4.683   1.173   6.702  0.1842  0.1983  0.2800
 3346SOL    HW221672   0.062   1.252   6.751  1.7172 -0.4502 -2.0691
 3347SOL     OW21673   3.197   2.614   5.424 -0.0647  0.2451 -0.0511
 3347SOL    HW121674   3.177   2.706   5.405  1.7897  0.8420  0.9111
 3347SOL    HW221675   3.288   2.611   5.451  0.2805  2.1526 -1.0297
 3348SOL     OW21676   2.967   3.728  13.203  0.3379  0.6766 -0.1805
 3348SOL    HW121677   3.054   3.710  13.166  0.0393  0.2377 -0.6542
 3348SOL    HW221678   2.982   3.704  13.294  0.2471  2.6706  0.3697
 3349SOL     OW21679   2.983   2.938  10.304  0.5601 -0.1468 -0.2744
 3349SOL    HW121680   2.952   2.848  10.315  1.7360 -0.0619  3.6546
 3349SOL    HW221681   3.052   2.948  10.370  1.1221  1.9419 -1.1773
 3350SOL     OW21682   1.314   3.415   6.960 -0.5499 -0.4520  0.2403
 3350SOL    HW121683   1.398   3.450   6.992  0.2564 -0.8155 -1.5008
 3350SOL    HW221684   1.276   3.376   7.038  0.9696 -0.5041  0.9663
 3351SOL     OW21685   0.187   1.374  10.900 -0.2655  0.1062 -0.0910
 3351SOL    HW121686   0.139   1.304  10.855 -0.5908  0.2996 -0.0409
 3351SOL    HW221687   0.270   1.340  10.866  0.4864  2.1469 -0.2664
 3352SOL     OW21688   1.389   1.253   1.644 -0.5879 -0.4491 -0.3536
 3352SOL    HW121689   1.368   1.247   1.737 -0.3650 -1.4361 -0.3647
 3352SOL    HW221690   1.342   1.178   1.609 -1.9743  0.6601 -0.8565
 3353SOL     OW21691   0.694   4.508   8.594  0.2052  0.1048  0.5457
 3353SOL    HW121692   0.689   4.588   8.543  0.2188 -0.5209 -0.4377
 3353SOL    HW221693   0.748   4.454   8.536  0.4785  0.5331  0.4027
 3354SOL     OW21694   1.485   3.806   5.684  0.6857  0.0523  0.3510
 3354SOL    HW121695   1.397   3.813   5.722  0.5520 -2.9601  0.6478
 3354SOL    HW221696   1.529   3.857   5.751  1.7943 -1.6911  0.9443
 3355SOL     OW21697   0.804   1.659   4.592 -0.3672 -0.0606 -0.4288
 3355SOL    HW121698   0.863   1.694   4.526  2.8511 -1.4995  1.6984
 3355SOL    HW221699   0.861   1.595   4.634 -3.3478 -2.5273 -0.1325
 3356SOL     OW21700   3.923   1.127   4.298  0.2853 -0.2251  0.0946
 3356SOL    HW121701   3.894   1.211   4.332 -2.2572 -0.7038 -0.8897
 3356SOL    HW221702   3.877   1.135   4.215 -2.5064 -1.2789  1.5458
 3357SOL     OW21703   2.577   1.360  13.652  0.4234 -0.1101 -0.1308
 3357SOL    HW121704   2.662   1.315  13.644 -0.1490 -1.3779  0.9028
 3357SOL    HW221705   2.618   1.445  13.668  0.5542 -0.2391  0.2264
 3358SOL     OW21706   1.105   4.687   9.491  0.3062  0.1110  0.2446
 3358SOL    HW121707   1.155   0.026   9.522 -0.8141 -0.2314  2.9182
 3358SOL    HW221708   1.039   4.686   9.560 -0.1870 -1.3477 -0.2404
 3359SOL     OW21709   1.846   1.079   7.378 -0.1082  0.2939 -0.2447
 3359SOL    HW121710   1.865   1.015   7.309 -3.4657  1.9994 -2.7516
 3359SOL    HW221711   1.810   1.151   7.326 -0.6203  0.3875  0.2397
 3360SOL     OW21712   0.856   0.363   9.788 -0.0966 -0.2742 -0.2645
 3360SOL    HW121713   0.932   0.330   9.739 -0.6280 -0.5539 -0.8861
 3360SOL    HW221714   0.793   0.321   9.730  1.5278 -1.9306 -0.8517
 3361SOL     OW21715   0.320   4.693  14.269  0.3799 -0.3020  0.4093
 3361SOL    HW121716   0.390   0.020  14.256 -2.1125  2.4267  0.3692
 3361SOL    HW221717   0.325   4.652  14.183 -1.1791  0.2432  0.0723
 3362SOL     OW21718   3.581   1.372   3.842  0.2429  0.5312  0.5555
 3362SOL    HW121719   3.559   1.294   3.792 -0.3801  0.8398  0.3561
 3362SOL    HW221720   3.650   1.397   3.781  1.0495 -2.0930  0.4053
 3363SOL     OW21721   0.836   3.856   4.184 -0.2861 -0.0157  0.0266
 3363SOL    HW121722   0.778   3.867   4.259 -1.7214 -1.4188 -0.8679
 3363SOL    HW221723   0.788   3.897   4.112  0.8121 -0.5337 -0.9927
 3364SOL     OW21724   3.423   0.241   6.034  0.2850 -0.0702  0.3588
 3364SOL    HW121725   3.403   0.245   5.941 -0.3690 -0.2413  0.4955
 3364SOL    HW221726   3.455   0.151   6.043 -1.0752 -0.5381  0.4304
 3365SOL     OW21727   1.444   2.242   5.772  0.3428 -0.3369 -0.1849
 3365SOL    HW121728   1.534   2.236   5.803  0.2197  1.1153  0.4335
 3365SOL    HW221729   1.395   2.210   5.848 -1.1695 -0.5734 -1.2478
 3366SOL     OW21730   0.795   1.501   6.083 -0.2031  0.3292  0.0426
 3366SOL    HW121731   0.710   1.464   6.106  0.4199 -1.3049 -0.2792
 3366SOL    HW221732   0.859   1.434   6.104 -0.1386  0.8821  1.6138
 3367SOL     OW21733   0.069   1.585   3.611  0.2712 -0.7735 -0.3372
 3367SOL    HW121734   0.083   1.553   3.701 -1.0271 -2.3818 -0.6995
 3367SOL    HW221735   4.714   1.565   3.591  1.0608 -2.4016 -2.3215
 3368SOL     OW21736   1.206   0.118  10.825 -0.6507 -0.1226  0.4191
 3368SOL    HW121737   1.121   0.077  10.814 -0.9588  0.5872  0.1577
 3368SOL    HW221738   1.234   0.094  10.913 -1.3838  0.4431  0.8038
 3369SOL     OW21739   1.291   3.138   9.070  0.0202  0.0739  1.0500
 3369SOL    HW121740   1.332   3.163   8.987 -1.0814 -0.3729  0.3756
 3369SOL    HW221741   1.342   3.063   9.099  0.1445  0.9442  3.0673
 3370SOL     OW21742   0.391   1.233   1.884  0.0274  0.7692  0.4200
 3370SOL    HW121743   0.330   1.161   1.899 -0.3699  0.7275 -1.3481
 3370SOL    HW221744   0.400   1.276   1.968 -0.1664 -0.8054  1.2472
 3371SOL     OW21745   4.512   2.548   4.593  0.0435  0.0669  0.3707
 3371SOL    HW121746   4.538   2.602   4.519 -0.6578 -1.5325 -1.0411
 3371SOL    HW221747   4.424   2.580   4.611  0.3085  1.7307 -1.2772
 3372SOL     OW21748   1.857   4.692  11.158 -0.2972  0.8066  1.2720
 3372SOL    HW121749   1.781   4.634  11.156 -0.4262  0.9886  0.8054
 3372SOL    HW221750   1.861   4.721  11.249  0.2206  1.1900  1.1268
 3373SOL     OW21751   1.650   0.306  10.058 -0.1824 -0.2831 -0.0810
 3373SOL    HW121752   1.622   0.366  10.127  0.7880  1.4074 -1.1190
 3373SOL    HW221753   1.595   0.229  10.068 -1.6832  0.9266  0.9930
 3374SOL     OW21754   2.595   3.536   7.963  0.1455 -0.1637 -0.0606
 3374SOL    HW121755   2.502   3.519   7.944 -0.9041  4.1770  1.2271
 3374SOL    HW221756   2.627   3.473   8.027  2.5465 -0.9572 -2.0655
 3375SOL     OW21757   3.680   3.836   6.161  0.1702 -0.0075 -0.9788
 3375SOL    HW121758   3.701   3.744   6.153 -1.4527 -0.2554 -2.4656
 3375SOL    HW221759   3.714   3.857   6.248 -2.1921  0.7606 -0.2210
 3376SOL     OW21760   2.073   1.833   9.983 -0.4456 -0.3904  0.3358
 3376SOL    HW121761   2.138   1.765   9.966 -1.6082 -1.9357  2.1038
 3376SOL    HW221762   2.106   1.898   9.921 -0.7943 -1.2894 -0.8060
 3377SOL     OW21763   4.535   3.236   7.494 -1.0538  0.3364  0.4061
 3377SOL    HW121764   4.511   3.175   7.563  0.6240  0.7006  1.3049
 3377SOL    HW221765   4.620   3.259   7.531 -0.6293 -0.8788  0.1709
 3378SOL     OW21766   1.330   1.983   6.831 -0.7726 -0.0502 -0.3793
 3378SOL    HW121767   1.401   1.963   6.770  0.0378  1.2809  0.1189
 3378SOL    HW221768   1.312   2.072   6.801 -0.7781  0.1538  0.2246
 3379SOL     OW21769   3.372   2.527   0.120  0.9857  0.5114  0.0533
 3379SOL    HW121770   3.306   2.514   0.052 -0.6008  0.6131  1.5689
 3379SOL    HW221771   3.362   2.446   0.170  1.4085 -0.0750 -0.8295
 3380SOL     OW21772   3.305   1.895   5.113  0.5967  0.4741  0.0818
 3380SOL    HW121773   3.399   1.903   5.126  0.4195  0.7038  1.2509
 3380SOL    HW221774   3.272   1.959   5.176 -2.1200 -1.4969  0.6587
 3381SOL     OW21775   3.085   0.347   0.282 -0.3148  0.9089 -0.0677
 3381SOL    HW121776   3.001   0.336   0.238 -0.0259  0.1102 -0.4118
 3381SOL    HW221777   3.072   0.304   0.366 -2.5277  0.1389 -0.8179
 3382SOL     OW21778   0.062   4.066   0.050  0.1108 -0.2535  0.8505
 3382SOL    HW121779   0.049   4.051  17.701 -1.8388 -1.2571  1.2875
 3382SOL    HW221780   4.713   4.042   0.086 -0.6819  2.6029  0.9307
 3383SOL     OW21781   0.553   1.357   6.882  0.0224  0.3945 -0.1964
 3383SOL    HW121782   0.578   1.438   6.926  0.3747  2.3478 -4.0472
 3383SOL    HW221783   0.538   1.303   6.960  0.8637  0.9544  0.3431
 3384SOL     OW21784   3.554   2.854   4.719  0.1419  0.2387 -0.6271
 3384SOL    HW121785   3.605   2.834   4.640  2.0569  0.1084  0.6529
 3384SOL    HW221786   3.625   2.865   4.782 -0.8623  3.7470 -0.1584
 3385SOL     OW21787   0.086   1.930   8.342  0.1768 -0.1979 -0.1060
 3385SOL    HW121788   0.109   1.839   8.362 -0.0539  0.1476  1.7209
 3385SOL    HW221789   0.163   1.975   8.376 -0.0812 -0.4925  0.8607
 3386SOL     OW21790   0.727   0.389   8.902  0.4857  0.4071 -0.1240
 3386SOL    HW121791   0.685   0.372   8.818  0.5036  1.8176 -0.4112
 3386SOL    HW221792   0.647   0.432   8.934  0.7301  0.1093  0.8984
 3387SOL     OW21793   1.226   0.454   2.802 -0.4950  0.1912 -0.0211
 3387SOL    HW121794   1.223   0.370   2.847 -0.1130  0.0955 -0.1670
 3387SOL    HW221795   1.215   0.521   2.869 -0.2885 -0.0532  0.2535
 3388SOL     OW21796   2.556   4.519  16.256  0.1632 -0.0173 -0.2231
 3388SOL    HW121797   2.540   4.509  16.162  0.8014  1.1224 -0.4542
 3388SOL    HW221798   2.586   4.430  16.277 -0.2381  0.1397  0.9931
 3389SOL     OW21799   1.618   1.991   7.154  0.4255  0.7350  0.9159
 3389SOL    HW121800   1.641   1.976   7.062 -0.5174 -0.5583  0.8882
 3389SOL    HW221801   1.704   1.974   7.193 -0.7139  0.0859  3.1369
 3390SOL     OW21802   0.347   3.358   3.940 -0.3078 -0.3089 -0.6827
 3390SOL    HW121803   0.358   3.413   3.862  2.6831  0.4403  0.2824
 3390SOL    HW221804   0.434   3.324   3.959 -0.9711 -1.0901  0.9406
 3391SOL     OW21805   2.646   2.825   6.028 -0.4957  0.1860  0.1585
 3391SOL    HW121806   2.671   2.739   5.996 -2.3835 -0.3749  0.1895
 3391SOL    HW221807   2.683   2.881   5.960 -1.6345  0.0530 -0.5759
 3392SOL     OW21808   2.247   2.948   4.065 -0.2548 -0.1451  0.2175
 3392SOL    HW121809   2.195   2.999   4.127 -3.5269 -2.6035 -0.5207
 3392SOL    HW221810   2.201   2.865   4.074  1.5932 -1.0648  1.1688
 3393SOL     OW21811   0.565   1.524  15.086  0.6008 -0.3746  0.1642
 3393SOL    HW121812   0.593   1.521  15.178 -0.9035  1.4688  0.6929
 3393SOL    HW221813   0.603   1.604  15.050 -0.0363 -0.0209  0.2591
 3394SOL     OW21814   0.768   0.086   2.978  0.3518 -0.7636 -0.0928
 3394SOL    HW121815   0.726   0.120   2.899 -1.6084  1.0767  1.7450
 3394SOL    HW221816   0.697   0.099   3.041 -0.2848 -0.5633 -0.8546
 3395SOL     OW21817   0.682   4.418   2.458  0.0599 -0.1480 -0.0923
 3395SOL    HW121818   0.698   4.457   2.544 -2.4817 -1.1895  0.8539
 3395SOL    HW221819   0.590   4.399   2.476 -0.3241  1.6419 -0.1594
 3396SOL     OW21820   2.894   3.846  12.963  0.0752  0.1244  0.6857
 3396SOL    HW121821   2.926   3.786  12.896 -1.9444 -0.8513  0.6120
 3396SOL    HW221822   2.924   3.801  13.042 -0.9632 -3.0981 -0.7729
 3397SOL     OW21823   3.188   1.797   0.134 -0.5206 -0.8786  0.1506
 3397SOL    HW121824   3.097   1.822   0.144 -0.5652 -0.6756 -0.7906
 3397SOL    HW221825   3.223   1.840   0.212 -0.2035  0.8487 -0.9398
 3398SOL     OW21826   1.822   2.337   6.935  0.0778 -0.2346  0.2513
 3398SOL    HW121827   1.878   2.364   6.863  1.3517 -0.2336  1.2535
 3398SOL    HW221828   1.853   2.398   7.002  0.2740  1.0332 -0.9817
 3399SOL     OW21829   2.342   3.674   3.690 -0.1494 -0.3075  0.0881
 3399SOL    HW121830   2.380   3.713   3.612  1.0978 -1.4840  0.1039
 3399SOL    HW221831   2.349   3.748   3.750  0.1569 -0.6637  0.4936
 3400SOL     OW21832   4.425   0.243  13.439  0.5113 -0.1072 -0.1592
 3400SOL    HW121833   4.445   0.156  13.473 -2.4046 -0.6755  0.0230
 3400SOL    HW221834   4.473   0.295  13.504 -1.6378 -0.2893  1.5624
 3401SOL     OW21835   2.282   2.975   3.279  0.1037  0.2535 -0.0627
 3401SOL    HW121836   2.269   2.951   3.187 -2.4373  0.0002  0.3714
 3401SOL    HW221837   2.233   2.908   3.326 -1.8108 -0.1105 -2.5803
 3402SOL     OW21838   3.657   1.384  13.427  0.5436  0.3642 -0.2854
 3402SOL    HW121839   3.611   1.387  13.343  1.6885  0.8993 -0.8960
 3402SOL    HW221840   3.681   1.475  13.438  0.6509  0.1296  1.5185
 3403SOL     OW21841   3.278   3.844  17.051 -0.2979  0.3995 -0.2251
 3403SOL    HW121842   3.279   3.940  17.047 -0.5035  0.4433  0.8212
 3403SOL    HW221843   3.184   3.828  17.049 -0.1235 -0.5591 -0.8467
 3404SOL     OW21844   1.656   1.253   9.005  0.5189  0.5462 -0.4231
 3404SOL    HW121845   1.692   1.164   9.002  0.5237  0.5350 -0.0236
 3404SOL    HW221846   1.714   1.298   8.943 -1.3926  4.8146  0.8564
 3405SOL     OW21847   2.677   4.670  17.592 -0.2457 -0.3713 -0.1111
 3405SOL    HW121848   2.652   0.026  17.584 -1.7762 -0.8623 -1.0553
 3405SOL    HW221849   2.771   4.679  17.578 -0.1335 -0.5528  0.5390
 3406SOL     OW21850   4.165   0.340   3.908 -0.4585  0.2363  0.4718
 3406SOL    HW121851   4.237   0.401   3.895  1.0145 -1.6767 -0.3846
 3406SOL    HW221852   4.093   0.385   3.865 -0.7005 -0.5621  0.0457
 3407SOL     OW21853   3.956   0.473   3.764 -0.1574  0.0776 -0.3273
 3407SOL    HW121854   3.918   0.465   3.851  0.4959  1.4796  0.0785
 3407SOL    HW221855   3.888   0.527   3.725 -0.3677 -0.0493 -0.1342
 3408SOL     OW21856   0.805   0.016  12.369 -0.0482 -0.2880 -0.6415
 3408SOL    HW121857   0.823   4.659  12.375  2.2287  0.0566 -2.1321
 3408SOL    HW221858   0.721   0.002  12.325 -0.5873  2.2170 -0.4391
 3409SOL     OW21859   4.641   1.010   6.665 -0.1883 -0.3830 -0.1746
 3409SOL    HW121860   4.722   0.960   6.656 -0.5474 -0.7767 -1.2001
 3409SOL    HW221861   4.584   0.938   6.690  1.4361 -1.3196  0.8090
 3410SOL     OW21862   3.427   1.782   4.199 -0.0779  0.0220  0.4638
 3410SOL    HW121863   3.476   1.705   4.228  1.0386  0.7141  0.4211
 3410SOL    HW221864   3.460   1.793   4.111  1.0426  1.2426  1.0414
 3411SOL     OW21865   0.148   2.567   6.290 -0.3050 -0.7082  0.0493
 3411SOL    HW121866   0.072   2.624   6.279 -0.5426 -0.9405  0.4864
 3411SOL    HW221867   0.206   2.578   6.214  1.3506  3.9856  2.0308
 3412SOL     OW21868   3.633   3.419  10.017 -0.2771 -0.3561 -0.0661
 3412SOL    HW121869   3.610   3.392   9.928 -0.8495 -1.9676  0.5717
 3412SOL    HW221870   3.553   3.387  10.059 -2.1387  2.8253 -1.1490
 3413SOL     OW21871   1.043   2.176   3.119  0.1195 -0.5253 -0.4142
 3413SOL    HW121872   1.028   2.154   3.211  0.7941 -1.2990 -0.4901
 3413SOL    HW221873   1.113   2.119   3.089 -1.0406 -2.3374  0.3136
 3414SOL     OW21874   2.263   1.777   7.152 -0.1199 -0.1498 -0.5717
 3414SOL    HW121875   2.241   1.723   7.076 -0.9165 -1.1335  0.3590
 3414SOL    HW221876   2.308   1.849   7.107 -0.7856  0.9476  0.5178
 3415SOL     OW21877   1.174   1.076   4.207  0.2334 -0.1679  0.4705
 3415SOL    HW121878   1.211   1.108   4.125 -0.0195  2.5237  1.3990
 3415SOL    HW221879   1.175   0.981   4.197 -1.0686 -0.2013  0.6735
 3416SOL     OW21880   1.034   0.488   9.235  0.0366  0.2878  0.1866
 3416SOL    HW121881   0.987   0.506   9.316  0.4766  0.0600  0.4944
 3416SOL    HW221882   1.075   0.572   9.216 -0.7607  0.6197 -0.0612
 3417SOL     OW21883   0.122   1.367   2.070 -0.0310 -0.1862  0.3488
 3417SOL    HW121884   0.195   1.398   2.017 -0.8604 -0.2266 -0.8180
 3417SOL    HW221885   0.057   1.345   2.002  0.4082  0.9940 -0.4497
 3418SOL     OW21886   4.294   2.909   7.999 -0.1787 -0.2138  0.5728
 3418SOL    HW121887   4.359   2.913   8.069  1.1808 -1.2936 -0.6278
 3418SOL    HW221888   4.211   2.916   8.045 -0.9898  1.7462 -1.2125
 3419SOL     OW21889   3.559   0.689   2.581 -0.7777 -0.4390  0.1605
 3419SOL    HW121890   3.537   0.769   2.533  0.5291  0.4745  1.0712
 3419SOL    HW221891   3.491   0.638   2.538 -0.6868 -1.1809  0.8884
 3420SOL     OW21892   1.113   3.722   1.059  0.5607  0.1089 -0.1897
 3420SOL    HW121893   1.171   3.790   1.092 -1.0369  1.8418 -0.9676
 3420SOL    HW221894   1.031   3.757   1.093 -0.2426 -0.8095 -1.1709
 3421SOL     OW21895   1.649   3.018   5.858 -0.2579  0.2287 -0.0015
 3421SOL    HW121896   1.674   3.067   5.936  0.1379  1.6000 -0.9882
 3421SOL    HW221897   1.721   2.958   5.841 -2.5873 -1.7915 -2.8156
 3422SOL     OW21898   4.603   0.042   3.749  0.4673  0.4410  0.4068
 3422SOL    HW121899   4.620   4.708   3.811 -1.2576  0.5090  0.9409
 3422SOL    HW221900   4.663   0.112   3.775  1.2556  0.3742 -1.2132
 3423SOL     OW21901   3.684   1.296   8.632 -0.1310  0.6406  0.2898
 3423SOL    HW121902   3.776   1.318   8.648  0.9797 -2.1469 -2.1078
 3423SOL    HW221903   3.659   1.364   8.569  0.2476  0.9165  0.4352
 3424SOL     OW21904   2.273   0.300   6.057  0.4216 -0.0320  0.1809
 3424SOL    HW121905   2.340   0.306   6.125 -0.1133 -1.2341  0.8222
 3424SOL    HW221906   2.222   0.379   6.070  0.8361  0.5231 -1.5969
 3425SOL     OW21907   0.349   1.709  17.095 -0.1383  0.2614  0.1645
 3425SOL    HW121908   0.335   1.659  17.176  1.0871 -1.7779 -0.8696
 3425SOL    HW221909   0.432   1.754  17.106  1.6212 -2.8583 -0.3540
 3426SOL     OW21910   0.434   0.098   2.361  0.8252 -0.9294  0.1001
 3426SOL    HW121911   0.455   0.052   2.443  0.2572 -0.9034  0.2564
 3426SOL    HW221912   0.364   0.047   2.322 -0.3337  1.7547 -1.3009
 3427SOL     OW21913   2.424   2.665   4.892  0.4019 -0.0119  0.4957
 3427SOL    HW121914   2.470   2.594   4.847 -0.6721 -1.2037  1.2578
 3427SOL    HW221915   2.417   2.722   4.816 -1.8524  0.2323  0.8938
 3428SOL     OW21916   1.560   3.362   1.643  0.2186 -0.1349  0.1260
 3428SOL    HW121917   1.631   3.300   1.630  0.1349 -0.3045  0.4590
 3428SOL    HW221918   1.595   3.408   1.720  2.0593  0.5041 -1.1007
 3429SOL     OW21919   4.716   2.416   5.578  0.2936  0.0421  0.6135
 3429SOL    HW121920   4.735   2.436   5.486  0.1012  1.0123  0.7827
 3429SOL    HW221921   4.728   2.321   5.586  1.4669  0.2667  1.4013
 3430SOL     OW21922   2.381   3.160   2.143  0.1065  0.6772 -0.3681
 3430SOL    HW121923   2.404   3.250   2.166 -0.6622  0.8955 -0.4455
 3430SOL    HW221924   2.313   3.135   2.205  1.2959 -1.0938  0.2042
 3431SOL     OW21925   2.903   2.963  17.125  0.5122 -0.3246  0.2441
 3431SOL    HW121926   2.873   3.054  17.124 -1.3000 -0.9415 -1.8610
 3431SOL    HW221927   2.964   2.964  17.199  0.2941  0.6234  0.4073
 3432SOL     OW21928   0.950   4.433   4.121  0.0377  0.1700  0.5424
 3432SOL    HW121929   0.911   4.348   4.139  0.3764 -0.2319 -0.6913
 3432SOL    HW221930   0.915   4.494   4.186  1.2175  1.4185  0.0151
 3433SOL     OW21931   2.154   2.184   7.204  0.1381  0.8351 -0.5470
 3433SOL    HW121932   2.221   2.119   7.180  0.4015  0.7563  0.4192
 3433SOL    HW221933   2.076   2.148   7.162  0.5818 -0.2378 -0.4650
 3434SOL     OW21934   2.906   4.490   2.359  0.3776  0.2358 -0.1262
 3434SOL    HW121935   2.879   4.527   2.275 -0.4701 -0.6339 -0.2409
 3434SOL    HW221936   2.912   4.565   2.418  0.3234  1.1588 -1.2808
 3435SOL     OW21937   3.266   3.617   2.192  0.0485 -0.3357 -0.0741
 3435SOL    HW121938   3.316   3.606   2.273  1.7986 -0.4762 -1.1846
 3435SOL    HW221939   3.309   3.678   2.133  1.2615 -1.8191 -0.7231
 3436SOL     OW21940   1.472   2.878   7.841  0.1589 -0.5943  0.5376
 3436SOL    HW121941   1.386   2.881   7.799 -0.7316 -0.8191  2.3360
 3436SOL    HW221942   1.524   2.875   7.760 -0.7131 -0.4916 -0.0299
 3437SOL     OW21943   4.095   4.114   2.113 -0.1224  0.2074 -0.6415
 3437SOL    HW121944   4.132   4.120   2.200 -1.1074  0.2470 -0.2225
 3437SOL    HW221945   4.022   4.054   2.132 -1.2072  1.3130 -1.3439
 3438SOL     OW21946   0.188   0.151   4.494  0.0789 -0.3115  0.1730
 3438SOL    HW121947   0.180   0.236   4.451 -0.6295 -0.7743 -0.6125
 3438SOL    HW221948   0.254   0.111   4.438  1.2265 -0.7183  1.8370
 3439SOL     OW21949   3.395   1.351   6.533 -0.6077 -1.2822  0.3268
 3439SOL    HW121950   3.422   1.417   6.596 -1.4493 -0.3615 -0.2759
 3439SOL    HW221951   3.334   1.405   6.483  2.8440  2.2182 -0.0367
 3440SOL     OW21952   2.616   4.092   4.786 -0.0171  0.5885 -0.5239
 3440SOL    HW121953   2.637   4.162   4.848  1.2563  1.1727 -1.6143
 3440SOL    HW221954   2.687   4.099   4.723  1.1972  1.9534  0.9743
 3441SOL     OW21955   0.814   4.487  10.778 -0.2048  0.1429  0.4625
 3441SOL    HW121956   0.864   4.426  10.724  2.4329  2.1474  0.6588
 3441SOL    HW221957   0.726   4.470  10.744 -0.1673 -0.1433  0.5024
 3442SOL     OW21958   0.880   4.234  15.209 -0.1431 -0.3013 -0.0704
 3442SOL    HW121959   0.922   4.320  15.218  1.6686 -1.1173 -0.7582
 3442SOL    HW221960   0.833   4.253  15.128 -0.6878 -1.7807 -0.0981
 3443SOL     OW21961   0.220   1.005   2.869  0.3973 -0.2914 -0.1571
 3443SOL    HW121962   0.298   1.001   2.814  1.4871 -0.8018  1.3939
 3443SOL    HW221963   0.247   1.078   2.924  0.9524 -0.5122 -0.1315
 3444SOL     OW21964   0.829   2.949   2.225 -0.1162  0.1075 -0.5352
 3444SOL    HW121965   0.870   2.979   2.144  0.2168  0.9205 -0.0651
 3444SOL    HW221966   0.865   3.014   2.285  1.7645  0.0297 -1.5688
 3445SOL     OW21967   4.484   4.162   6.533  0.4264  0.0683  0.5267
 3445SOL    HW121968   4.561   4.198   6.577  1.3560 -0.3286 -0.7956
 3445SOL    HW221969   4.532   4.118   6.464 -0.5464  2.4463 -1.6651
 3446SOL     OW21970   2.060   2.889  10.602  0.2401 -0.0991 -0.4176
 3446SOL    HW121971   2.138   2.837  10.583  0.4187  0.0251 -0.0277
 3446SOL    HW221972   2.089   2.980  10.608 -3.2316  0.8648  1.7835
 3447SOL     OW21973   4.376   1.113   4.688  0.4271  0.1037  0.1452
 3447SOL    HW121974   4.299   1.127   4.633  0.2577 -1.4821 -0.0201
 3447SOL    HW221975   4.404   1.025   4.664 -1.8027 -0.8147  0.8503
 3448SOL     OW21976   2.353   1.919   2.253  0.3461 -0.0839 -0.0369
 3448SOL    HW121977   2.277   1.940   2.199  0.5384 -0.1767 -0.3384
 3448SOL    HW221978   2.421   1.945   2.192  0.8498  0.3025  0.6865
 3449SOL     OW21979   4.447   0.525   6.600  0.0160 -0.1367  0.1026
 3449SOL    HW121980   4.464   0.610   6.560 -0.7628 -0.0369 -0.0130
 3449SOL    HW221981   4.399   0.551   6.678  3.3689 -0.0362  2.1328
 3450SOL     OW21982   0.579   3.165   3.070  0.1987 -0.0381 -0.5103
 3450SOL    HW121983   0.598   3.071   3.062  1.7791  0.0810  1.6389
 3450SOL    HW221984   0.518   3.169   3.144  0.1933 -3.2187 -0.3193
 3451SOL     OW21985   2.966   0.180  11.873  0.4992 -0.3817 -0.3359
 3451SOL    HW121986   3.010   0.169  11.789  1.9629 -0.6562  0.4583
 3451SOL    HW221987   2.880   0.138  11.869 -1.1989  3.2040 -1.8564
 3452SOL     OW21988   2.967   0.602  14.343  0.4323 -0.0803  0.1444
 3452SOL    HW121989   2.880   0.593  14.381 -0.0277 -1.2752 -1.2127
 3452SOL    HW221990   2.979   0.536  14.275  0.0393  0.8120 -0.8005
 3453SOL     OW21991   2.572   4.002   4.094  0.8936  1.0072  0.0592
 3453SOL    HW121992   2.548   4.085   4.052  0.4967  0.0690 -1.5572
 3453SOL    HW221993   2.565   4.029   4.186 -3.0222  2.0330 -0.5500
 3454SOL     OW21994   3.773   4.320   1.101 -0.1348 -0.5075  0.0765
 3454SOL    HW121995   3.778   4.339   1.194  1.4582 -0.0843 -0.0950
 3454SOL    HW221996   3.687   4.280   1.085  0.8415 -2.9099  0.8484
 3455SOL     OW21997   4.604   0.530   8.264  0.6823 -0.1313 -0.2071
 3455SOL    HW121998   4.564   0.526   8.178 -1.2312  2.1277  0.6077
 3455SOL    HW221999   4.523   0.551   8.310  2.4061  0.9361  2.4028
 3456SOL     OW22000   3.701   2.963   0.719 -0.4087 -0.2769  0.1251
 3456SOL    HW122001   3.747   3.031   0.767 -1.5006  0.0199  0.7577
 3456SOL    HW222002   3.693   3.001   0.632 -0.8602 -1.0843 -0.1836
 3457SOL     OW22003   1.179   3.380   8.266  0.5521  0.2138  0.0424
 3457SOL    HW122004   1.089   3.396   8.239  0.5224  0.7814  0.4967
 3457SOL    HW222005   1.216   3.336   8.189 -0.0270 -0.3894  0.0997
 3458SOL     OW22006   0.970   0.840   7.608 -0.2845 -0.1389 -0.5249
 3458SOL    HW122007   0.923   0.867   7.687  1.4113  1.1522  0.0599
 3458SOL    HW222008   0.897   0.850   7.547 -1.0738 -1.2487  0.2445
 3459SOL     OW22009   4.073   1.661   5.313  0.4044 -0.5564 -0.0517
 3459SOL    HW122010   4.003   1.699   5.261 -1.3852 -2.3614  1.0302
 3459SOL    HW222011   4.144   1.722   5.293  1.2311 -1.9812 -1.5234
 3460SOL     OW22012   1.189   4.102   4.300  0.1270 -0.1729  0.1117
 3460SOL    HW122013   1.172   4.154   4.221  0.1669 -1.0442 -0.4777
 3460SOL    HW222014   1.109   4.051   4.314  1.2340 -2.2532 -1.1368
 3461SOL     OW22015   1.107   3.222   2.891 -0.0109 -0.5943 -0.3522
 3461SOL    HW122016   1.013   3.232   2.907  0.0405  0.1489 -0.5422
 3461SOL    HW222017   1.099   3.135   2.850 -4.3645 -0.0137 -0.7624
 3462SOL     OW22018   3.855   1.597   5.916  0.1365 -0.1246  0.1996
 3462SOL    HW122019   3.799   1.608   5.840  1.2853 -0.7610 -0.7407
 3462SOL    HW222020   3.866   1.691   5.931  4.5061 -0.4955 -0.6263
 3463SOL     OW22021   3.800   1.949   9.441 -0.0154  0.0460 -0.5753
 3463SOL    HW122022   3.866   2.002   9.485  0.4522 -0.2745 -0.8918
 3463SOL    HW222023   3.757   2.001   9.373 -0.9997 -0.4433 -0.3312
 3464SOL     OW22024   1.179   2.542   5.413 -0.1896 -0.3252 -0.1319
 3464SOL    HW122025   1.122   2.526   5.338  1.7201 -0.1330 -1.6313
 3464SOL    HW222026   1.143   2.619   5.457 -1.1578 -1.9680  1.9446
 3465SOL     OW22027   4.306   0.939   9.992 -0.0312  0.5459  0.0396
 3465SOL    HW122028   4.286   0.958  10.083 -3.9770  0.7456 -0.8956
 3465SOL    HW222029   4.346   1.022   9.965  0.4503  0.3398  0.1054
 3466SOL     OW22030   1.057   1.517  16.731  0.1185  0.3015 -0.2896
 3466SOL    HW122031   1.095   1.572  16.663  1.5923 -0.8834 -0.4096
 3466SOL    HW222032   0.983   1.486  16.679  0.3430  0.5078 -0.7294
 3467SOL     OW22033   2.354   3.996   6.944  0.4149  0.1087  0.0538
 3467SOL    HW122034   2.437   4.027   6.907  0.8949 -0.1110  0.9173
 3467SOL    HW222035   2.337   3.909   6.908  1.7514 -0.2981  0.4074
 3468SOL     OW22036   1.669   3.296   9.491  0.7739  0.6060  0.0944
 3468SOL    HW122037   1.612   3.290   9.567  1.0889 -0.8347  0.2129
 3468SOL    HW222038   1.615   3.269   9.417 -0.2020  1.3666  0.5340
 3469SOL     OW22039   4.111   1.222   8.588 -1.2838  0.2453  0.1564
 3469SOL    HW122040   4.082   1.296   8.640 -0.8964  0.4642  0.0661
 3469SOL    HW222041   4.178   1.265   8.535  0.4867 -0.3568  1.9104
 3470SOL     OW22042   1.676   2.281   2.343  0.6590  0.6459  0.0646
 3470SOL    HW122043   1.614   2.332   2.292 -0.5160  0.6839  1.5331
 3470SOL    HW222044   1.700   2.202   2.295 -1.8905  0.8519 -1.4983
 3471SOL     OW22045   1.338   0.194  14.198  0.2837 -0.3926  0.3001
 3471SOL    HW122046   1.247   0.222  14.190  0.2535 -0.8232 -0.8520
 3471SOL    HW222047   1.360   0.222  14.287 -1.1363 -0.7552  0.7657
 3472SOL     OW22048   3.978   0.130  15.844 -0.1491  0.4568  0.5093
 3472SOL    HW122049   4.068   0.142  15.814 -0.4611 -1.7149 -1.2491
 3472SOL    HW222050   3.924   0.175  15.780 -1.7969 -1.3740  0.6206
 3473SOL     OW22051   4.000   4.131   9.187 -0.1528  0.0653  0.2915
 3473SOL    HW122052   3.957   4.062   9.239 -0.7104  1.1610  1.2908
 3473SOL    HW222053   4.042   4.182   9.256 -0.5119  0.3193  0.3198
 3474SOL     OW22054   0.581   0.745   2.164 -0.3576 -0.3172  0.0729
 3474SOL    HW122055   0.633   0.757   2.243 -0.8369  1.3079  0.1376
 3474SOL    HW222056   0.540   0.660   2.184 -0.0221 -0.0125  1.9694
 3475SOL     OW22057   4.700   0.142  13.474 -0.1950 -0.4949 -0.5637
 3475SOL    HW122058   0.042   0.168  13.426  0.2481  0.1800  0.5349
 3475SOL    HW222059   4.681   0.222  13.522  0.8861 -0.2470 -0.5565
 3476SOL     OW22060   3.070   1.653   4.723  0.2709 -0.0894 -0.1182
 3476SOL    HW122061   3.118   1.721   4.770  0.5626  0.5448 -1.3493
 3476SOL    HW222062   3.073   1.689   4.635 -2.8758 -2.0587 -1.0282
 3477SOL     OW22063   3.242   0.446   6.520 -0.4257  0.3740  0.3649
 3477SOL    HW122064   3.324   0.494   6.522  1.1869 -2.3040 -1.9266
 3477SOL    HW222065   3.238   0.407   6.608  1.8677 -0.5888  0.0387
 3478SOL     OW22066   2.427   2.345   0.198 -0.3713 -0.2412 -0.3637
 3478SOL    HW122067   2.421   2.378   0.108  1.6205  0.4440 -0.2468
 3478SOL    HW222068   2.352   2.384   0.242 -0.0817  0.8110 -0.8139
 3479SOL     OW22069   3.896   2.771   6.992  0.9073  0.9678 -0.0195
 3479SOL    HW122070   3.983   2.738   6.969  0.6389  1.3601 -1.5819
 3479SOL    HW222071   3.900   2.757   7.087  1.1139 -2.5284 -0.5268
 3480SOL     OW22072   1.236   1.996   9.934 -0.0475  0.7011 -0.3503
 3480SOL    HW122073   1.308   2.034   9.884  1.0073  0.8365  1.2461
 3480SOL    HW222074   1.248   1.901   9.930  0.8446  0.9346 -2.8589
 3481SOL     OW22075   3.179   1.904  14.913  0.3593 -0.1612  0.2341
 3481SOL    HW122076   3.160   1.823  14.961 -0.3830 -0.7186 -1.0153
 3481SOL    HW222077   3.095   1.943  14.891  0.2644 -0.5312 -0.0665
 3482SOL     OW22078   1.662   4.211   1.485 -0.2369 -0.4873 -0.0271
 3482SOL    HW122079   1.716   4.132   1.490  1.1967  0.4228 -1.1413
 3482SOL    HW222080   1.602   4.198   1.411  0.0822 -2.3693  0.0425
 3483SOL     OW22081   2.837   2.472   2.381 -0.2107 -0.2268 -0.2985
 3483SOL    HW122082   2.881   2.487   2.298 -0.1742  1.9061  0.1117
 3483SOL    HW222083   2.758   2.520   2.354 -0.0979 -0.5804 -1.2541
 3484SOL     OW22084   1.089   2.686   6.874 -0.0578 -0.2016 -0.2372
 3484SOL    HW122085   1.133   2.753   6.927  0.8257 -0.7902 -0.2109
 3484SOL    HW222086   1.131   2.701   6.790 -1.5996  0.2964 -0.9103
 3485SOL     OW22087   0.674   4.026   3.429 -0.1341  0.4945  0.7369
 3485SOL    HW122088   0.579   4.033   3.431  0.0084  2.3803  0.1120
 3485SOL    HW222089   0.694   3.986   3.514 -1.5638 -0.4913  0.6149
 3486SOL     OW22090   3.561   1.102   4.829 -0.0927  0.2405  0.1709
 3486SOL    HW122091   3.542   1.157   4.753 -1.3748 -0.2739  0.1161
 3486SOL    HW222092   3.484   1.117   4.884 -0.7591 -0.1529 -0.6510
 3487SOL     OW22093   4.261   3.969   8.030 -0.0782 -0.5700  0.3123
 3487SOL    HW122094   4.255   4.059   8.000  0.2053 -1.0728 -1.2364
 3487SOL    HW222095   4.215   3.984   8.113  0.5261 -1.6455  0.8432
 3488SOL     OW22096   0.621   3.367   7.411 -0.8842  0.4345 -0.0499
 3488SOL    HW122097   0.679   3.442   7.421  0.6096 -0.7272  0.0677
 3488SOL    HW222098   0.655   3.303   7.474  1.0214  0.3370 -1.1847
 3489SOL     OW22099   3.040   4.594   0.536  0.2773  0.1698  0.0567
 3489SOL    HW122100   3.120   4.629   0.575 -0.1461  0.4368  0.6891
 3489SOL    HW222101   3.074   4.543   0.463 -0.2718  1.4317 -1.0594
 3490SOL     OW22102   1.703   2.233   9.457  0.4705 -0.2735 -0.4840
 3490SOL    HW122103   1.766   2.196   9.519  2.1099  1.8348 -0.8880
 3490SOL    HW222104   1.757   2.234   9.378  0.1583  1.0627 -0.6764
 3491SOL     OW22105   4.519   1.349   4.694  0.0758 -0.5418 -0.2672
 3491SOL    HW122106   4.549   1.352   4.604  3.8039  1.0040  1.0543
 3491SOL    HW222107   4.476   1.263   4.701 -0.9769  0.0313  0.4353
 3492SOL     OW22108   3.379   1.790  12.532  0.1575 -0.1739  0.2056
 3492SOL    HW122109   3.387   1.885  12.540 -1.0825 -0.2195  2.1168
 3492SOL    HW222110   3.397   1.772  12.624  0.0449  2.7139  0.7932
 3493SOL     OW22111   4.225   2.266   3.109 -0.0662 -0.8256  0.1440
 3493SOL    HW122112   4.290   2.289   3.044  0.8705  1.0880  1.7795
 3493SOL    HW222113   4.218   2.354   3.146 -0.3910 -0.3303 -1.1182
 3494SOL     OW22114   1.548   3.292   3.202  0.4748 -0.0919 -0.1629
 3494SOL    HW122115   1.485   3.224   3.225 -0.4090  0.2501 -1.5726
 3494SOL    HW222116   1.572   3.328   3.287 -1.5796  1.5453 -0.2638
 3495SOL     OW22117   3.927   4.126   5.443  0.0673  0.0928  0.0651
 3495SOL    HW122118   3.954   4.050   5.390  1.2971  1.7272 -1.6547
 3495SOL    HW222119   3.905   4.186   5.371 -2.4636  1.6327  2.1345
 3496SOL     OW22120   0.509   0.997  10.225  0.5214 -0.2076 -0.0264
 3496SOL    HW122121   0.599   0.995  10.256 -0.6910 -1.4783  3.4595
 3496SOL    HW222122   0.455   0.996  10.305 -0.1138 -0.8384 -0.4634
 3497SOL     OW22123   4.623   4.193  15.997 -0.0188 -0.0431 -0.3893
 3497SOL    HW122124   4.544   4.247  15.990 -0.6572 -0.8596  0.5968
 3497SOL    HW222125   4.581   4.108  16.002  3.1300 -1.5393  0.9226
 3498SOL     OW22126   4.489   1.861   7.325 -0.1181 -0.5131  0.5071
 3498SOL    HW122127   4.557   1.830   7.384  1.3811 -1.7273 -1.8723
 3498SOL    HW222128   4.543   1.911   7.264 -1.3977 -0.8155 -0.8945
 3499SOL     OW22129   2.727   1.925   1.853  0.2562  0.3883 -0.1839
 3499SOL    HW122130   2.742   1.873   1.774  2.5813 -2.4468  2.1349
 3499SOL    HW222131   2.668   1.866   1.899 -1.0957 -0.6710 -3.2659
 3500SOL     OW22132   3.511   0.905   2.416  0.1643 -0.0564 -0.1030
 3500SOL    HW122133   3.429   0.943   2.383 -0.2654 -1.5542 -0.7706
 3500SOL    HW222134   3.579   0.903   2.348  0.6351  2.8416  0.2682
 3501SOL     OW22135   2.386   4.671   7.803 -0.3897 -0.3955 -0.0358
 3501SOL    HW122136   2.440   0.012   7.818 -0.6244  0.0944 -1.8166
 3501SOL    HW222137   2.337   4.663   7.885 -1.7758  0.7730 -0.7721
 3502SOL     OW22138   4.320   3.103   4.956  0.1119  0.0960  0.1400
 3502SOL    HW122139   4.359   3.165   4.895  0.0371  0.4603  0.4647
 3502SOL    HW222140   4.230   3.115   4.926  0.7848 -0.2152 -2.0032
 3503SOL     OW22141   4.457   1.275  12.028 -0.4461 -0.4001  0.3668
 3503SOL    HW122142   4.521   1.343  12.048 -0.5451  0.1577 -1.2754
 3503SOL    HW222143   4.519   1.205  12.007 -1.7265 -1.5438  0.3599
 3504SOL     OW22144   1.217   1.395   5.857  0.3145 -0.0780  0.2226
 3504SOL    HW122145   1.196   1.387   5.764 -0.2111 -0.7616  0.4031
 3504SOL    HW222146   1.258   1.310   5.874  0.4191 -0.0319  0.2053
 3505SOL     OW22147   4.381   0.286  12.453 -0.1029  0.3572  0.4967
 3505SOL    HW122148   4.445   0.217  12.438 -1.1747 -0.6958  0.7612
 3505SOL    HW222149   4.321   0.285  12.378  1.2866  1.4222 -0.6333
 3506SOL     OW22150   4.531   2.660   7.947  0.2578  0.8158 -0.0558
 3506SOL    HW122151   4.595   2.695   7.885 -1.0385  0.5964 -1.5110
 3506SOL    HW222152   4.554   2.694   8.033  0.7869 -0.6051  0.3585
 3507SOL     OW22153   2.908   3.389   4.425 -0.2094 -0.2356  0.6073
 3507SOL    HW122154   2.861   3.460   4.468  1.4089  0.1647  1.7122
 3507SOL    HW222155   2.835   3.347   4.379  2.0041 -2.9064 -0.4978
 3508SOL     OW22156   2.000   3.113   6.627 -1.1328  0.0576  0.2197
 3508SOL    HW122157   2.072   3.052   6.641 -0.2620  0.8427 -0.8507
 3508SOL    HW222158   2.049   3.193   6.645 -3.8045  1.9458 -0.8295
 3509SOL     OW22159   3.965   0.334   8.348 -0.0169  0.1514 -0.3566
 3509SOL    HW122160   3.990   0.244   8.326  0.9798  0.3458 -0.0207
 3509SOL    HW222161   4.028   0.375   8.289 -0.0887 -1.5286 -1.6102
 3510SOL     OW22162   4.337   3.945  16.041  0.7076  0.6094  0.6732
 3510SOL    HW122163   4.315   3.986  15.957 -1.0522 -2.1020 -0.1887
 3510SOL    HW222164   4.368   3.857  16.015  0.1012 -0.3869  3.3828
 3511SOL     OW22165   1.654   2.717   9.807  0.4788 -0.9145  0.2154
 3511SOL    HW122166   1.598   2.760   9.872  0.0861 -2.3350  0.8164
 3511SOL    HW222167   1.656   2.784   9.739  0.9315 -0.5555  0.5819
 3512SOL     OW22168   0.956   1.162  13.288  0.3796 -0.0514 -0.1044
 3512SOL    HW122169   0.861   1.155  13.280  0.2717  0.3139  0.8832
 3512SOL    HW222170   0.963   1.180  13.381 -0.0235  1.1420 -0.3094
 3513SOL     OW22171   1.080   3.199   3.923  0.2499 -0.2509  0.3742
 3513SOL    HW122172   1.054   3.181   4.013  0.9793 -1.1158  0.4125
 3513SOL    HW222173   1.143   3.130   3.903  0.2860 -1.8487  6.1299
 3514SOL     OW22174   0.940   1.733  10.569  0.3204  0.4334 -0.1580
 3514SOL    HW122175   0.862   1.777  10.535  1.2550  1.9813 -0.2895
 3514SOL    HW222176   1.010   1.764  10.511  2.4985  1.0516  2.7639
 3515SOL     OW22177   1.936   0.652   5.180  0.2583  0.0021 -1.0907
 3515SOL    HW122178   1.918   0.682   5.269  2.0276 -0.4799 -0.5694
 3515SOL    HW222179   2.030   0.635   5.193 -0.1202 -1.1235  0.1531
 3516SOL     OW22180   1.149   1.302  17.657 -0.1345  0.0784  0.0451
 3516SOL    HW122181   1.205   1.225  17.645  0.4734  0.5577 -0.2033
 3516SOL    HW222182   1.107   1.285  17.741 -0.4407  0.4898 -0.0222
 3517SOL     OW22183   1.648   4.202   9.792 -0.2163 -0.4348  0.2485
 3517SOL    HW122184   1.622   4.224   9.881 -0.3182 -0.5755  0.2536
 3517SOL    HW222185   1.593   4.255   9.733  0.6243 -0.2629 -0.3884
 3518SOL     OW22186   0.741   0.847  12.762 -0.7897 -0.2479  0.5479
 3518SOL    HW122187   0.812   0.911  12.773 -0.3180 -0.4062 -1.6163
 3518SOL    HW222188   0.690   0.875  12.837  0.2573  1.0579  0.7683
 3519SOL     OW22189   0.653   1.023   5.802  0.5011 -0.3416  0.0749
 3519SOL    HW122190   0.704   1.029   5.883  1.8079 -1.5285 -0.6537
 3519SOL    HW222191   0.717   0.997   5.736 -0.2619 -0.2328 -0.7069
 3520SOL     OW22192   3.599   2.398  11.231  0.4353  0.1923 -0.8704
 3520SOL    HW122193   3.508   2.374  11.248  0.0897  1.6277 -0.6335
 3520SOL    HW222194   3.638   2.363  11.310  1.7516  3.2577 -0.1591
 3521SOL     OW22195   2.010   1.009   9.812 -0.1378  0.4860  0.2272
 3521SOL    HW122196   2.027   0.923   9.774  2.4479  2.0046 -2.0905
 3521SOL    HW222197   2.027   1.069   9.739  3.3892  0.1204  0.7667
 3522SOL     OW22198   3.229   4.386  14.412 -0.8848  0.1363 -0.3349
 3522SOL    HW122199   3.214   4.329  14.488  0.1517 -1.4690 -1.3435
 3522SOL    HW222200   3.262   4.320  14.351  0.3765  0.9311 -0.5155
 3523SOL     OW22201   2.963   2.307  10.129 -0.1984 -0.7997 -0.1024
 3523SOL    HW122202   3.045   2.291  10.082 -0.4374 -1.3158 -0.3439
 3523SOL    HW222203   2.941   2.214  10.139 -1.5749 -0.2678  1.7731
 3524SOL     OW22204   3.673   1.829   5.403  0.2801 -0.1763  0.2849
 3524SOL    HW122205   3.650   1.736   5.395 -0.9272  0.2290 -0.9417
 3524SOL    HW222206   3.665   1.839   5.498  1.7466 -0.9775  0.4865
 3525SOL     OW22207   3.011   2.363   9.295 -0.3729 -0.0815 -0.3960
 3525SOL    HW122208   3.031   2.371   9.389 -0.6697 -1.2266 -0.2435
 3525SOL    HW222209   3.046   2.448   9.266  0.9913  0.1344  1.8343
 3526SOL     OW22210   0.915   0.722   9.492 -0.2839 -0.0547  0.0294
 3526SOL    HW122211   0.913   0.695   9.584 -3.6437 -0.2266 -0.1189
 3526SOL    HW222212   0.832   0.691   9.457 -0.8175  2.5030 -0.9825
 3527SOL     OW22213   0.300   2.070   4.373  0.0615  0.2888 -0.5295
 3527SOL    HW122214   0.325   2.040   4.286  2.7372  0.6624  0.0832
 3527SOL    HW222215   0.384   2.048   4.414 -0.9515  0.2323  1.5383
 3528SOL     OW22216   3.808   3.150   0.858  0.2547  0.8289  0.1289
 3528SOL    HW122217   3.815   3.246   0.856  0.9599  0.7661 -0.2170
 3528SOL    HW222218   3.764   3.135   0.942  1.7451 -3.5857  0.0722
 3529SOL     OW22219   2.928   0.193  15.027  0.2231  0.2953  0.4350
 3529SOL    HW122220   2.924   0.252  15.102  0.4423 -0.7132  1.2346
 3529SOL    HW222221   3.017   0.158  15.032  0.5332  0.8907 -0.7464
 3530SOL     OW22222   2.358   4.070   0.288  0.4730  0.2130  0.3143
 3530SOL    HW122223   2.332   4.069   0.380 -0.2353  0.9665  0.1141
 3530SOL    HW222224   2.292   4.015   0.245 -0.3743  0.5927  1.1274
 3531SOL     OW22225   1.823   0.688  10.234 -0.1035 -0.0032 -0.6946
 3531SOL    HW122226   1.799   0.676  10.142 -0.3650 -2.0882 -0.3680
 3531SOL    HW222227   1.760   0.625  10.270  2.3573 -1.7339  0.5428
 3532SOL     OW22228   3.854   4.529   8.718 -0.0154 -0.6711  0.6831
 3532SOL    HW122229   3.891   4.444   8.742 -3.1541 -2.7117 -1.5470
 3532SOL    HW222230   3.903   4.587   8.776  0.6117 -0.5536  0.0393
 3533SOL     OW22231   4.019   4.490   4.306  0.4553  0.1502  0.1124
 3533SOL    HW122232   4.037   4.544   4.382 -2.3396  1.3293 -0.0778
 3533SOL    HW222233   4.065   4.546   4.244  1.3193 -0.7576 -0.0770
 3534SOL     OW22234   1.992   2.364  15.546  0.6503 -0.1211  0.1944
 3534SOL    HW122235   2.034   2.287  15.507  1.3939 -0.1454  1.0494
 3534SOL    HW222236   1.916   2.359  15.489 -1.0051 -5.8736  2.9471
 3535SOL     OW22237   0.409   1.310   2.178  0.0475 -0.3492 -0.1787
 3535SOL    HW122238   0.321   1.331   2.208  0.0575  0.8732 -0.9934
 3535SOL    HW222239   0.462   1.390   2.185 -0.4911  0.0409 -0.4713
 3536SOL     OW22240   0.651   3.386  12.546  0.4141  0.6494  0.8498
 3536SOL    HW122241   0.568   3.432  12.549  0.7123  1.3134 -1.0448
 3536SOL    HW222242   0.704   3.465  12.552  1.6849 -0.2779  1.9041
 3537SOL     OW22243   4.567   4.599   2.595  0.3672 -0.0436 -0.4931
 3537SOL    HW122244   4.479   4.624   2.568  0.7608  1.0015 -0.8110
 3537SOL    HW222245   4.624   4.609   2.519  1.9753  1.2669  0.8739
 3538SOL     OW22246   1.472   2.642   4.009 -0.7521 -0.5689 -0.8580
 3538SOL    HW122247   1.510   2.628   4.096 -0.5228  0.5176 -0.7891
 3538SOL    HW222248   1.416   2.564   4.001 -0.7808 -0.7085  0.7220
 3539SOL     OW22249   0.136   0.030   0.587  0.0234 -0.4558  0.0407
 3539SOL    HW122250   0.077   0.101   0.610 -0.0726 -0.1856 -1.0345
 3539SOL    HW222251   0.153   4.722   0.670  3.5237  1.9731  0.6171
 3540SOL     OW22252   3.111   0.420   9.256 -0.0542  0.5767  0.4408
 3540SOL    HW122253   3.033   0.382   9.217  1.8048 -0.3952 -2.2899
 3540SOL    HW222254   3.144   0.475   9.185 -1.8054  0.3398 -0.5508
 3541SOL     OW22255   3.808   4.330   6.020  0.7316 -0.7919  0.1663
 3541SOL    HW122256   3.877   4.311   5.956  0.6081  1.0088 -0.4990
 3541SOL    HW222257   3.779   4.243   6.048 -1.7958  0.2419  0.7397
 3542SOL     OW22258   3.148   3.533  17.498  0.5925  0.7191  0.3439
 3542SOL    HW122259   3.070   3.478  17.507  0.5804  0.4469 -1.3292
 3542SOL    HW222260   3.102   3.616  17.506 -1.2653 -0.2983  0.2918
 3543SOL     OW22261   3.291   3.970  10.108 -0.5353  0.0477 -0.0137
 3543SOL    HW122262   3.334   3.953  10.024 -1.8198 -0.4668 -0.5772
 3543SOL    HW222263   3.212   3.919  10.086 -0.9796  0.7086  0.0360
 3544SOL     OW22264   1.437   3.758   0.932 -0.1087 -0.1538 -0.0510
 3544SOL    HW122265   1.500   3.734   1.000  0.9258  1.7985 -0.2983
 3544SOL    HW222266   1.451   3.852   0.945 -2.6696  0.3019 -0.5909
 3545SOL     OW22267   2.760   2.857   6.276  0.2859 -0.4451  0.1788
 3545SOL    HW122268   2.749   2.767   6.305 -0.2395 -1.1619 -2.2130
 3545SOL    HW222269   2.720   2.867   6.190  0.3523 -0.9389  0.0893
 3546SOL     OW22270   1.105   0.698   2.946  0.6622 -0.1142  0.0666
 3546SOL    HW122271   1.106   0.793   2.936 -2.1479 -0.4998 -3.9499
 3546SOL    HW222272   1.100   0.689   3.041  0.3125 -1.3891 -0.0732
 3547SOL     OW22273   4.466   1.630   1.455  0.4044  0.2078  0.3616
 3547SOL    HW122274   4.499   1.546   1.423  2.6648  0.2739  2.5265
 3547SOL    HW222275   4.425   1.664   1.376  2.3298 -0.7410 -1.0278
 3548SOL     OW22276   1.439   0.103   1.500  0.1727 -0.1855 -0.7386
 3548SOL    HW122277   1.493   0.098   1.579 -1.6134 -1.5336  0.3948
 3548SOL    HW222278   1.350   0.118   1.532  0.6971 -1.1897  1.1816
 3549SOL     OW22279   3.553   4.187   1.031  0.6861 -0.0914 -0.1739
 3549SOL    HW122280   3.464   4.198   0.997  1.6480 -0.7976 -2.9450
 3549SOL    HW222281   3.545   4.102   1.074  2.5459  0.4160  1.2214
 3550SOL     OW22282   2.090   3.755  16.519  0.4431 -0.1085 -0.7511
 3550SOL    HW122283   2.004   3.766  16.478  0.2773 -0.0186 -0.3783
 3550SOL    HW222284   2.143   3.718  16.449  0.9131 -1.0839  0.1168
 3551SOL     OW22285   4.466   2.723   8.835  0.3598 -0.3818  0.0746
 3551SOL    HW122286   4.507   2.750   8.752 -0.5829  0.3213 -0.1674
 3551SOL    HW222287   4.402   2.792   8.852 -0.4458 -0.8269 -1.1650
 3552SOL     OW22288   2.967   3.552  13.948  0.1696  0.0620  0.6684
 3552SOL    HW122289   3.048   3.586  13.910  0.6567 -0.2944  1.3990
 3552SOL    HW222290   2.902   3.617  13.922  0.6285 -0.1377 -0.9929
 3553SOL     OW22291   2.738   4.014   3.388 -0.2264  0.3897  0.1068
 3553SOL    HW122292   2.828   4.032   3.360  0.9740 -1.5606  2.6174
 3553SOL    HW222293   2.744   3.934   3.442 -0.2550  1.4134  1.6388
 3554SOL     OW22294   3.267   4.542   6.068  0.1094 -0.1228 -0.0169
 3554SOL    HW122295   3.280   4.452   6.097  0.3966  0.3718  1.4048
 3554SOL    HW222296   3.176   4.543   6.036  0.0335  1.1647  0.2591
 3555SOL     OW22297   0.445   3.150   8.503 -0.1917  0.6796  1.0228
 3555SOL    HW122298   0.445   3.081   8.437  2.6462 -1.4585  3.2998
 3555SOL    HW222299   0.534   3.182   8.490 -0.8762  1.4911 -1.6815
 3556SOL     OW22300   3.654   4.098  16.703 -0.1834 -0.2213 -0.1109
 3556SOL    HW122301   3.618   4.173  16.751  2.0509  0.1843  0.9001
 3556SOL    HW222302   3.596   4.098  16.627  0.7292  0.0242 -0.7995
 3557SOL     OW22303   2.742   1.932   5.980 -0.0301 -0.5216 -0.5273
 3557SOL    HW122304   2.652   1.901   5.968  0.4821 -2.1546 -0.0692
 3557SOL    HW222305   2.757   1.958   5.889  2.0828  2.3102  0.6160
 3558SOL     OW22306   2.044   4.129   7.258  0.3801  0.2232 -0.0752
 3558SOL    HW122307   2.069   4.072   7.331  1.1339 -0.9214 -1.2384
 3558SOL    HW222308   2.037   4.215   7.298  1.2550  0.4851 -0.4733
 3559SOL     OW22309   1.966   1.891  15.814  0.2364 -0.2763  0.3472
 3559SOL    HW122310   2.052   1.888  15.771  0.0797  3.0703 -0.2479
 3559SOL    HW222311   1.981   1.907  15.907  3.9423  0.1410 -0.3248
 3560SOL     OW22312   2.147   3.175   4.605  0.6345 -0.0953  0.3578
 3560SOL    HW122313   2.166   3.093   4.559 -3.9548 -0.5321 -0.8039
 3560SOL    HW222314   2.097   3.134   4.675  2.7723 -0.1673  1.8035
 3561SOL     OW22315   4.690   2.213   5.888 -0.2297 -0.4848  0.4314
 3561SOL    HW122316   4.707   2.214   5.794  2.0401 -1.7541  0.8377
 3561SOL    HW222317   4.600   2.240   5.905 -0.8285 -1.3555 -1.3094
 3562SOL     OW22318   3.747   2.482   3.365  0.1263  0.8139 -0.7393
 3562SOL    HW122319   3.700   2.436   3.296 -0.1267  0.7862 -0.5457
 3562SOL    HW222320   3.674   2.510   3.420  1.0642 -0.1703  1.0116
 3563SOL     OW22321   2.920   1.440  14.808 -0.2024 -0.1956  0.0306
 3563SOL    HW122322   2.925   1.345  14.813  0.1651 -0.1512  0.5052
 3563SOL    HW222323   2.830   1.468  14.818  0.4805  1.0527  2.6748
 3564SOL     OW22324   3.584   0.617   2.837  0.3219  0.4593 -0.5604
 3564SOL    HW122325   3.545   0.691   2.883  1.1929 -0.3996  1.5810
 3564SOL    HW222326   3.592   0.648   2.747 -0.7053  0.2680 -0.7068
 3565SOL     OW22327   1.421   0.095   8.909 -0.0618  0.3227 -0.1002
 3565SOL    HW122328   1.371   0.124   8.833  1.7989  0.4078 -1.2933
 3565SOL    HW222329   1.491   0.161   8.905  1.2139 -0.9548  1.1530
 3566SOL     OW22330   1.221   3.141   9.362 -0.2044 -0.2758 -0.8491
 3566SOL    HW122331   1.231   3.108   9.273  2.0028 -1.2505 -0.2311
 3566SOL    HW222332   1.196   3.231   9.342  1.4769  0.9992  2.8023
 3567SOL     OW22333   2.785   3.582   4.614  0.4390 -0.1860 -0.0213
 3567SOL    HW122334   2.731   3.624   4.681 -0.8394 -1.5428 -0.2248
 3567SOL    HW222335   2.875   3.583   4.647  0.4418  2.0449 -0.0822
 3568SOL     OW22336   1.367   4.427   5.180  0.5030  1.0335  0.0290
 3568SOL    HW122337   1.439   4.378   5.220  0.3272  1.0472  0.3577
 3568SOL    HW222338   1.305   4.354   5.177  0.9176  0.7365 -1.3953
 3569SOL     OW22339   2.645   4.287   2.932 -0.8228 -0.3666  0.2760
 3569SOL    HW122340   2.564   4.335   2.948  0.4149  1.6518  0.4528
 3569SOL    HW222341   2.707   4.338   2.984 -1.6363  1.4409 -0.5386
 3570SOL     OW22342   2.128   1.290   3.987  0.5901  0.0335 -0.0408
 3570SOL    HW122343   2.178   1.223   3.940  0.7909 -0.3098  0.6582
 3570SOL    HW222344   2.197   1.351   4.011  1.8952 -0.9388 -1.3389
 3571SOL     OW22345   1.210   2.008   3.525  0.7244  0.2390 -0.2855
 3571SOL    HW122346   1.223   2.065   3.601 -0.1480 -0.4168  0.3600
 3571SOL    HW222347   1.216   1.921   3.565 -3.5003 -0.2858 -0.7811
 3572SOL     OW22348   3.640   2.781   3.587  0.4018 -0.5168 -0.4643
 3572SOL    HW122349   3.699   2.815   3.519  0.3530 -0.2201 -0.3565
 3572SOL    HW222350   3.555   2.823   3.575 -0.5677 -2.1166  0.7462
 3573SOL     OW22351   2.352   0.895  16.063 -0.0660 -0.3320 -0.2831
 3573SOL    HW122352   2.430   0.890  16.119 -0.7758  0.9381  0.8084
 3573SOL    HW222353   2.359   0.803  16.036 -0.0254 -0.7491  1.1243
 3574SOL     OW22354   4.280   2.973   4.348  0.0726 -0.5268  0.3638
 3574SOL    HW122355   4.338   2.897   4.347 -0.9461 -1.2816 -1.2992
 3574SOL    HW222356   4.287   3.014   4.434  3.7671 -1.4522  0.5152
 3575SOL     OW22357   0.272   0.694   7.424 -0.0041  0.5535 -0.0661
 3575SOL    HW122358   0.209   0.751   7.468  0.3417  1.3181 -0.5635
 3575SOL    HW222359   0.214   0.636   7.374 -2.1089  0.2105  2.8011
 3576SOL     OW22360   2.620   0.584  16.175  0.3983 -0.1216  0.2270
 3576SOL    HW122361   2.701   0.588  16.125  0.9834 -0.1213  1.1806
 3576SOL    HW222362   2.557   0.598  16.104 -1.0511  0.9073  1.7083
 3577SOL     OW22363   1.368   2.725   4.816  0.0935 -0.6630  0.4422
 3577SOL    HW122364   1.323   2.806   4.840 -0.5350 -1.4094  1.7696
 3577SOL    HW222365   1.308   2.651   4.819  0.2538 -0.8253 -0.5419
 3578SOL     OW22366   0.890   1.612   2.274 -0.0824  0.4528 -0.5242
 3578SOL    HW122367   0.867   1.552   2.346  0.1491  0.0835 -0.7557
 3578SOL    HW222368   0.949   1.565   2.215  0.1642 -1.3137  1.1199
 3579SOL     OW22369   1.970   1.530   2.677  0.1766 -0.0125 -0.6703
 3579SOL    HW122370   2.021   1.600   2.716 -0.3120 -0.6686  1.1304
 3579SOL    HW222371   1.923   1.505   2.756 -0.4618 -1.5646 -1.5333
 3580SOL     OW22372   0.537   2.243  13.135  0.0080 -0.3226 -0.0011
 3580SOL    HW122373   0.518   2.165  13.187  1.1092  0.4913  1.6206
 3580SOL    HW222374   0.503   2.301  13.204  0.2729 -1.4923  1.0977
 3581SOL     OW22375   1.006   0.589   8.103  0.0209  0.2421 -0.0357
 3581SOL    HW122376   0.963   0.596   8.188  0.1679 -1.7960  0.2133
 3581SOL    HW222377   1.095   0.566   8.131 -0.6014  0.0962  1.8232
 3582SOL     OW22378   0.215   3.935   0.949  0.1231  0.1820 -0.3097
 3582SOL    HW122379   0.238   3.998   1.018 -3.2964 -0.4274  1.3697
 3582SOL    HW222380   0.297   3.930   0.900  1.1933  1.2759  1.3339
 3583SOL     OW22381   0.160   4.145   1.518  0.4644  0.3553 -0.3908
 3583SOL    HW122382   0.115   4.120   1.438 -0.8863  0.5313  0.3029
 3583SOL    HW222383   0.252   4.129   1.500  0.9192  0.8094  1.4501
 3584SOL     OW22384   4.608   1.623   5.128 -0.1143 -0.4262  0.1366
 3584SOL    HW122385   4.587   1.638   5.220 -0.9068  0.0567 -0.1143
 3584SOL    HW222386   4.529   1.656   5.084  0.0314  0.5160  0.5745
 3585SOL     OW22387   4.502   4.403   5.352  0.2425  0.0550 -0.1635
 3585SOL    HW122388   4.529   4.358   5.432  0.1650  1.6494  0.7473
 3585SOL    HW222389   4.548   4.487   5.348  0.8589 -0.2245  1.1909
 3586SOL     OW22390   1.575   1.521  15.494 -0.2922  0.5915  0.1536
 3586SOL    HW122391   1.590   1.552  15.404 -0.3683 -1.9515 -0.7271
 3586SOL    HW222392   1.525   1.445  15.464 -1.2666  1.3413 -0.1613
 3587SOL     OW22393   3.380   0.803   4.410  0.2665  0.1808  0.0206
 3587SOL    HW122394   3.467   0.809   4.371 -0.6942  0.4192 -2.0601
 3587SOL    HW222395   3.371   0.893   4.439  1.4317 -0.0311  1.0597
 3588SOL     OW22396   3.335   2.740   4.846  0.0882  0.0502  0.0818
 3588SOL    HW122397   3.411   2.786   4.811  0.0496  0.2596  0.2712
 3588SOL    HW222398   3.274   2.757   4.774  1.6945  2.3318 -0.7151
 3589SOL     OW22399   3.154   1.793   1.823  0.0912  0.0836  0.1398
 3589SOL    HW122400   3.245   1.767   1.840 -0.3280 -0.6788  1.2278
 3589SOL    HW222401   3.149   1.725   1.755  2.6100  0.0441 -0.0068
 3590SOL     OW22402   3.018   0.477   8.465  0.0369 -0.0827 -0.0070
 3590SOL    HW122403   2.934   0.488   8.509  1.0871  3.1030  1.2475
 3590SOL    HW222404   3.026   0.565   8.426 -2.6559  0.1454 -0.0155
 3591SOL     OW22405   0.376   4.327   4.425 -0.3768 -0.1397  0.8841
 3591SOL    HW122406   0.415   4.394   4.482  0.8436 -1.4881  1.6178
 3591SOL    HW222407   0.289   4.367   4.417 -0.7632 -1.4636 -1.4852
 3592SOL     OW22408   1.330   4.235   7.716  0.4454  0.0150  0.0564
 3592SOL    HW122409   1.367   4.270   7.635  0.2957 -1.9426 -0.8426
 3592SOL    HW222410   1.406   4.242   7.774 -0.6701  2.2668  1.2609
 3593SOL     OW22411   0.004   2.275   7.373 -0.5418  0.0016 -0.5074
 3593SOL    HW122412   0.095   2.302   7.363 -0.4508  0.2492  0.9952
 3593SOL    HW222413   0.014   2.208   7.441 -1.1797 -1.4926 -1.8917
 3594SOL     OW22414   2.393   3.732  13.104  0.4135 -0.1286 -0.2668
 3594SOL    HW122415   2.347   3.774  13.177  2.0811  1.9167 -0.3680
 3594SOL    HW222416   2.393   3.804  13.041  1.1440  0.3110  0.2266
 3595SOL     OW22417   2.426   2.744   7.760 -0.1250  0.3177 -0.2978
 3595SOL    HW122418   2.365   2.705   7.698  0.3869  0.4341 -0.8719
 3595SOL    HW222419   2.500   2.685   7.742 -0.3720 -0.0337 -0.1507
 3596SOL     OW22420   1.428   2.492   5.367  0.2304  0.6411 -0.5642
 3596SOL    HW122421   1.341   2.529   5.378  0.3338  0.4436  0.8807
 3596SOL    HW222422   1.462   2.485   5.456 -1.3085 -0.2830 -0.0474
 3597SOL     OW22423   4.587   4.704  13.304 -0.2635  0.1875  0.2434
 3597SOL    HW122424   4.513   4.658  13.344 -0.5148  0.6764  0.3444
 3597SOL    HW222425   4.627   0.009  13.380 -0.9751 -0.0123  0.7306
 3598SOL     OW22426   2.779   2.165   8.672  0.1260  1.0736  0.5737
 3598SOL    HW122427   2.787   2.174   8.577 -1.1896 -0.6657  0.2906
 3598SOL    HW222428   2.691   2.130   8.680  0.5269  0.3517  1.8061
 3599SOL     OW22429   1.652   3.442   3.772  0.4852 -0.0834  0.3024
 3599SOL    HW122430   1.683   3.396   3.694 -0.1440 -1.4816  0.8781
 3599SOL    HW222431   1.730   3.435   3.827  0.7403  0.9015  0.0739
 3600SOL     OW22432   0.067   2.416  12.150 -0.1624  0.0663  0.2619
 3600SOL    HW122433   0.155   2.400  12.183 -0.8882 -0.6762  1.8014
 3600SOL    HW222434   0.013   2.344  12.182 -0.4054  0.7784  1.4044
 3601SOL     OW22435   1.150   4.659   4.617 -0.0543 -0.0903  0.5324
 3601SOL    HW122436   1.063   4.698   4.623  0.3423  1.0285 -0.9505
 3601SOL    HW222437   1.165   4.686   4.526  0.1849  1.2240  0.9623
 3602SOL     OW22438   1.469   3.454   5.157  0.3874 -0.3097  0.4971
 3602SOL    HW122439   1.414   3.479   5.231  1.9448  2.4877  0.7128
 3602SOL    HW222440   1.493   3.365   5.182 -1.0899 -0.6840  0.5215
 3603SOL     OW22441   1.178   4.180  15.873  0.1314  0.0157 -0.3924
 3603SOL    HW122442   1.166   4.231  15.953  1.4333  1.3720 -1.0598
 3603SOL    HW222443   1.140   4.236  15.805 -1.8801 -0.1720  0.5781
 3604SOL     OW22444   3.623   1.851  14.197 -0.0922  0.2478  0.0774
 3604SOL    HW122445   3.705   1.801  14.200  0.3305  0.8076 -2.0429
 3604SOL    HW222446   3.609   1.858  14.292 -1.1110  2.5882 -0.2388
 3605SOL     OW22447   2.822   0.996   5.569  0.2603 -0.0665 -0.5078
 3605SOL    HW122448   2.879   0.994   5.646  0.1300 -0.1293 -0.4125
 3605SOL    HW222449   2.776   1.078   5.586  1.2255  0.3447  0.1312
 3606SOL     OW22450   3.841   4.719   4.731  0.1872 -0.3492  0.2871
 3606SOL    HW122451   3.854   4.660   4.805 -1.6833  1.3761  1.9780
 3606SOL    HW222452   3.747   4.735   4.730 -0.2664 -3.1680 -0.9022
 3607SOL     OW22453   3.877   4.648   9.415  0.4558  0.1388  0.4431
 3607SOL    HW122454   3.802   4.635   9.356  1.6409 -0.2258 -0.9666
 3607SOL    HW222455   3.855   4.726   9.466  1.2638 -0.2095  1.3184
 3608SOL     OW22456   0.057   1.135   3.493  0.2503 -0.5079  0.0915
 3608SOL    HW122457   4.714   1.131   3.441  0.9990 -0.1583 -1.0762
 3608SOL    HW222458   0.109   1.198   3.444 -1.3570  0.7920  0.0656
 3609SOL     OW22459   3.913   1.898   8.072  0.0609 -0.1656  0.4741
 3609SOL    HW122460   3.819   1.902   8.089  0.1060 -0.2962  0.7525
 3609SOL    HW222461   3.945   1.957   8.141 -0.4975 -0.8538  1.3175
 3610SOL     OW22462   3.050   1.124   0.427 -0.2012 -0.2355 -0.5575
 3610SOL    HW122463   3.084   1.042   0.462  1.2500 -0.1520 -1.7597
 3610SOL    HW222464   2.956   1.114   0.441 -0.4888  1.3965 -1.3306
 3611SOL     OW22465   3.150   4.586  17.634 -0.4432  0.1044 -0.0937
 3611SOL    HW122466   3.159   4.502  17.590  0.3331 -0.6995  1.6189
 3611SOL    HW222467   3.236   4.621  17.612  0.0644  0.5875  2.5657
 3612SOL     OW22468   3.241   1.278   9.700  0.0308 -0.0833 -0.2115
 3612SOL    HW122469   3.166   1.223   9.723 -0.0426  0.9010  1.9339
 3612SOL    HW222470   3.308   1.211   9.687  0.8935  0.8001 -0.3290
 3613SOL     OW22471   3.830   3.268  13.460 -0.2383  0.0471  0.9453
 3613SOL    HW122472   3.829   3.185  13.508 -0.6644 -0.3560  0.2519
 3613SOL    HW222473   3.836   3.320  13.539 -2.0722 -3.0526  3.1375
 3614SOL     OW22474   4.343   1.808  16.639 -0.0303  0.6167 -0.0036
 3614SOL    HW122475   4.331   1.787  16.732  0.2348 -2.1665 -0.5803
 3614SOL    HW222476   4.436   1.828  16.644  0.4160 -1.5908  0.7005
 3615SOL     OW22477   3.145   1.934  14.453 -0.3728  0.3277  0.2244
 3615SOL    HW122478   3.223   1.984  14.479  0.4627 -0.4614 -0.7688
 3615SOL    HW222479   3.151   1.869  14.523 -2.6445 -0.6275 -0.4963
 3616SOL     OW22480   2.709   2.399   9.244 -0.1246  0.1229 -0.6632
 3616SOL    HW122481   2.685   2.366   9.330  1.2281  4.4988  1.3715
 3616SOL    HW222482   2.803   2.392   9.259  0.1048  1.2620 -1.5442
 3617SOL     OW22483   1.401   0.530   4.948  0.0635 -0.3973  0.1994
 3617SOL    HW122484   1.384   0.471   5.022 -2.5893  0.5405  0.3247
 3617SOL    HW222485   1.446   0.470   4.889 -1.2405 -0.8645 -0.3056
 3618SOL     OW22486   1.714   1.449   0.748 -0.0865  0.4912  0.1454
 3618SOL    HW122487   1.797   1.421   0.710  2.4257  2.0076  4.5409
 3618SOL    HW222488   1.736   1.541   0.757  1.4140  0.2192 -0.7618
 3619SOL     OW22489   3.107   1.770   8.426 -0.0150  0.3843 -0.2355
 3619SOL    HW122490   3.106   1.866   8.431 -1.4929  0.3137  0.6531
 3619SOL    HW222491   3.194   1.757   8.388 -0.4661  2.1004 -1.9015
 3620SOL     OW22492   2.689   2.772  10.806 -0.1561 -0.6920 -0.4350
 3620SOL    HW122493   2.650   2.769  10.893  0.6196  0.5684 -0.0434
 3620SOL    HW222494   2.772   2.732  10.831  0.1051  1.5893  2.2836
 3621SOL     OW22495   1.137   0.670  10.446  0.6044  1.0152  0.3307
 3621SOL    HW122496   1.155   0.652  10.353  0.8748  0.4903  0.4849
 3621SOL    HW222497   1.129   0.765  10.444  0.4840  1.0107  0.7844
 3622SOL     OW22498   0.447   2.913   5.998 -0.5746  0.0996  0.0563
 3622SOL    HW122499   0.481   2.901   5.909 -0.8478 -1.2566  0.1395
 3622SOL    HW222500   0.444   2.821   6.024 -1.9343 -0.0799 -0.7608
 3623SOL     OW22501   0.246   2.856   0.479  0.0221  0.1870  0.0771
 3623SOL    HW122502   0.186   2.806   0.534 -0.4808 -0.0340 -0.6740
 3623SOL    HW222503   0.320   2.800   0.454 -0.2805 -0.1482 -0.0689
 3624SOL     OW22504   4.320   3.102   6.559  0.2533  0.7763 -0.1155
 3624SOL    HW122505   4.309   3.154   6.479  1.4812 -0.8180 -1.3161
 3624SOL    HW222506   4.291   3.018   6.523 -2.8937  2.2119 -0.9665
 3625SOL     OW22507   3.439   0.479   7.619 -0.4101  0.3071  0.4558
 3625SOL    HW122508   3.482   0.499   7.701  0.7349 -3.7315  0.8476
 3625SOL    HW222509   3.371   0.419   7.649 -3.0713  3.4692  0.7752
 3626SOL     OW22510   2.407   3.027   6.959  0.0744 -0.1919 -0.2453
 3626SOL    HW122511   2.462   3.103   6.941 -0.0307 -0.3000 -1.0305
 3626SOL    HW222512   2.373   3.047   7.046  1.6921 -2.3688  0.9056
 3627SOL     OW22513   1.968   2.375   8.076 -0.3600  0.2188 -0.0794
 3627SOL    HW122514   1.961   2.369   8.171 -0.6432  0.6135 -0.0749
 3627SOL    HW222515   2.032   2.446   8.070  0.1374 -0.1116  1.2717
 3628SOL     OW22516   2.842   2.673   4.065 -0.1315  0.1193 -0.0852
 3628SOL    HW122517   2.900   2.738   4.104  0.3741  0.6706 -1.7451
 3628SOL    HW222518   2.778   2.721   4.013 -0.6353  0.8104  1.1966
 3629SOL     OW22519   0.715   3.615  16.052 -0.2383 -0.3154 -0.0950
 3629SOL    HW122520   0.666   3.571  15.982 -0.2809  2.7319 -1.9715
 3629SOL    HW222521   0.717   3.700  16.009  0.1036 -0.2956 -0.0415
 3630SOL     OW22522   4.315   3.674   2.214  0.0037  0.0088 -0.0932
 3630SOL    HW122523   4.299   3.580   2.207 -1.5546  0.5688 -4.3292
 3630SOL    HW222524   4.387   3.671   2.151  0.5367  2.1414  0.4267
 3631SOL     OW22525   1.281   4.439   6.095 -0.3631  0.0118 -0.4723
 3631SOL    HW122526   1.330   4.371   6.049  1.9296  0.1353  1.7997
 3631SOL    HW222527   1.204   4.434   6.039 -0.9339  0.3849  0.2650
 3632SOL     OW22528   4.422   0.769   6.441  0.3370 -0.1300  0.4652
 3632SOL    HW122529   4.387   0.857   6.454  1.0177  0.2758 -0.4125
 3632SOL    HW222530   4.510   0.779   6.478  0.7689 -0.7268 -0.3820
 3633SOL     OW22531   4.140   3.651   0.954 -0.0548  0.0835  0.0074
 3633SOL    HW122532   4.176   3.674   0.868 -1.1511  1.1107 -0.1770
 3633SOL    HW222533   4.183   3.727   0.995 -0.3776  0.5565 -0.5299
 3634SOL     OW22534   0.492   3.785   2.709 -0.0784 -0.0062 -0.1298
 3634SOL    HW122535   0.564   3.722   2.713  1.0880  1.3325 -0.1857
 3634SOL    HW222536   0.442   3.754   2.633  1.2368  2.4088 -1.9533
 3635SOL     OW22537   1.185   1.074  10.130  0.2579 -0.6244  0.3467
 3635SOL    HW122538   1.217   1.090  10.042 -2.4519  2.4582 -0.0907
 3635SOL    HW222539   1.111   1.134  10.127 -0.6762 -1.6842  2.0146
 3636SOL     OW22540   1.699   3.329   4.040  0.3325  0.5216  0.7043
 3636SOL    HW122541   1.642   3.263   4.081 -2.0426  0.7555 -2.1804
 3636SOL    HW222542   1.753   3.260   4.003  0.3439  1.1390 -0.4538
 3637SOL     OW22543   1.614   0.730   9.213  0.7243 -0.2665 -0.2163
 3637SOL    HW122544   1.705   0.755   9.226  1.4339 -1.8823 -2.1693
 3637SOL    HW222545   1.573   0.815   9.196  0.9048 -0.7742 -3.1427
 3638SOL     OW22546   3.978   1.120  17.226  0.6977  0.5986 -0.0681
 3638SOL    HW122547   3.943   1.204  17.255  2.0215  1.6374 -1.4790
 3638SOL    HW222548   3.950   1.105  17.135 -1.3158 -0.4129  0.7271
 3639SOL     OW22549   2.583   3.658   1.301  0.2412 -0.3436  0.6005
 3639SOL    HW122550   2.518   3.601   1.342 -0.0453  0.3671  1.1403
 3639SOL    HW222551   2.531   3.675   1.222 -0.7780 -3.3587  0.6156
 3640SOL     OW22552   3.190   1.969   2.045  0.3282 -0.3621  0.8528
 3640SOL    HW122553   3.163   1.911   1.973  1.1470  2.8193 -2.0432
 3640SOL    HW222554   3.163   1.922   2.123 -0.7670 -0.1941  0.5805
 3641SOL     OW22555   1.178   4.085   6.467  0.3099  0.7092  0.2279
 3641SOL    HW122556   1.246   4.036   6.421  0.1884  0.7794 -0.0227
 3641SOL    HW222557   1.226   4.138   6.531  0.0877 -0.6644  1.5595
 3642SOL     OW22558   2.751   0.502   3.264 -0.3696  0.2299 -0.1190
 3642SOL    HW122559   2.831   0.547   3.237 -2.1782  3.0044 -0.8568
 3642SOL    HW222560   2.715   0.579   3.308  0.1898 -0.3737  1.3909
 3643SOL     OW22561   1.232   2.548  16.135  0.3478 -0.3488 -0.2600
 3643SOL    HW122562   1.253   2.458  16.110 -1.3229 -1.6860  3.1252
 3643SOL    HW222563   1.278   2.554  16.219 -1.1049 -0.7784  0.5730
 3644SOL     OW22564   0.404   2.823   8.834  0.1481 -0.1300  0.7865
 3644SOL    HW122565   0.410   2.804   8.741  4.0670 -2.0489  1.4218
 3644SOL    HW222566   0.360   2.744   8.867  1.5459 -0.5078  1.7884
 3645SOL     OW22567   0.780   1.027   2.302 -0.0703  0.1221  0.3003
 3645SOL    HW122568   0.811   1.042   2.392  1.9375  1.2853 -0.5916
 3645SOL    HW222569   0.740   0.945   2.330 -0.3261 -0.1133 -0.7520
 3646SOL     OW22570   4.143   3.234   0.451  0.3187  0.0944  0.3937
 3646SOL    HW122571   4.132   3.168   0.520 -0.8901  0.1685  0.2741
 3646SOL    HW222572   4.188   3.303   0.499  1.2653 -1.4699  1.7493
 3647SOL     OW22573   4.034   2.223   2.792  0.5555 -0.2815  0.3954
 3647SOL    HW122574   3.962   2.161   2.799  0.8230 -0.5647  0.6143
 3647SOL    HW222575   4.099   2.172   2.841  2.3500  0.3672 -1.3266
 3648SOL     OW22576   1.058   2.920   9.518  0.1899  0.1547  0.3051
 3648SOL    HW122577   1.101   2.994   9.474 -1.4329  0.2972 -1.0637
 3648SOL    HW222578   1.125   2.852   9.520  1.3939  1.3160 -0.4213
 3649SOL     OW22579   0.849   2.830   0.628 -0.1515 -0.5381  0.1223
 3649SOL    HW122580   0.819   2.920   0.621  0.6044 -0.1248  2.3974
 3649SOL    HW222581   0.882   2.811   0.716  0.5041  2.0328  0.4262
 3650SOL     OW22582   1.098   1.601   9.048  0.4686  0.1341  0.5293
 3650SOL    HW122583   1.022   1.636   9.000  1.2801 -0.5860 -1.2855
 3650SOL    HW222584   1.072   1.619   9.138 -0.3310 -4.4372  1.1826
 3651SOL     OW22585   1.554   3.117   8.517  0.0062  0.5139  0.3098
 3651SOL    HW122586   1.538   3.203   8.556  1.0028  0.9777 -0.3231
 3651SOL    HW222587   1.468   3.091   8.484 -0.4010  1.6424  0.4871
 3652SOL     OW22588   2.691   1.726   2.233 -0.2240 -0.2867  0.5441
 3652SOL    HW122589   2.734   1.797   2.280  1.9008 -0.7275 -0.7067
 3652SOL    HW222590   2.748   1.649   2.234  0.0527 -0.1195 -1.9919
 3653SOL     OW22591   2.966   3.431   5.200  0.0940 -0.1473  0.3871
 3653SOL    HW122592   2.994   3.401   5.113  1.3463 -1.6049  1.3099
 3653SOL    HW222593   2.966   3.348   5.247  0.1656 -1.8529 -2.6254
 3654SOL     OW22594   1.631   4.298   5.322 -0.1633 -0.0015  0.3495
 3654SOL    HW122595   1.670   4.211   5.312 -0.6700 -0.2190  0.2650
 3654SOL    HW222596   1.713   4.346   5.308 -1.5752  3.0124  2.3138
 3655SOL     OW22597   2.065   1.457  13.139 -0.5934 -0.4749  0.2559
 3655SOL    HW122598   2.106   1.386  13.188 -0.4264 -0.8681 -0.4483
 3655SOL    HW222599   2.117   1.536  13.158 -0.5318 -0.3161 -0.5413
 3656SOL     OW22600   3.028   2.826   2.566 -0.6048 -0.1485 -0.4192
 3656SOL    HW122601   3.024   2.843   2.471 -2.5596 -1.5173 -0.5866
 3656SOL    HW222602   3.040   2.916   2.597 -0.6515 -0.0448 -0.6962
 3657SOL     OW22603   3.399   2.588  16.730  0.0896  0.2304  0.0434
 3657SOL    HW122604   3.340   2.526  16.773  1.5198 -2.3346 -1.7001
 3657SOL    HW222605   3.430   2.545  16.650  0.4132  0.3858  0.0854
 3658SOL     OW22606   0.150   0.819   6.963  0.6676 -0.2163 -0.0771
 3658SOL    HW122607   0.186   0.891   7.016 -0.1526 -0.3706  0.6911
 3658SOL    HW222608   0.209   0.749   6.990 -0.0503 -1.2960 -1.3816
 3659SOL     OW22609   2.789   4.010  12.399  0.1508  0.1011  0.0039
 3659SOL    HW122610   2.871   3.981  12.359 -0.5776  1.1991 -2.2737
 3659SOL    HW222611   2.785   4.103  12.377 -0.9196  0.3455  1.1948
 3660SOL     OW22612   2.705   2.456   8.409 -0.3007  0.6285 -0.4260
 3660SOL    HW122613   2.755   2.426   8.333  0.6464 -1.9557  1.2072
 3660SOL    HW222614   2.780   2.488   8.459  0.6847 -0.4845 -1.2090
 3661SOL     OW22615   1.386   4.039  10.328  0.2864 -0.4886 -0.1132
 3661SOL    HW122616   1.434   3.963  10.293 -2.1213 -1.7210 -0.8182
 3661SOL    HW222617   1.417   4.120  10.289  3.3943 -0.5200  2.2942
 3662SOL     OW22618   2.064   2.032   2.705  0.5798 -0.0047  0.5885
 3662SOL    HW122619   2.076   2.075   2.621  0.1334  0.0102  0.5333
 3662SOL    HW222620   2.151   2.047   2.742  0.5033 -0.8919  1.1112
 3663SOL     OW22621   0.040   3.514  11.172  0.7024  0.5792 -0.0868
 3663SOL    HW122622   0.119   3.562  11.145  1.4672 -0.9629 -0.5654
 3663SOL    HW222623   0.077   3.430  11.147 -2.5807  0.1645 -3.4308
 3664SOL     OW22624   0.275   1.701   9.036 -0.2999  0.1297 -0.4098
 3664SOL    HW122625   0.247   1.774   9.091 -0.0660 -0.8499  1.0097
 3664SOL    HW222626   0.299   1.633   9.098 -1.1111  0.6400  0.4470
 3665SOL     OW22627   3.548   4.632   6.733  0.1970  0.4110  0.6028
 3665SOL    HW122628   3.519   4.592   6.652 -2.6494 -0.6180  2.1365
 3665SOL    HW222629   3.512   4.582   6.807  0.4534 -1.7386 -0.7237
 3666SOL     OW22630   2.559   2.392  15.729  0.6802 -0.1964 -0.2087
 3666SOL    HW122631   2.631   2.432  15.778  0.1066 -0.3673  0.7705
 3666SOL    HW222632   2.567   2.440  15.647  3.7272  0.7560  0.6480
 3667SOL     OW22633   1.136   4.114   4.034  0.1447 -0.3217 -0.1369
 3667SOL    HW122634   1.125   4.020   4.038  1.8905 -0.4009  2.8857
 3667SOL    HW222635   1.052   4.149   4.064  0.7166  1.1631 -0.2708
 3668SOL     OW22636   3.364   0.139   6.985 -0.0377 -0.4458  0.3724
 3668SOL    HW122637   3.335   0.063   7.037 -1.6808  0.8698  1.3871
 3668SOL    HW222638   3.454   0.152   7.013 -0.0452  1.6977 -0.6669
 3669SOL     OW22639   1.510   3.473   3.527  1.0807 -0.1152 -0.4586
 3669SOL    HW122640   1.459   3.461   3.607  1.4753 -2.4763 -0.5532
 3669SOL    HW222641   1.498   3.567   3.516  1.1984  0.0147  0.5219
 3670SOL     OW22642   2.389   1.679  13.343 -0.3380 -0.1401  0.0988
 3670SOL    HW122643   2.427   1.671  13.256 -2.3023 -1.6505 -0.6239
 3670SOL    HW222644   2.396   1.587  13.368 -0.4069 -0.2567 -0.3141
 3671SOL     OW22645   1.994   2.700  10.213  0.1983  0.2630  0.1967
 3671SOL    HW122646   2.049   2.777  10.227 -0.9836  0.7494  2.1091
 3671SOL    HW222647   1.941   2.695  10.292 -1.5651  0.6074 -0.9715
 3672SOL     OW22648   4.553   1.190   3.007  0.1295  0.4191  0.0770
 3672SOL    HW122649   4.573   1.197   2.914 -1.7374  0.7041 -0.3054
 3672SOL    HW222650   4.621   1.243   3.048  0.0358  0.1066  0.6392
 3673SOL     OW22651   3.427   4.700   7.988 -0.1768  0.1569  0.2657
 3673SOL    HW122652   3.389   4.677   8.073 -0.6434 -0.1492 -0.0253
 3673SOL    HW222653   3.447   4.611   7.960 -3.1213 -0.3536 -0.2741
 3674SOL     OW22654   2.521   2.179   5.981  0.0201 -0.2077  0.2822
 3674SOL    HW122655   2.593   2.202   5.922  0.3570 -0.4877  0.5901
 3674SOL    HW222656   2.526   2.084   5.983  1.1535 -0.1804 -1.0562
 3675SOL     OW22657   2.581   1.442   0.860  0.0004 -0.1845 -0.2781
 3675SOL    HW122658   2.626   1.513   0.906 -1.7195  0.7470 -0.0457
 3675SOL    HW222659   2.530   1.502   0.805 -0.2981 -1.8156 -1.7695
 3676SOL     OW22660   0.972   1.355   7.882 -0.2988 -0.1034  0.5336
 3676SOL    HW122661   0.925   1.438   7.869 -0.3352 -0.2175 -0.0613
 3676SOL    HW222662   0.955   1.308   7.800  0.2259 -0.5171  0.6675
 3677SOL     OW22663   4.599   3.745   7.473 -0.1701 -0.3658 -0.3902
 3677SOL    HW122664   4.605   3.788   7.559  2.0677 -0.9049 -0.2700
 3677SOL    HW222665   4.511   3.763   7.440  0.3605 -0.4517 -1.8514
 3678SOL     OW22666   4.655   1.383  10.279 -0.2230 -0.1117  0.0504
 3678SOL    HW122667   4.719   1.373  10.350 -1.0330 -2.1876  0.4707
 3678SOL    HW222668   4.669   1.476  10.257 -1.0954  0.0671  0.2697
 3679SOL     OW22669   1.338   4.200   5.999 -0.1998 -0.1784 -0.0796
 3679SOL    HW122670   1.314   4.117   6.041  0.9901 -0.2921  0.3812
 3679SOL    HW222671   1.337   4.174   5.907 -1.7788  0.9006 -0.3688
 3680SOL     OW22672   0.332   0.045   7.454  0.0729  0.4291  0.2794
 3680SOL    HW122673   0.257   0.000   7.495  0.6354 -0.0044  0.8349
 3680SOL    HW222674   0.312   0.063   7.363  2.7455  0.5946 -0.2636
 3681SOL     OW22675   3.130   4.728   3.643 -0.4695 -0.0588 -0.2123
 3681SOL    HW122676   3.051   4.690   3.683  0.3667  0.1965  1.6789
 3681SOL    HW222677   3.197   4.736   3.710  0.2762  0.7941 -1.0635
 3682SOL     OW22678   3.504   0.120   3.623 -0.3208 -0.1636 -0.1611
 3682SOL    HW122679   3.453   0.063   3.566  1.0158 -0.6329 -0.8696
 3682SOL    HW222680   3.546   0.054   3.678 -0.1915  0.8372  0.9538
 3683SOL     OW22681   0.625   1.114   9.343 -0.2876 -0.0770 -0.4917
 3683SOL    HW122682   0.674   1.191   9.371 -3.3309  0.9085  2.1196
 3683SOL    HW222683   0.589   1.082   9.426  0.5958 -0.2937 -0.1882
 3684SOL     OW22684   1.976   3.778  12.171 -0.1603  0.7420 -0.0023
 3684SOL    HW122685   1.986   3.759  12.078 -3.1632  0.2437 -0.2177
 3684SOL    HW222686   1.951   3.690  12.200 -1.4736  1.3025  0.5825
 3685SOL     OW22687   4.018   3.649  17.550  0.1772 -0.2369 -0.0863
 3685SOL    HW122688   4.080   3.721  17.565 -0.3239  0.2835 -0.5233
 3685SOL    HW222689   3.984   3.640  17.639 -0.1368 -0.2204 -0.2063
 3686SOL     OW22690   3.741   3.804   8.154  0.3197 -0.3285 -0.5878
 3686SOL    HW122691   3.651   3.818   8.124  0.7924  2.1563 -0.8900
 3686SOL    HW222692   3.754   3.711   8.168  0.5007  0.1594  2.3180
 3687SOL     OW22693   1.595   2.884  17.666 -0.3223 -0.6705  0.3922
 3687SOL    HW122694   1.670   2.835  17.700 -0.2722  0.1745  1.4891
 3687SOL    HW222695   1.520   2.858  17.720  0.1654  0.9922  1.8746
 3688SOL     OW22696   4.606   1.121  17.391 -0.5615 -0.0723 -0.0327
 3688SOL    HW122697   4.585   1.166  17.473  0.4430 -0.4227  0.4199
 3688SOL    HW222698   4.519   1.110  17.354 -1.1655  1.1498  1.0569
 3689SOL     OW22699   1.038   2.121   5.584 -0.7956 -0.3980  0.4086
 3689SOL    HW122700   1.121   2.147   5.544 -0.2410 -2.6111  0.1002
 3689SOL    HW222701   1.021   2.032   5.552  2.3297 -0.3146 -1.5214
 3690SOL     OW22702   3.336   0.826   5.479 -0.7069 -0.4719 -0.3447
 3690SOL    HW122703   3.322   0.916   5.447 -0.2863 -0.0168  0.7327
 3690SOL    HW222704   3.253   0.814   5.525 -0.6703  1.3811  0.2216
 3691SOL     OW22705   3.870   4.002  17.272  0.1215  0.2040  0.1382
 3691SOL    HW122706   3.867   4.074  17.336 -0.4954 -0.0539  0.3931
 3691SOL    HW222707   3.782   3.969  17.288 -0.3455  1.3648  0.0025
 3692SOL     OW22708   4.461   3.301   2.624 -0.1300 -0.6838 -0.4292
 3692SOL    HW122709   4.405   3.357   2.571  0.4004  1.0745  0.8614
 3692SOL    HW222710   4.539   3.353   2.645 -0.4981  0.0424 -0.8821
 3693SOL     OW22711   4.441   3.694  13.352 -0.3569  0.1739 -0.2130
 3693SOL    HW122712   4.505   3.765  13.360  0.1031 -0.2355 -0.2455
 3693SOL    HW222713   4.387   3.717  13.428  1.5240  1.4519  0.7338
 3694SOL     OW22714   4.103   2.995  16.587 -0.2580 -0.1689  0.2931
 3694SOL    HW122715   4.170   3.041  16.536 -1.1694  0.8648  0.0367
 3694SOL    HW222716   4.059   2.943  16.520  1.1840 -1.5855  0.4474
 3695SOL     OW22717   3.978   3.690   9.359 -0.5846 -0.0374  0.1322
 3695SOL    HW122718   3.891   3.676   9.321 -0.3550 -0.4224 -0.2458
 3695SOL    HW222719   3.978   3.613   9.416  1.5903 -0.8499 -0.9918
 3696SOL     OW22720   1.039   0.276   3.909  0.0400  0.5139  0.0030
 3696SOL    HW122721   1.127   0.313   3.916  0.0381 -0.0695  3.0654
 3696SOL    HW222722   1.049   0.234   3.824 -1.4777  0.3529 -0.1028
 3697SOL     OW22723   0.501   2.508   5.253 -0.6606 -0.3769 -0.3346
 3697SOL    HW122724   0.570   2.485   5.315 -2.1756 -1.2167  1.0359
 3697SOL    HW222725   0.534   2.579   5.198  1.6116 -1.3855 -0.2711
 3698SOL     OW22726   0.480   0.163   3.009  0.0070  0.1810  0.3623
 3698SOL    HW122727   0.455   0.093   3.068 -0.6439  0.1344  0.0348
 3698SOL    HW222728   0.419   0.230   3.040  0.0265  1.0256 -1.4071
 3699SOL     OW22729   3.770   4.153  12.928  0.6448  0.9532  0.3542
 3699SOL    HW122730   3.851   4.189  12.891  1.6280 -1.9055 -0.2402
 3699SOL    HW222731   3.795   4.125  13.016  2.7505 -0.0831 -0.5836
 3700SOL     OW22732   1.756   1.644   4.551  0.0360  0.0267  0.1760
 3700SOL    HW122733   1.768   1.727   4.506  1.2821 -0.2778 -0.0557
 3700SOL    HW222734   1.846   1.626   4.579  0.8203  1.3189 -1.5303
 3701SOL     OW22735   2.635   3.463   4.860 -0.4185  0.0707  0.1990
 3701SOL    HW122736   2.675   3.462   4.774  2.1216 -0.7370  1.3850
 3701SOL    HW222737   2.622   3.558   4.863 -1.7194 -0.1348  0.9879
 3702SOL     OW22738   3.135   2.128  12.531  0.6968 -0.1864 -0.1667
 3702SOL    HW122739   3.110   2.137  12.439 -0.1773  0.2403  0.1104
 3702SOL    HW222740   3.226   2.100  12.530  0.7406  0.0503 -3.1326
 3703SOL     OW22741   4.391   0.052   5.573 -0.0216  0.2019  0.1822
 3703SOL    HW122742   4.313   4.733   5.567  0.2417 -0.1528  0.0370
 3703SOL    HW222743   4.365   0.139   5.542 -0.9245 -0.4515 -0.9005
 3704SOL     OW22744   1.932   3.446   1.782  0.5510  0.7685 -0.0622
 3704SOL    HW122745   1.922   3.526   1.731 -0.2584  0.3971 -0.4911
 3704SOL    HW222746   2.005   3.475   1.837  1.2333 -0.8040 -0.1312
 3705SOL     OW22747   0.509   2.150   4.806 -0.3690  0.0952 -0.9274
 3705SOL    HW122748   0.465   2.120   4.885  0.4236  0.6644 -0.2594
 3705SOL    HW222749   0.431   2.162   4.753 -2.2458 -2.5154  1.2287
 3706SOL     OW22750   2.076   0.460   8.793 -0.0617 -0.3058  0.0512
 3706SOL    HW122751   2.084   0.365   8.799  2.2492 -0.0852  0.2119
 3706SOL    HW222752   2.130   0.490   8.866 -0.5657  0.7212 -0.0012
 3707SOL     OW22753   0.840   3.605  12.263 -0.2001 -0.5004 -0.1497
 3707SOL    HW122754   0.831   3.603  12.358  1.0271 -1.0992 -0.0484
 3707SOL    HW222755   0.752   3.577  12.238 -0.3628 -2.8637  3.0370
 3708SOL     OW22756   1.334   0.669  14.586  0.0327  0.0816 -0.7981
 3708SOL    HW122757   1.279   0.694  14.660  1.6747 -0.5951  0.6792
 3708SOL    HW222758   1.262   0.629  14.538  0.0753 -1.0619  0.0815
 3709SOL     OW22759   2.315   1.227  16.964  0.2365  0.3281 -1.0448
 3709SOL    HW122760   2.409   1.213  16.956  0.9336  4.5662 -0.2994
 3709SOL    HW222761   2.291   1.319  16.951  2.2097  0.8013 -1.3277
 3710SOL     OW22762   2.583   4.267   4.474 -0.9803 -0.2654 -0.2084
 3710SOL    HW122763   2.507   4.303   4.520 -0.7898  1.3105 -1.1225
 3710SOL    HW222764   2.667   4.298   4.508 -0.1149 -2.1758 -0.5912
 3711SOL     OW22765   2.451   4.177   6.020 -0.1920 -0.0472 -1.0115
 3711SOL    HW122766   2.484   4.087   6.024  2.2174  0.8594 -0.6941
 3711SOL    HW222767   2.423   4.174   5.929 -1.0942  1.8807 -0.7944
 3712SOL     OW22768   2.477   0.524   1.886  0.1890  0.0366  0.1728
 3712SOL    HW122769   2.453   0.440   1.846 -0.1078  0.3033 -0.2143
 3712SOL    HW222770   2.501   0.565   1.803 -0.9045 -1.3504 -0.8298
 3713SOL     OW22771   0.408   4.562  14.037 -0.2760  0.6232  0.2711
 3713SOL    HW122772   0.359   4.481  14.024 -2.5376  1.6547  2.4417
 3713SOL    HW222773   0.476   4.533  14.098 -1.0939  0.4838  1.1023
 3714SOL     OW22774   1.114   3.334   3.291  0.1323  0.5839 -0.5287
 3714SOL    HW122775   1.048   3.292   3.344  0.6617 -0.9581 -1.0840
 3714SOL    HW222776   1.162   3.363   3.368 -1.6665 -1.7810  1.4396
 3715SOL     OW22777   0.953   4.413   9.040  0.2764  0.0944 -0.2001
 3715SOL    HW122778   0.930   4.489   9.094  0.6346  1.2253 -1.6418
 3715SOL    HW222779   1.048   4.404   9.043  0.0498 -2.4815 -0.6162
 3716SOL     OW22780   2.424   1.192   1.982 -0.0241  0.1096 -0.3420
 3716SOL    HW122781   2.434   1.138   2.060  0.4387  0.1358 -0.3833
 3716SOL    HW222782   2.506   1.240   1.976  0.0424 -0.0935 -1.0433
 3717SOL     OW22783   0.687   2.836   7.022  0.2234 -0.2647  0.1562
 3717SOL    HW122784   0.688   2.910   7.083  0.3058 -0.8970  0.9287
 3717SOL    HW222785   0.745   2.871   6.955  0.1107 -2.1851 -0.9488
 3718SOL     OW22786   2.226   0.842   2.761  0.1920  0.0544  0.1692
 3718SOL    HW122787   2.234   0.934   2.734 -1.5853  0.4837  1.0970
 3718SOL    HW222788   2.230   0.800   2.675 -1.1310  2.9205 -1.3100
 3719SOL     OW22789   0.890   2.090   3.346 -0.1805  0.7590  0.0440
 3719SOL    HW122790   0.797   2.106   3.331 -0.0415  0.3162 -1.2768
 3719SOL    HW222791   0.906   2.115   3.437  0.0268 -2.4704  0.9114
 3720SOL     OW22792   3.403   4.549  12.243  0.4869 -0.6545 -0.1160
 3720SOL    HW122793   3.343   4.479  12.267 -1.6159  1.5967  1.1298
 3720SOL    HW222794   3.349   4.580  12.171  0.0753 -1.0204  0.0372
 3721SOL     OW22795   2.809   4.062  14.215  0.4974 -0.1339 -0.6207
 3721SOL    HW122796   2.718   4.031  14.214  0.8270 -1.0016 -2.9746
 3721SOL    HW222797   2.858   3.980  14.223 -2.6562 -1.8510  1.3621
 3722SOL     OW22798   1.289   3.816   5.446  0.4073 -0.5980  0.0374
 3722SOL    HW122799   1.275   3.841   5.537 -0.9043  4.6968 -1.5658
 3722SOL    HW222800   1.281   3.904   5.408  2.2537  0.4948  2.2171
 3723SOL     OW22801   0.348   0.041   4.285 -0.1354  0.4945 -0.2959
 3723SOL    HW122802   0.442   0.024   4.293 -0.2002  1.0750  1.5509
 3723SOL    HW222803   0.331   0.086   4.202  2.2267 -2.1565 -2.2082
 3724SOL     OW22804   1.340   2.342   5.152  0.2890 -0.4478  0.1895
 3724SOL    HW122805   1.356   2.398   5.227  0.8512  0.6144 -0.7187
 3724SOL    HW222806   1.417   2.287   5.164 -0.2812 -1.0450  1.1453
 3725SOL     OW22807   2.484   3.897  13.711 -0.5694  0.1853  0.2035
 3725SOL    HW122808   2.519   3.823  13.662  0.5907  0.8915 -0.0272
 3725SOL    HW222809   2.541   3.892  13.788 -0.5376  2.3692  0.3297
 3726SOL     OW22810   1.594   0.854   8.443 -0.6205 -0.0475  0.0509
 3726SOL    HW122811   1.549   0.816   8.519  1.1781 -1.7215  0.2841
 3726SOL    HW222812   1.549   0.937   8.430 -1.2514 -0.9697 -3.5913
 3727SOL     OW22813   2.818   3.368   7.759  0.1106 -0.0825  0.2978
 3727SOL    HW122814   2.756   3.437   7.734 -0.3829 -0.4433  0.5210
 3727SOL    HW222815   2.761   3.293   7.739 -1.0149  0.9355 -0.3460
 3728SOL     OW22816   3.519   3.400   4.729  0.1210 -0.9281 -0.2907
 3728SOL    HW122817   3.599   3.428   4.686 -0.1304  1.1644  0.6194
 3728SOL    HW222818   3.510   3.306   4.709  1.6098 -1.1067 -0.1255
 3729SOL     OW22819   4.187   3.322   6.105  0.5906 -0.3770 -0.0213
 3729SOL    HW122820   4.115   3.384   6.113  0.8725 -0.3428  2.1022
 3729SOL    HW222821   4.234   3.361   6.031  0.3827 -1.9377 -0.9916
 3730SOL     OW22822   0.262   3.426   6.712  0.1838 -0.0819  0.5780
 3730SOL    HW122823   0.312   3.449   6.790  0.9156  0.6032 -0.0945
 3730SOL    HW222824   0.172   3.406   6.737  0.4008 -0.9363  0.6744
 3731SOL     OW22825   1.206   2.669   9.201 -0.1029 -0.3334 -0.0067
 3731SOL    HW122826   1.260   2.590   9.208 -1.7840 -1.2712  2.3708
 3731SOL    HW222827   1.272   2.727   9.163 -2.5971  2.2048 -0.4483
 3732SOL     OW22828   1.065   1.591   1.718  0.3681  0.3309  0.5900
 3732SOL    HW122829   1.067   1.496   1.704 -2.5340  0.0181  2.3453
 3732SOL    HW222830   1.034   1.610   1.629 -3.8938 -1.7954  1.6116
 3733SOL     OW22831   0.942   4.733   9.725  0.2163 -0.0479 -0.3063
 3733SOL    HW122832   0.847   4.721   9.721 -0.1385  2.5913  0.2636
 3733SOL    HW222833   0.955   0.026   9.815  0.3621 -1.0183 -0.0113
 3734SOL     OW22834   0.198   0.069   5.937  0.3326 -1.0308 -0.9135
 3734SOL    HW122835   0.131   0.015   5.978 -0.9796  0.7384 -0.7337
 3734SOL    HW222836   0.146   0.142   5.903  1.7059  0.9117  1.1619
 3735SOL     OW22837   3.502   1.275  14.239  0.2488  0.0082  0.0102
 3735SOL    HW122838   3.515   1.180  14.240 -0.5649 -0.0616  2.5882
 3735SOL    HW222839   3.461   1.294  14.154 -0.3546 -1.1428  0.0310
 3736SOL     OW22840   0.620   2.613  11.585  0.0347 -0.1878  0.2734
 3736SOL    HW122841   0.673   2.536  11.606  2.6453  0.5610 -3.4970
 3736SOL    HW222842   0.585   2.635  11.671 -4.0860  1.6572 -1.8942
 3737SOL     OW22843   0.993   2.392   1.620  0.0804 -0.2391  0.2286
 3737SOL    HW122844   0.943   2.453   1.567 -0.6576 -1.3965 -0.3980
 3737SOL    HW222845   0.969   2.413   1.710 -0.5810 -0.6205  0.1447
 3738SOL     OW22846   3.234   2.781   8.104  0.4295  0.2998 -0.3776
 3738SOL    HW122847   3.256   2.863   8.059  1.9572  0.9361  1.5187
 3738SOL    HW222848   3.236   2.722   8.029 -1.4743 -0.5805  0.2682
 3739SOL     OW22849   2.652   4.650   0.220 -0.6725 -0.0124 -0.2341
 3739SOL    HW122850   2.577   4.666   0.162 -0.1955  1.2616 -0.4998
 3739SOL    HW222851   2.718   4.713   0.192 -0.0913  0.3834  2.0162
 3740SOL     OW22852   1.070   4.103   3.468  0.0722  0.1145 -0.2823
 3740SOL    HW122853   1.026   4.177   3.510  0.3409  0.7357 -1.0969
 3740SOL    HW222854   1.046   4.107   3.375 -0.9754  0.7014  0.0175
 3741SOL     OW22855   0.837   1.546  16.193  1.0987 -0.7382 -0.3290
 3741SOL    HW122856   0.789   1.467  16.218  1.6951 -0.5989  1.2310
 3741SOL    HW222857   0.926   1.516  16.208  1.6342  0.1389 -1.6806
 3742SOL     OW22858   3.052   4.343   1.720 -0.0619  0.5000 -0.0947
 3742SOL    HW122859   3.026   4.352   1.628  1.2041 -0.3425 -0.5395
 3742SOL    HW222860   3.052   4.248   1.729 -1.8153  0.2727 -2.5116
 3743SOL     OW22861   0.616   1.019   8.603  0.0347  0.0052  0.0513
 3743SOL    HW122862   0.522   1.003   8.589 -0.0691  1.6911 -1.2556
 3743SOL    HW222863   0.651   0.930   8.606 -0.5259 -0.3272 -2.8199
 3744SOL     OW22864   3.108   4.244   8.505  0.4031  0.4720  0.4794
 3744SOL    HW122865   3.159   4.251   8.586  0.2306  1.2167  0.5247
 3744SOL    HW222866   3.052   4.168   8.523 -0.4469  1.2311  1.0374
 3745SOL     OW22867   3.068   0.328   5.041  0.9356 -0.2877 -0.9028
 3745SOL    HW122868   2.995   0.390   5.042  1.0995 -0.1043  2.4869
 3745SOL    HW222869   3.073   0.306   5.135  2.5613 -0.4001 -1.0239
 3746SOL     OW22870   1.701   3.847   0.187 -0.0965 -0.2416  0.0813
 3746SOL    HW122871   1.698   3.770   0.244 -1.5252  0.2360  0.6464
 3746SOL    HW222872   1.698   3.911   0.257  1.1520  2.5427 -2.4049
 3747SOL     OW22873   3.695   0.450   0.637  0.1325  0.2259 -0.0024
 3747SOL    HW122874   3.615   0.481   0.596  0.5897  2.3699  0.7119
 3747SOL    HW222875   3.747   0.530   0.638 -0.8243  0.8525 -0.8999
 3748SOL     OW22876   2.807   2.639   1.650  0.3370 -0.3635  0.2350
 3748SOL    HW122877   2.770   2.553   1.673 -1.7253  0.6627  0.7401
 3748SOL    HW222878   2.881   2.650   1.709  0.8488 -1.9070 -0.1062
 3749SOL     OW22879   4.718   0.656  16.206 -0.4575 -0.1217  0.3498
 3749SOL    HW122880   4.691   0.634  16.117 -2.0302  0.5635  0.6626
 3749SOL    HW222881   0.047   0.722  16.187  0.3688 -1.1242 -0.3245
 3750SOL     OW22882   4.149   3.232  15.409 -0.4490  0.1343  0.4760
 3750SOL    HW122883   4.112   3.173  15.475  0.7370 -1.8122 -0.5880
 3750SOL    HW222884   4.078   3.293  15.388 -0.1872  0.2062 -0.1987
 3751SOL     OW22885   4.524   3.704   8.738 -0.4817  0.2004 -0.1200
 3751SOL    HW122886   4.457   3.768   8.713 -1.8407 -0.7004  1.1952
 3751SOL    HW222887   4.552   3.669   8.654 -0.6549 -1.2482  0.4236
 3752SOL     OW22888   2.003   4.050   2.480  0.3656 -0.2571  0.4393
 3752SOL    HW122889   1.981   3.964   2.516 -1.6298 -1.0229 -2.6085
 3752SOL    HW222890   1.973   4.114   2.545  1.0527 -0.9913  1.4707
 3753SOL     OW22891   0.602   0.516   6.482 -0.6467  0.0903  0.3837
 3753SOL    HW122892   0.637   0.432   6.454 -1.3530  0.3138 -1.1753
 3753SOL    HW222893   0.675   0.547   6.536 -0.1049  0.0030 -0.3001
 3754SOL     OW22894   1.421   3.700   7.264  0.5127 -0.5021  0.1426
 3754SOL    HW122895   1.463   3.776   7.303  1.1383 -0.9220  0.2950
 3754SOL    HW222896   1.417   3.637   7.336 -2.1731  0.8972  1.2098
 3755SOL     OW22897   2.443   1.324  15.741  1.0457 -0.1015  0.0873
 3755SOL    HW122898   2.395   1.392  15.789 -3.4088 -1.7651 -1.9971
 3755SOL    HW222899   2.376   1.269  15.700  1.2769 -1.4255  1.4526
 3756SOL     OW22900   3.219   3.257  13.647  0.3094  0.3348 -0.0182
 3756SOL    HW122901   3.244   3.285  13.559 -1.7278 -1.5188 -1.1848
 3756SOL    HW222902   3.183   3.171  13.624 -0.2955  0.7106 -0.4860
 3757SOL     OW22903   0.437   3.862   2.962  0.4306 -0.2100  0.0014
 3757SOL    HW122904   0.454   3.774   2.994  0.8478 -0.4055 -0.7482
 3757SOL    HW222905   0.460   3.851   2.870 -0.0715  1.4863 -0.3243
 3758SOL     OW22906   1.688   2.661   6.863  0.1279  0.5316  0.3539
 3758SOL    HW122907   1.677   2.756   6.862 -1.2591  0.3764  0.2316
 3758SOL    HW222908   1.617   2.637   6.923  0.4407 -1.3446 -0.0173
 3759SOL     OW22909   2.915   3.725   2.605  0.1808 -0.5164  0.5698
 3759SOL    HW122910   2.874   3.765   2.681  1.4337  0.1917  0.8759
 3759SOL    HW222911   2.844   3.669   2.574 -1.2357  1.4249  0.3292
 3760SOL     OW22912   0.350   4.067   8.205  0.2816  0.5418  0.6893
 3760SOL    HW122913   0.259   4.055   8.177 -0.0539  1.1759  1.4920
 3760SOL    HW222914   0.382   4.142   8.155  0.4116  0.8009  1.1605
 3761SOL     OW22915   4.294   3.822   1.701 -0.5224 -0.5680 -0.1211
 3761SOL    HW122916   4.295   3.840   1.795 -0.0694  0.6305 -0.3609
 3761SOL    HW222917   4.202   3.798   1.691 -1.3248  1.8639  1.6120
 3762SOL     OW22918   4.215   0.455   8.299 -0.3944 -0.1260  0.4816
 3762SOL    HW122919   4.251   0.370   8.323 -1.4572 -1.1524 -1.5228
 3762SOL    HW222920   4.279   0.506   8.349 -1.2363  0.5254  0.9033
 3763SOL     OW22921   2.804   3.686  15.006  0.1207 -0.4210  0.2199
 3763SOL    HW122922   2.817   3.745  15.080  1.6142  0.2863 -0.6123
 3763SOL    HW222923   2.751   3.619  15.051 -1.2089 -0.2642 -1.1040
 3764SOL     OW22924   3.877   0.436   2.518  0.4006 -0.4442  0.7908
 3764SOL    HW122925   3.866   0.529   2.540 -1.0504  0.2228 -2.6987
 3764SOL    HW222926   3.970   0.415   2.523  0.2187 -1.8156 -1.6802
 3765SOL     OW22927   0.679   0.047   4.479  0.0603  0.1348  0.4845
 3765SOL    HW122928   0.726   0.108   4.423 -0.2474 -1.3373 -1.3633
 3765SOL    HW222929   0.601   0.098   4.502  2.0391  2.1064  2.7582
 3766SOL     OW22930   2.788   3.014   1.280  0.6981  0.0762  0.1701
 3766SOL    HW122931   2.791   2.976   1.368  1.3847  0.1561  0.1815
 3766SOL    HW222932   2.828   3.100   1.298 -1.0319  0.9771 -0.3104
 3767SOL     OW22933   4.490   0.068   8.316  0.1201 -0.2514 -0.3154
 3767SOL    HW122934   4.509   0.092   8.407  1.3729 -0.8340 -0.4379
 3767SOL    HW222935   4.576   0.036   8.293 -0.0837 -0.4208 -0.8370
 3768SOL     OW22936   3.261   2.706   5.115 -0.6014 -0.3258  0.2923
 3768SOL    HW122937   3.350   2.728   5.139 -0.5728 -1.5164  1.2959
 3768SOL    HW222938   3.269   2.703   5.020 -0.1079  0.9753  0.3007
 3769SOL     OW22939   4.434   3.481  14.118  0.1614 -0.0286  0.0602
 3769SOL    HW122940   4.459   3.410  14.059 -2.0762 -0.9995  0.2854
 3769SOL    HW222941   4.508   3.537  14.098  0.7340 -1.5473 -2.0667
 3770SOL     OW22942   1.862   2.625   4.508  0.3749 -0.1781  0.0226
 3770SOL    HW122943   1.770   2.598   4.511  0.7629 -1.5673 -0.4689
 3770SOL    HW222944   1.867   2.691   4.577 -1.7723 -0.5358  0.4991
 3771SOL     OW22945   0.081   4.632   4.533  0.4184  0.0594 -0.8122
 3771SOL    HW122946   0.102   4.594   4.447  0.6940  0.0275 -0.7294
 3771SOL    HW222947   0.127   4.716   4.534  0.8130 -0.1897  1.2741
 3772SOL     OW22948   0.212   2.904   3.078 -0.3077 -0.1403 -0.2104
 3772SOL    HW122949   0.129   2.860   3.059 -0.0660  0.1130 -1.9080
 3772SOL    HW222950   0.191   2.934   3.166  0.0887 -2.3838  0.6334
 3773SOL     OW22951   0.627   2.745   1.491 -0.5203  0.2717 -0.0033
 3773SOL    HW122952   0.544   2.736   1.537 -0.1651  1.7382  0.8918
 3773SOL    HW222953   0.616   2.826   1.442 -2.2730  0.8893  1.4396
 3774SOL     OW22954   2.945   3.187   3.763  0.1122 -0.1734  0.3938
 3774SOL    HW122955   3.021   3.158   3.713  0.2522  0.0986  0.4482
 3774SOL    HW222956   2.876   3.138   3.718  1.0222 -0.3770 -0.7601
 3775SOL     OW22957   1.445   3.683   4.677  0.2740  0.4835  0.6966
 3775SOL    HW122958   1.513   3.625   4.642  1.1244  1.4129  0.7949
 3775SOL    HW222959   1.392   3.708   4.602  0.8194  0.1407  0.1876
 3776SOL     OW22960   3.460   3.772  16.560  0.0756 -0.3514 -0.4852
 3776SOL    HW122961   3.408   3.788  16.639 -0.3847  0.3483 -0.9248
 3776SOL    HW222962   3.543   3.734  16.589  0.7606  2.2065  0.9208
 3777SOL     OW22963   3.688   2.558   5.626  0.0291 -0.1607  0.0310
 3777SOL    HW122964   3.763   2.555   5.568  0.0367 -4.1294  0.2807
 3777SOL    HW222965   3.725   2.595   5.707  1.5014  1.2655 -1.3003
 3778SOL     OW22966   2.801   1.942   7.205  0.3619 -0.4577 -0.4564
 3778SOL    HW122967   2.787   1.939   7.110  0.8501  1.6210 -0.5922
 3778SOL    HW222968   2.809   2.035   7.224 -1.3760 -0.3137 -0.4789
 3779SOL     OW22969   3.424   3.700  11.657  0.0810 -0.2977  0.0384
 3779SOL    HW122970   3.359   3.630  11.649 -0.1255 -0.2835  1.5478
 3779SOL    HW222971   3.409   3.754  11.579 -0.8447 -0.5200  0.0643
 3780SOL     OW22972   2.703   4.518   7.517  0.1431  0.3358 -0.0532
 3780SOL    HW122973   2.633   4.576   7.489 -1.7666 -1.5111  0.8868
 3780SOL    HW222974   2.685   4.526   7.611 -0.6350 -0.2740 -0.1519
 3781SOL     OW22975   1.874   3.073  12.702  0.2615  0.4616  0.2634
 3781SOL    HW122976   1.866   2.996  12.758 -1.1072  1.3437  1.2820
 3781SOL    HW222977   1.779   3.077  12.687  0.1392  0.8862  1.1659
 3782SOL     OW22978   3.222   1.102   0.918  0.4502 -0.0615  0.3075
 3782SOL    HW122979   3.128   1.089   0.935  0.5151  1.0155  1.5367
 3782SOL    HW222980   3.237   1.022   0.869 -0.2354  1.5138 -2.4875
 3783SOL     OW22981   4.037   2.859   4.245  0.4516 -0.0918 -0.6383
 3783SOL    HW122982   4.052   2.876   4.152  2.0734  0.9070 -0.1837
 3783SOL    HW222983   4.096   2.925   4.279 -1.3578  0.6807  1.0382
 3784SOL     OW22984   1.559   0.457   5.419  0.1285 -0.5619  0.4228
 3784SOL    HW122985   1.635   0.443   5.475  0.1647 -1.3531  0.1760
 3784SOL    HW222986   1.594   0.461   5.330  0.6139  3.0429  0.7633
 3785SOL     OW22987   1.775   0.936   2.657  0.3168  0.0597  0.4756
 3785SOL    HW122988   1.778   0.867   2.590  0.5670  2.0799 -1.6026
 3785SOL    HW222989   1.833   0.901   2.724  0.0340 -1.4193 -0.0475
 3786SOL     OW22990   0.838   2.598   1.530  0.5878 -0.3659  0.1791
 3786SOL    HW122991   0.881   2.638   1.454 -3.4176  3.1452 -0.2307
 3786SOL    HW222992   0.751   2.637   1.524  0.8621  0.1793 -0.2270
 3787SOL     OW22993   3.295   1.396   2.863  0.5845  1.0274 -0.0165
 3787SOL    HW122994   3.290   1.375   2.956 -1.4969  2.6877  0.2409
 3787SOL    HW222995   3.206   1.382   2.831 -0.0175 -0.1116  2.1403
 3788SOL     OW22996   1.200   2.093   4.052  0.0831 -0.3707 -0.5575
 3788SOL    HW122997   1.196   2.027   4.122 -2.9198  0.6503  0.2195
 3788SOL    HW222998   1.273   2.139   4.095 -0.0647  0.1887 -0.9029
 3789SOL     OW22999   1.151   0.222   5.774 -0.4431  0.8704  0.5736
 3789SOL    HW123000   1.106   0.304   5.797  1.5588  2.0437  0.3116
 3789SOL    HW223001   1.234   0.221   5.822 -0.2150  2.1443  0.2198
 3790SOL     OW23002   0.213   2.650   7.790 -0.3461 -0.1867 -0.3427
 3790SOL    HW123003   0.173   2.569   7.821 -0.7014 -0.2893 -1.0845
 3790SOL    HW223004   0.234   2.624   7.700  1.5949  0.2911 -0.0366
 3791SOL     OW23005   1.693   4.018   3.441 -0.4465  0.0571  0.6167
 3791SOL    HW123006   1.653   4.094   3.399 -1.3467  0.9899  3.1307
 3791SOL    HW223007   1.732   3.976   3.364 -0.3221 -1.3713  1.4571
 3792SOL     OW23008   4.323   3.258   8.807  0.7259 -0.8024 -0.0524
 3792SOL    HW123009   4.382   3.334   8.802 -0.6317  0.2742  0.4163
 3792SOL    HW223010   4.237   3.299   8.802  1.5389  0.7582 -1.6346
 3793SOL     OW23011   2.642   4.088   5.300 -0.0450 -0.1201  0.2033
 3793SOL    HW123012   2.722   4.061   5.256 -0.3740 -0.5672 -0.1174
 3793SOL    HW223013   2.576   4.075   5.231  0.6959  1.0243 -0.7209
 3794SOL     OW23014   2.178   4.020   8.125  0.3894  0.7646  0.4621
 3794SOL    HW123015   2.106   3.970   8.164  0.0328  1.4712  0.7105
 3794SOL    HW223016   2.249   4.021   8.189  1.1524  0.9027 -0.3842
 3795SOL     OW23017   3.588   0.620  15.021  0.0484  0.6283 -0.2539
 3795SOL    HW123018   3.505   0.636  15.066  0.9449  1.7322  1.0125
 3795SOL    HW223019   3.559   0.539  14.979  2.0014 -0.1209 -0.1573
 3796SOL     OW23020   2.919   4.373   3.373  0.2103  0.0893  0.0990
 3796SOL    HW123021   2.964   4.317   3.308  0.0295  1.1232 -0.9186
 3796SOL    HW223022   2.937   4.458   3.332  0.5640  0.4146  0.9328
 3797SOL     OW23023   2.380   3.585   4.115 -0.1169 -0.3722  0.6487
 3797SOL    HW123024   2.418   3.660   4.069  1.2265 -2.5738 -1.8211
 3797SOL    HW223025   2.349   3.625   4.196  0.0174  2.2612 -0.5920
 3798SOL     OW23026   3.599   4.614   4.305  0.5486  0.1607  0.3462
 3798SOL    HW123027   3.663   4.564   4.254 -0.7015 -0.7660 -0.3166
 3798SOL    HW223028   3.632   4.700   4.280  0.4358  0.0438 -0.1976
 3799SOL     OW23029   1.406   3.514   7.455  0.2125 -0.2565 -1.1309
 3799SOL    HW123030   1.483   3.523   7.511 -0.7061 -0.5999  0.1837
 3799SOL    HW223031   1.404   3.418   7.458 -2.5720 -0.2347 -1.5845
 3800SOL     OW23032   3.624   3.955   4.886 -0.1977 -0.2171 -0.5369
 3800SOL    HW123033   3.565   3.880   4.882 -0.8619  0.2333  1.0156
 3800SOL    HW223034   3.693   3.904   4.929 -0.5342 -2.0920 -2.1634
 3801SOL     OW23035   1.273   2.401   8.122 -0.4948 -0.7682 -0.1530
 3801SOL    HW123036   1.219   2.441   8.190 -0.8506 -1.1359 -0.2210
 3801SOL    HW223037   1.198   2.346   8.099 -0.5145 -1.0839  0.6812
 3802SOL     OW23038   2.883   3.011   9.487 -0.3888 -0.3421 -0.2587
 3802SOL    HW123039   2.792   3.011   9.458  0.1532  1.2856 -1.9995
 3802SOL    HW223040   2.863   2.970   9.571  1.4365 -0.7545 -0.0170
 3803SOL     OW23041   4.474   4.157   1.274  0.1935 -0.2441  0.0533
 3803SOL    HW123042   4.412   4.106   1.223  0.6068  0.4994 -1.2191
 3803SOL    HW223043   4.451   4.136   1.364 -2.0284  0.4930 -0.3297
 3804SOL     OW23044   3.475   4.488  14.639 -0.1688  0.2203 -0.3065
 3804SOL    HW123045   3.551   4.546  14.634 -0.4612  0.6395  0.1452
 3804SOL    HW223046   3.460   4.477  14.545  0.4221  1.1274 -0.5062
 3805SOL     OW23047   1.707   2.416   2.603 -0.0385  0.2718  0.1794
 3805SOL    HW123048   1.669   2.501   2.581  0.0204 -0.1945 -1.6891
 3805SOL    HW223049   1.746   2.393   2.519 -0.1620  2.7683 -0.5826
 3806SOL     OW23050   2.336   0.248   7.327  0.0476 -0.3222 -0.6286
 3806SOL    HW123051   2.395   0.309   7.370 -0.2378  0.4522 -1.3318
 3806SOL    HW223052   2.262   0.248   7.388 -0.2313  0.8351 -0.9749
 3807SOL     OW23053   0.561   1.181   4.788 -0.1156 -0.3314  0.5236
 3807SOL    HW123054   0.530   1.145   4.871  0.1560 -0.4754  0.5660
 3807SOL    HW223055   0.655   1.179   4.806  0.1476 -0.5918 -0.8707
 3808SOL     OW23056   3.523   2.242   2.224  0.2898  0.1286  0.1280
 3808SOL    HW123057   3.462   2.226   2.296 -0.8141 -0.2679 -0.8866
 3808SOL    HW223058   3.607   2.263   2.263  0.0601  0.3210  0.5189
 3809SOL     OW23059   3.284   0.828   8.881 -0.4590  0.3281  0.3631
 3809SOL    HW123060   3.297   0.911   8.836 -0.5737 -0.2120 -0.6569
 3809SOL    HW223061   3.206   0.796   8.836  0.3026 -2.3532  0.9737
 3810SOL     OW23062   4.222   0.087   2.168 -0.9302  0.3623 -0.1832
 3810SOL    HW123063   4.231   0.005   2.120  0.2804  0.6358 -0.4222
 3810SOL    HW223064   4.313   0.091   2.197 -0.7466  0.6490 -0.7910
 3811SOL     OW23065   0.887   0.826  13.041 -0.2378  0.1225  0.1107
 3811SOL    HW123066   0.879   0.901  12.983  2.1784  1.3169  1.3652
 3811SOL    HW223067   0.818   0.849  13.104 -3.6207 -2.1284 -2.7490
 3812SOL     OW23068   0.628   0.756   0.551 -0.3984 -0.4282 -0.0271
 3812SOL    HW123069   0.683   0.726   0.623 -0.3474 -1.8328 -0.6498
 3812SOL    HW223070   0.558   0.692   0.564 -0.1617 -0.5261  0.7457
 3813SOL     OW23071   4.245   4.640  10.009  0.4909  0.1928 -0.2025
 3813SOL    HW123072   4.212   4.625   9.921 -0.9043  1.2603  0.1479
 3813SOL    HW223073   4.339   4.656   9.998  0.7710 -1.3669 -0.0603
 3814SOL     OW23074   0.229   4.470   7.912 -0.2718  1.5004 -0.6307
 3814SOL    HW123075   0.157   4.471   7.975  0.0525 -2.8406 -0.2308
 3814SOL    HW223076   0.184   4.458   7.828  0.3196  1.5530 -0.9507
 3815SOL     OW23077   1.857   0.114   8.193 -0.2084  0.4139 -0.4235
 3815SOL    HW123078   1.780   0.170   8.204 -0.4810 -0.1673  0.5904
 3815SOL    HW223079   1.820   0.026   8.200  0.8404  0.0478  0.4971
 3816SOL     OW23080   2.500   1.605  16.184 -0.2918 -0.1499  0.0028
 3816SOL    HW123081   2.442   1.530  16.175 -0.6553  0.1137  0.1355
 3816SOL    HW223082   2.469   1.648  16.264  1.1129  1.3023 -0.2399
 3817SOL     OW23083   4.045   2.096   7.373 -0.0858 -0.2628 -1.0824
 3817SOL    HW123084   4.017   2.029   7.436  2.0208 -0.0550  0.1031
 3817SOL    HW223085   4.134   2.061   7.366  0.0596 -0.1961  0.3399
 3818SOL     OW23086   2.250   2.292   8.253  0.7809  0.2647  0.4749
 3818SOL    HW123087   2.247   2.326   8.163  0.3423  1.5649  0.9802
 3818SOL    HW223088   2.273   2.203   8.228  2.1649  0.9876 -0.8354
 3819SOL     OW23089   0.563   1.832   2.880  0.9666 -0.0010  0.2309
 3819SOL    HW123090   0.534   1.886   2.807  1.0713 -0.9716 -0.5341
 3819SOL    HW223091   0.646   1.871   2.907  1.5953  0.1471 -1.9068
 3820SOL     OW23092   2.635   3.164   4.650  0.3770 -0.1625  0.0114
 3820SOL    HW123093   2.621   3.131   4.561 -1.3063  3.9513 -1.2259
 3820SOL    HW223094   2.559   3.220   4.666  0.9472  0.7600 -0.5176
 3821SOL     OW23095   0.743   4.586   4.826  0.6811 -0.2287  0.0151
 3821SOL    HW123096   0.665   4.530   4.829 -0.0093  0.6178 -2.0489
 3821SOL    HW223097   0.817   4.541   4.867  0.4577 -0.6448 -0.0427
 3822SOL     OW23098   0.261   3.116   4.036 -0.6716 -0.3201  0.3519
 3822SOL    HW123099   0.337   3.122   4.095 -0.1794  0.3758 -0.3601
 3822SOL    HW223100   0.270   3.188   3.974 -4.6180  0.7374  1.0071
 3823SOL     OW23101   3.254   3.621  10.823 -0.4391 -0.0711 -0.1299
 3823SOL    HW123102   3.347   3.636  10.841 -0.5327  0.6311 -0.2152
 3823SOL    HW223103   3.225   3.596  10.911 -0.6925 -0.0686 -0.2144
 3824SOL     OW23104   4.300   1.158   9.201  0.4137  0.4246  0.0872
 3824SOL    HW123105   4.221   1.200   9.168  1.7491  1.4252 -1.8523
 3824SOL    HW223106   4.342   1.227   9.252  2.5374 -1.7806  1.3902
 3825SOL     OW23107   4.672   4.678   4.003  0.0140 -0.4931 -0.6350
 3825SOL    HW123108   0.012   4.620   4.002 -0.6829 -1.4363  0.6146
 3825SOL    HW223109   4.630   4.638   4.079  0.5202  0.4429  0.1383
 3826SOL     OW23110   1.939   0.139   6.109  0.2210 -0.6853 -0.3449
 3826SOL    HW123111   1.952   0.075   6.179  0.7355 -1.0379 -0.7585
 3826SOL    HW223112   2.028   0.133   6.073 -0.1610 -0.1438 -1.3827
 3827SOL     OW23113   1.260   2.354  10.658 -0.1615 -0.0430 -0.6547
 3827SOL    HW123114   1.261   2.435  10.710  0.5000  0.3020 -1.2110
 3827SOL    HW223115   1.248   2.387  10.569 -0.0941  4.5849  1.0552
 3828SOL     OW23116   0.420   3.698   7.867 -0.0848  0.0835  0.5124
 3828SOL    HW123117   0.430   3.616   7.818  1.4393  1.2021 -1.0902
 3828SOL    HW223118   0.407   3.763   7.799 -2.3736 -2.2038 -1.2422
 3829SOL     OW23119   2.138   1.662   5.873 -0.1065 -0.1330  0.0693
 3829SOL    HW123120   2.223   1.696   5.900  0.4484 -1.4606  0.0237
 3829SOL    HW223121   2.135   1.585   5.931 -0.2914  1.2673  1.9033
 3830SOL     OW23122   2.330   3.407   8.273  0.3127  0.1689  0.2835
 3830SOL    HW123123   2.311   3.410   8.367 -0.9156 -0.6602  0.0581
 3830SOL    HW223124   2.256   3.445   8.226 -0.6079 -1.0740  0.7546
 3831SOL     OW23125   4.514   3.353   2.911  0.2623  0.0595 -0.4260
 3831SOL    HW123126   4.480   3.289   2.973  1.2740  0.2069  0.2697
 3831SOL    HW223127   4.435   3.374   2.860 -0.3215  1.9458  1.2463
 3832SOL     OW23128   3.535   2.991   3.364 -0.4853 -0.1639 -0.0877
 3832SOL    HW123129   3.497   3.060   3.310 -0.0794 -0.6604 -0.9988
 3832SOL    HW223130   3.611   3.044   3.387  0.4610 -0.7238 -1.9578
 3833SOL     OW23131   2.643   0.653  12.440  0.3086  0.0566  0.2661
 3833SOL    HW123132   2.658   0.691  12.526  1.0615  1.5555 -0.5398
 3833SOL    HW223133   2.552   0.626  12.447  0.8662 -1.8384  0.3590
 3834SOL     OW23134   1.953   4.717   6.367  0.3074  0.1968 -0.3176
 3834SOL    HW123135   1.910   4.734   6.451  2.8063 -0.0692  1.0241
 3834SOL    HW223136   2.037   4.676   6.386 -0.2737 -1.4598 -1.3198
 3835SOL     OW23137   4.227   1.174   6.059 -0.3797  0.7481 -0.0598
 3835SOL    HW123138   4.306   1.229   6.055  1.2451 -1.4951  1.1386
 3835SOL    HW223139   4.266   1.086   6.062  3.0170  2.2248 -0.1029
 3836SOL     OW23140   2.121   2.395   4.994 -0.1659  0.3356  0.6133
 3836SOL    HW123141   2.202   2.441   5.015 -0.2405  0.0386  1.5656
 3836SOL    HW223142   2.087   2.391   5.084  0.4735  0.9954  0.8880
 3837SOL     OW23143   2.789   3.424   3.829  0.1845 -0.1099 -1.1477
 3837SOL    HW123144   2.865   3.366   3.829 -1.1292 -1.8427  0.0294
 3837SOL    HW223145   2.757   3.426   3.919  0.7126 -0.8685 -0.9465
 3838SOL     OW23146   1.851   0.799   9.567  0.0334 -0.4102 -0.2806
 3838SOL    HW123147   1.770   0.758   9.598  1.4447 -1.3333  2.1833
 3838SOL    HW223148   1.826   0.888   9.592  1.9266 -0.1072  0.5617
 3839SOL     OW23149   2.509   3.062  16.921  0.0285  0.3688 -0.3025
 3839SOL    HW123150   2.436   3.029  16.974 -0.5692 -0.8235 -1.8668
 3839SOL    HW223151   2.532   3.145  16.963 -0.7471  0.4413 -0.0256
 3840SOL     OW23152   3.577   2.126   6.838 -0.0852  0.0209  0.7518
 3840SOL    HW123153   3.596   2.053   6.779 -2.0937  0.2953 -0.2404
 3840SOL    HW223154   3.605   2.102   6.926  0.1988 -0.1249  0.6227
 3841SOL     OW23155   0.204   3.794   4.301 -0.6013 -0.7006  0.1829
 3841SOL    HW123156   0.290   3.755   4.284 -0.5185  0.7411 -2.7768
 3841SOL    HW223157   0.239   3.878   4.330  1.5741 -2.0055  1.3276
 3842SOL     OW23158   1.426   1.257  15.952  0.2156  0.6215 -0.0074
 3842SOL    HW123159   1.491   1.207  15.903 -1.0738 -1.0815  0.0201
 3842SOL    HW223160   1.489   1.310  16.000 -0.0343  1.9275 -1.1278
 3843SOL     OW23161   3.316   0.873   1.932 -0.4703 -0.1191 -0.1204
 3843SOL    HW123162   3.269   0.808   1.985  1.6585 -1.9217 -0.4340
 3843SOL    HW223163   3.253   0.905   1.868  1.5070  1.3357 -1.3424
 3844SOL     OW23164   3.500   2.466   1.287  0.3085  0.2568 -0.0814
 3844SOL    HW123165   3.530   2.552   1.314  0.5506  0.3859 -0.7564
 3844SOL    HW223166   3.485   2.426   1.373 -1.4253 -2.4168 -1.6026
 3845SOL     OW23167   1.308   0.773   2.191  0.4501 -0.4769  0.1133
 3845SOL    HW123168   1.322   0.848   2.250 -0.9903  0.4271 -0.6906
 3845SOL    HW223169   1.215   0.765   2.211  0.3821 -1.1846 -0.5151
 3846SOL     OW23170   4.218   0.368  13.286  0.4413 -0.1873 -0.0078
 3846SOL    HW123171   4.244   0.282  13.317 -0.3397 -0.0787  0.9754
 3846SOL    HW223172   4.173   0.411  13.360  2.0530 -0.3995  1.1041
 3847SOL     OW23173   1.268   2.914   7.665  0.1171 -0.1150  0.3814
 3847SOL    HW123174   1.271   2.887   7.573  1.6069 -1.1270  0.7308
 3847SOL    HW223175   1.192   2.870   7.701 -0.4699  0.3748 -0.2556
 3848SOL     OW23176   0.384   2.581   4.724 -0.1637 -0.3280  0.0867
 3848SOL    HW123177   0.317   2.515   4.706  0.9930 -1.3798 -0.4447
 3848SOL    HW223178   0.374   2.641   4.650 -0.7254 -2.4612 -1.5561
 3849SOL     OW23179   4.618   3.534   2.358 -0.0043  0.4054 -0.0292
 3849SOL    HW123180   4.564   3.612   2.368 -1.0011 -0.2453 -0.3307
 3849SOL    HW223181   4.644   3.516   2.448  1.1486 -0.4945 -0.5376
 3850SOL     OW23182   0.499   1.009   5.009 -0.3857 -0.0555  0.1375
 3850SOL    HW123183   0.486   0.961   5.091  1.6770  1.3331  1.2688
 3850SOL    HW223184   0.540   0.940   4.956 -0.7282  1.0959 -1.6109
 3851SOL     OW23185   1.230   2.132   9.674  0.1325 -0.1373  0.0108
 3851SOL    HW123186   1.288   2.181   9.733 -0.3275  0.2932  0.1001
 3851SOL    HW223187   1.291   2.142   9.600 -0.1134 -0.1163 -0.1867
 3852SOL     OW23188   1.174   3.898  14.007  0.1027 -0.3748 -0.1841
 3852SOL    HW123189   1.119   3.884  14.084  0.3432 -0.3195 -0.0022
 3852SOL    HW223190   1.248   3.936  14.055  1.0509  0.0087 -1.9767
 3853SOL     OW23191   3.117   1.200   7.833  0.1792 -0.8329 -0.7415
 3853SOL    HW123192   3.204   1.202   7.792 -1.2033  1.7598 -3.5667
 3853SOL    HW223193   3.057   1.185   7.760  1.7835  0.2799 -2.3213
 3854SOL     OW23194   0.404   3.307   0.670  0.2615  0.2966 -0.5081
 3854SOL    HW123195   0.331   3.249   0.648  1.4071 -1.5012  0.4409
 3854SOL    HW223196   0.459   3.258   0.730  0.2640  0.6207 -0.2495
 3855SOL     OW23197   3.630   2.039   3.864  0.4428 -0.0359 -0.8005
 3855SOL    HW123198   3.556   2.094   3.888  0.4776 -0.7824  1.0445
 3855SOL    HW223199   3.630   2.043   3.769 -1.5742  2.4086 -0.6980
 3856SOL     OW23200   1.818   1.437   9.423 -0.1577  0.1240 -0.1954
 3856SOL    HW123201   1.763   1.489   9.364 -1.0141 -3.0464 -2.2326
 3856SOL    HW223202   1.831   1.358   9.370  1.2637 -0.5553  1.1758
 3857SOL     OW23203   0.516   2.783   3.535  0.8133  0.1466 -0.0224
 3857SOL    HW123204   0.591   2.785   3.475  0.6203  1.4746 -0.2181
 3857SOL    HW223205   0.482   2.697   3.510 -0.5432  0.0648  2.1906
 3858SOL     OW23206   1.463   2.551   8.904  0.3734 -0.0136 -0.5429
 3858SOL    HW123207   1.402   2.588   8.840 -0.9625  0.2363  0.8820
 3858SOL    HW223208   1.541   2.536   8.851  0.9641  0.4669  0.1841
 3859SOL     OW23209   3.803   3.980   7.256 -0.2817  0.0751  0.5886
 3859SOL    HW123210   3.716   4.018   7.246 -0.0167  0.5640  0.1003
 3859SOL    HW223211   3.812   3.974   7.351 -0.6968  1.3406  0.7091
 3860SOL     OW23212   1.450   2.592   1.135  0.1748 -0.2952  0.4142
 3860SOL    HW123213   1.399   2.672   1.142  0.1837 -0.0853 -1.8418
 3860SOL    HW223214   1.404   2.532   1.193  0.2541  0.4373  1.2335
 3861SOL     OW23215   4.469   4.217  12.227  0.2013 -0.0630 -0.1565
 3861SOL    HW123216   4.520   4.165  12.289 -1.5810 -2.0346 -0.3420
 3861SOL    HW223217   4.383   4.194  12.262  0.0591  2.7317  1.3501
 3862SOL     OW23218   3.890   2.025   7.075  0.5288 -0.0622  0.4698
 3862SOL    HW123219   3.805   2.067   7.089 -0.1887 -0.5021 -2.5819
 3862SOL    HW223220   3.942   2.057   7.148  0.2392 -2.3996  1.7222
 3863SOL     OW23221   1.749   0.416   4.310 -0.8879 -0.1674 -0.3668
 3863SOL    HW123222   1.774   0.324   4.323  4.3623  1.4000  0.9062
 3863SOL    HW223223   1.806   0.465   4.369 -0.2842  2.2948 -2.9660
 3864SOL     OW23224   2.495   2.971   2.596  0.9258  0.0478 -0.1214
 3864SOL    HW123225   2.457   2.945   2.680  1.3470  1.0539  0.3788
 3864SOL    HW223226   2.461   3.061   2.595  1.4652  0.2225 -1.8807
 3865SOL     OW23227   2.196   0.655   5.170  0.9040 -0.0801  0.3532
 3865SOL    HW123228   2.233   0.715   5.233 -0.2136  0.5159  0.4432
 3865SOL    HW223229   2.257   0.585   5.192  1.1363  0.4825  1.4535
 3866SOL     OW23230   0.022   4.731  12.642 -0.3817 -0.3133 -0.3085
 3866SOL    HW123231   0.003   4.657  12.584 -2.0499 -0.3581  0.3022
 3866SOL    HW223232   0.114   0.010  12.618 -0.5593 -1.2359 -1.5768
 3867SOL     OW23233   0.003   2.121  10.339  0.2676  0.6976 -0.3499
 3867SOL    HW123234   0.050   2.040  10.359  0.7208  0.1981 -3.5552
 3867SOL    HW223235   0.067   2.181  10.377 -1.4393  2.8153 -0.8362
 3868SOL     OW23236   3.086   3.668   5.925 -0.3108 -0.4034 -0.2930
 3868SOL    HW123237   3.120   3.647   5.837 -0.1502 -2.0319  0.1653
 3868SOL    HW223238   3.017   3.603   5.936 -3.3564  2.9844  0.6004
 3869SOL     OW23239   3.279   4.273   5.348 -0.0775  0.1092  0.4943
 3869SOL    HW123240   3.364   4.279   5.391  0.0840  1.5853 -0.0129
 3869SOL    HW223241   3.304   4.328   5.273 -1.1803  0.6799  0.5388
 3870SOL     OW23242   3.094   1.400   8.364 -0.1076 -0.4503  0.3013
 3870SOL    HW123243   3.047   1.391   8.282  0.4423  0.8680 -0.1527
 3870SOL    HW223244   3.024   1.411   8.429 -1.4842 -0.1854 -1.2441
 3871SOL     OW23245   0.928   4.602   2.889 -0.5610  0.4013  0.0487
 3871SOL    HW123246   0.999   4.651   2.930 -0.8481  0.4162  0.5209
 3871SOL    HW223247   0.854   4.652   2.923 -1.6923 -0.8620 -0.5356
 3872SOL     OW23248   3.882   3.484   4.270 -0.7780  0.4457 -0.4089
 3872SOL    HW123249   3.816   3.471   4.338 -0.4043 -1.4187 -0.3993
 3872SOL    HW223250   3.905   3.576   4.282  0.1103  0.1686  0.0053
 3873SOL     OW23251   1.756   3.921  15.332 -0.1268  0.6463 -0.2469
 3873SOL    HW123252   1.753   3.987  15.263  1.7898  1.7384  0.6904
 3873SOL    HW223253   1.682   3.937  15.390 -0.6536 -0.4463 -0.6246
 3874SOL     OW23254   1.860   1.499   4.764 -0.1108  0.0291 -0.0099
 3874SOL    HW123255   1.927   1.451   4.713 -0.2865 -0.4465  0.2043
 3874SOL    HW223256   1.885   1.590   4.749 -0.8312  0.6423  2.6606
 3875SOL     OW23257   0.659   1.744   2.198 -0.1151  0.4374  0.2133
 3875SOL    HW123258   0.624   1.661   2.167  0.9848 -0.1411  0.5235
 3875SOL    HW223259   0.748   1.715   2.215  0.4050  0.6028 -2.1807
 3876SOL     OW23260   1.034   0.816   6.066 -0.5057  0.0318 -0.2008
 3876SOL    HW123261   1.046   0.730   6.106  1.0007  1.1381  1.6709
 3876SOL    HW223262   0.940   0.830   6.077 -0.5382 -0.8102  0.5965
 3877SOL     OW23263   3.981   1.566  14.444  0.2676  0.1301 -0.4033
 3877SOL    HW123264   3.962   1.568  14.538 -3.2009 -0.4354 -1.0948
 3877SOL    HW223265   3.917   1.502  14.411  1.9063 -1.4521 -0.4664
 3878SOL     OW23266   3.740   1.579  12.040  0.3617  0.2319 -0.0873
 3878SOL    HW123267   3.709   1.651  11.984 -0.4820 -0.7374 -0.8734
 3878SOL    HW223268   3.799   1.624  12.100 -0.2486 -0.1636  0.8035
 3879SOL     OW23269   0.006   2.100   6.915 -0.3943 -0.0697 -0.6147
 3879SOL    HW123270   0.026   2.091   6.821  2.0472  1.4956 -0.2556
 3879SOL    HW223271   0.085   2.146   6.944 -0.0707 -0.4653 -0.8595
 3880SOL     OW23272   1.793   3.242   5.484 -0.3774  0.7596  0.5648
 3880SOL    HW123273   1.809   3.336   5.483  0.4682  0.6053  0.2008
 3880SOL    HW223274   1.827   3.230   5.573 -2.0066 -2.9657  0.6708
 3881SOL     OW23275   3.283   4.506   5.595 -0.1251  0.0631  0.6376
 3881SOL    HW123276   3.319   4.526   5.681  1.6702 -0.8211  0.1027
 3881SOL    HW223277   3.286   4.411   5.584 -0.7361  0.0164  0.8906
 3882SOL     OW23278   3.671   1.589   3.661  0.3161 -0.0852 -0.3933
 3882SOL    HW123279   3.667   1.601   3.566 -0.2148 -2.0698 -0.6179
 3882SOL    HW223280   3.588   1.629   3.686  1.1676  0.9820  0.7459
 3883SOL     OW23281   2.822   4.376  17.180 -0.1658  0.6191  0.3063
 3883SOL    HW123282   2.866   4.460  17.162  1.0423  0.2885  1.7125
 3883SOL    HW223283   2.731   4.404  17.189 -0.1792  0.6822 -0.0090
 3884SOL     OW23284   4.722   0.933   3.141  0.6257  0.0612  0.7492
 3884SOL    HW123285   0.050   1.002   3.153  0.4181  0.4358 -0.2695
 3884SOL    HW223286   0.016   0.923   3.051 -1.2852 -0.5443  0.1569
 3885SOL     OW23287   1.809   4.390   9.463  0.1121 -0.3540 -0.7497
 3885SOL    HW123288   1.794   4.480   9.490  1.8966 -0.5035  0.7909
 3885SOL    HW223289   1.884   4.365   9.518 -1.8852 -0.0385  2.1393
 3886SOL     OW23290   2.098   0.183   8.682  0.2140  0.0129 -0.5789
 3886SOL    HW123291   2.099   0.101   8.733  2.0621  0.4912  0.1675
 3886SOL    HW223292   2.055   0.151   8.603  1.6914 -1.5234 -0.7796
 3887SOL     OW23293   3.406   3.768   6.753  0.4374 -0.4810  0.2006
 3887SOL    HW123294   3.500   3.787   6.749  0.5638 -1.1930 -0.3581
 3887SOL    HW223295   3.401   3.691   6.696 -1.1194 -1.6081  1.8692
 3888SOL     OW23296   4.644   1.949   7.814  0.1477  1.1189 -0.0073
 3888SOL    HW123297   4.710   1.893   7.854  2.4570  2.4465 -1.9657
 3888SOL    HW223298   4.583   1.941   7.887 -0.1101  1.0426 -0.2281
 3889SOL     OW23299   3.020   0.745   8.997  0.2551  0.2390  0.2489
 3889SOL    HW123300   3.040   0.769   8.906  0.9469  0.3007  0.4233
 3889SOL    HW223301   3.100   0.703   9.028  0.1187  0.9618  1.5572
 3890SOL     OW23302   2.652   3.738   4.796 -0.3282 -0.0237 -0.1757
 3890SOL    HW123303   2.721   3.804   4.806 -1.3744  0.9911  0.2379
 3890SOL    HW223304   2.575   3.792   4.811 -0.7243 -0.7345  0.3715
 3891SOL     OW23305   4.601   4.691   1.777  0.3838  0.5390  0.0755
 3891SOL    HW123306   4.594   0.021   1.846  0.7435 -0.2422  0.8726
 3891SOL    HW223307   4.514   4.652   1.771  0.3239  1.0142 -2.0954
 3892SOL     OW23308   1.907   2.222   9.944 -0.5364 -0.0912  0.6745
 3892SOL    HW123309   1.943   2.240   9.857  0.7234 -1.2947  0.9592
 3892SOL    HW223310   1.885   2.309   9.976  2.7470  1.5539 -1.6231
 3893SOL     OW23311   2.722   2.206  12.465 -0.3434  0.5533  0.6807
 3893SOL    HW123312   2.775   2.128  12.446 -1.1126  0.2835 -0.4213
 3893SOL    HW223313   2.645   2.186  12.410 -0.5800 -0.4045  1.3587
 3894SOL     OW23314   0.877   2.401   8.325  0.7327 -0.0835 -0.0564
 3894SOL    HW123315   0.843   2.344   8.394  0.5901  0.7529  0.5642
 3894SOL    HW223316   0.932   2.460   8.377  0.6316  0.4336 -0.5271
 3895SOL     OW23317   2.503   1.499   6.382  0.0295  0.0890 -0.0861
 3895SOL    HW123318   2.581   1.460   6.420  1.2267  1.7246 -0.8355
 3895SOL    HW223319   2.482   1.431   6.318  1.1750  0.5507 -0.9465
 3896SOL     OW23320   2.229   4.324   1.169  0.4230 -0.2267 -0.1822
 3896SOL    HW123321   2.227   4.315   1.073 -1.5921  0.4916 -0.2045
 3896SOL    HW223322   2.293   4.394   1.174 -0.5914  0.5507  1.6140
 3897SOL     OW23323   3.573   2.712   3.251 -0.1784 -0.1222 -0.0183
 3897SOL    HW123324   3.581   2.659   3.330  0.4420  0.0300  0.0195
 3897SOL    HW223325   3.639   2.778   3.271 -0.2053 -0.3124  0.7210
 3898SOL     OW23326   2.392   4.603  12.767 -0.5049 -0.4494  0.4977
 3898SOL    HW123327   2.305   4.608  12.727 -0.4931  2.8217  0.9157
 3898SOL    HW223328   2.433   4.684  12.739 -0.6313 -0.4196  0.3957
 3899SOL     OW23329   2.997   0.775   5.217  0.9371  0.1283  0.2928
 3899SOL    HW123330   3.046   0.855   5.236  1.4289  0.0360 -0.6053
 3899SOL    HW223331   3.069   0.713   5.213  2.0615  1.7010 -3.7308
 3900SOL     OW23332   3.498   3.757  17.654 -0.1993  0.3510 -0.3835
 3900SOL    HW123333   3.527   3.713  17.573 -1.5323  1.5771 -1.5280
 3900SOL    HW223334   3.508   3.847  17.623 -0.8846  0.6686  0.3332
 3901SOL     OW23335   0.947   1.163  10.445  0.6119 -0.2102 -0.1318
 3901SOL    HW123336   0.973   1.233  10.385 -0.4261 -1.0026 -1.5083
 3901SOL    HW223337   0.961   1.196  10.534  0.3051  0.4823 -0.3405
 3902SOL     OW23338   4.329   1.865  16.947 -0.3100  0.0894  0.3861
 3902SOL    HW123339   4.320   1.817  17.029 -1.3362  0.7373  0.6579
 3902SOL    HW223340   4.241   1.903  16.937  0.3952  1.7052  0.2080
 3903SOL     OW23341   0.420   1.446   0.496 -0.3259 -0.1100 -0.2431
 3903SOL    HW123342   0.493   1.432   0.556 -0.3422  2.3322  0.3434
 3903SOL    HW223343   0.408   1.540   0.485 -1.1449 -0.0046  1.5731
 3904SOL     OW23344   1.540   3.509   7.095 -0.0339  0.1972  0.5101
 3904SOL    HW123345   1.588   3.589   7.074  1.0667 -0.5912 -0.0383
 3904SOL    HW223346   1.482   3.540   7.164 -1.9093  0.4887 -1.1977
 3905SOL     OW23347   2.495   0.996   7.581 -0.4597  0.2826 -0.0160
 3905SOL    HW123348   2.549   0.972   7.656  0.1230  2.1562  0.1681
 3905SOL    HW223349   2.433   1.055   7.624 -2.1308 -2.2969  1.1263
 3906SOL     OW23350   0.791   3.170   2.718  0.1807 -0.4778 -0.5978
 3906SOL    HW123351   0.817   3.178   2.810 -4.8324  0.5549  0.7077
 3906SOL    HW223352   0.708   3.122   2.715 -0.6116  0.9447 -1.2945
 3907SOL     OW23353   3.135   3.067   3.076 -0.2388  0.2613  0.1407
 3907SOL    HW123354   3.156   3.130   3.007 -0.8830 -1.1776 -1.3758
 3907SOL    HW223355   3.127   2.988   3.022 -0.2102  0.3392  0.0221
 3908SOL     OW23356   1.275   2.447   9.344 -0.2465  0.1974  0.4064
 3908SOL    HW123357   1.207   2.442   9.411 -2.3098  2.5731 -1.5034
 3908SOL    HW223358   1.251   2.381   9.279 -0.2313  0.4461  0.1466
 3909SOL     OW23359   0.839   2.096   7.450  0.1508  0.2258 -0.0646
 3909SOL    HW123360   0.928   2.075   7.420  0.5801 -0.4795  1.6968
 3909SOL    HW223361   0.836   2.036   7.525 -1.7312  1.2898  0.7154
 3910SOL     OW23362   2.678   3.641   0.317  0.1315 -0.2348 -0.4292
 3910SOL    HW123363   2.628   3.692   0.253 -1.4087  1.7572  2.3686
 3910SOL    HW223364   2.758   3.693   0.308 -0.0485 -0.1240 -1.4211
 3911SOL     OW23365   1.726   0.116   7.336  0.2596  0.0514  0.4207
 3911SOL    HW123366   1.635   0.144   7.345 -0.0199 -0.3644 -1.1019
 3911SOL    HW223367   1.769   0.199   7.318  1.5709 -0.2131  2.3317
 3912SOL     OW23368   2.888   4.432   5.128 -0.2624 -0.1675 -0.4957
 3912SOL    HW123369   2.924   4.433   5.217  1.1274  1.3304 -1.0609
 3912SOL    HW223370   2.956   4.471   5.073  0.3886  1.9483  1.7863
 3913SOL     OW23371   2.289   0.747   7.439  0.1126 -0.1062  0.3873
 3913SOL    HW123372   2.285   0.819   7.502  3.0240  0.5643 -0.1949
 3913SOL    HW223373   2.230   0.690   7.489  2.2205 -1.6403  1.0980
 3914SOL     OW23374   4.331   4.152  17.405  0.6562 -0.2055 -0.0286
 3914SOL    HW123375   4.370   4.111  17.327 -0.1752  1.5912 -1.4091
 3914SOL    HW223376   4.249   4.107  17.387 -0.5591  1.7479  0.7107
 3915SOL     OW23377   4.516   0.087  14.785 -0.2786  0.0583 -0.1246
 3915SOL    HW123378   4.460   0.104  14.709  0.2995 -0.6353 -0.7043
 3915SOL    HW223379   4.466   0.137  14.849  1.1146  1.2051  0.0470
 3916SOL     OW23380   1.897   3.467  12.970  0.2480 -0.4252 -0.4150
 3916SOL    HW123381   1.949   3.481  12.890  0.0741  0.4967 -0.3655
 3916SOL    HW223382   1.967   3.457  13.034  1.4248  2.6519 -1.2351
 3917SOL     OW23383   4.507   0.221  16.030  0.5914  0.4050  0.1191
 3917SOL    HW123384   4.436   0.232  16.093  0.7586  2.8200 -0.1382
 3917SOL    HW223385   4.474   0.226  15.941  0.8923  1.6959  0.0899
 3918SOL     OW23386   0.383   0.788   3.101 -0.3268 -0.5037 -0.0585
 3918SOL    HW123387   0.357   0.801   3.192  0.5273 -0.0393  0.1207
 3918SOL    HW223388   0.408   0.878   3.080  0.1771 -0.8123 -0.7923
 3919SOL     OW23389   1.218   1.211   1.406  0.1804  0.2588 -0.0061
 3919SOL    HW123390   1.244   1.258   1.327 -1.1990 -0.3559 -0.8249
 3919SOL    HW223391   1.156   1.272   1.446  0.5566  0.7436 -0.1640
 3920SOL     OW23392   0.814   2.369   5.990  0.2431 -0.0373  0.7982
 3920SOL    HW123393   0.793   2.461   5.974 -0.9955 -0.4956 -0.2086
 3920SOL    HW223394   0.829   2.341   5.899  0.8583  2.4032  0.1497
 3921SOL     OW23395   4.227   0.089   8.949  0.0466  0.3950  0.1225
 3921SOL    HW123396   4.195   0.147   9.018  0.2569  1.9702 -1.0973
 3921SOL    HW223397   4.319   0.117   8.948  0.5810 -1.4367 -1.7339
 3922SOL     OW23398   2.628   0.161   8.773  0.5324  0.5626 -0.1404
 3922SOL    HW123399   2.647   0.150   8.680 -0.2425 -2.2150  0.0362
 3922SOL    HW223400   2.540   0.200   8.765  0.4360 -0.1648 -2.5964
 3923SOL     OW23401   4.658   4.446  16.822 -0.0786 -0.5431 -0.5611
 3923SOL    HW123402   4.606   4.520  16.792 -1.5751 -1.4953 -0.3416
 3923SOL    HW223403   4.643   4.387  16.748  0.9709 -1.8966  0.3104
 3924SOL     OW23404   1.258   3.224   5.449  0.0311  0.5582 -0.2426
 3924SOL    HW123405   1.258   3.292   5.515  1.1745  1.2473 -0.9582
 3924SOL    HW223406   1.182   3.257   5.400 -0.1771  0.9371  0.3405
 3925SOL     OW23407   0.272   2.166   4.686  0.0185  0.5531  0.0194
 3925SOL    HW123408   0.246   2.257   4.678 -2.7141 -0.3199 -1.2646
 3925SOL    HW223409   0.244   2.129   4.602  0.7611 -1.1965  0.5320
 3926SOL     OW23410   0.323   1.712   8.195 -0.0685  0.2683  0.2221
 3926SOL    HW123411   0.343   1.770   8.122 -1.1726 -0.4221 -0.6339
 3926SOL    HW223412   0.262   1.652   8.152 -0.9120 -0.2149  2.0933
 3927SOL     OW23413   0.394   3.889   2.275 -0.8441  0.1946  0.4237
 3927SOL    HW123414   0.427   3.941   2.349 -2.5952  1.0606  0.5936
 3927SOL    HW223415   0.478   3.850   2.250  0.1217  1.9687  0.8786
 3928SOL     OW23416   2.123   4.276   4.354 -0.3548  0.4306  0.4614
 3928SOL    HW123417   2.087   4.291   4.441  0.9444  1.8510  0.7638
 3928SOL    HW223418   2.201   4.225   4.373 -1.0989 -0.9092 -0.0715
 3929SOL     OW23419   3.957   1.590  13.900  0.1834 -0.2965 -0.2356
 3929SOL    HW123420   3.992   1.575  13.812  1.6572 -1.5151  0.5692
 3929SOL    HW223421   3.963   1.685  13.908  2.0944 -0.5049  0.6900
 3930SOL     OW23422   1.792   0.676  13.972  0.0742 -1.0844 -0.5155
 3930SOL    HW123423   1.867   0.635  14.017  0.6745  2.5803  1.8250
 3930SOL    HW223424   1.729   0.708  14.036  3.6758 -0.1101  2.5259
 3931SOL     OW23425   3.198   1.886   5.725 -0.4251  0.2403 -0.1510
 3931SOL    HW123426   3.148   1.821   5.774  1.1985  0.1668  1.3870
 3931SOL    HW223427   3.139   1.902   5.650 -1.3541 -0.6008  0.3957
 3932SOL     OW23428   0.385   0.109   6.144  0.8199  0.4383 -0.2126
 3932SOL    HW123429   0.410   0.177   6.081  2.1106  1.3343  1.2619
 3932SOL    HW223430   0.300   0.085   6.106  0.4727 -0.1433  0.9178
 3933SOL     OW23431   3.890   3.909   1.973  0.1900  0.1810 -0.5596
 3933SOL    HW123432   3.870   3.862   1.892 -0.6815 -0.6321  0.1391
 3933SOL    HW223433   3.885   4.001   1.946  0.2020  0.0144 -1.1295
 3934SOL     OW23434   3.188   2.705   7.662 -0.6808 -0.5689  0.6649
 3934SOL    HW123435   3.138   2.779   7.696  0.0903  0.6983 -0.9873
 3934SOL    HW223436   3.267   2.702   7.715  0.4885 -0.8606 -1.1072
 3935SOL     OW23437   3.637   1.799   0.687 -0.2717 -0.0978 -0.0654
 3935SOL    HW123438   3.612   1.823   0.777 -0.3874 -1.5219  0.2845
 3935SOL    HW223439   3.692   1.721   0.697  0.1609  0.0768 -1.1276
 3936SOL     OW23440   1.102   2.583  13.845  0.2177  0.5097  0.1302
 3936SOL    HW123441   1.155   2.607  13.770  1.1213 -2.5762 -0.2313
 3936SOL    HW223442   1.148   2.633  13.913  1.1325 -0.2692  0.0934
 3937SOL     OW23443   1.722   0.203  14.225 -0.7812 -0.1943  0.6875
 3937SOL    HW123444   1.687   0.289  14.201  0.7812 -0.0854 -1.1791
 3937SOL    HW223445   1.660   0.139  14.189 -0.3644  1.3654 -2.8365
 3938SOL     OW23446   1.944   3.656   9.163 -0.0909 -0.5401 -0.0693
 3938SOL    HW123447   2.010   3.703   9.113  0.2923  0.4007  1.3478
 3938SOL    HW223448   1.891   3.621   9.090  0.8097 -1.9975 -0.0255
 3939SOL     OW23449   4.196   3.241   4.573  0.1397  0.0575  0.1395
 3939SOL    HW123450   4.154   3.286   4.646  1.2522  0.2667  0.6503
 3939SOL    HW223451   4.123   3.227   4.514  1.2275 -0.8718 -0.9989
 3940SOL     OW23452   0.559   4.176   2.881 -0.0154  0.6322  0.0444
 3940SOL    HW123453   0.472   4.195   2.847  0.4856  0.7402 -1.1889
 3940SOL    HW223454   0.533   4.104   2.939  1.8391 -0.1462 -0.0676
 3941SOL     OW23455   0.374   2.828   4.145  0.2294 -0.2724 -0.2481
 3941SOL    HW123456   0.330   2.862   4.067  0.2975  1.6360  0.5321
 3941SOL    HW223457   0.382   2.735   4.128 -0.3658 -0.3572 -0.0781
 3942SOL     OW23458   2.369   1.961   3.790 -0.4507 -0.2386 -0.3656
 3942SOL    HW123459   2.395   1.992   3.877 -1.0301  1.6899 -0.8709
 3942SOL    HW223460   2.341   1.873   3.812 -3.0064  1.3532  2.7180
 3943SOL     OW23461   0.436   1.056   4.590  0.5070  0.1038  0.4224
 3943SOL    HW123462   0.523   1.020   4.571  0.3673  0.6537 -1.2856
 3943SOL    HW223463   0.485   1.106   4.656  1.5293  0.9425 -0.9563
 3944SOL     OW23464   2.758   2.699   7.605 -0.6134 -0.4407 -0.1079
 3944SOL    HW123465   2.775   2.638   7.676  1.6840  1.3951  0.9483
 3944SOL    HW223466   2.812   2.772   7.635  1.6593 -2.6520  1.1936
 3945SOL     OW23467   1.381   4.177   3.228 -0.0128 -0.2991 -0.2763
 3945SOL    HW123468   1.387   4.100   3.172 -2.3826 -0.3101 -0.5160
 3945SOL    HW223469   1.472   4.198   3.247  0.2535 -2.0969  0.4342
 3946SOL     OW23470   0.433   2.748   4.961 -0.4510  0.3964 -0.0418
 3946SOL    HW123471   0.363   2.727   4.898  1.4010 -0.4369 -1.8325
 3946SOL    HW223472   0.381   2.795   5.026 -2.0304  0.2575 -1.1924
 3947SOL     OW23473   2.988   1.753  10.417  0.5203 -0.4095 -0.0580
 3947SOL    HW123474   3.038   1.730  10.495 -2.8462 -0.3939  2.1105
 3947SOL    HW223475   3.036   1.810  10.357 -0.7912  0.3625 -0.3908
 3948SOL     OW23476   3.843   2.533   8.268 -0.3873  0.0815  0.0560
 3948SOL    HW123477   3.841   2.628   8.267  1.1740  0.1223  1.2928
 3948SOL    HW223478   3.937   2.519   8.267 -0.7122 -1.8290 -2.3467
 3949SOL     OW23479   0.224   3.626   0.054 -0.2036 -0.1528 -0.3206
 3949SOL    HW123480   0.211   3.531   0.059  0.6814 -0.3117 -1.1495
 3949SOL    HW223481   0.194   3.650  17.711 -1.0333  0.4704  0.1310
 3950SOL     OW23482   0.019   4.610   1.592  0.5419 -0.3531  0.0730
 3950SOL    HW123483   4.706   4.620   1.511  0.6023 -2.1975 -0.1997
 3950SOL    HW223484   4.698   4.637   1.663 -0.4845 -0.7280 -0.6197
 3951SOL     OW23485   1.472   3.319  12.772  0.1944 -0.0225 -0.7322
 3951SOL    HW123486   1.543   3.279  12.821 -2.1823 -1.4908  1.4697
 3951SOL    HW223487   1.508   3.402  12.739 -1.6920  0.9437 -0.3112
 3952SOL     OW23488   3.451   0.917   9.086 -0.4827  0.4399  0.6198
 3952SOL    HW123489   3.491   0.831   9.092  2.5793  1.9683  2.1822
 3952SOL    HW223490   3.376   0.893   9.032  1.2605 -2.8869 -0.3544
 3953SOL     OW23491   1.022   2.325   8.093  0.2248  0.2642  0.0579
 3953SOL    HW123492   0.984   2.387   8.031  1.2112 -0.6256 -1.4292
 3953SOL    HW223493   0.975   2.340   8.175 -1.0205  0.6474 -0.7389
 3954SOL     OW23494   0.037   0.876   5.480 -0.3263 -0.3135  0.3901
 3954SOL    HW123495   4.706   0.905   5.541  2.8185  1.3179  3.0781
 3954SOL    HW223496   0.062   0.954   5.430 -1.0814 -0.1527  0.2623
 3955SOL     OW23497   2.639   3.478   4.383 -0.1224  0.1003 -0.0749
 3955SOL    HW123498   2.659   3.551   4.442  1.5730 -0.4643  0.0515
 3955SOL    HW223499   2.544   3.485   4.377 -0.0996 -0.2802 -0.9098
 3956SOL     OW23500   3.090   2.805   7.139 -0.2815  0.3114  0.5788
 3956SOL    HW123501   3.007   2.848   7.156 -0.5282 -0.2865  0.8960
 3956SOL    HW223502   3.121   2.821   7.228 -0.8443 -0.0542  0.8430
 3957SOL     OW23503   2.420   2.632   1.842 -0.0178 -0.4889  0.0637
 3957SOL    HW123504   2.431   2.604   1.751  0.2608  0.2861 -0.1470
 3957SOL    HW223505   2.483   2.704   1.844  1.2189 -1.6261  0.8881
 3958SOL     OW23506   4.333   1.013   6.463 -0.5319  0.2063 -0.2752
 3958SOL    HW123507   4.368   1.093   6.425  0.5340 -0.3726 -0.5067
 3958SOL    HW223508   4.284   1.057   6.533 -0.7209 -0.7136  0.1709
 3959SOL     OW23509   0.358   0.414   6.219  0.2957 -0.1873  0.3491
 3959SOL    HW123510   0.364   0.358   6.142  1.0104  1.1409 -0.5557
 3959SOL    HW223511   0.389   0.354   6.288 -3.1574 -0.3160  1.7629
 3960SOL     OW23512   0.379   1.468   4.348 -0.5733 -0.1761 -0.3025
 3960SOL    HW123513   0.356   1.385   4.390 -1.1793 -0.7981 -1.8476
 3960SOL    HW223514   0.316   1.532   4.381 -1.7643 -1.3156 -0.3492
 3961SOL     OW23515   2.504   4.238  10.605 -0.5963 -0.4203 -0.4336
 3961SOL    HW123516   2.447   4.306  10.570 -1.3677 -1.2002 -0.6855
 3961SOL    HW223517   2.461   4.206  10.684  1.8549  0.7835  1.4033
 3962SOL     OW23518   0.063   3.279  15.713  0.0582 -0.6161  0.2891
 3962SOL    HW123519   0.031   3.308  15.798 -0.5235  1.7408 -0.7164
 3962SOL    HW223520   0.151   3.317  15.710 -0.1718 -0.0944  0.1456
 3963SOL     OW23521   3.511   0.442   6.910  0.1867 -0.1059  0.6478
 3963SOL    HW123522   3.496   0.374   6.976 -3.7077  0.3725  0.2388
 3963SOL    HW223523   3.604   0.460   6.925  0.2866 -0.9472  1.0137
 3964SOL     OW23524   0.614   4.694   8.403  0.6099 -0.4574  0.3506
 3964SOL    HW123525   0.539   4.642   8.434 -0.9232  2.2685  1.1558
 3964SOL    HW223526   0.596   4.684   8.310 -0.5296 -1.5731  0.6936
 3965SOL     OW23527   2.084   0.590  11.837  0.1184 -0.1355 -0.1598
 3965SOL    HW123528   2.163   0.636  11.866  1.2095 -2.9089  1.2698
 3965SOL    HW223529   2.119   0.503  11.817 -1.1673 -0.8282  0.6032
 3966SOL     OW23530   1.484   1.243   5.679  0.1892  0.0190 -0.4699
 3966SOL    HW123531   1.476   1.315   5.742 -0.2132 -1.7768  1.5249
 3966SOL    HW223532   1.422   1.185   5.724  0.2288 -0.9777 -1.7090
 3967SOL     OW23533   2.495   1.811   5.041 -0.8171 -0.0502 -0.0367
 3967SOL    HW123534   2.519   1.904   5.036  0.7299 -0.4138  0.7311
 3967SOL    HW223535   2.518   1.785   5.130 -0.9040  1.3648  0.3981
 3968SOL     OW23536   2.950   1.078   8.634  0.2861 -0.4313 -0.1876
 3968SOL    HW123537   2.868   1.042   8.668 -1.0376  0.8320 -1.9892
 3968SOL    HW223538   2.943   1.172   8.653 -2.4200 -0.6393 -0.1394
 3969SOL     OW23539   2.236   4.461   3.719 -0.1901 -0.6474  0.6527
 3969SOL    HW123540   2.198   4.541   3.755  1.1052 -0.5260  1.7533
 3969SOL    HW223541   2.192   4.397   3.775  0.8022 -1.7951  0.1172
 3970SOL     OW23542   0.496   3.025   8.026 -0.0118  0.2007  0.3939
 3970SOL    HW123543   0.483   3.120   8.029 -0.4995  0.2280 -2.3809
 3970SOL    HW223544   0.408   2.993   8.005  0.2663 -1.0339  1.0960
 3971SOL     OW23545   4.612   0.748   5.046  0.5471  0.0927 -0.4969
 3971SOL    HW123546   4.693   0.798   5.042  0.7486 -0.1429  0.4549
 3971SOL    HW223547   4.547   0.817   5.033  0.9281  0.3672 -0.9412
 3972SOL     OW23548   3.774   3.243   1.952 -0.2406  0.8065 -0.1303
 3972SOL    HW123549   3.713   3.294   2.006  0.0059  1.4497 -0.4568
 3972SOL    HW223550   3.740   3.257   1.864 -0.9908 -0.2277  0.0042
 3973SOL     OW23551   4.549   1.672  16.938  0.3180 -0.2733  0.4741
 3973SOL    HW123552   4.526   1.761  16.913 -1.1333 -0.5932  0.6640
 3973SOL    HW223553   4.555   1.642  16.847 -0.1694 -1.4175  0.8138
 3974SOL     OW23554   1.826   2.673  16.522  0.2329 -0.1317 -0.5583
 3974SOL    HW123555   1.776   2.612  16.576  0.7554  0.1525  0.2328
 3974SOL    HW223556   1.756   2.737  16.508 -0.5336 -0.6599  0.8380
 3975SOL     OW23557   2.226   1.680   1.945 -0.7117  0.2960  0.6677
 3975SOL    HW123558   2.136   1.683   1.976 -0.5040  1.2801  1.1896
 3975SOL    HW223559   2.252   1.594   1.976  0.1868  0.2032 -0.3134
 3976SOL     OW23560   0.035   3.165   5.321 -0.3354  0.6020 -0.2320
 3976SOL    HW123561   0.051   3.140   5.412  0.0999 -0.6606 -0.6627
 3976SOL    HW223562   0.063   3.088   5.272 -0.6751  0.0418  0.4531
 3977SOL     OW23563   0.340   3.585   6.009  0.5860 -0.3538 -0.1173
 3977SOL    HW123564   0.257   3.596   5.962  0.2457  0.6284  0.7085
 3977SOL    HW223565   0.389   3.659   5.974  0.0986 -0.1186 -0.3053
 3978SOL     OW23566   2.146   3.391   7.575  0.5871 -0.3158 -0.2547
 3978SOL    HW123567   2.069   3.389   7.632  1.4412  0.0307  0.9262
 3978SOL    HW223568   2.133   3.476   7.534 -0.2827  0.1621  1.0002
 3979SOL     OW23569   0.015   3.170   4.338  0.0840 -0.2280  0.3752
 3979SOL    HW123570   4.711   3.187   4.253 -0.6206  0.9114  0.9541
 3979SOL    HW223571   0.048   3.080   4.330 -2.3184 -0.8981 -1.9357
 3980SOL     OW23572   0.019   0.009  16.061 -0.2197 -0.2272  0.0028
 3980SOL    HW123573   0.111   0.004  16.085 -0.0693  1.8615 -0.1573
 3980SOL    HW223574   0.003   4.653  16.082 -1.9674  0.3774  1.3663
 3981SOL     OW23575   3.521   0.817   0.866 -0.0993  0.0043 -0.0014
 3981SOL    HW123576   3.462   0.845   0.796 -2.0029  1.6489  2.3010
 3981SOL    HW223577   3.493   0.727   0.879 -1.2796  0.1715 -1.3136
 3982SOL     OW23578   0.727   2.628   6.069  0.1340  0.5688 -0.5045
 3982SOL    HW123579   0.812   2.673   6.068 -0.0002  0.8615  0.7224
 3982SOL    HW223580   0.708   2.626   6.163  1.2383 -0.3003 -0.3072
 3983SOL     OW23581   0.219   4.424   4.685  0.1559  0.2096  0.2282
 3983SOL    HW123582   0.279   4.482   4.732  0.7524 -0.6088  0.4639
 3983SOL    HW223583   0.186   4.495   4.629 -1.5174 -0.4824  0.3482
 3984SOL     OW23584   4.668   2.205   4.598 -0.3746 -0.2723 -0.0515
 3984SOL    HW123585   4.703   2.137   4.541 -0.5195 -0.4997  0.1298
 3984SOL    HW223586   4.617   2.248   4.530  1.0768  0.2865 -0.7781
 3985SOL     OW23587   4.079   2.443   2.312  0.3026 -0.0365 -0.1414
 3985SOL    HW123588   4.058   2.400   2.395  4.5030 -2.1469 -0.1993
 3985SOL    HW223589   4.046   2.532   2.325 -1.5308 -0.6046 -0.8629
 3986SOL     OW23590   1.388   0.085   5.926 -0.0650  0.0390  0.1623
 3986SOL    HW123591   1.398   0.108   5.834 -1.1330 -0.3020 -0.0421
 3986SOL    HW223592   1.357   4.731   5.924 -1.4267  0.4464  2.6300
 3987SOL     OW23593   0.188   2.768  15.227 -0.1965 -0.5260 -0.1361
 3987SOL    HW123594   0.244   2.731  15.294  0.0718 -0.0869 -0.1180
 3987SOL    HW223595   0.248   2.803  15.161 -0.2430 -2.0025 -0.9811
 3988SOL     OW23596   0.222   1.820   2.219 -0.1160  0.3048 -0.4206
 3988SOL    HW123597   0.309   1.860   2.226  0.6167 -1.1434 -1.0102
 3988SOL    HW223598   0.193   1.854   2.134  0.1568  0.9750 -0.2412
 3989SOL     OW23599   3.514   0.161   4.179 -0.4733  0.0222  0.0865
 3989SOL    HW123600   3.466   0.241   4.156 -1.9059 -1.2114 -1.1216
 3989SOL    HW223601   3.455   0.133   4.249  0.7597 -0.0845  1.0816
 3990SOL     OW23602   0.809   3.416   2.271  0.0349  0.6433 -0.2722
 3990SOL    HW123603   0.837   3.327   2.295 -0.5533  0.0930 -1.6200
 3990SOL    HW223604   0.777   3.402   2.182  0.1796 -4.0942  0.4093
 3991SOL     OW23605   1.987   1.466  15.489  0.0755 -0.2562 -0.3258
 3991SOL    HW123606   1.944   1.477  15.405 -2.0113 -0.4099  0.7227
 3991SOL    HW223607   1.909   1.454  15.543  0.8620 -1.7266  0.4896
 3992SOL     OW23608   2.811   1.817   5.299  0.1383 -0.3217 -0.3808
 3992SOL    HW123609   2.845   1.824   5.210 -0.4664  0.3950 -0.5622
 3992SOL    HW223610   2.733   1.767   5.276 -0.4711  1.6823 -2.6205
 3993SOL     OW23611   3.424   3.997   1.794 -0.5526 -0.0199  0.1629
 3993SOL    HW123612   3.434   4.054   1.718  1.9902  0.0563  0.5656
 3993SOL    HW223613   3.401   4.056   1.866 -3.2885  0.5095 -1.1637
 3994SOL     OW23614   3.862   2.256   1.933 -0.1585 -0.6789  0.0260
 3994SOL    HW123615   3.927   2.200   1.891  0.8892 -0.5950  1.5353
 3994SOL    HW223616   3.921   2.316   1.980  0.6340 -0.1356 -1.6875
 3995SOL     OW23617   0.361   4.119   4.095 -0.3571  0.0905 -0.2805
 3995SOL    HW123618   0.348   4.113   4.189 -0.0967 -1.0673 -0.3160
 3995SOL    HW223619   0.310   4.045   4.062  1.2338 -1.0768 -0.0755
 3996SOL     OW23620   0.882   4.353   6.995  0.3714  0.3475  0.3728
 3996SOL    HW123621   0.869   4.447   7.009 -0.7962  0.4003 -1.0181
 3996SOL    HW223622   0.819   4.319   7.059  0.6205  0.3546  0.6194
 3997SOL     OW23623   0.815   3.778  14.090  0.1298  0.8111  0.4560
 3997SOL    HW123624   0.823   3.820  14.005 -1.5146 -0.4408 -0.3184
 3997SOL    HW223625   0.720   3.784  14.100 -0.3422 -2.5415 -1.9332
 3998SOL     OW23626   3.426   2.110   2.020  0.4396 -0.4940 -0.1672
 3998SOL    HW123627   3.453   2.163   2.095 -0.5997  0.0142 -0.1482
 3998SOL    HW223628   3.347   2.062   2.044  0.5057 -0.7646 -0.4894
 3999SOL     OW23629   3.595   0.803   5.151  0.2245  0.1837  0.5747
 3999SOL    HW123630   3.666   0.856   5.188  0.3703  0.4746 -0.1386
 3999SOL    HW223631   3.603   0.727   5.209  0.0670  0.0282  0.3922
 4000SOL     OW23632   0.636   2.072   1.380 -0.8156  0.0045  0.4018
 4000SOL    HW123633   0.582   2.117   1.315 -0.7197  0.2065  0.4619
 4000SOL    HW223634   0.668   2.150   1.424 -0.3435  0.3610 -0.5755
 4001SOL     OW23635   2.889   1.691   7.157  0.0580  1.0513  0.2052
 4001SOL    HW123636   2.834   1.768   7.145 -0.6715  0.7825  1.7788
 4001SOL    HW223637   2.974   1.724   7.186  0.6002  0.2928 -0.5088
 4002SOL     OW23638   1.215   2.442   4.893  0.1915 -0.2307 -0.1211
 4002SOL    HW123639   1.295   2.428   4.943 -0.1761 -0.0451  0.5134
 4002SOL    HW223640   1.223   2.384   4.817  1.0752  0.6621 -0.6944
 4003SOL     OW23641   3.941   4.160  13.459  0.1350 -0.5980  0.2336
 4003SOL    HW123642   3.851   4.130  13.475 -0.1183 -0.0721 -0.1997
 4003SOL    HW223643   3.960   4.158  13.365 -1.4151 -0.8754 -0.0750
 4004SOL     OW23644   1.403   2.899   8.816  0.0720  0.2163  0.2194
 4004SOL    HW123645   1.484   2.886   8.766  0.8837  2.0076  1.0432
 4004SOL    HW223646   1.356   2.823   8.783  0.1427  0.1952  0.1661
 4005SOL     OW23647   1.481   0.380  15.953 -0.0088  0.3248  0.4395
 4005SOL    HW123648   1.485   0.413  15.863  0.6743  1.2359  0.7941
 4005SOL    HW223649   1.560   0.424  15.986  1.3774 -0.5883 -1.6701
 4006SOL     OW23650   2.963   3.230   7.935 -0.0709  0.2037  0.0915
 4006SOL    HW123651   2.893   3.274   7.886  0.9938  0.3877 -1.2835
 4006SOL    HW223652   3.035   3.268   7.885 -2.0878  1.4763 -1.9114
 4007SOL     OW23653   4.205   1.871   2.938 -0.1279 -0.0516 -0.5140
 4007SOL    HW123654   4.113   1.894   2.950  0.1199  1.8158 -2.0841
 4007SOL    HW223655   4.244   1.916   3.013 -0.7651  0.4104 -0.4629
 4008SOL     OW23656   0.420   0.135   4.927 -0.2861 -0.0380  0.3029
 4008SOL    HW123657   0.426   0.092   5.012 -0.0645 -0.6666 -0.0367
 4008SOL    HW223658   0.463   0.216   4.954 -0.2753 -0.2704  0.9904
 4009SOL     OW23659   0.940   2.339   6.241  0.9162 -0.0028  0.4073
 4009SOL    HW123660   0.966   2.430   6.258 -0.1163  0.8497 -2.6257
 4009SOL    HW223661   0.883   2.351   6.166  0.0846  0.5818  1.1368
 4010SOL     OW23662   1.052   4.329  13.566  0.5386  0.3662  0.4395
 4010SOL    HW123663   0.966   4.294  13.544 -0.1988  1.7780  1.0824
 4010SOL    HW223664   1.030   4.407  13.616 -0.5240 -0.0772  0.6517
 4011SOL     OW23665   2.420   0.269   1.737  0.1316 -0.2040 -0.6568
 4011SOL    HW123666   2.471   0.245   1.660  0.6651  1.7171 -0.8929
 4011SOL    HW223667   2.454   0.200   1.794  0.2315  0.4088  0.0306
 4012SOL     OW23668   0.434   2.129   7.418 -0.2647  0.3793  0.0554
 4012SOL    HW123669   0.429   2.090   7.505 -0.8479 -1.1405 -0.6389
 4012SOL    HW223670   0.475   2.049   7.383  0.9334  0.6296  0.8798
 4013SOL     OW23671   3.805   0.525   5.897 -0.8168  0.0390  0.3857
 4013SOL    HW123672   3.874   0.590   5.911 -2.4741  1.8786 -0.0381
 4013SOL    HW223673   3.752   0.537   5.975 -0.7588 -0.1264  0.4503
 4014SOL     OW23674   0.834   3.840   8.595 -0.2024  0.6853 -0.6450
 4014SOL    HW123675   0.869   3.840   8.507 -0.0839 -1.3383 -0.5897
 4014SOL    HW223676   0.787   3.924   8.596 -0.0334  0.7905 -2.6214
 4015SOL     OW23677   1.432   2.851   4.459  0.7488  0.2786  0.0286
 4015SOL    HW123678   1.371   2.916   4.494 -0.0874 -1.0342  1.0124
 4015SOL    HW223679   1.503   2.914   4.454  1.4326 -0.4182  0.9979
 4016SOL     OW23680   0.670   4.092   2.463 -0.0218 -0.1913  0.1047
 4016SOL    HW123681   0.741   4.037   2.429 -0.1590  0.4358 -1.1767
 4016SOL    HW223682   0.715   4.176   2.455 -1.2946  0.4612 -0.1626
 4017SOL     OW23683   3.100   2.855   2.906 -0.1232 -0.1153 -0.5870
 4017SOL    HW123684   3.180   2.875   2.858 -1.7983  0.1150 -3.2515
 4017SOL    HW223685   3.100   2.760   2.909  0.5740 -0.0292  1.9443
 4018SOL     OW23686   2.384   3.835   3.932 -0.1062 -0.2955  0.2893
 4018SOL    HW123687   2.324   3.902   3.965 -0.4953 -0.9672  0.9602
 4018SOL    HW223688   2.459   3.860   3.986  0.4106  0.9539 -0.9952
 4019SOL     OW23689   1.811   0.884   5.089 -0.0422 -0.0085 -0.3379
 4019SOL    HW123690   1.858   0.814   5.135  0.0503  0.3362  0.0983
 4019SOL    HW223691   1.722   0.861   5.112  0.2000 -0.6915 -0.0973
 4020SOL     OW23692   0.829   4.323   8.479  0.4053 -0.7423  0.0106
 4020SOL    HW123693   0.822   4.272   8.560 -1.1221 -0.0033  0.3333
 4020SOL    HW223694   0.924   4.322   8.469  0.4696 -2.5842  0.8369
 4021SOL     OW23695   0.870   3.716  17.384 -0.8715  0.5594  0.6536
 4021SOL    HW123696   0.812   3.788  17.409  0.9603  3.1170 -2.4613
 4021SOL    HW223697   0.814   3.661  17.329 -1.2653 -0.0349  1.6478
 4022SOL     OW23698   0.961   3.869   8.855 -0.2691  0.3097 -0.1534
 4022SOL    HW123699   1.030   3.803   8.862  0.1336  0.7743  0.2075
 4022SOL    HW223700   0.927   3.851   8.767 -0.1462  1.6805 -0.4675
 4023SOL     OW23701   0.209   1.814   7.548 -0.7897  0.1261 -0.5369
 4023SOL    HW123702   0.289   1.867   7.549  0.1500 -1.2950 -0.5981
 4023SOL    HW223703   0.223   1.776   7.461 -2.7446 -4.4385  1.1455
 4024SOL     OW23704   1.022   1.888   2.201 -0.3650 -1.0431  0.1093
 4024SOL    HW123705   0.992   1.812   2.251 -0.0386 -1.0298  0.3231
 4024SOL    HW223706   1.046   1.836   2.124 -1.0794  0.0156 -0.8230
 4025SOL     OW23707   0.529   2.902  15.514  0.4247 -0.1849  0.5586
 4025SOL    HW123708   0.538   2.898  15.419  1.7259 -0.1509  0.6873
 4025SOL    HW223709   0.475   2.980  15.530 -0.4265 -1.1673  2.3924
 4026SOL     OW23710   4.343   1.855   9.056  0.0032 -0.1739 -0.5675
 4026SOL    HW123711   4.385   1.941   9.063  0.3505 -0.4779  1.1723
 4026SOL    HW223712   4.254   1.887   9.039 -0.3413 -0.6927  0.2324
 4027SOL     OW23713   0.424   2.472   8.852 -0.5650  0.1948  0.5593
 4027SOL    HW123714   0.341   2.518   8.857 -0.0928  1.4356 -3.0706
 4027SOL    HW223715   0.451   2.454   8.943  0.0129 -0.1924  0.3137
 4028SOL     OW23716   3.310   4.032   3.753  0.1571  0.0310 -0.1429
 4028SOL    HW123717   3.311   3.937   3.736  1.9809 -0.1288  0.8225
 4028SOL    HW223718   3.219   4.039   3.782  0.3120 -1.3674  0.6896
 4029SOL     OW23719   2.300   3.734   6.886  0.0449  0.0735  0.3677
 4029SOL    HW123720   2.259   3.678   6.951  2.0758 -1.4248  0.3601
 4029SOL    HW223721   2.393   3.712   6.881 -0.2125 -0.6880 -0.9124
 4030SOL     OW23722   1.872   1.858   4.408 -0.1449 -0.4431  0.7064
 4030SOL    HW123723   1.842   1.917   4.338  2.1200  0.9913  0.9466
 4030SOL    HW223724   1.956   1.841   4.365 -0.3864 -1.9549  0.8351
 4031SOL     OW23725   3.284   4.378  17.455  1.0600 -0.4857  0.0922
 4031SOL    HW123726   3.256   4.287  17.465 -1.5363  0.2537 -0.2803
 4031SOL    HW223727   3.378   4.362  17.462  0.8977  0.3125  3.6222
 4032SOL     OW23728   0.401   0.296   5.952  0.3062 -0.2539  1.0395
 4032SOL    HW123729   0.458   0.368   5.926  0.4761 -1.4427 -1.9364
 4032SOL    HW223730   0.319   0.342   5.931  0.1554 -0.5269  1.0199
 4033SOL     OW23731   4.421   3.011   1.870  0.0955  0.0519  0.4345
 4033SOL    HW123732   4.382   2.946   1.813  0.6779 -0.0014  0.0960
 4033SOL    HW223733   4.512   3.012   1.841  0.0490  2.4621  0.3525
 4034SOL     OW23734   4.277   0.917   7.347 -0.0718  0.1697  0.3616
 4034SOL    HW123735   4.205   0.922   7.410  1.7519  0.6860  2.3701
 4034SOL    HW223736   4.261   0.824   7.331 -0.9814  0.4432 -0.3537
 4035SOL     OW23737   3.483   3.304   9.546  0.0264  0.5459  0.0627
 4035SOL    HW123738   3.487   3.303   9.642  0.7246  0.6627  0.0380
 4035SOL    HW223739   3.433   3.223   9.548  1.7471 -0.5395 -1.0207
 4036SOL     OW23740   1.491   1.161   7.197  0.2890  0.2509 -0.1693
 4036SOL    HW123741   1.471   1.130   7.285  0.5035  0.9719  0.1339
 4036SOL    HW223742   1.507   1.074   7.162  0.0469  0.8779 -1.8199
 4037SOL     OW23743   4.671   1.532   0.940 -0.4035 -0.2907  0.0536
 4037SOL    HW123744   0.001   1.599   0.927  0.0891 -0.8044 -0.0624
 4037SOL    HW223745   4.680   1.522   1.034  0.6241 -2.1682 -0.2456
 4038SOL     OW23746   2.685   4.073   2.766 -0.1877  0.0373  1.1050
 4038SOL    HW123747   2.652   4.137   2.829 -2.6225 -1.1044  1.0150
 4038SOL    HW223748   2.611   4.082   2.706  0.3801 -1.1009  0.2317
 4039SOL     OW23749   1.374   1.425   6.117 -0.1653 -0.3235  0.2011
 4039SOL    HW123750   1.322   1.384   6.187 -0.3292 -1.2579 -0.4719
 4039SOL    HW223751   1.328   1.390   6.041 -1.1542 -0.4721  0.8615
 4040SOL     OW23752   2.129   2.318  13.388 -0.2153  0.3296 -0.1126
 4040SOL    HW123753   2.214   2.348  13.357 -0.1740  1.4065  1.0975
 4040SOL    HW223754   2.136   2.222  13.382 -1.1913  0.1640  1.4464
 4041SOL     OW23755   1.392   2.732   8.452  0.0823 -0.4258 -0.2574
 4041SOL    HW123756   1.431   2.700   8.371 -0.9957 -1.7471 -0.2601
 4041SOL    HW223757   1.394   2.824   8.425 -1.6541 -0.6863 -1.2791
 4042SOL     OW23758   3.825   3.731   2.641 -0.9181 -0.0770  0.0431
 4042SOL    HW123759   3.765   3.805   2.642 -2.0428 -0.9742 -0.9200
 4042SOL    HW223760   3.830   3.713   2.547 -0.5871 -0.1443  0.0740
 4043SOL     OW23761   1.405   3.347   3.774 -0.3171  0.2610 -0.1651
 4043SOL    HW123762   1.496   3.365   3.799 -0.4057  1.4376 -0.7162
 4043SOL    HW223763   1.353   3.378   3.848 -2.1927 -1.5964 -0.6962
 4044SOL     OW23764   3.635   1.045   0.953  0.0432 -0.2272  0.4287
 4044SOL    HW123765   3.681   0.992   1.018  2.0630  0.0941 -0.7273
 4044SOL    HW223766   3.560   0.990   0.933 -0.6614  0.0233  2.4352
 4045SOL     OW23767   1.539   3.234   1.969 -0.2322  0.0303 -0.0671
 4045SOL    HW123768   1.487   3.283   2.034  0.4524  0.9207 -0.1997
 4045SOL    HW223769   1.597   3.304   1.940 -1.9457  1.0929 -0.9055
 4046SOL     OW23770   3.009   4.487   1.147  0.2342  0.1226 -0.6538
 4046SOL    HW123771   3.077   4.550   1.122  0.7622  0.1520  0.8506
 4046SOL    HW223772   2.988   4.450   1.061 -1.8107 -0.1922 -0.0318
 4047SOL     OW23773   1.964   0.152   6.852  0.5289 -0.3886  0.3066
 4047SOL    HW123774   1.927   0.119   6.770 -0.1064 -0.1715  0.5044
 4047SOL    HW223775   2.059   0.145   6.840  0.6562  0.4919  0.7371
 4048SOL     OW23776   1.620   3.262   6.390  0.7268 -0.2057  0.1452
 4048SOL    HW123777   1.715   3.259   6.403  0.9614 -0.5304 -1.7769
 4048SOL    HW223778   1.584   3.225   6.471  1.2470  1.2826  1.0587
 4049SOL     OW23779   3.354   1.454   7.932 -0.2046 -0.7612 -0.0786
 4049SOL    HW123780   3.287   1.388   7.911 -0.1325 -0.3925 -1.4886
 4049SOL    HW223781   3.413   1.439   7.858 -0.0831  1.1056 -0.3708
 4050SOL     OW23782   2.863   1.010   3.171 -0.0349 -0.0952 -0.2215
 4050SOL    HW123783   2.875   1.094   3.215 -0.1832 -1.0141  1.6018
 4050SOL    HW223784   2.815   0.956   3.235  0.2773  0.1442  0.2182
 4051SOL     OW23785   4.674   2.919   5.518 -0.4952 -0.8769 -0.3886
 4051SOL    HW123786   4.658   2.880   5.432 -1.6412 -0.3506 -0.4164
 4051SOL    HW223787   4.683   2.845   5.578 -0.8790 -2.0063 -1.7248
 4052SOL     OW23788   1.851   2.804  13.890  0.0179  0.2134 -0.5262
 4052SOL    HW123789   1.788   2.752  13.841  0.0904 -0.9158  0.5850
 4052SOL    HW223790   1.798   2.880  13.913  0.2455 -0.2452  1.5254
 4053SOL     OW23791   0.521   2.365   2.125 -0.5302 -0.6597 -0.2888
 4053SOL    HW123792   0.531   2.321   2.210 -1.6008  0.9760  0.7039
 4053SOL    HW223793   0.463   2.433   2.160 -1.0374 -0.2525 -1.9440
 4054SOL     OW23794   3.976   1.986  11.107  0.1580 -0.1246  0.5640
 4054SOL    HW123795   3.944   2.031  11.029  0.5666 -0.0905  0.4160
 4054SOL    HW223796   4.068   2.010  11.107 -0.0211  0.5900  1.4598
 4055SOL     OW23797   1.655   3.934   7.811  0.3587 -0.5253 -0.0096
 4055SOL    HW123798   1.628   3.981   7.890  0.7592  0.5861 -0.5361
 4055SOL    HW223799   1.749   3.950   7.816  0.3447 -0.2951 -0.4956
 4056SOL     OW23800   1.389   0.020   4.073  0.3465 -0.2433 -0.5388
 4056SOL    HW123801   1.400   4.680   4.129 -0.7089 -2.2695 -3.0968
 4056SOL    HW223802   1.371   4.709   3.993  1.4173  0.3728 -1.1538
 4057SOL     OW23803   1.775   0.448   5.931 -0.6671  0.3771  0.6659
 4057SOL    HW123804   1.756   0.499   5.853  0.7082 -0.7302 -0.3927
 4057SOL    HW223805   1.791   0.516   5.996 -0.2569  1.7304 -0.8483
 4058SOL     OW23806   3.179   3.736  13.009 -0.1466 -0.4373 -0.3618
 4058SOL    HW123807   3.199   3.808  12.950  2.4813 -0.0733  0.9817
 4058SOL    HW223808   3.201   3.655  12.963 -0.1407 -0.6036 -0.0708
 4059SOL     OW23809   0.745   0.869   1.985  0.1309 -0.3105  0.3232
 4059SOL    HW123810   0.664   0.847   2.031  0.0256  0.5620  0.5521
 4059SOL    HW223811   0.764   0.784   1.945 -0.5519 -1.7743  3.1005
 4060SOL     OW23812   0.820   1.772   7.284 -0.0863 -0.1176  0.5484
 4060SOL    HW123813   0.901   1.763   7.333  1.8519 -0.9319 -2.7629
 4060SOL    HW223814   0.851   1.739   7.199 -1.6102  1.9435 -0.8185
 4061SOL     OW23815   0.158   3.930  17.141  0.2627 -0.2776 -0.3847
 4061SOL    HW123816   0.094   4.000  17.154  0.5647  0.0947 -0.8871
 4061SOL    HW223817   0.222   3.962  17.205 -2.7271  1.8600  1.5339
 4062SOL     OW23818   1.286   3.876  10.785 -0.0490  0.3348  0.0397
 4062SOL    HW123819   1.318   3.937  10.718  2.6799 -1.0562  0.0607
 4062SOL    HW223820   1.195   3.877  10.755 -0.1753 -0.3630  0.3961
 4063SOL     OW23821   2.213   3.673   4.445  0.1872  0.2047  0.2307
 4063SOL    HW123822   2.208   3.638   4.535  1.9188 -0.0529  0.2303
 4063SOL    HW223823   2.217   3.588   4.401 -0.3581  2.7132 -4.5853
 4064SOL     OW23824   0.220   1.647   4.467  0.5777  0.3235  0.1247
 4064SOL    HW123825   0.283   1.719   4.468  0.7298  0.1875  1.1798
 4064SOL    HW223826   0.203   1.634   4.560 -0.2841 -0.3622 -0.1310
 4065SOL     OW23827   0.822   3.718  12.842 -0.1728 -0.1511 -0.2328
 4065SOL    HW123828   0.801   3.805  12.877  2.7861 -0.7132  2.8472
 4065SOL    HW223829   0.914   3.730  12.820  0.4218 -0.3933  2.1179
 4066SOL     OW23830   0.670   0.218   9.644 -0.1215  0.3603  0.1850
 4066SOL    HW123831   0.623   0.137   9.663 -1.6302  0.4958 -2.9463
 4066SOL    HW223832   0.705   0.198   9.557  0.9290  0.9376  0.4742
 4067SOL     OW23833   2.252   1.775  16.843  0.1043 -0.5416 -0.1190
 4067SOL    HW123834   2.164   1.808  16.857  0.6063  0.9511 -0.4999
 4067SOL    HW223835   2.298   1.794  16.925  1.5304 -1.2414 -0.7433
 4068SOL     OW23836   2.602   3.610   3.485 -0.6711 -0.6072 -0.2188
 4068SOL    HW123837   2.528   3.609   3.424 -0.0643  0.2249 -0.9626
 4068SOL    HW223838   2.594   3.523   3.526  0.7436 -0.8238 -0.3934
 4069SOL     OW23839   4.368   4.244  14.477 -0.2586 -0.0292 -0.3254
 4069SOL    HW123840   4.306   4.171  14.475 -0.6483  0.3562 -2.0784
 4069SOL    HW223841   4.310   4.317  14.455 -1.4481 -1.2051 -1.0726
 4070SOL     OW23842   2.637   3.172  11.881  0.6190  0.1564 -0.2005
 4070SOL    HW123843   2.587   3.142  11.956  0.0593 -1.1475 -1.0879
 4070SOL    HW223844   2.611   3.109  11.813  1.0227 -1.1907  0.9036
 4071SOL     OW23845   1.038   0.793   1.939  0.3410 -0.3285 -0.4267
 4071SOL    HW123846   1.059   0.736   1.866 -0.6334 -0.2127 -0.8088
 4071SOL    HW223847   1.039   0.877   1.892 -2.7220  0.5364  1.0055
 4072SOL     OW23848   1.281   4.069   5.350 -0.2397  0.7261  0.7398
 4072SOL    HW123849   1.340   4.116   5.409  1.7410  0.6135 -1.1012
 4072SOL    HW223850   1.217   4.133   5.320 -0.4654 -0.9784 -2.5049
 4073SOL     OW23851   0.305   3.677   1.534 -0.2388  0.5033  0.2472
 4073SOL    HW123852   0.341   3.712   1.453  0.1469  0.4866  0.4116
 4073SOL    HW223853   0.379   3.626   1.567  1.0429  2.9256  1.1067
 4074SOL     OW23854   1.939   1.576   7.004 -0.5154  0.2540  0.5641
 4074SOL    HW123855   2.009   1.556   7.066 -0.2475  1.6109  0.6938
 4074SOL    HW223856   1.869   1.553   7.065 -1.1121  0.1044 -0.1771
 4075SOL     OW23857   3.723   2.672   7.345 -0.0710  0.2116 -0.5722
 4075SOL    HW123858   3.727   2.623   7.263  1.3163  0.7196 -0.8049
 4075SOL    HW223859   3.812   2.706   7.344  0.3252 -0.7441  2.3177
 4076SOL     OW23860   1.386   2.516   3.476 -0.0857  0.1472 -0.3606
 4076SOL    HW123861   1.366   2.431   3.437 -0.0426 -0.1933  0.3701
 4076SOL    HW223862   1.372   2.586   3.412 -0.4312 -1.5332 -2.1182
 4077SOL     OW23863   2.502   0.473   4.720 -0.0500  0.0670  0.6552
 4077SOL    HW123864   2.590   0.511   4.726 -1.1106  2.6665 -0.2646
 4077SOL    HW223865   2.481   0.507   4.807  0.8294  1.4425  0.3243
 4078SOL     OW23866   1.271   3.377   5.683  0.3655  0.7191  0.3469
 4078SOL    HW123867   1.354   3.375   5.730  0.3667 -1.2643  0.2471
 4078SOL    HW223868   1.220   3.309   5.728  0.4483 -0.0621 -0.7367
 4079SOL     OW23869   2.753   1.849   7.784  0.0545  0.5166  0.4281
 4079SOL    HW123870   2.722   1.931   7.823 -0.8723  0.4483 -0.1707
 4079SOL    HW223871   2.751   1.792   7.861 -2.0881  2.6396  1.9794
 4080SOL     OW23872   3.005   2.903   6.702 -0.1023 -0.2430  0.3804
 4080SOL    HW123873   3.085   2.944   6.666 -1.0040  1.9469  0.8674
 4080SOL    HW223874   3.057   2.846   6.759  2.5043  0.8395 -0.8844
 4081SOL     OW23875   1.256   3.339   7.209  0.0425 -0.0879  0.1078
 4081SOL    HW123876   1.186   3.376   7.263 -1.8226 -1.6047 -1.2577
 4081SOL    HW223877   1.294   3.290   7.282 -1.6783 -0.1150  0.9787
 4082SOL     OW23878   1.636   1.587  12.282 -0.0592  0.5399 -0.0029
 4082SOL    HW123879   1.730   1.598  12.270  0.1570 -0.0311  1.1543
 4082SOL    HW223880   1.619   1.673  12.319 -1.6158  0.6572 -0.9844
 4083SOL     OW23881   0.539   1.791  10.887 -0.5364  0.0122 -0.1498
 4083SOL    HW123882   0.555   1.880  10.921 -1.0458 -0.0889  0.3714
 4083SOL    HW223883   0.625   1.754  10.871 -0.5692 -0.8142  1.6021
 4084SOL     OW23884   3.444   0.600  13.100  0.0974 -0.5840  0.7287
 4084SOL    HW123885   3.527   0.589  13.145  0.4196 -0.7074  0.0970
 4084SOL    HW223886   3.466   0.626  13.011 -1.4881 -1.8029 -0.0228
 4085SOL     OW23887   1.725   2.140   1.809 -0.4170  0.0177 -0.5482
 4085SOL    HW123888   1.706   2.232   1.793 -1.5266  0.3635  2.7911
 4085SOL    HW223889   1.635   2.108   1.813 -0.4176  0.2072  0.8398
 4086SOL     OW23890   0.873   1.402   2.469 -0.1365  0.0675 -0.1755
 4086SOL    HW123891   0.929   1.429   2.542 -0.6804 -2.3608  1.1344
 4086SOL    HW223892   0.910   1.317   2.445  0.4018 -0.1085  1.2863
 4087SOL     OW23893   3.410   2.527   7.201 -0.2041 -0.3023 -0.1506
 4087SOL    HW123894   3.506   2.533   7.200 -0.3826  2.2647 -2.1613
 4087SOL    HW223895   3.390   2.553   7.112  0.5603  2.5319  0.5001
 4088SOL     OW23896   2.559   2.343  10.515 -0.5949 -0.2667 -0.3607
 4088SOL    HW123897   2.464   2.343  10.500 -0.7600 -0.4674  0.6897
 4088SOL    HW223898   2.564   2.325  10.609  0.7414  0.5375 -0.2897
 4089SOL     OW23899   0.096   3.979   5.513 -0.5464 -0.0973 -0.0834
 4089SOL    HW123900   0.189   3.961   5.500 -0.5855  0.1734 -0.7286
 4089SOL    HW223901   0.077   3.967   5.606 -1.0637 -0.7005 -0.2663
 4090SOL     OW23902   1.346   2.339   2.774 -0.2574  0.3014  0.2682
 4090SOL    HW123903   1.427   2.295   2.748 -0.3780  0.2570 -0.0368
 4090SOL    HW223904   1.282   2.273   2.748 -1.0172  0.1276  2.5479
 4091SOL     OW23905   3.407   1.246   0.778 -0.2868  0.7274  0.5083
 4091SOL    HW123906   3.348   1.303   0.729  2.0116  1.8960 -0.9464
 4091SOL    HW223907   3.344   1.184   0.813  0.2759 -1.9944 -3.2951
 4092SOL     OW23908   3.318   4.322   2.265 -0.3833  0.3151 -0.3480
 4092SOL    HW123909   3.285   4.408   2.240  0.8605  0.3943 -1.7002
 4092SOL    HW223910   3.238   4.293   2.310  1.2203 -1.1619  1.5712
 4093SOL     OW23911   2.077   2.818   7.050  0.1082  0.0760 -0.9164
 4093SOL    HW123912   2.072   2.726   7.075  1.2889  0.5673  1.0935
 4093SOL    HW223913   2.078   2.859   7.136  1.7984 -1.1750 -0.3523
 4094SOL     OW23914   4.021   4.630   4.556  0.5298  0.4541 -0.0411
 4094SOL    HW123915   4.078   4.559   4.585 -0.1021 -0.6538 -1.5387
 4094SOL    HW223916   3.955   4.647   4.623  0.7552  1.3462 -0.0376
 4095SOL     OW23917   1.079   0.214   8.157  0.6309  0.7509  0.1200
 4095SOL    HW123918   1.003   0.256   8.196  0.2241  0.5728 -0.4942
 4095SOL    HW223919   1.072   0.242   8.066  1.4536 -0.0844 -0.2024
 4096SOL     OW23920   2.952   3.579  12.851  0.3842  0.3938  0.2660
 4096SOL    HW123921   2.980   3.540  12.934  1.7069  0.0336 -0.3539
 4096SOL    HW223922   2.857   3.582  12.865  0.3064  1.9096 -0.6324
 4097SOL     OW23923   1.704   2.996   1.774  0.0198  0.2970 -0.7537
 4097SOL    HW123924   1.752   3.054   1.715 -0.4729  0.7412 -0.7244
 4097SOL    HW223925   1.774   2.949   1.819 -1.2045 -0.3420  0.4916
 4098SOL     OW23926   4.254   0.743   2.615  0.4234 -0.0292  0.1591
 4098SOL    HW123927   4.331   0.726   2.669 -0.2863  0.6661  1.4023
 4098SOL    HW223928   4.285   0.713   2.530 -0.4481  0.4395 -0.3176
 4099SOL     OW23929   4.256   1.276   5.008 -0.3694  0.4232  0.0697
 4099SOL    HW123930   4.345   1.302   5.030 -0.9220  2.4497 -0.0016
 4099SOL    HW223931   4.213   1.309   5.087  0.0782 -0.9064  0.8640
 4100SOL     OW23932   4.117   4.133   2.398 -0.2396 -0.0972  0.1403
 4100SOL    HW123933   4.107   4.108   2.490  0.2936  1.7123  0.6688
 4100SOL    HW223934   4.165   4.056   2.367  2.1244  0.9609  1.2623
 4101SOL     OW23935   0.766   3.633  12.538  0.3131  0.5335 -0.0811
 4101SOL    HW123936   0.799   3.648  12.627  0.3877  1.5047 -0.2815
 4101SOL    HW223937   0.704   3.705  12.531  0.3820  0.3656 -2.1870
 4102SOL     OW23938   2.357   1.773  15.910  0.3646  0.2403  0.4284
 4102SOL    HW123939   2.334   1.847  15.854  2.6376  0.8269  0.2788
 4102SOL    HW223940   2.397   1.810  15.989 -1.1020 -0.1172  1.3598
 4103SOL     OW23941   4.104   2.053   4.672 -0.5240  0.1192  0.5153
 4103SOL    HW123942   4.155   2.003   4.608 -0.6914  1.3802 -0.5837
 4103SOL    HW223943   4.113   2.001   4.752 -2.3220  1.1499  1.3814
 4104SOL     OW23944   0.628   2.571   2.439  0.3709 -0.5180  0.1338
 4104SOL    HW123945   0.691   2.601   2.374 -1.3819 -3.0290 -2.7118
 4104SOL    HW223946   0.590   2.653   2.471 -0.2656 -1.7629  2.5402
 4105SOL     OW23947   4.473   3.937   7.737  0.4506 -0.2315  0.1376
 4105SOL    HW123948   4.566   3.951   7.718  0.5203  0.0775  0.7111
 4105SOL    HW223949   4.440   4.027   7.733  0.9276  0.0923  3.1773
 4106SOL     OW23950   3.093   3.653   6.633  0.1173  0.4917 -0.5837
 4106SOL    HW123951   3.113   3.566   6.599  1.6027 -0.7369  3.4630
 4106SOL    HW223952   3.072   3.633   6.724  0.7214  2.6548  0.0204
 4107SOL     OW23953   4.633   2.136  14.643 -0.3240 -0.4857 -0.1283
 4107SOL    HW123954   4.647   2.197  14.716 -0.9267  0.1801 -0.5721
 4107SOL    HW223955   4.621   2.192  14.567  2.3234  0.7112  0.3162
 4108SOL     OW23956   0.454   2.773   6.917 -0.1198  0.3211 -0.0876
 4108SOL    HW123957   0.406   2.854   6.935  0.2509  0.7020 -0.8345
 4108SOL    HW223958   0.535   2.789   6.966 -0.7607  2.5860  0.2252
 4109SOL     OW23959   0.175   3.892   6.535  0.0403 -0.3214 -0.6643
 4109SOL    HW123960   0.249   3.940   6.498 -0.7061  1.1574 -0.2463
 4109SOL    HW223961   0.127   3.950   6.593 -2.6036 -2.7276 -0.4759
 4110SOL     OW23962   1.474   4.645   5.501 -0.3210  0.1853 -0.9362
 4110SOL    HW123963   1.516   4.723   5.464 -0.8165 -0.0497 -1.9963
 4110SOL    HW223964   1.520   4.632   5.584  1.8402  1.0788 -1.9743
 4111SOL     OW23965   3.380   1.643   8.854 -0.0450  0.1982  0.2224
 4111SOL    HW123966   3.405   1.655   8.763 -0.0275 -0.9561  0.0721
 4111SOL    HW223967   3.308   1.580   8.847  1.3147 -1.2412 -0.8691
 4112SOL     OW23968   3.729   1.737   5.029  0.0643  0.1043  0.2651
 4112SOL    HW123969   3.817   1.773   5.013 -0.2328  0.9253  0.4804
 4112SOL    HW223970   3.677   1.816   5.041  1.6649  1.0316  1.0776
 4113SOL     OW23971   3.173   3.747   6.379  0.1214  0.1772 -0.0650
 4113SOL    HW123972   3.131   3.719   6.460 -0.8193 -1.1718 -1.0208
 4113SOL    HW223973   3.253   3.797   6.396 -0.3942  0.3698  1.8383
 4114SOL     OW23974   3.190   3.613   1.701 -0.4053 -0.0634 -0.6419
 4114SOL    HW123975   3.218   3.669   1.774 -0.6914 -1.7601  0.7626
 4114SOL    HW223976   3.204   3.679   1.633  0.7543  0.1377 -0.2062
 4115SOL     OW23977   3.599   0.207   8.990  0.5321  0.0909 -0.4098
 4115SOL    HW123978   3.630   0.289   9.030 -1.8082  0.2900  0.9568
 4115SOL    HW223979   3.658   0.144   9.031  0.0643 -0.2389 -0.2465
 4116SOL     OW23980   2.310   3.025   5.129 -0.0452 -0.0432 -0.3183
 4116SOL    HW123981   2.264   3.058   5.206  1.6513 -1.6452  1.3828
 4116SOL    HW223982   2.401   3.034   5.158  0.1904  0.8437 -1.3461
 4117SOL     OW23983   0.541   2.857   6.480 -0.2217  0.3694 -0.3800
 4117SOL    HW123984   0.578   2.920   6.418 -2.0330  1.8147  0.0116
 4117SOL    HW223985   0.461   2.895   6.515 -2.0129 -1.6910 -2.2673
 4118SOL     OW23986   1.836   3.936   8.787  0.0030 -0.6339 -0.3966
 4118SOL    HW123987   1.922   3.974   8.805  0.0114 -0.0447 -1.6525
 4118SOL    HW223988   1.802   3.913   8.874  1.1652 -0.2681  0.1577
 4119SOL     OW23989   3.024   4.300   0.946  0.1289  0.1152  0.3537
 4119SOL    HW123990   2.985   4.350   0.874 -0.6157  0.5009  1.0253
 4119SOL    HW223991   3.053   4.217   0.909  0.3988  0.6387 -0.6039
 4120SOL     OW23992   2.859   2.918   1.905 -0.0816 -0.5401  0.5529
 4120SOL    HW123993   2.922   2.885   1.841  0.1355  0.3365  0.3163
 4120SOL    HW223994   2.919   2.939   1.978  1.1012 -0.0659 -0.5575
 4121SOL     OW23995   2.498   0.423   0.639  0.2753  0.3796 -0.1505
 4121SOL    HW123996   2.568   0.358   0.635 -2.1743 -2.2310 -0.9646
 4121SOL    HW223997   2.419   0.382   0.674 -0.2254  1.3784 -0.1122
 4122SOL     OW23998   2.988   2.125   6.311 -0.1840 -0.0281  0.0392
 4122SOL    HW123999   3.072   2.171   6.315 -0.9781  1.3139  0.9696
 4122SOL    HW224000   2.948   2.166   6.388 -0.6693  0.7327 -0.6192
 4123SOL     OW24001   4.416   2.033   3.884 -0.0360 -0.3676  0.0387
 4123SOL    HW124002   4.332   1.989   3.900  0.7363 -1.5050  0.9705
 4123SOL    HW224003   4.397   2.098   3.816 -0.4135 -0.7020 -0.1742
 4124SOL     OW24004   3.658   4.190   9.915 -0.1036 -0.3875 -0.6453
 4124SOL    HW124005   3.657   4.279   9.951  0.9862 -0.8545  0.5381
 4124SOL    HW224006   3.615   4.139   9.985  1.2785 -0.7886 -0.0903
 4125SOL     OW24007   1.435   2.174   6.322 -0.2012  0.7376  0.3788
 4125SOL    HW124008   1.364   2.219   6.278  0.2180  1.1555  0.1360
 4125SOL    HW224009   1.405   2.088   6.352 -2.5197  1.5455  0.3385
 4126SOL     OW24010   1.873   4.545   0.991  0.7795  0.4494 -0.2489
 4126SOL    HW124011   1.900   4.536   1.083  0.1501 -0.4716 -0.1559
 4126SOL    HW224012   1.907   4.464   0.953 -0.1104  0.7977 -1.8022
 4127SOL     OW24013   2.357   4.329   4.608 -0.0459 -0.6812  0.2011
 4127SOL    HW124014   2.268   4.297   4.615  0.1288 -0.7238  2.5301
 4127SOL    HW224015   2.389   4.334   4.699  0.3889  0.8558 -0.0272
 4128SOL     OW24016   2.094   2.890   9.229  0.8373 -0.8432 -0.7857
 4128SOL    HW124017   2.034   2.841   9.284 -0.2709  0.4439 -0.8433
 4128SOL    HW224018   2.131   2.950   9.294  0.7463 -1.5046 -0.1193
 4129SOL     OW24019   1.119   2.961  16.563  0.0456  0.4924 -0.4469
 4129SOL    HW124020   1.059   2.912  16.618  0.9441  0.2395  0.3094
 4129SOL    HW224021   1.104   3.053  16.583 -0.4663  0.3837 -0.3340
 4130SOL     OW24022   0.955   0.780   2.228  0.0957  0.4319  0.5162
 4130SOL    HW124023   0.886   0.847   2.228  0.0142  0.3510  0.2292
 4130SOL    HW224024   0.930   0.715   2.162  1.6455 -1.4679  1.8404
 4131SOL     OW24025   3.321   0.842   7.911 -0.0884 -0.0024  0.6500
 4131SOL    HW124026   3.347   0.790   7.987 -2.1516 -2.0478 -0.0659
 4131SOL    HW224027   3.264   0.909   7.951  0.3400 -0.2442  1.6725
 4132SOL     OW24028   3.230   1.332   5.570  0.3076 -0.7195 -0.2366
 4132SOL    HW124029   3.221   1.399   5.637  1.3689 -1.1996  0.3893
 4132SOL    HW224030   3.260   1.384   5.495 -0.4753  0.8424  0.5458
 4133SOL     OW24031   2.546   1.761   1.990  0.0452 -0.3267 -0.2961
 4133SOL    HW124032   2.612   1.724   2.049  0.1013 -0.6559 -0.5626
 4133SOL    HW224033   2.536   1.845   2.034  2.8718 -0.6091  0.8990
 4134SOL     OW24034   1.077   2.296   7.413  0.1922  0.1487  0.4552
 4134SOL    HW124035   1.030   2.217   7.387  0.4346 -0.1187  0.8375
 4134SOL    HW224036   1.143   2.302   7.344 -0.5088 -0.3634 -0.2563
 4135SOL     OW24037   0.715   0.790  13.550  0.2189  0.1356 -0.2220
 4135SOL    HW124038   0.669   0.808  13.632  0.5134 -2.0730  0.4213
 4135SOL    HW224039   0.771   0.716  13.573  0.1109 -0.3093 -1.3524
 4136SOL     OW24040   2.957   0.416   7.470  0.0818  0.3254  0.2495
 4136SOL    HW124041   2.886   0.416   7.535 -0.9247 -0.3133 -0.8427
 4136SOL    HW224042   2.934   0.495   7.420  1.3887  0.9262  0.6148
 4137SOL     OW24043   2.373   3.839   9.935 -0.4067  0.6556  0.0842
 4137SOL    HW124044   2.286   3.798   9.935  0.0785 -0.3670  0.2805
 4137SOL    HW224045   2.361   3.913   9.876 -1.0837  0.4531 -0.0329
 4138SOL     OW24046   2.223   2.410   5.723 -0.6689  0.1847 -0.2447
 4138SOL    HW124047   2.140   2.446   5.692 -1.0403  1.1730  1.9254
 4138SOL    HW224048   2.200   2.397   5.815 -1.1791 -0.0112 -0.3970
 4139SOL     OW24049   1.676   2.307   4.108 -0.0279  0.3893  0.0165
 4139SOL    HW124050   1.680   2.396   4.144  0.2860 -0.4495  2.0840
 4139SOL    HW224051   1.703   2.318   4.017  0.0220 -0.5760 -0.0842
 4140SOL     OW24052   2.073   3.931   2.243 -0.1316 -0.0575  0.3604
 4140SOL    HW124053   2.053   4.009   2.294 -0.1982 -0.9179  1.6244
 4140SOL    HW224054   1.993   3.879   2.247 -0.1575 -0.1524 -1.2277
 4141SOL     OW24055   3.104   1.915   9.143 -0.3620  0.0527 -0.5387
 4141SOL    HW124056   3.102   1.994   9.197  0.1139 -0.6348  0.4896
 4141SOL    HW224057   3.012   1.887   9.146 -0.3027 -0.0207  0.7389
 4142SOL     OW24058   3.190   2.163   1.370  0.1914 -0.0789 -0.3085
 4142SOL    HW124059   3.168   2.145   1.278 -0.4800 -0.2975 -0.1048
 4142SOL    HW224060   3.266   2.105   1.369  0.8952  0.8022  2.6675
 4143SOL     OW24061   3.044   0.011  15.988 -0.4636 -0.5207  0.2631
 4143SOL    HW124062   3.060   4.709  16.074  1.6413  1.1631  0.6300
 4143SOL    HW224063   3.040   0.104  16.007 -0.7778 -0.1665 -1.5231
 4144SOL     OW24064   0.021   3.682  12.598 -0.2116 -0.0350 -0.1452
 4144SOL    HW124065   4.727   3.738  12.669 -0.6879  0.3119 -0.6259
 4144SOL    HW224066   0.065   3.746  12.542  1.7451  0.6654  2.1530
 4145SOL     OW24067   1.411   0.815  12.258 -1.1529  0.4061 -0.5204
 4145SOL    HW124068   1.505   0.813  12.275 -1.3783 -0.7462  0.5939
 4145SOL    HW224069   1.385   0.732  12.298  1.9641 -0.1365  0.3286
 4146SOL     OW24070   3.540   2.587   2.382 -0.1568  0.3504 -0.0561
 4146SOL    HW124071   3.570   2.614   2.469 -1.3811  0.7464  0.2380
 4146SOL    HW224072   3.459   2.537   2.393  1.4213 -1.6351  2.5992
 4147SOL     OW24073   0.036   0.895  12.664 -0.5344  0.0248  0.1603
 4147SOL    HW124074   4.698   0.910  12.606 -0.1057 -0.6789 -0.5783
 4147SOL    HW224075   0.112   0.928  12.616 -0.4984 -1.3241 -0.7237
 4148SOL     OW24076   3.459   0.556   3.492  0.2018 -0.4620  0.5566
 4148SOL    HW124077   3.462   0.626   3.557  1.3156 -1.0065  1.0914
 4148SOL    HW224078   3.505   0.487   3.540  0.1751 -0.5860  0.4053
 4149SOL     OW24079   2.227   0.948   3.662 -0.4000  0.4655  0.4713
 4149SOL    HW124080   2.252   0.896   3.585  2.3856 -2.5967  3.4047
 4149SOL    HW224081   2.141   0.983   3.640 -0.7132 -0.6243 -0.0416
 4150SOL     OW24082   1.824   2.198   7.939 -0.6526  0.1441  0.0112
 4150SOL    HW124083   1.883   2.257   7.987  0.7481  0.3537 -1.9459
 4150SOL    HW224084   1.861   2.110   7.947 -1.3857  0.0155  2.0670
 4151SOL     OW24085   4.013   0.793   2.036 -0.0183  0.0266 -0.1562
 4151SOL    HW124086   4.031   0.729   2.105  2.0638  0.2654 -0.4873
 4151SOL    HW224087   4.028   0.875   2.083 -0.0279  0.0809 -0.2483
 4152SOL     OW24088   0.995   2.570  14.286 -0.3973  0.0708 -0.2746
 4152SOL    HW124089   0.923   2.520  14.324  0.2583 -1.0266 -0.4806
 4152SOL    HW224090   0.946   2.611  14.215 -0.4361  0.0479 -0.2607
 4153SOL     OW24091   4.664   2.222   7.912 -0.3026  0.3410  0.3698
 4153SOL    HW124092   4.697   2.138   7.883 -0.9820  0.6819 -1.3974
 4153SOL    HW224093   4.621   2.251   7.831  2.0735  0.1017 -0.9641
 4154SOL     OW24094   4.705   1.564  14.992 -0.0105 -0.0322  0.0812
 4154SOL    HW124095   4.612   1.547  14.976 -0.4026  1.4562  0.6946
 4154SOL    HW224096   4.719   1.511  15.071 -3.1422  2.5250  2.3557
 4155SOL     OW24097   2.575   1.695   2.499  0.8790 -0.0016 -0.1301
 4155SOL    HW124098   2.483   1.706   2.477  1.2913  3.1138 -0.3008
 4155SOL    HW224099   2.609   1.659   2.418  1.3741  0.7191 -0.2452
 4156SOL     OW24100   1.307   3.041   4.608 -0.1853 -0.1216 -0.1086
 4156SOL    HW124101   1.261   3.123   4.589 -0.5929  0.1213  1.9088
 4156SOL    HW224102   1.273   3.022   4.695 -1.1712 -1.7144 -0.8471
 4157SOL     OW24103   3.691   3.725   0.091 -0.0277 -0.0472  0.3516
 4157SOL    HW124104   3.614   3.729   0.035 -0.0074 -0.3007  0.3030
 4157SOL    HW224105   3.740   3.651   0.054 -1.4872 -0.6435 -0.3858
 4158SOL     OW24106   0.703   4.255   5.562  0.1027 -0.3217  0.0910
 4158SOL    HW124107   0.726   4.226   5.474  0.5568  1.1610 -0.2877
 4158SOL    HW224108   0.665   4.339   5.537 -0.3040 -0.4191  0.3849
 4159SOL     OW24109   0.663   2.428  10.137  0.3440  0.3384 -0.3983
 4159SOL    HW124110   0.587   2.376  10.164  0.4433  0.0946 -0.5945
 4159SOL    HW224111   0.726   2.418  10.209 -1.1572  2.9278  1.3029
 4160SOL     OW24112   4.619   2.956   3.111  0.1635 -0.1413  0.3615
 4160SOL    HW124113   4.677   2.974   3.037  1.0984 -1.3583  0.7872
 4160SOL    HW224114   4.560   3.030   3.100  0.4782  0.2690  1.4142
 4161SOL     OW24115   2.370   0.870   5.308 -0.0954 -0.1315 -0.5773
 4161SOL    HW124116   2.410   0.785   5.326  2.3825  0.8902 -1.3045
 4161SOL    HW224117   2.436   0.922   5.262 -1.4633  1.8477 -0.3164
 4162SOL     OW24118   4.719   1.119   8.160  0.3463  0.1912 -0.5070
 4162SOL    HW124119   4.689   1.140   8.249 -2.1261  0.1165 -1.3358
 4162SOL    HW224120   0.002   1.025   8.163  0.8651  0.2849 -0.8620
 4163SOL     OW24121   2.257   3.469   8.618 -0.8488 -0.7486  0.3663
 4163SOL    HW124122   2.166   3.474   8.649 -0.0653  1.3225  2.4053
 4163SOL    HW224123   2.255   3.529   8.544 -1.5047  0.9660  1.7672
 4164SOL     OW24124   2.823   3.468   5.442  0.4158 -0.3732  0.0608
 4164SOL    HW124125   2.735   3.507   5.443  0.1143 -1.0342 -0.6012
 4164SOL    HW224126   2.845   3.468   5.349  1.4428 -1.8395  0.3101
 4165SOL     OW24127   4.137   0.710   3.771  0.1896  0.5085 -0.0225
 4165SOL    HW124128   4.080   0.786   3.762 -0.7472 -0.2197 -0.1968
 4165SOL    HW224129   4.089   0.637   3.733  0.7147 -0.5639  1.3791
 4166SOL     OW24130   1.563   0.269  11.712  0.0536 -0.2140  0.4680
 4166SOL    HW124131   1.563   0.176  11.735  0.6565 -0.5440 -0.8592
 4166SOL    HW224132   1.471   0.286  11.732  0.6791  0.1570  3.0460
 4167SOL     OW24133   2.012   4.399   9.663 -0.4754  0.2071 -0.4156
 4167SOL    HW124134   2.054   4.443   9.737 -0.0586 -2.5484  1.0060
 4167SOL    HW224135   2.042   4.463   9.599  0.9189  2.0902  2.1431
 4168SOL     OW24136   1.462   3.914   4.828  0.2551  0.3440  0.4831
 4168SOL    HW124137   1.472   3.888   4.920  0.8661 -0.4710  0.1804
 4168SOL    HW224138   1.466   3.828   4.788 -0.1357  0.8438 -0.6396
 4169SOL     OW24139   3.590   3.597   9.012  0.1906  0.5820 -0.1927
 4169SOL    HW124140   3.635   3.590   9.096  0.4188 -0.6989 -0.4270
 4169SOL    HW224141   3.609   3.517   8.963 -2.0544 -0.7917  1.1722
 4170SOL     OW24142   2.359   0.000  13.071 -0.6793  0.0478 -0.5592
 4170SOL    HW124143   2.311   4.676  13.127 -2.6077  1.0284 -1.1518
 4170SOL    HW224144   2.451   4.718  13.088 -0.6726  0.6064  0.0513
 4171SOL     OW24145   4.343   0.050  10.251 -0.0208 -0.3584  0.6554
 4171SOL    HW124146   4.258   0.030  10.211  0.5178  0.2845 -0.7889
 4171SOL    HW224147   4.357   4.703  10.296 -0.7514 -1.4615 -1.1666
 4172SOL     OW24148   1.521   2.612   2.441 -0.1125  0.0822 -0.0299
 4172SOL    HW124149   1.439   2.564   2.445 -0.5600  1.0172  2.5230
 4172SOL    HW224150   1.514   2.659   2.358  0.6534 -0.2476 -0.2820
 4173SOL     OW24151   0.603   0.044   4.157  0.1051  0.1859  0.2549
 4173SOL    HW124152   0.671   0.101   4.121  1.2558 -2.3490 -1.5288
 4173SOL    HW224153   0.546   0.043   4.081  2.1994  0.9264 -1.3363
 4174SOL     OW24154   1.967   2.251   6.327 -0.1039  0.4121 -0.1173
 4174SOL    HW124155   2.034   2.295   6.274 -0.0536 -1.5120 -1.6790
 4174SOL    HW224156   2.014   2.182   6.373 -1.0030 -0.5596 -0.6335
 4175SOL     OW24157   0.604   1.737   7.667  0.1317  0.1960  0.1019
 4175SOL    HW124158   0.687   1.784   7.666  0.3716 -0.2267  0.0595
 4175SOL    HW224159   0.615   1.672   7.737 -0.1046  1.2121  1.0738
 4176SOL     OW24160   1.063   4.284   8.796  0.5318  0.3069 -0.6025
 4176SOL    HW124161   1.060   4.362   8.741 -1.5648 -0.1914 -1.2148
 4176SOL    HW224162   1.000   4.310   8.862  0.6916  0.0327 -0.3412
 4177SOL     OW24163   3.515   2.767  14.258  0.6708  0.1204 -0.1395
 4177SOL    HW124164   3.591   2.727  14.301  2.0995  0.7762 -2.0354
 4177SOL    HW224165   3.464   2.687  14.257  0.9254 -0.0614  1.0768
 4178SOL     OW24166   4.574   4.118   3.819  0.5882 -0.0177 -0.3611
 4178SOL    HW124167   4.482   4.091   3.811 -0.2436  1.7488  2.9227
 4178SOL    HW224168   4.591   4.069   3.899 -1.3042  2.5694  1.6654
 4179SOL     OW24169   4.726   0.271   7.186 -0.1707  1.0182 -0.5502
 4179SOL    HW124170   4.713   0.288   7.093  0.3906 -2.0045 -1.2025
 4179SOL    HW224171   0.063   0.209   7.176 -1.9260 -1.0993 -0.3489
 4180SOL     OW24172   3.823   1.138   6.297 -0.3520  0.2461 -0.0686
 4180SOL    HW124173   3.767   1.200   6.344 -1.3855 -1.7008  1.2822
 4180SOL    HW224174   3.770   1.059   6.309 -0.4729  0.2475 -0.6176
 4181SOL     OW24175   2.664   4.619   5.238 -0.4794 -0.1757  0.0012
 4181SOL    HW124176   2.644   4.603   5.330  0.1599 -1.9469 -0.1536
 4181SOL    HW224177   2.719   4.545   5.211  0.7891 -0.2131  2.7109
 4182SOL     OW24178   0.863   1.217   9.630  0.5471 -0.3321 -0.0840
 4182SOL    HW124179   0.876   1.181   9.718 -0.6623 -0.0547  0.2140
 4182SOL    HW224180   0.912   1.150   9.584  0.2697 -0.5238 -0.1004
 4183SOL     OW24181   2.450   2.024   6.748 -0.0359  0.5943 -0.0708
 4183SOL    HW124182   2.503   2.088   6.794  2.3202 -1.3011 -0.1345
 4183SOL    HW224183   2.417   2.073   6.673 -0.7439 -0.7036 -0.6118
 4184SOL     OW24184   3.970   2.997   9.829  1.0267 -0.2164  0.4013
 4184SOL    HW124185   4.027   2.935   9.874  0.4962  0.9052  2.6355
 4184SOL    HW224186   3.885   2.961   9.855  0.9782 -0.6597 -0.3406
 4185SOL     OW24187   3.691   4.009   1.571 -0.5583 -0.4631  0.2752
 4185SOL    HW124188   3.783   3.994   1.548 -0.5467  0.1257 -0.0557
 4185SOL    HW224189   3.702   4.074   1.640 -0.0722 -2.4243  2.0493
 4186SOL     OW24190   3.091   4.643   5.063 -0.7340  0.0772 -0.2291
 4186SOL    HW124191   3.154   4.709   5.089 -0.0829 -0.1763 -1.1598
 4186SOL    HW224192   3.009   4.690   5.078 -0.0071  2.0517 -2.5858
 4187SOL     OW24193   1.557   2.940   6.371  0.1551 -0.0343 -0.3008
 4187SOL    HW124194   1.645   2.937   6.407  0.3403  0.0853 -0.7418
 4187SOL    HW224195   1.514   3.004   6.428  2.6469  1.9131 -0.6036
 4188SOL     OW24196   2.668   0.948   7.795  0.4152 -0.4215 -0.6364
 4188SOL    HW124197   2.706   0.872   7.751  1.4430 -0.2527 -0.0641
 4188SOL    HW224198   2.745   0.976   7.845  0.7357 -1.8858 -0.3089
 4189SOL     OW24199   2.275   3.901   7.687 -0.0815  0.1956  0.4625
 4189SOL    HW124200   2.238   3.939   7.767  0.4560 -0.1860  0.8908
 4189SOL    HW224201   2.284   3.811   7.718 -1.3166 -0.5684 -1.4360
 4190SOL     OW24202   4.723   4.166  17.252 -0.4193 -0.2473  0.2798
 4190SOL    HW124203   4.631   4.173  17.229 -1.3042  0.0536  3.9185
 4190SOL    HW224204   4.731   4.179  17.346  0.4283  1.7131 -0.0512
 4191SOL     OW24205   0.206   1.675   8.445  0.0289  0.3790  0.3897
 4191SOL    HW124206   0.273   1.692   8.379  0.8557 -2.2105  0.5650
 4191SOL    HW224207   0.267   1.672   8.518  0.6996  1.2715 -0.1211
 4192SOL     OW24208   1.017   2.342   9.718  0.3642  0.2198  0.1571
 4192SOL    HW124209   1.033   2.248   9.719  0.2387  0.1996  0.2551
 4192SOL    HW224210   0.972   2.345   9.803  0.3782 -0.1957  0.1802
 4193SOL     OW24211   4.031   4.149  14.465  0.4375  0.0628 -0.5582
 4193SOL    HW124212   4.036   4.175  14.372  1.1734  1.1900 -0.2051
 4193SOL    HW224213   3.983   4.066  14.471  1.7264 -0.6898 -0.6555
 4194SOL     OW24214   0.980   0.342   6.312  0.1325  0.0008 -0.4935
 4194SOL    HW124215   1.034   0.271   6.346  1.3671  1.9564  1.6675
 4194SOL    HW224216   0.894   0.324   6.350 -0.7116  2.2898 -1.3314
 4195SOL     OW24217   4.324   1.619   8.457  0.3523 -0.3410  0.0076
 4195SOL    HW124218   4.260   1.679   8.417  0.9926  0.3516  0.0136
 4195SOL    HW224219   4.291   1.608   8.546  1.3147  0.1310  0.4182
 4196SOL     OW24220   2.596   2.194   0.334  0.0661  0.4160 -0.2958
 4196SOL    HW124221   2.537   2.243   0.276  0.5154  1.0488 -0.2160
 4196SOL    HW224222   2.673   2.196   0.277 -0.6350  1.5883 -1.2028
 4197SOL     OW24223   1.234   2.239   4.694  0.7167 -0.5384  0.0512
 4197SOL    HW124224   1.232   2.255   4.600 -1.3773  2.8027  0.6634
 4197SOL    HW224225   1.295   2.166   4.696  2.1477  0.6279 -1.0467
 4198SOL     OW24226   1.928   0.370   4.546 -0.4026 -0.0391 -0.7173
 4198SOL    HW124227   1.973   0.289   4.568  0.1076  0.2230 -0.7863
 4198SOL    HW224228   1.976   0.427   4.606 -1.3469 -0.8157  0.7638
 4199SOL     OW24229   0.320   3.809   9.480  0.2682  0.2031  0.7687
 4199SOL    HW124230   0.242   3.754   9.473  0.9894 -0.7932  0.6859
 4199SOL    HW224231   0.306   3.849   9.566  1.6334  1.4679  0.3988
 4200SOL     OW24232   2.728   2.670   4.336  0.7551 -0.5696 -0.5453
 4200SOL    HW124233   2.671   2.746   4.331  1.5833 -0.0269 -1.6366
 4200SOL    HW224234   2.743   2.648   4.244  0.5235 -0.7169 -0.5490
 4201SOL     OW24235   1.736   3.264  11.189  0.2199  0.0617 -0.5332
 4201SOL    HW124236   1.719   3.171  11.207 -2.2854  0.4685 -0.7897
 4201SOL    HW224237   1.674   3.277  11.118 -0.0009 -2.0432 -0.7383
 4202SOL     OW24238   3.589   4.323   2.884  0.2583 -0.2793  0.3287
 4202SOL    HW124239   3.541   4.318   2.801 -0.3147 -0.3765  0.6651
 4202SOL    HW224240   3.587   4.418   2.898 -0.8204  0.0411 -1.9413
 4203SOL     OW24241   2.494   4.168   1.446  0.3372  0.4993 -0.2509
 4203SOL    HW124242   2.488   4.182   1.541 -0.7824 -0.3734 -0.1832
 4203SOL    HW224243   2.562   4.229   1.418  1.7292 -1.1583 -0.4260
 4204SOL     OW24244   1.538   2.180   6.589 -0.2307  0.0187  0.0267
 4204SOL    HW124245   1.448   2.203   6.567  1.3246  2.6105 -3.6223
 4204SOL    HW224246   1.575   2.194   6.502 -2.1519 -1.1332 -0.9714
 4205SOL     OW24247   2.107   0.717   9.573  0.2658  0.0882  0.5792
 4205SOL    HW124248   2.093   0.626   9.601  1.3489  0.2091  1.5368
 4205SOL    HW224249   2.020   0.756   9.564  0.0426 -1.0338 -2.2793
 4206SOL     OW24250   4.251   3.232   9.458  0.2694 -0.5560  0.1171
 4206SOL    HW124251   4.197   3.197   9.529  0.3004  1.1248  0.9725
 4206SOL    HW224252   4.334   3.188   9.474  0.3085 -0.2845  0.6611
 4207SOL     OW24253   0.943   4.229   2.551  0.6580  0.5146  0.0405
 4207SOL    HW124254   0.891   4.248   2.630 -2.4621 -0.0276 -1.8820
 4207SOL    HW224255   0.975   4.148   2.590 -2.4813  0.1352  1.8977
 4208SOL     OW24256   1.018   1.713   3.318  0.3643 -0.0271 -0.6557
 4208SOL    HW124257   0.994   1.703   3.410  2.9763 -1.9761 -0.1693
 4208SOL    HW224258   1.075   1.638   3.301 -0.4279 -0.3252 -1.9642
 4209SOL     OW24259   2.775   4.730  11.794  0.0756 -0.1276 -0.6164
 4209SOL    HW124260   2.763   4.715  11.701  0.9446  0.6245 -0.8487
 4209SOL    HW224261   2.718   4.665  11.836  0.3627 -0.5832 -0.9322
 4210SOL     OW24262   3.595   3.968  10.136 -0.2351 -0.0549 -0.1081
 4210SOL    HW124263   3.632   3.880  10.133  0.0366  0.1393 -2.1765
 4210SOL    HW224264   3.504   3.952  10.112 -0.5902  1.2400  0.3615
 4211SOL     OW24265   3.676   1.258   0.767 -0.3845  0.1111 -0.1565
 4211SOL    HW124266   3.691   1.180   0.820  1.5729  0.6762  0.1093
 4211SOL    HW224267   3.591   1.234   0.730 -1.4979  3.6759  0.0810
 4212SOL     OW24268   1.107   0.220   7.120  0.0092 -0.1224 -0.2366
 4212SOL    HW124269   1.118   0.315   7.122 -0.8725  0.0107 -1.5896
 4212SOL    HW224270   1.090   0.209   7.213  0.0676 -1.0383 -0.3359
 4213SOL     OW24271   4.607   2.499  10.990  0.7174 -0.1816  0.5596
 4213SOL    HW124272   4.688   2.484  11.039 -0.0347 -0.0503  1.8278
 4213SOL    HW224273   4.640   2.473  10.904  2.6240  2.7267  0.4077
 4214SOL     OW24274   3.496   0.221   7.369  0.1271  0.2743 -0.2728
 4214SOL    HW124275   3.482   0.284   7.439 -1.1780  1.5880 -1.6846
 4214SOL    HW224276   3.583   0.185   7.384 -0.2458 -0.6645 -0.3861
 4215SOL     OW24277   2.126   2.587   9.443 -0.1597  0.3040  0.1187
 4215SOL    HW124278   2.061   2.658   9.438  0.0780  0.5702  0.7928
 4215SOL    HW224279   2.121   2.578   9.538 -0.2804 -1.8702 -0.1021
 4216SOL     OW24280   0.341   4.484   7.547  0.1826  0.7330  0.3422
 4216SOL    HW124281   0.313   4.401   7.587  1.3366  0.2818  0.2078
 4216SOL    HW224282   0.260   4.525   7.518 -0.5149 -0.2109  0.9410
 4217SOL     OW24283   3.688   4.633  14.583  0.4579 -0.4476 -0.8660
 4217SOL    HW124284   3.699   4.608  14.491  0.7052 -3.8988  0.1069
 4217SOL    HW224285   3.689   4.727  14.568 -2.2717 -0.3039 -0.1537
 4218SOL     OW24286   0.910   4.305   9.782 -0.2711  0.1776 -0.0984
 4218SOL    HW124287   0.833   4.268   9.738 -0.2999 -0.3274  0.3721
 4218SOL    HW224288   0.960   4.349   9.713 -1.6574  0.4390 -0.9145
 4219SOL     OW24289   2.926   3.998   2.518 -0.1282  0.1320 -0.4762
 4219SOL    HW124290   2.959   3.908   2.521 -1.2806 -0.2317  1.0919
 4219SOL    HW224291   2.949   4.026   2.606 -0.7402 -0.9530  0.0200
 4220SOL     OW24292   0.468   2.330  16.917  0.2166  0.8773 -0.4731
 4220SOL    HW124293   0.394   2.301  16.970  1.5813  1.2193  1.6133
 4220SOL    HW224294   0.484   2.421  16.942 -0.7614  0.7230  0.6931
 4221SOL     OW24295   2.996   2.784   8.966 -0.0473 -0.1739  0.2404
 4221SOL    HW124296   2.953   2.853   9.016  2.1139  0.5493  1.1390
 4221SOL    HW224297   2.922   2.723   8.959 -0.3039 -0.1450  2.6090
 4222SOL     OW24298   2.729   2.032   5.713 -0.0670 -0.1901  0.3690
 4222SOL    HW124299   2.783   2.107   5.738  0.4390 -0.6249  0.5980
 4222SOL    HW224300   2.715   2.039   5.618 -0.8060 -0.1671  0.4801
 4223SOL     OW24301   3.715   3.334  17.600  0.2198 -0.0521  0.0392
 4223SOL    HW124302   3.631   3.376  17.584 -0.2815 -1.2020 -0.3182
 4223SOL    HW224303   3.745   3.343  17.510  1.3074 -1.2430  0.2766
 4224SOL     OW24304   2.456   1.334   8.836  0.0017  0.4588 -0.0928
 4224SOL    HW124305   2.413   1.317   8.919 -0.2776 -1.7883 -0.6994
 4224SOL    HW224306   2.546   1.334   8.868 -0.4464  1.6595  1.1976
 4225SOL     OW24307   2.967   2.441   3.996 -0.3494 -0.0891  0.0996
 4225SOL    HW124308   2.940   2.531   4.012 -1.6813 -0.6664  1.0742
 4225SOL    HW224309   2.882   2.404   3.973  0.5715 -1.3402 -1.3292
 4226SOL     OW24310   2.436   0.136   4.906 -0.1417 -0.0200  0.5040
 4226SOL    HW124311   2.469   0.172   4.823 -1.1435  1.8260  0.9179
 4226SOL    HW224312   2.341   0.131   4.892 -0.2561  1.2347  0.8106
 4227SOL     OW24313   0.666   3.246   6.644 -0.0984 -0.1641 -0.3183
 4227SOL    HW124314   0.617   3.166   6.663 -0.4350  0.0639 -0.2245
 4227SOL    HW224315   0.671   3.242   6.549  1.3589 -0.7349 -0.2146
 4228SOL     OW24316   3.117   0.653   0.680  0.6014 -0.4914  0.1554
 4228SOL    HW124317   3.142   0.619   0.594 -0.5395 -2.7322  0.6868
 4228SOL    HW224318   3.097   0.567   0.718  3.3154 -1.4236 -0.5922
 4229SOL     OW24319   1.840   1.882   5.733  0.0951 -0.7646  0.2020
 4229SOL    HW124320   1.914   1.901   5.675  1.3460  2.6445  2.9161
 4229SOL    HW224321   1.876   1.913   5.816 -0.1973 -0.0826  0.0707
 4230SOL     OW24322   3.788   2.232  10.102 -0.3743 -0.7517 -0.4837
 4230SOL    HW124323   3.869   2.217  10.055 -0.2295 -1.2765 -0.0542
 4230SOL    HW224324   3.789   2.151  10.153 -1.8531  0.1178  0.9550
 4231SOL     OW24325   0.440   1.952   7.631 -0.2861 -0.0080 -0.5681
 4231SOL    HW124326   0.479   1.866   7.643  2.1296  1.3095  1.1486
 4231SOL    HW224327   0.500   2.006   7.683  2.5424 -1.9684 -1.7913
 4232SOL     OW24328   4.132   4.006   3.368  0.1229  0.1620 -0.1103
 4232SOL    HW124329   4.061   3.965   3.417 -0.2350 -0.3691 -1.0524
 4232SOL    HW224330   4.115   4.099   3.381  0.6433  0.3537 -0.8213
 4233SOL     OW24331   3.843   2.742   3.765 -0.1120  0.1108  0.3357
 4233SOL    HW124332   3.898   2.721   3.689  0.6680 -0.7672  1.1473
 4233SOL    HW224333   3.761   2.760   3.719  0.0610 -1.4382 -0.5827
 4234SOL     OW24334   3.223   2.890   8.665  0.3612  0.1241  0.0226
 4234SOL    HW124335   3.136   2.921   8.690  0.0300 -1.2130  0.5030
 4234SOL    HW224336   3.214   2.907   8.571  1.5311  0.7876  0.0392
 4235SOL     OW24337   1.913   0.931   8.615  0.1557  0.4046  0.4455
 4235SOL    HW124338   1.958   0.879   8.682  0.0060  1.7418  1.5874
 4235SOL    HW224339   1.872   0.861   8.564 -1.1438  1.3934  0.1384
 4236SOL     OW24340   0.505   1.640  10.657  0.3689 -0.4644  0.1019
 4236SOL    HW124341   0.463   1.708  10.709 -0.4852 -0.8256 -0.1143
 4236SOL    HW224342   0.597   1.659  10.671 -0.4130  1.3018  2.7945
 4237SOL     OW24343   4.712   1.317   9.235  0.3130 -0.4411 -0.2254
 4237SOL    HW124344   4.641   1.255   9.216  0.5576 -0.9247  0.4495
 4237SOL    HW224345   0.036   1.284   9.169 -0.9052 -0.2868 -1.4199
 4238SOL     OW24346   2.498   0.031   1.856  0.9893 -0.9121  0.6130
 4238SOL    HW124347   2.404   0.025   1.841  1.1689 -0.3739 -0.7175
 4238SOL    HW224348   2.525   4.694   1.801  2.7621  1.9232 -2.2732
 4239SOL     OW24349   4.503   3.500   7.303  0.1154 -0.2614 -0.3361
 4239SOL    HW124350   4.424   3.482   7.355 -0.1080 -1.0542 -0.9568
 4239SOL    HW224351   4.472   3.546   7.225 -0.5845 -1.9741 -1.0575
 4240SOL     OW24352   1.930   3.400   3.347 -0.4275 -0.1116 -0.3472
 4240SOL    HW124353   1.979   3.478   3.372 -1.0245 -0.2598  1.2819
 4240SOL    HW224354   1.920   3.434   3.258  0.9044 -0.3766 -0.5947
 4241SOL     OW24355   0.178   2.430   4.568  0.0172  0.5266 -0.7845
 4241SOL    HW124356   0.124   2.455   4.493 -2.0800 -2.0623 -0.1305
 4241SOL    HW224357   0.259   2.413   4.519  0.5952  1.3188 -0.0939
 4242SOL     OW24358   1.673   2.060  13.064  0.6120 -0.3252  0.1920
 4242SOL    HW124359   1.695   1.969  13.086  0.8108 -1.2610 -3.9348
 4242SOL    HW224360   1.583   2.046  13.036  1.2551 -2.4477 -0.7825
 4243SOL     OW24361   2.558   0.897   3.224 -0.0734  0.0022  0.1904
 4243SOL    HW124362   2.571   0.828   3.289  1.3527 -2.9076 -3.1775
 4243SOL    HW224363   2.527   0.970   3.277 -0.5902  0.0016 -0.1182
 4244SOL     OW24364   3.084   3.114   8.494 -0.5943 -0.0876 -0.4072
 4244SOL    HW124365   3.139   3.095   8.419  1.4133  0.8836  0.8260
 4244SOL    HW224366   3.091   3.209   8.489 -3.2785  0.1199 -0.1472
 4245SOL     OW24367   1.561   0.748   3.992  0.0918  0.8132 -0.0537
 4245SOL    HW124368   1.648   0.735   4.028  0.7082 -1.9360 -2.5955
 4245SOL    HW224369   1.521   0.803   4.059 -0.4914  0.2962  0.0252
 4246SOL     OW24370   2.172   0.448   4.143  1.3613 -0.6188  0.0854
 4246SOL    HW124371   2.085   0.483   4.128  0.5996 -2.1526  0.9312
 4246SOL    HW224372   2.147   0.367   4.187  1.1235 -2.5070 -3.5270
 4247SOL     OW24373   2.116   1.809   3.387  0.0178 -0.1872  0.1785
 4247SOL    HW124374   2.190   1.868   3.375  1.0108 -1.4185  0.1678
 4247SOL    HW224375   2.125   1.771   3.474 -2.9181  1.9604  1.3955
 4248SOL     OW24376   1.212   4.548   5.476  0.5208  0.1207  0.2250
 4248SOL    HW124377   1.299   4.587   5.467  1.2013 -1.4920 -0.2140
 4248SOL    HW224378   1.181   4.601   5.549  0.6573  0.2962  0.1565
 4249SOL     OW24379   1.512   4.648   2.200  0.5256  0.2426  0.3552
 4249SOL    HW124380   1.558   4.722   2.238 -1.3198  1.5275  0.0597
 4249SOL    HW224381   1.584   4.597   2.163 -0.4659 -0.0843 -1.1321
 4250SOL     OW24382   0.276   4.541   5.011  0.6511 -0.1009  0.4808
 4250SOL    HW124383   0.215   4.614   4.998 -1.0396 -1.9704 -2.1083
 4250SOL    HW224384   0.244   4.499   5.091 -1.4456 -2.3292 -1.5159
 4251SOL     OW24385   3.610   1.617   4.504 -0.1396  0.3048 -0.2048
 4251SOL    HW124386   3.584   1.694   4.554  0.0621 -0.0525  0.4582
 4251SOL    HW224387   3.671   1.577   4.566  1.2648 -0.5687 -2.1318
 4252SOL     OW24388   0.169   1.025   5.302  0.4283  0.4378  0.5538
 4252SOL    HW124389   0.250   1.029   5.352  0.4935 -2.6438  0.6602
 4252SOL    HW224390   0.139   1.116   5.311 -0.4651  0.2032 -0.0266
 4253SOL     OW24391   0.525   3.846   8.235 -0.1121 -0.7874  0.1782
 4253SOL    HW124392   0.461   3.916   8.221  1.4314  0.9019  1.5971
 4253SOL    HW224393   0.599   3.906   8.245 -1.6221  1.2778 -1.1302
 4254SOL     OW24394   0.589   3.555  12.848  0.5274  0.0302  0.6303
 4254SOL    HW124395   0.681   3.573  12.829  0.6598  0.5928  1.8617
 4254SOL    HW224396   0.553   3.539  12.760  0.0583 -2.4614  1.2787
 4255SOL     OW24397   1.563   4.020  14.268  0.4761 -0.0186 -0.1951
 4255SOL    HW124398   1.592   4.088  14.329 -1.5058 -0.9869  1.8434
 4255SOL    HW224399   1.630   4.009  14.201 -0.0805 -1.5747 -0.5038
 4256SOL     OW24400   3.067   3.618   7.662  0.6391 -0.5879  0.0184
 4256SOL    HW124401   3.037   3.537   7.620  1.5171  0.3051 -2.3316
 4256SOL    HW224402   2.984   3.660   7.685  0.2193  0.4544 -3.3307
 4257SOL     OW24403   3.625   1.007   2.650  0.0774 -0.3876  0.1326
 4257SOL    HW124404   3.596   0.975   2.564 -0.9748 -0.7565  0.6187
 4257SOL    HW224405   3.716   1.030   2.635 -0.1451 -0.8153 -1.9784
 4258SOL     OW24406   4.510   3.058   8.855  0.2493  0.3636 -0.0273
 4258SOL    HW124407   4.433   3.004   8.869 -0.4913  0.7237 -2.7611
 4258SOL    HW224408   4.478   3.148   8.843  1.3175  0.4100 -2.4626
 4259SOL     OW24409   3.599   1.099  10.527  0.0744  0.2371  0.3058
 4259SOL    HW124410   3.644   1.181  10.505 -1.2632  1.1806  1.0588
 4259SOL    HW224411   3.580   1.060  10.442  2.7577 -1.3905  0.4580
 4260SOL     OW24412   0.758   0.375   6.788 -0.3482 -0.0192  0.3711
 4260SOL    HW124413   0.819   0.399   6.718 -0.6144 -0.7927 -0.1295
 4260SOL    HW224414   0.810   0.311   6.836 -0.8134 -0.1970  0.6419
 4261SOL     OW24415   1.152   0.317   1.883 -0.3729 -0.3980  0.5501
 4261SOL    HW124416   1.235   0.305   1.929 -0.6199  1.0599  1.3761
 4261SOL    HW224417   1.149   0.410   1.905 -0.8445 -0.1433 -0.5913
 4262SOL     OW24418   4.452   0.427   3.748  0.2777 -0.1712  0.2257
 4262SOL    HW124419   4.392   0.478   3.695 -0.0468  0.8583  1.5707
 4262SOL    HW224420   4.523   0.402   3.688 -1.1802 -0.1221 -1.5108
 4263SOL     OW24421   3.041   3.349   4.113  0.3656 -0.0426 -0.0575
 4263SOL    HW124422   3.044   3.377   4.205 -0.0337  1.4292 -0.4918
 4263SOL    HW224423   2.956   3.388   4.092 -0.5227 -1.7829  0.3241
 4264SOL     OW24424   0.250   2.571   3.573  0.1863 -0.3615  0.1396
 4264SOL    HW124425   0.167   2.556   3.619  0.3321 -0.0289  0.5114
 4264SOL    HW224426   0.299   2.557   3.654  1.2810 -3.3348 -1.0096
 4265SOL     OW24427   2.402   3.529   3.308  0.6534 -0.3749  0.1264
 4265SOL    HW124428   2.352   3.546   3.228 -1.9150 -0.5413  1.7046
 4265SOL    HW224429   2.390   3.436   3.327  0.4537 -0.3566  0.0945
 4266SOL     OW24430   2.874   1.235   5.188  0.1630  0.5384 -0.5285
 4266SOL    HW124431   2.832   1.265   5.108  0.6289 -2.0071 -1.7530
 4266SOL    HW224432   2.886   1.317   5.235  2.4714  0.0454 -0.2462
 4267SOL     OW24433   3.769   2.500  12.025  0.3532  0.2227  0.1463
 4267SOL    HW124434   3.839   2.449  12.066 -0.4517 -0.7502  0.3165
 4267SOL    HW224435   3.741   2.567  12.088  0.9820  1.9568 -1.4201
 4268SOL     OW24436   4.128   1.906  13.685 -0.3365  0.2507  0.3321
 4268SOL    HW124437   4.218   1.925  13.710  0.4731 -0.6372 -1.9287
 4268SOL    HW224438   4.091   1.993  13.670 -2.1268 -0.6477 -0.5533
 4269SOL     OW24439   0.053   2.463   6.547 -0.6225 -0.2564  0.1942
 4269SOL    HW124440   0.102   2.459   6.465  2.5926  0.4940  2.1117
 4269SOL    HW224441   0.082   2.386   6.595  1.0322 -0.4907 -1.1652
 4270SOL     OW24442   3.480   4.126  12.290 -0.3644 -0.5782  0.1429
 4270SOL    HW124443   3.515   4.158  12.206 -1.5130 -0.0405 -0.1275
 4270SOL    HW224444   3.414   4.190  12.314 -0.8396 -1.6559  1.7226
 4271SOL     OW24445   2.060   0.609  13.292 -0.0881 -0.1403  0.7306
 4271SOL    HW124446   2.137   0.554  13.306  0.3310  0.1368 -0.4619
 4271SOL    HW224447   2.065   0.628  13.198 -0.2525 -2.4036  0.2548
 4272SOL     OW24448   1.220   2.104   0.537  0.4072  0.0551  0.2620
 4272SOL    HW124449   1.189   2.185   0.496  0.8435 -0.7858 -1.7547
 4272SOL    HW224450   1.188   2.042   0.471 -0.3116  3.9576 -3.0855
 4273SOL     OW24451   1.806   4.420   4.657  0.1307 -0.5780  0.3051
 4273SOL    HW124452   1.737   4.454   4.600  0.6972 -0.9842 -0.6147
 4273SOL    HW224453   1.845   4.353   4.602  1.7367 -0.3092  1.1329
 4274SOL     OW24454   2.047   3.374   7.298  0.2391 -0.0037  0.1188
 4274SOL    HW124455   2.025   3.296   7.349  0.8095  1.1059  2.0424
 4274SOL    HW224456   2.092   3.429   7.362 -0.3077 -1.2796  1.6072
 4275SOL     OW24457   0.689   1.246   2.176  0.1026 -0.3287  0.0985
 4275SOL    HW124458   0.735   1.166   2.199 -0.5369 -0.3759  1.2437
 4275SOL    HW224459   0.603   1.205   2.184  0.2190 -0.6849 -0.5267
 4276SOL     OW24460   0.411   4.663  14.760 -0.4418  0.2585  0.2843
 4276SOL    HW124461   0.443   4.735  14.814  1.8355  0.2099 -0.9545
 4276SOL    HW224462   0.491   4.637  14.713 -1.7548 -0.3385 -1.6118
 4277SOL     OW24463   4.462   1.861  13.717 -0.1586 -0.4045  0.1119
 4277SOL    HW124464   4.418   1.894  13.795  0.3413  1.0047 -0.2040
 4277SOL    HW224465   4.471   1.943  13.669  1.3531  0.1128  1.3030
 4278SOL     OW24466   4.449   2.690   7.348  0.2134 -0.4024 -0.3042
 4278SOL    HW124467   4.526   2.667   7.295  0.1248 -0.9113 -0.2164
 4278SOL    HW224468   4.476   2.676   7.439  2.0315  0.2050 -0.7496
 4279SOL     OW24469   1.341   4.731  17.291 -0.0168  0.2361  0.3290
 4279SOL    HW124470   1.344   4.694  17.379 -1.6096  0.6208  0.5502
 4279SOL    HW224471   1.352   0.088  17.311 -0.7605  0.6492 -1.1770
 4280SOL     OW24472   4.280   1.445   8.954 -1.0191 -0.8872  0.0738
 4280SOL    HW124473   4.216   1.379   8.979 -1.2658 -0.4262  0.6761
 4280SOL    HW224474   4.336   1.431   9.031 -0.4480  0.9370  0.0080
 4281SOL     OW24475   2.512   2.076  12.317  0.3856 -0.1244  0.0401
 4281SOL    HW124476   2.556   2.008  12.266 -1.0377 -0.6879 -0.4344
 4281SOL    HW224477   2.484   2.020  12.389 -0.5776 -0.2997 -0.4639
 4282SOL     OW24478   4.281   3.859   4.537 -0.1794 -0.3928 -0.8047
 4282SOL    HW124479   4.287   3.867   4.632  0.4963  0.9929 -0.9645
 4282SOL    HW224480   4.273   3.946   4.499 -1.0961 -0.9027 -1.7925
 4283SOL     OW24481   2.834   2.270   9.824  0.5905  0.1661  0.1086
 4283SOL    HW124482   2.806   2.181   9.802  1.0418 -0.0082  0.2263
 4283SOL    HW224483   2.771   2.299   9.891 -1.0305 -1.8771 -0.5484
 4284SOL     OW24484   0.848   0.218  13.885 -0.4146 -0.4057  0.4145
 4284SOL    HW124485   0.904   0.154  13.841  1.9556  1.6952  0.3852
 4284SOL    HW224486   0.908   0.292  13.893  0.6384 -0.9531 -2.6595
 4285SOL     OW24487   0.643   4.418   2.995  0.2030 -0.5816 -0.3929
 4285SOL    HW124488   0.736   4.417   3.017  0.1343 -1.2530 -0.1294
 4285SOL    HW224489   0.629   4.331   2.958  1.3878 -1.2852  0.8159
 4286SOL     OW24490   3.179   3.431  14.375 -0.6560  0.1884 -0.2494
 4286SOL    HW124491   3.105   3.432  14.436 -1.8014  0.0522 -1.6233
 4286SOL    HW224492   3.139   3.403  14.292  1.3490 -0.5735 -0.9550
 4287SOL     OW24493   3.604   4.553  16.756 -0.0776 -0.1954 -0.1568
 4287SOL    HW124494   3.650   4.562  16.672  2.7852 -0.8326  1.3478
 4287SOL    HW224495   3.518   4.542  16.716  0.3029 -0.8557 -0.7960
 4288SOL     OW24496   2.257   1.848   7.846 -0.0385 -0.1701 -0.3286
 4288SOL    HW124497   2.188   1.793   7.884 -0.2984  1.0085  0.8867
 4288SOL    HW224498   2.331   1.791   7.828 -0.3590 -0.0797 -1.9147
 4289SOL     OW24499   0.753   2.188   4.090  0.6175  0.4711  0.6031
 4289SOL    HW124500   0.832   2.235   4.065 -1.1339  2.9677 -0.2176
 4289SOL    HW224501   0.793   2.114   4.136  0.3173  0.4509  0.8339
 4290SOL     OW24502   0.996   3.544   6.533  0.4504  0.1189  0.2130
 4290SOL    HW124503   0.919   3.518   6.483  1.4730  1.1767 -1.8922
 4290SOL    HW224504   0.967   3.625   6.575  0.4781  1.7333 -2.9056
 4291SOL     OW24505   1.685   1.070   5.795 -0.0378  0.5808  0.4849
 4291SOL    HW124506   1.613   1.081   5.734  1.4453  0.9116 -1.1887
 4291SOL    HW224507   1.722   0.987   5.765  0.1718 -0.1514  2.6991
 4292SOL     OW24508   3.284   3.796   1.537 -0.3944  0.8402  0.4891
 4292SOL    HW124509   3.317   3.758   1.455 -1.0408  0.5495  0.3597
 4292SOL    HW224510   3.362   3.843   1.566 -0.3950 -0.2068  2.1815
 4293SOL     OW24511   1.754   0.744   4.201  0.1708 -0.0667 -0.2692
 4293SOL    HW124512   1.809   0.743   4.279 -1.4876 -0.2083  0.8991
 4293SOL    HW224513   1.685   0.793   4.246  2.0853  1.3384  1.1433
 4294SOL     OW24514   1.827   3.110   9.610 -0.2652 -0.0805  0.2090
 4294SOL    HW124515   1.900   3.168   9.633 -1.4718  1.8333 -0.8256
 4294SOL    HW224516   1.792   3.171   9.545  0.4903 -0.3606 -0.4639
 4295SOL     OW24517   4.067   2.332  17.129 -0.5896  0.3377  0.4315
 4295SOL    HW124518   4.132   2.378  17.182  1.5890 -0.5631 -1.4424
 4295SOL    HW224519   4.009   2.326  17.206 -2.1357 -1.3330 -0.8668
 4296SOL     OW24520   3.993   2.736   7.279 -0.2232  0.0955  0.1519
 4296SOL    HW124521   4.016   2.780   7.361 -1.2035  0.9294 -0.0283
 4296SOL    HW224522   4.070   2.679   7.275  0.0091  0.5914 -2.5457
 4297SOL     OW24523   0.659   1.179  15.284  0.2054 -0.6732 -0.0707
 4297SOL    HW124524   0.716   1.174  15.361 -1.1641 -0.6628  0.9646
 4297SOL    HW224525   0.628   1.269  15.279  2.3202 -0.0112 -0.8797
 4298SOL     OW24526   0.920   2.794   2.457 -0.1557 -0.3214  0.2653
 4298SOL    HW124527   1.009   2.830   2.449  0.0264 -0.2903  2.5125
 4298SOL    HW224528   0.884   2.801   2.368  1.6199  1.2048 -0.3273
 4299SOL     OW24529   0.936   3.964   7.359 -0.6404 -0.2680  0.7389
 4299SOL    HW124530   0.867   4.028   7.374 -2.1548 -0.9218 -3.4404
 4299SOL    HW224531   0.982   4.005   7.287  0.1055  0.4415  1.6245
 4300SOL     OW24532   3.918   3.359   4.045 -0.2039 -0.2983 -0.1762
 4300SOL    HW124533   3.825   3.349   4.022  0.1413 -0.0666 -1.6714
 4300SOL    HW224534   3.909   3.403   4.130 -0.7424 -1.2167  0.2439
 4301SOL     OW24535   3.214   2.180   5.220  0.4155 -0.4365 -0.2891
 4301SOL    HW124536   3.263   2.262   5.219 -1.4109  0.6659 -0.1698
 4301SOL    HW224537   3.135   2.200   5.271  0.1627  0.3958 -1.0034
 4302SOL     OW24538   3.146   1.517   9.593 -0.4515  0.2572 -0.3166
 4302SOL    HW124539   3.176   1.431   9.622 -0.6814  0.6549  1.0863
 4302SOL    HW224540   3.154   1.496   9.500 -1.3934  1.0054 -0.5726
 4303SOL     OW24541   0.869   3.510  17.650 -0.1322  0.2924 -0.2781
 4303SOL    HW124542   0.946   3.559  17.680 -0.7243  2.2582 -1.9766
 4303SOL    HW224543   0.892   3.489  17.559 -2.4052  2.5348 -1.3687
 4304SOL     OW24544   0.769   2.980  16.608 -0.1762 -0.3201 -0.2955
 4304SOL    HW124545   0.818   2.956  16.687 -0.3672  1.6263  0.4329
 4304SOL    HW224546   0.797   2.924  16.536 -2.1208 -1.2001 -0.3661
 4305SOL     OW24547   2.759   0.635   4.278 -0.1631 -0.0044 -0.4430
 4305SOL    HW124548   2.673   0.642   4.236  0.0410 -0.1347 -0.8695
 4305SOL    HW224549   2.773   0.727   4.299  1.1714  0.0775 -1.7093
 4306SOL     OW24550   4.687   3.677   4.809 -0.3826 -0.2289 -0.5803
 4306SOL    HW124551   4.626   3.731   4.860  0.1664 -0.1082 -0.0474
 4306SOL    HW224552   4.633   3.645   4.737 -0.7183  0.9873 -0.8578
 4307SOL     OW24553   4.632   3.824  10.306  0.2812  0.1361 -0.5016
 4307SOL    HW124554   4.690   3.802  10.233  0.1468 -0.0151 -0.5615
 4307SOL    HW224555   4.612   3.740  10.347 -1.3146  0.8343  0.1466
 4308SOL     OW24556   2.887   0.400  12.928  0.0141 -0.3002 -0.0062
 4308SOL    HW124557   2.863   0.328  12.869  0.7637 -1.3462  0.9735
 4308SOL    HW224558   2.852   0.477  12.883 -0.8544  0.6191  2.2459
 4309SOL     OW24559   3.428   4.132   0.525  0.6704 -0.3296  0.0107
 4309SOL    HW124560   3.496   4.068   0.503 -0.1621 -1.3173  0.3351
 4309SOL    HW224561   3.410   4.174   0.441 -0.2786  0.3896  0.5739
 4310SOL     OW24562   3.586   4.245   5.032  0.0343 -0.2842  0.1873
 4310SOL    HW124563   3.602   4.158   4.997  0.3793 -0.7007  1.3704
 4310SOL    HW224564   3.531   4.225   5.108  0.9346 -1.3253  0.5648
 4311SOL     OW24565   4.429   4.289  13.594  0.0946  0.6117  0.3413
 4311SOL    HW124566   4.431   4.224  13.523  1.5470  0.4129  0.5607
 4311SOL    HW224567   4.502   4.252  13.644 -1.0016 -0.8754  0.8510
 4312SOL     OW24568   2.146   4.586  14.717  0.1517  0.0083  0.0984
 4312SOL    HW124569   2.133   4.515  14.655 -0.3853 -0.1070  0.3400
 4312SOL    HW224570   2.232   4.621  14.692 -1.0011  1.6246 -1.5751
 4313SOL     OW24571   2.908   3.953  15.688  0.6709 -0.3126 -0.4316
 4313SOL    HW124572   2.958   3.938  15.768  1.0623  2.1268 -0.2089
 4313SOL    HW224573   2.839   3.888  15.697  2.0380 -1.6437  0.2877
 4314SOL     OW24574   4.449   4.420  15.474 -0.1673 -0.0011  0.0575
 4314SOL    HW124575   4.454   4.340  15.421 -1.5455 -0.2810  0.3801
 4314SOL    HW224576   4.424   4.477  15.401 -2.1392  0.4528  1.1139
 4315SOL     OW24577   1.786   3.415  12.368 -0.4079  0.2024 -0.2208
 4315SOL    HW124578   1.862   3.422  12.310  0.3303  2.0381  0.9781
 4315SOL    HW224579   1.808   3.495  12.416 -1.3816  1.6151 -2.1251
 4316SOL     OW24580   4.154   0.079  13.328 -0.3132 -0.0608 -0.1600
 4316SOL    HW124581   4.092   0.113  13.264 -0.8249  1.8743  1.3652
 4316SOL    HW224582   4.208   0.032  13.264 -1.9869 -0.4268 -1.2983
 4317SOL     OW24583   2.165   0.350   1.732 -0.3211  0.4345  0.4723
 4317SOL    HW124584   2.163   0.393   1.647  1.2000 -1.1337 -0.3541
 4317SOL    HW224585   2.257   0.324   1.736 -0.7999 -0.9509  2.7002
 4318SOL     OW24586   1.971   0.435   3.527 -0.4952 -0.8479 -0.6577
 4318SOL    HW124587   1.968   0.446   3.432  1.9926  1.7527 -0.4350
 4318SOL    HW224588   2.049   0.485   3.550 -0.1998 -1.8780  0.5649
 4319SOL     OW24589   1.571   4.501   7.119  0.0085  0.5240  0.1006
 4319SOL    HW124590   1.611   4.535   7.199  3.0793 -0.2001 -1.1179
 4319SOL    HW224591   1.643   4.514   7.058  0.4906  1.0142  0.7729
 4320SOL     OW24592   1.368   0.590  11.949 -0.0081  0.2625  0.3950
 4320SOL    HW124593   1.342   0.500  11.970  1.8527 -0.5478 -0.8124
 4320SOL    HW224594   1.456   0.571  11.916  0.6371  2.3722  0.8873
 4321SOL     OW24595   2.060   2.281   3.911  0.2203 -0.2155 -0.0773
 4321SOL    HW124596   2.002   2.246   3.844  1.1582 -1.9461  0.0162
 4321SOL    HW224597   2.145   2.294   3.869  0.5485  1.4934  1.0992
 4322SOL     OW24598   1.967   1.738  17.075 -0.0158 -0.4849  0.1498
 4322SOL    HW124599   2.039   1.727  17.137  0.8720  2.2777 -0.3978
 4322SOL    HW224600   1.960   1.649  17.040  1.8386  0.2644 -2.1068
 4323SOL     OW24601   3.581   0.266   0.800  0.0281  0.2956 -0.4253
 4323SOL    HW124602   3.630   0.336   0.758  0.1892  1.0507  1.0058
 4323SOL    HW224603   3.492   0.302   0.804  0.0984  0.5706 -1.3467
 4324SOL     OW24604   3.454   3.977   6.044 -0.5380 -0.3657 -0.3156
 4324SOL    HW124605   3.391   3.905   6.050  2.4780 -2.9678  0.7014
 4324SOL    HW224606   3.527   3.931   6.087 -1.2582 -0.2823  1.0013
 4325SOL     OW24607   4.200   4.430   7.734  0.2307 -0.4705 -0.4057
 4325SOL    HW124608   4.258   4.488   7.684 -0.7313  0.3737 -0.5301
 4325SOL    HW224609   4.124   4.426   7.676 -1.5625  1.4938  1.8106
 4326SOL     OW24610   2.511   1.623   7.080  0.0704 -0.4111 -0.1229
 4326SOL    HW124611   2.548   1.697   7.129  0.9146 -0.9556  0.0567
 4326SOL    HW224612   2.567   1.547   7.097 -1.2413 -1.3863 -0.1763
 4327SOL     OW24613   4.187   1.633   5.725  0.1679  0.1110 -0.8776
 4327SOL    HW124614   4.154   1.555   5.770 -0.2857 -0.6335 -2.4747
 4327SOL    HW224615   4.121   1.644   5.656 -0.0274 -1.0324 -0.8700
 4328SOL     OW24616   3.891   3.032  14.653 -0.3390  0.2776  0.2859
 4328SOL    HW124617   3.904   2.992  14.567 -0.7961  0.3172  0.1983
 4328SOL    HW224618   3.903   2.954  14.706 -1.1314 -1.2633 -1.8150
 4329SOL     OW24619   4.324   2.129  17.190 -0.0085  0.4414  0.5796
 4329SOL    HW124620   4.254   2.121  17.125  0.5196  3.7465 -0.3691
 4329SOL    HW224621   4.325   2.038  17.221 -1.1500  0.6020  1.0705
 4330SOL     OW24622   2.633   0.144   6.295 -0.1848  0.7778 -0.2988
 4330SOL    HW124623   2.612   0.099   6.377  0.6080  0.3759 -0.3123
 4330SOL    HW224624   2.542   0.160   6.273 -0.7627 -0.8357  0.9454
 4331SOL     OW24625   2.342   3.735   9.111  0.6985  0.0416  0.0393
 4331SOL    HW124626   2.346   3.643   9.084  0.2681  0.2072 -0.6029
 4331SOL    HW224627   2.434   3.737   9.136 -0.0017 -2.2198  2.6599
 4332SOL     OW24628   3.089   3.964   2.982 -0.2568 -0.1708  0.4487
 4332SOL    HW124629   2.997   3.962   3.008  0.0090 -2.5593  1.1974
 4332SOL    HW224630   3.079   3.990   2.890 -2.4545 -0.3165  0.6320
 4333SOL     OW24631   3.974   1.050   0.825 -0.4080 -0.0397 -0.2688
 4333SOL    HW124632   3.953   0.958   0.842 -2.2703  0.1797 -1.3552
 4333SOL    HW224633   4.016   1.082   0.905  1.1950 -1.2560 -0.6350
 4334SOL     OW24634   3.520   3.511   7.820  0.4642  0.2738  0.1343
 4334SOL    HW124635   3.527   3.484   7.911  1.5142  3.0746  0.8674
 4334SOL    HW224636   3.610   3.505   7.788  0.6791  0.1518  0.7750
 4335SOL     OW24637   3.762   2.033   8.496 -0.4006 -0.0956  0.4564
 4335SOL    HW124638   3.718   2.072   8.572 -2.0316 -0.6202 -0.2384
 4335SOL    HW224639   3.785   2.110   8.444  0.2451 -0.9376 -0.5205
 4336SOL     OW24640   2.286   4.296  10.890  0.6566 -0.3289  0.0136
 4336SOL    HW124641   2.323   4.209  10.877 -0.5720 -0.7186 -0.8722
 4336SOL    HW224642   2.307   4.333  10.804 -1.8346 -0.5142 -0.6732
 4337SOL     OW24643   0.418   1.390   1.642  0.5105  0.4463  0.0377
 4337SOL    HW124644   0.354   1.460   1.657 -1.3031 -1.4011  0.9568
 4337SOL    HW224645   0.415   1.347   1.727  2.1202 -2.7853 -1.5487
 4338SOL     OW24646   0.714   3.647   2.698  0.1574 -0.2432 -0.2813
 4338SOL    HW124647   0.783   3.640   2.764 -0.6984  0.7669  0.7277
 4338SOL    HW224648   0.725   3.563   2.653 -2.9296 -0.5157 -0.5073
 4339SOL     OW24649   3.684   2.999   8.501  0.0433 -0.3042  0.1364
 4339SOL    HW124650   3.619   3.049   8.551  1.2048  1.3216 -0.0043
 4339SOL    HW224651   3.767   3.006   8.547 -0.5906 -1.6175  1.5068
 4340SOL     OW24652   3.310   3.517  15.892  0.0662  0.3859  0.3127
 4340SOL    HW124653   3.219   3.500  15.919 -0.1762  0.8080 -0.2302
 4340SOL    HW224654   3.358   3.485  15.969  1.4336 -0.0968 -0.7402
 4341SOL     OW24655   4.605   4.580   8.531  0.1015 -0.4003 -0.0527
 4341SOL    HW124656   4.527   4.631   8.555 -1.1633 -1.3827 -2.0541
 4341SOL    HW224657   4.549   4.507   8.503 -2.4654  1.1158  1.1328
 4342SOL     OW24658   1.998   2.099   3.194 -0.3913 -0.3371 -0.3352
 4342SOL    HW124659   2.016   2.149   3.114  1.4019 -0.3582  0.0649
 4342SOL    HW224660   1.905   2.076   3.185 -0.8461  1.5047 -0.2975
 4343SOL     OW24661   1.901   1.915  16.470  0.3275  0.1013  0.1961
 4343SOL    HW124662   1.933   2.004  16.482 -2.2883  1.1153 -0.2917
 4343SOL    HW224663   1.983   1.868  16.487 -0.2608 -0.7457  0.7436
 4344SOL     OW24664   1.517   2.517   9.363  0.3437  0.1749 -0.2674
 4344SOL    HW124665   1.425   2.494   9.359 -0.0298  1.7185 -0.5390
 4344SOL    HW224666   1.538   2.485   9.276 -1.5937  1.7942 -1.3109
 4345SOL     OW24667   3.005   4.704   4.423 -0.0419  0.0688  0.0387
 4345SOL    HW124668   2.942   4.722   4.492 -0.3586 -2.1570  0.3108
 4345SOL    HW224669   3.085   4.678   4.468  1.3640 -2.0522 -3.6859
 4346SOL     OW24670   2.143   3.847   6.700 -0.1757 -0.6368 -0.0591
 4346SOL    HW124671   2.187   3.799   6.770 -1.2825 -0.1615  0.9523
 4346SOL    HW224672   2.130   3.769   6.647  1.1138  0.2468 -1.6786
 4347SOL     OW24673   3.596   3.173  11.749  0.1231  0.2280 -0.4376
 4347SOL    HW124674   3.578   3.218  11.832 -0.0926  0.7296 -0.7609
 4347SOL    HW224675   3.634   3.088  11.772  2.3453  1.3940  0.1798
 4348SOL     OW24676   3.157   0.057  15.006 -0.4863 -0.0877 -0.3117
 4348SOL    HW124677   3.166   4.712  14.956 -0.1455 -0.6537  0.6613
 4348SOL    HW224678   3.233   0.102  14.969 -0.0662 -0.4077  0.1595
 4349SOL     OW24679   0.955   0.993   9.521 -0.1171 -0.1741 -0.2076
 4349SOL    HW124680   0.979   0.905   9.551 -1.1104 -0.2565  0.3547
 4349SOL    HW224681   0.927   0.980   9.430  0.4986 -0.4676 -0.3564
 4350SOL     OW24682   2.549   2.067   8.657  0.7008  0.9563 -0.1790
 4350SOL    HW124683   2.512   2.113   8.582 -2.2186 -2.5933 -0.9086
 4350SOL    HW224684   2.514   1.978   8.654 -2.2340  2.0612  0.9252
 4351SOL     OW24685   0.564   1.637  16.230  0.1581  0.6159  0.3560
 4351SOL    HW124686   0.656   1.609  16.223  0.1044 -0.0069  2.1302
 4351SOL    HW224687   0.565   1.730  16.249 -1.6867  0.2546  2.2241
 4352SOL     OW24688   4.221   3.734   3.494 -0.0470 -0.0005 -0.1439
 4352SOL    HW124689   4.222   3.813   3.440  0.6991 -0.5814 -0.9766
 4352SOL    HW224690   4.246   3.782   3.573 -0.2582  1.6741 -1.1056
 4353SOL     OW24691   2.695   2.932   4.731  0.8594 -0.0986  0.1175
 4353SOL    HW124692   2.787   2.939   4.706  0.8623 -0.8211 -0.0811
 4353SOL    HW224693   2.662   3.019   4.710 -0.7048 -0.6095  0.4465
 4354SOL     OW24694   0.019   1.300   3.178 -0.2755  0.0826  0.7872
 4354SOL    HW124695   0.074   1.372   3.208 -0.7039  0.4879  0.6037
 4354SOL    HW224696   0.087   1.233   3.177  0.7289  1.0572  3.0914
 4355SOL     OW24697   0.775   1.339   9.378  0.8869 -0.1090 -0.3309
 4355SOL    HW124698   0.810   1.352   9.466  0.6350  3.6217 -0.7794
 4355SOL    HW224699   0.744   1.423   9.344  1.2150  0.1268 -0.0464
 4356SOL     OW24700   2.203   0.142   9.315  0.3073 -0.1813  0.5084
 4356SOL    HW124701   2.293   0.120   9.338  0.9422  2.3406  0.3896
 4356SOL    HW224702   2.184   0.062   9.266 -1.7280  0.7968 -0.2939
 4357SOL     OW24703   2.474   1.045   3.460  0.1853  0.6517 -0.2646
 4357SOL    HW124704   2.392   1.092   3.446 -0.3640 -0.3900 -0.5922
 4357SOL    HW224705   2.447   0.964   3.503 -1.6032  1.3831 -0.0164
 4358SOL     OW24706   3.399   2.093  12.409 -0.0039 -0.0792 -0.0990
 4358SOL    HW124707   3.467   2.151  12.376  1.2734 -1.2443  0.4466
 4358SOL    HW224708   3.361   2.045  12.336  2.4512 -2.7093  0.3215
 4359SOL     OW24709   4.456   3.353  16.341 -0.5325 -0.0850  0.7533
 4359SOL    HW124710   4.446   3.445  16.317  0.5040 -0.4853 -1.2625
 4359SOL    HW224711   4.475   3.306  16.260  1.3182 -1.4071  1.9369
 4360SOL     OW24712   3.074   4.116   4.053 -0.2948  0.0262 -0.6700
 4360SOL    HW124713   3.076   4.093   3.960 -0.4407 -0.2296 -0.6126
 4360SOL    HW224714   3.124   4.197   4.042 -1.7957  0.9535 -0.5413
 4361SOL     OW24715   3.069   0.163   6.404  0.1049  0.4313 -0.2429
 4361SOL    HW124716   3.023   0.122   6.478 -0.3144  0.9837 -0.1982
 4361SOL    HW224717   3.004   0.222   6.367  1.1477  1.8752  0.1906
 4362SOL     OW24718   3.501   4.196   3.852 -0.2145  0.6300 -0.0193
 4362SOL    HW124719   3.427   4.137   3.833  0.5071 -0.3092  0.0713
 4362SOL    HW224720   3.481   4.264   3.788  1.2207  0.4756 -0.6369
 4363SOL     OW24721   4.280   2.910   8.908  0.2177 -0.5189 -0.3069
 4363SOL    HW124722   4.204   2.962   8.936  0.9392  0.0933  0.5512
 4363SOL    HW224723   4.278   2.853   8.985 -1.0090  0.6609  0.5571
 4364SOL     OW24724   4.299   3.423   0.570  0.1329 -0.2607 -0.3603
 4364SOL    HW124725   4.355   3.468   0.634 -0.4641 -1.1088  0.7772
 4364SOL    HW224726   4.370   3.377   0.526 -1.4678 -1.9445 -1.2343
 4365SOL     OW24727   0.298   3.533  10.217  0.9663  0.2121  0.5421
 4365SOL    HW124728   0.206   3.519  10.195  1.0893  0.0298  0.1472
 4365SOL    HW224729   0.284   3.591  10.291 -2.4189  0.6866 -0.4855
 4366SOL     OW24730   0.064   3.504  11.585  0.3429 -0.1689 -0.1231
 4366SOL    HW124731   0.071   3.536  11.675  1.3190  2.4013 -1.1211
 4366SOL    HW224732   0.019   3.577  11.541 -0.5118 -1.5024 -1.4654
 4367SOL     OW24733   4.659   3.459   3.354 -0.1210 -0.1015  0.1393
 4367SOL    HW124734   4.728   3.455   3.421  1.2189  1.8163 -1.1125
 4367SOL    HW224735   4.708   3.425   3.278  0.4128 -0.8237  0.8065
 4368SOL     OW24736   1.746   0.267   4.015 -0.2452  0.0189  0.6589
 4368SOL    HW124737   1.654   0.287   4.033  0.0958  1.0017  1.3263
 4368SOL    HW224738   1.787   0.312   4.089 -1.3032  0.0711  1.2177
 4369SOL     OW24739   4.299   2.286   7.835 -0.5424 -0.3569 -0.3189
 4369SOL    HW124740   4.309   2.361   7.895 -2.4239  0.5351 -1.1311
 4369SOL    HW224741   4.374   2.301   7.778  0.5970 -0.9780  1.0012
 4370SOL     OW24742   0.286   4.226   8.868 -0.0013  0.6233  0.4013
 4370SOL    HW124743   0.326   4.233   8.782  1.5609  0.6000  1.1201
 4370SOL    HW224744   0.359   4.228   8.930  0.3172  1.0176  0.0136
 4371SOL     OW24745   3.238   1.284   3.737 -0.4231  0.2436 -0.0533
 4371SOL    HW124746   3.299   1.287   3.663 -1.7749  0.0725 -1.1639
 4371SOL    HW224747   3.280   1.337   3.805  1.5178 -1.0300 -0.2425
 4372SOL     OW24748   0.699   4.174  17.046 -0.6171  0.0555  0.4364
 4372SOL    HW124749   0.724   4.123  17.123 -0.2154 -0.6814 -0.1774
 4372SOL    HW224750   0.659   4.102  16.996 -0.0626 -0.9040  1.3740
 4373SOL     OW24751   1.853   2.238   5.263  0.1930 -0.3291  0.9075
 4373SOL    HW124752   1.892   2.325   5.259  1.0656 -0.8790 -2.3886
 4373SOL    HW224753   1.801   2.244   5.183 -0.5462 -0.3025  1.3899
 4374SOL     OW24754   2.111   2.837  15.376 -0.6001  0.4990 -0.2979
 4374SOL    HW124755   2.172   2.864  15.445  0.2947 -0.5270 -0.6908
 4374SOL    HW224756   2.128   2.745  15.393  1.4358  0.7804 -0.8443
 4375SOL     OW24757   4.107   0.032   7.445 -0.5572 -0.0901  0.2171
 4375SOL    HW124758   4.167   0.106   7.461  2.0171 -2.1862  0.1947
 4375SOL    HW224759   4.036   0.042   7.509 -0.6419  0.4153  0.0454
 4376SOL     OW24760   1.298   1.084   1.979 -0.1058  0.1918 -0.4107
 4376SOL    HW124761   1.288   1.149   1.910 -1.4115  2.9729  2.3823
 4376SOL    HW224762   1.248   1.125   2.049 -1.1940 -0.9021 -0.5460
 4377SOL     OW24763   2.517   1.817   2.786 -0.1465 -0.1098  0.3719
 4377SOL    HW124764   2.484   1.904   2.764 -1.4501 -0.8867 -0.7479
 4377SOL    HW224765   2.533   1.783   2.698  0.3546 -0.6603  0.6752
 4378SOL     OW24766   0.774   3.312   0.082  0.1328 -0.6786 -0.1333
 4378SOL    HW124767   0.726   3.355   0.152 -1.7248 -0.9225 -1.2517
 4378SOL    HW224768   0.804   3.381   0.023  2.6423 -1.4025  0.2775
 4379SOL     OW24769   3.203   2.295   4.855  0.9693  0.3006  0.6383
 4379SOL    HW124770   3.177   2.232   4.922  0.3573 -1.5044 -1.2669
 4379SOL    HW224771   3.168   2.377   4.890  1.3552  0.6805  0.1372
 4380SOL     OW24772   4.400   0.455   4.007  0.1470  0.4335 -0.7727
 4380SOL    HW124773   4.396   0.551   4.002 -1.6941  0.3862 -0.1093
 4380SOL    HW224774   4.444   0.429   3.926  1.8051  1.5372 -0.2235
 4381SOL     OW24775   2.592   2.093   3.676  0.0452  0.0714 -0.3189
 4381SOL    HW124776   2.548   2.016   3.714  0.0074  0.4480  0.4124
 4381SOL    HW224777   2.523   2.159   3.679  0.8649  1.0148 -2.6035
 4382SOL     OW24778   3.499   2.583   8.247 -0.2892  0.0209  0.6962
 4382SOL    HW124779   3.419   2.594   8.196 -1.8786 -0.7998  3.0012
 4382SOL    HW224780   3.509   2.659   8.305 -1.7413  0.1230  0.8263
 4383SOL     OW24781   0.523   0.517   5.864 -0.0131  0.2528 -0.0551
 4383SOL    HW124782   0.601   0.559   5.902  0.9282 -0.5075 -1.1366
 4383SOL    HW224783   0.487   0.591   5.816 -3.8957 -2.1554 -0.8048
 4384SOL     OW24784   3.794   3.015   7.027  0.0950 -0.1912 -0.0438
 4384SOL    HW124785   3.845   2.936   7.007 -1.0240 -0.5959 -1.2733
 4384SOL    HW224786   3.704   2.982   7.022  0.4162 -1.0662 -0.1248
 4385SOL     OW24787   3.777   0.799   7.363 -0.7694  0.1811 -0.3455
 4385SOL    HW124788   3.786   0.797   7.268 -0.1195  0.3154 -0.2857
 4385SOL    HW224789   3.730   0.717   7.377  0.2912 -0.6812 -1.7729
 4386SOL     OW24790   2.209   2.423   2.665  0.2950 -0.6677 -0.3368
 4386SOL    HW124791   2.223   2.391   2.755 -2.7405 -1.7067 -0.2577
 4386SOL    HW224792   2.115   2.436   2.667  0.7222  2.1830  0.5800
 4387SOL     OW24793   1.393   4.702  15.393 -0.0737  0.3536  0.3327
 4387SOL    HW124794   1.482   4.701  15.356  0.7264 -0.2187  2.2513
 4387SOL    HW224795   1.397   0.016  15.474 -0.0786  1.3608 -0.2997
 4388SOL     OW24796   4.698   3.168   3.806 -0.1574  0.2497  0.2114
 4388SOL    HW124797   4.697   3.204   3.895 -0.7741  0.6488  0.0472
 4388SOL    HW224798   0.037   3.110   3.799 -1.1036 -0.9687 -0.0790
 4389SOL     OW24799   2.704   0.710   6.977 -0.0079  0.0992 -0.3160
 4389SOL    HW124800   2.728   0.739   6.889 -3.3633  0.9063 -0.9755
 4389SOL    HW224801   2.639   0.644   6.952 -0.7588  0.4295  0.7686
 4390SOL     OW24802   3.660   1.094   6.767  0.3517 -0.1235  0.2589
 4390SOL    HW124803   3.741   1.046   6.749 -0.3729 -1.8325  1.5594
 4390SOL    HW224804   3.603   1.084   6.691  2.2635 -1.1781 -1.0483
 4391SOL     OW24805   1.688   2.777   0.994  0.2362 -0.1658  0.1849
 4391SOL    HW124806   1.714   2.724   1.070  0.6697  0.0453  0.1848
 4391SOL    HW224807   1.745   2.854   1.006  0.0170  0.0862 -0.4169
 4392SOL     OW24808   0.438   3.147  15.666  0.0602 -0.1220 -0.1348
 4392SOL    HW124809   0.392   3.230  15.679  0.6653 -0.1447  2.2355
 4392SOL    HW224810   0.488   3.152  15.748  2.0118 -1.0989 -1.2630
 4393SOL     OW24811   0.773   0.867   2.763  0.0073  0.3427  0.5578
 4393SOL    HW124812   0.788   0.784   2.718  0.3921  1.2206 -0.9140
 4393SOL    HW224813   0.690   0.848   2.807  0.6117 -0.5659  1.3099
 4394SOL     OW24814   3.810   0.459   3.349 -0.5595  0.1098  0.3281
 4394SOL    HW124815   3.759   0.423   3.421 -1.4952 -0.2370 -0.5019
 4394SOL    HW224816   3.748   0.510   3.296 -1.5566 -0.2872  1.1307
 4395SOL     OW24817   0.494   4.368  14.335  0.0003 -0.4419 -0.3489
 4395SOL    HW124818   0.534   4.333  14.255  2.2034  1.0704  0.0929
 4395SOL    HW224819   0.401   4.351  14.321  0.4620 -0.8858 -2.8947
 4396SOL     OW24820   4.014   3.187   7.959 -0.3578  0.0157 -0.1167
 4396SOL    HW124821   3.993   3.095   7.973 -0.8195  0.0448 -0.6319
 4396SOL    HW224822   4.068   3.197   8.037 -2.3004  1.7805  0.9845
 4397SOL     OW24823   3.490   3.943   7.340 -0.0185 -0.1709  0.6363
 4397SOL    HW124824   3.506   4.001   7.414  0.0559  2.6906 -1.6198
 4397SOL    HW224825   3.500   4.003   7.266  2.5018 -0.5316  0.6915
 4398SOL     OW24826   0.573   2.046  10.586 -0.2659 -1.1247  0.1811
 4398SOL    HW124827   0.487   2.083  10.609  1.2411  2.1906  0.4307
 4398SOL    HW224828   0.616   2.050  10.672  0.2556  3.9254 -0.3279
 4399SOL     OW24829   0.187   3.492   9.098  0.2681 -0.3578 -0.3701
 4399SOL    HW124830   0.247   3.564   9.116  2.5420 -3.2066  3.4266
 4399SOL    HW224831   0.155   3.510   9.010 -2.0011 -0.1472  0.5091
 4400SOL     OW24832   2.176   3.798   5.951  0.3723  0.5534 -0.6287
 4400SOL    HW124833   2.129   3.719   5.979  2.0347 -1.0310 -2.2969
 4400SOL    HW224834   2.264   3.791   5.989  0.5094  0.3790 -0.9805
 4401SOL     OW24835   0.515   4.584   7.354 -0.6189 -0.4950 -0.1835
 4401SOL    HW124836   0.483   4.532   7.428 -2.5266 -0.3367 -0.8868
 4401SOL    HW224837   0.478   4.670   7.377  0.8921 -0.3792  1.8491
 4402SOL     OW24838   0.545   4.051  10.630  0.7690 -0.3477  0.0903
 4402SOL    HW124839   0.539   4.146  10.620  0.2992 -0.2976  0.8363
 4402SOL    HW224840   0.632   4.045  10.669  0.4482 -0.9646  0.6967
 4403SOL     OW24841   3.198   4.324   3.536 -0.4385  0.1451  0.3165
 4403SOL    HW124842   3.192   4.239   3.494  0.2337  1.0091 -1.5125
 4403SOL    HW224843   3.184   4.295   3.627 -0.1335 -0.2306  0.2434
 4404SOL     OW24844   1.645   2.346   8.520 -0.4596 -0.1044  0.6078
 4404SOL    HW124845   1.692   2.305   8.447  1.8369  1.4058  1.2407
 4404SOL    HW224846   1.554   2.319   8.509 -0.4861  0.4406 -0.5793
 4405SOL     OW24847   1.436   1.362  13.121 -0.6268 -0.0843 -0.1027
 4405SOL    HW124848   1.502   1.307  13.163 -2.5573 -0.6863  2.1269
 4405SOL    HW224849   1.451   1.321  13.036 -0.1449 -0.4010  0.1325
 4406SOL     OW24850   3.601   2.600   4.901 -0.6008  0.6850  0.3030
 4406SOL    HW124851   3.515   2.618   4.862  0.0681  1.6898 -0.7168
 4406SOL    HW224852   3.657   2.598   4.823 -0.1672  2.4279  0.5817
 4407SOL     OW24853   1.000   1.082   5.646  0.1664  0.2909  0.5327
 4407SOL    HW124854   1.063   1.063   5.715 -0.6509 -0.4415  1.0808
 4407SOL    HW224855   1.011   1.025   5.570  1.9825  0.0640  0.9844
 4408SOL     OW24856   4.400   3.254  16.099  0.4634  0.1643  0.3324
 4408SOL    HW124857   4.384   3.207  16.017 -3.1486 -0.3622  1.3339
 4408SOL    HW224858   4.343   3.330  16.089 -2.1217 -2.0150 -1.6600
 4409SOL     OW24859   2.169   0.161  12.771 -0.5556 -0.6700 -0.4665
 4409SOL    HW124860   2.145   0.213  12.694 -0.4358  1.0355  0.6450
 4409SOL    HW224861   2.084   0.146  12.812 -0.5403  1.4669  0.3407
 4410SOL     OW24862   1.912   3.828   8.482  0.0572  0.1592 -0.3599
 4410SOL    HW124863   1.853   3.778   8.425 -1.5680  1.4544  0.1732
 4410SOL    HW224864   1.848   3.862   8.544  0.6236 -0.7994  0.7521
 4411SOL     OW24865   2.780   2.458   2.685 -0.0511  0.3018 -0.2586
 4411SOL    HW124866   2.720   2.467   2.612 -0.9074 -1.1019  0.2818
 4411SOL    HW224867   2.857   2.416   2.646  1.7261  1.5368  1.8872
 4412SOL     OW24868   0.798   2.029   9.991 -0.0816 -0.3301 -0.2395
 4412SOL    HW124869   0.815   1.937  10.009 -1.7451 -0.7050 -0.5468
 4412SOL    HW224870   0.877   2.043   9.938 -1.1793  0.1798 -1.7564
 4413SOL     OW24871   1.651   2.661   1.908 -0.0419  0.0111  0.7625
 4413SOL    HW124872   1.570   2.709   1.895 -1.0868 -1.8987  0.1045
 4413SOL    HW224873   1.718   2.729   1.907 -1.0264  0.9582 -1.4911
 4414SOL     OW24874   1.597   0.700   6.318 -0.4213  0.0229 -0.1339
 4414SOL    HW124875   1.612   0.670   6.407  1.2516  0.7930 -0.1760
 4414SOL    HW224876   1.629   0.790   6.317  4.3993 -1.7020 -2.2932
 4415SOL     OW24877   2.160   2.173  12.803 -0.3698 -0.6050 -0.7098
 4415SOL    HW124878   2.200   2.086  12.805 -2.2712 -1.4653  0.4666
 4415SOL    HW224879   2.234   2.233  12.816 -1.9702  1.5901 -1.6759
 4416SOL     OW24880   1.090   0.923  10.756 -0.3329 -0.1602 -0.0925
 4416SOL    HW124881   1.185   0.927  10.745 -0.4533  1.9836 -0.5243
 4416SOL    HW224882   1.091   0.831  10.781  0.4917  0.9667  4.1251
 4417SOL     OW24883   2.330   2.293   3.828  0.1726  0.7426  0.2190
 4417SOL    HW124884   2.398   2.320   3.766  0.5023 -1.0110 -0.1620
 4417SOL    HW224885   2.387   2.249   3.892  0.2831 -0.7342 -0.9088
 4418SOL     OW24886   4.603   0.326   7.525  0.3804 -0.0788  0.5504
 4418SOL    HW124887   4.558   0.393   7.576  1.1692  1.0413 -0.2124
 4418SOL    HW224888   4.569   0.337   7.436  1.7561 -0.9636 -0.0815
 4419SOL     OW24889   2.395   3.738  10.693  1.1950  0.1249  0.2055
 4419SOL    HW124890   2.330   3.691  10.745 -1.8806  2.5021 -1.5283
 4419SOL    HW224891   2.459   3.705  10.756  1.1149  1.1087  0.7959
 4420SOL     OW24892   1.006   2.949   7.219  0.1141 -0.1348 -0.1221
 4420SOL    HW124893   0.916   2.919   7.210 -0.6647  2.2321 -0.2897
 4420SOL    HW224894   0.994   3.016   7.286 -1.4358 -1.1025  0.5615
 4421SOL     OW24895   3.594   4.143   7.155 -0.2523  0.8684  0.2681
 4421SOL    HW124896   3.627   4.231   7.169 -1.8764  1.8048 -1.9112
 4421SOL    HW224897   3.538   4.160   7.080  1.5282 -1.5029 -1.6036
 4422SOL     OW24898   4.678   0.681   6.513  0.1972 -0.0857 -0.1401
 4422SOL    HW124899   4.723   0.596   6.507  1.8105  0.6522  1.4018
 4422SOL    HW224900   0.001   0.714   6.580 -0.4870 -2.1295  1.4916
 4423SOL     OW24901   2.166   0.037   6.023  0.1457 -0.3661  0.2659
 4423SOL    HW124902   2.238   0.099   6.012  0.6573 -0.7710  1.3545
 4423SOL    HW224903   2.201   4.687   6.005  2.4281  0.6786 -0.3177
 4424SOL     OW24904   1.334   1.910  12.756 -0.0348 -0.4144  0.0680
 4424SOL    HW124905   1.363   1.830  12.711  1.8309 -0.6926  1.7326
 4424SOL    HW224906   1.330   1.967  12.679  0.7544 -1.0685 -0.4578
 4425SOL     OW24907   2.644   1.626   3.646 -0.2454  0.0570  0.4665
 4425SOL    HW124908   2.659   1.696   3.583  3.6584  0.0225  1.3946
 4425SOL    HW224909   2.548   1.626   3.655 -0.4106  0.3575 -1.3006
 4426SOL     OW24910   1.056   3.504  11.547  0.1023 -0.4033 -0.5900
 4426SOL    HW124911   0.992   3.457  11.493 -0.1584  0.0737 -0.7015
 4426SOL    HW224912   1.142   3.473  11.521  0.3597 -1.0842  1.0780
 4427SOL     OW24913   0.267   4.555   2.660 -0.0767 -0.3803  0.4240
 4427SOL    HW124914   0.328   4.553   2.733  1.3441 -4.2233 -0.8127
 4427SOL    HW224915   0.314   4.507   2.591  0.0338  1.7680 -0.9767
 4428SOL     OW24916   2.889   0.209   3.780 -0.4619 -0.4308  0.3988
 4428SOL    HW124917   2.892   0.113   3.781  0.3478 -0.3956  1.9597
 4428SOL    HW224918   2.920   0.225   3.691 -0.2215 -2.4698  0.1247
 4429SOL     OW24919   1.516   3.768   2.951  0.0690 -0.3161 -0.2155
 4429SOL    HW124920   1.551   3.678   2.950  0.2707 -0.2263 -1.1914
 4429SOL    HW224921   1.460   3.761   2.874 -1.1653  0.5502  0.6229
 4430SOL     OW24922   1.622   1.863   9.351 -0.4405  0.1429 -0.1040
 4430SOL    HW124923   1.642   1.886   9.442 -1.5753  1.2325 -0.1446
 4430SOL    HW224924   1.566   1.932   9.316  0.1331  0.1214 -1.0612
 4431SOL     OW24925   1.789   3.806   0.473 -0.4795  0.0113 -0.3260
 4431SOL    HW124926   1.701   3.835   0.497  0.3003  0.1310  2.3671
 4431SOL    HW224927   1.803   3.728   0.526  4.7716  1.6151  0.6088
 4432SOL     OW24928   3.451   4.376   4.827 -0.0721  0.8214 -0.5545
 4432SOL    HW124929   3.514   4.336   4.887  0.2636  2.1461 -0.0142
 4432SOL    HW224930   3.491   4.384   4.740  2.7640  1.6705  0.8260
 4433SOL     OW24931   1.796   1.816   6.097  0.2480 -0.3595  0.2226
 4433SOL    HW124932   1.860   1.860   6.041 -1.6643  0.8891 -1.0134
 4433SOL    HW224933   1.754   1.901   6.113  2.8646  0.7888  0.9639
 4434SOL     OW24934   0.035   2.352   4.855  0.4789  0.4007  0.7164
 4434SOL    HW124935   0.054   2.445   4.854  4.2692 -0.4025 -1.2727
 4434SOL    HW224936   4.727   2.350   4.770  0.6743 -1.3806  0.6373
 4435SOL     OW24937   3.748   4.055   9.585  0.4697 -0.3060 -0.1745
 4435SOL    HW124938   3.725   4.137   9.542 -3.3587 -0.5110  1.4926
 4435SOL    HW224939   3.801   4.080   9.661 -1.5114 -1.5725  1.6351
 4436SOL     OW24940   2.670   3.422   5.139 -0.1073  0.4003 -0.7146
 4436SOL    HW124941   2.712   3.336   5.134 -0.4746  0.1315  0.7423
 4436SOL    HW224942   2.667   3.448   5.047 -0.0109  1.0865 -0.5259
 4437SOL     OW24943   3.145   3.627   4.816 -0.3030  0.5604 -0.0619
 4437SOL    HW124944   3.204   3.559   4.782 -2.6884 -1.5917  0.0819
 4437SOL    HW224945   3.161   3.676   4.735 -0.5020  0.3403 -0.2360
 4438SOL     OW24946   1.024   0.434   5.869 -0.2855  0.8395 -0.3484
 4438SOL    HW124947   0.930   0.424   5.852 -0.1381 -1.1751  0.0502
 4438SOL    HW224948   1.035   0.452   5.962  3.9442 -2.4605 -0.2505
 4439SOL     OW24949   0.113   0.624   5.649 -0.1989 -0.0046 -0.1052
 4439SOL    HW124950   0.103   0.687   5.577  1.6535 -2.4161 -2.4519
 4439SOL    HW224951   0.111   0.541   5.603  0.2340 -0.2165  0.2636
 4440SOL     OW24952   4.134   0.913   5.017  0.5772 -0.6053  0.6536
 4440SOL    HW124953   4.057   0.856   5.029 -0.3096  0.6872  1.1590
 4440SOL    HW224954   4.189   0.851   4.969 -2.1125 -2.2521 -0.3263
 4441SOL     OW24955   1.443   0.434   0.129  0.4783  0.1690  0.7879
 4441SOL    HW124956   1.378   0.468   0.067  2.1758 -0.0332 -1.0935
 4441SOL    HW224957   1.516   0.493   0.114  0.4639 -0.4214 -1.6811
 4442SOL     OW24958   2.542   3.594   6.887  0.0879  0.0143  0.1252
 4442SOL    HW124959   2.621   3.635   6.853  1.1868 -1.5608  0.7763
 4442SOL    HW224960   2.561   3.593   6.980 -0.9595  0.2081  0.3432
 4443SOL     OW24961   3.719   4.357   6.908  0.1766 -0.6082  0.3082
 4443SOL    HW124962   3.636   4.378   6.951  0.5747  0.2264  0.6605
 4443SOL    HW224963   3.690   4.342   6.818  1.6887  1.6720 -0.5467
 4444SOL     OW24964   0.621   0.582   6.938  0.0454 -0.1899 -0.1219
 4444SOL    HW124965   0.686   0.598   7.007  1.1648 -4.4973 -0.1906
 4444SOL    HW224966   0.656   0.508   6.887 -0.1852  1.1377 -2.2198
 4445SOL     OW24967   1.464   4.113   2.391 -0.3981 -0.5237 -0.1211
 4445SOL    HW124968   1.453   4.097   2.484  0.2767  2.0581  0.4137
 4445SOL    HW224969   1.380   4.155   2.370 -1.0440 -1.9697 -0.3742
 4446SOL     OW24970   3.880   1.615   8.330  0.2182 -0.1014 -0.1453
 4446SOL    HW124971   3.902   1.598   8.421 -0.0584 -1.1116 -0.2732
 4446SOL    HW224972   3.804   1.673   8.342  0.3980  0.1606 -0.2595
 4447SOL     OW24973   4.495   0.262   6.685 -0.4179 -0.4290 -0.2931
 4447SOL    HW124974   4.478   0.342   6.635 -0.4212 -0.7057 -0.7355
 4447SOL    HW224975   4.409   0.220   6.690  0.2621 -1.8687 -0.6068
 4448SOL     OW24976   1.799   3.679   5.645 -0.3159 -0.2333 -0.3407
 4448SOL    HW124977   1.784   3.736   5.720  0.4022 -0.2408 -0.1864
 4448SOL    HW224978   1.768   3.732   5.572  2.3233 -0.4980 -1.6815
 4449SOL     OW24979   2.546   3.950   8.492 -0.4756  0.2286 -0.0347
 4449SOL    HW124980   2.540   3.912   8.579 -1.0188 -1.0232 -0.6173
 4449SOL    HW224981   2.575   4.038   8.514 -1.1937  0.7767 -1.2334
 4450SOL     OW24982   1.192   3.170   2.308 -0.2144  0.0302  0.2374
 4450SOL    HW124983   1.211   3.104   2.375  0.4910 -1.8804 -1.8095
 4450SOL    HW224984   1.262   3.228   2.337  0.7925 -1.1474  0.1657
 4451SOL     OW24985   0.979   1.646  14.858 -0.2094  0.1499  0.2511
 4451SOL    HW124986   0.971   1.589  14.934  2.8360 -0.5980 -0.0124
 4451SOL    HW224987   0.920   1.608  14.793  0.2942 -3.3064  1.8038
 4452SOL     OW24988   0.200   3.671   2.355 -0.0731  0.5750  0.5214
 4452SOL    HW124989   0.267   3.732   2.326  1.6872 -1.6214 -0.0136
 4452SOL    HW224990   0.124   3.719   2.321 -1.2023 -0.7358  1.1725
 4453SOL     OW24991   0.613   4.429   6.806 -0.2027 -0.0721  0.0087
 4453SOL    HW124992   0.577   4.404   6.891  0.5858 -1.6384 -0.1147
 4453SOL    HW224993   0.699   4.387   6.812 -0.0779  0.2055  0.1430
 4454SOL     OW24994   3.996   4.295   4.627  0.0329 -0.2515  0.7326
 4454SOL    HW124995   3.963   4.353   4.696  0.7799  1.3347 -0.2231
 4454SOL    HW224996   4.070   4.351   4.605  1.1144 -1.4780  1.3158
 4455SOL     OW24997   1.768   2.414   5.445 -0.5355  0.8461 -0.6494
 4455SOL    HW124998   1.708   2.375   5.509  2.0342 -2.0099  0.0142
 4455SOL    HW224999   1.810   2.334   5.412  0.1151  0.4129  1.2495
 4456SOL     OW25000   0.939   4.634   9.294 -0.4704 -0.0170  0.4480
 4456SOL    HW125001   0.947   4.689   9.216  5.6205 -2.2583 -0.5211
 4456SOL    HW225002   1.000   4.671   9.358 -0.1801  2.5630 -1.3194
 4457SOL     OW25003   0.340   2.287   6.052  0.0849 -0.4122  0.6991
 4457SOL    HW125004   0.427   2.326   6.055  0.1353 -0.7560  3.4569
 4457SOL    HW225005   0.337   2.224   6.124  1.7682  0.0998  1.2239
 4458SOL     OW25006   2.620   4.529  10.272  0.3529 -0.0596  0.2708
 4458SOL    HW125007   2.615   4.574  10.357  0.3965  0.7459 -0.1493
 4458SOL    HW225008   2.657   4.451  10.312  0.5916 -0.2735 -0.3681
 4459SOL     OW25009   1.570   4.044   6.614  0.3978  0.1194  0.3797
 4459SOL    HW125010   1.663   4.056   6.634 -0.2602  1.0517  2.8272
 4459SOL    HW225011   1.568   3.950   6.595 -1.5371  0.2590 -0.0929
 4460SOL     OW25012   2.546   2.249   7.944  0.8544  0.2399  0.1485
 4460SOL    HW125013   2.518   2.201   7.867  2.4569 -0.2053 -0.1614
 4460SOL    HW225014   2.606   2.186   7.984  2.6052  2.0839  0.4267
 4461SOL     OW25015   0.409   3.202   1.306  0.0568 -0.3151  0.5051
 4461SOL    HW125016   0.415   3.269   1.374 -1.3023  0.0526  0.2533
 4461SOL    HW225017   0.322   3.214   1.268 -0.0469  1.7306  1.3825
 4462SOL     OW25018   4.582   2.879   3.781 -0.3010  0.1556  0.2291
 4462SOL    HW125019   4.674   2.902   3.784 -0.0506 -0.8678  0.3947
 4462SOL    HW225020   4.583   2.861   3.687 -1.1017  1.1617  0.0176
 4463SOL     OW25021   0.168   3.289  11.102  0.2193  0.6168 -0.0826
 4463SOL    HW125022   0.230   3.288  11.029 -1.0967 -0.0845 -1.1949
 4463SOL    HW225023   0.228   3.281  11.176  0.6365  0.0365 -0.4905
 4464SOL     OW25024   0.751   1.375   9.995  0.1308  0.1894  0.0215
 4464SOL    HW125025   0.744   1.373  10.091 -1.2442  1.6142 -0.0397
 4464SOL    HW225026   0.677   1.319   9.969 -0.1094  1.0390 -1.1437
 4465SOL     OW25027   2.713   0.088   6.044 -0.3277 -0.2863  0.3988
 4465SOL    HW125028   2.741   0.001   6.071 -1.4825 -0.3857  1.2653
 4465SOL    HW225029   2.688   0.131   6.126  1.1806  0.8220  0.2914
 4466SOL     OW25030   3.198   2.408   3.251  0.4336 -0.3665  0.3826
 4466SOL    HW125031   3.208   2.316   3.277 -0.7984 -0.0339  2.0469
 4466SOL    HW225032   3.218   2.456   3.332 -2.6995  0.3661  0.7089
 4467SOL     OW25033   4.490   0.699   9.919  0.3156 -0.2461 -0.3363
 4467SOL    HW125034   4.430   0.761   9.961  0.2435 -1.2136  0.9961
 4467SOL    HW225035   4.574   0.742   9.934 -1.4700  2.6426  1.3655
 4468SOL     OW25036   1.919   0.537   4.112  0.0634 -0.1495 -0.5286
 4468SOL    HW125037   1.894   0.629   4.126  1.9564  0.3504 -0.4482
 4468SOL    HW225038   1.853   0.494   4.165 -0.0990 -0.8506 -1.2893
 4469SOL     OW25039   3.141   0.490   8.123  0.3966  0.1205 -0.4264
 4469SOL    HW125040   3.223   0.489   8.172  0.0748  0.5689  0.1265
 4469SOL    HW225041   3.113   0.580   8.138 -1.1914 -0.4592  0.0602
 4470SOL     OW25042   1.485   3.218   5.289 -0.0056 -0.0024 -0.1975
 4470SOL    HW125043   1.407   3.223   5.343  0.5242 -0.3262  0.6070
 4470SOL    HW225044   1.542   3.156   5.336  1.4568  1.5715  0.1163
 4471SOL     OW25045   0.779   1.220   6.765  0.6113 -0.0656  0.2700
 4471SOL    HW125046   0.725   1.294   6.790 -1.0485 -0.7079 -1.4104
 4471SOL    HW225047   0.724   1.145   6.787  0.1426  0.9520  2.5368
 4472SOL     OW25048   0.067   2.105   2.184  0.5375 -0.3809  0.4284
 4472SOL    HW125049   0.054   2.043   2.112  0.9828  3.0088 -2.6067
 4472SOL    HW225050   0.145   2.154   2.156  0.6230 -0.9941 -0.4117
 4473SOL     OW25051   4.358   4.114   3.994 -0.3050  0.2184 -0.4219
 4473SOL    HW125052   4.308   4.033   4.006 -1.2926  0.6966 -1.4290
 4473SOL    HW225053   4.342   4.134   3.902  1.3700 -0.3688 -0.8545
 4474SOL     OW25054   0.918   0.849  13.875 -0.4075  0.1688  0.6916
 4474SOL    HW125055   1.012   0.856  13.890 -0.4666 -3.8806  2.8948
 4474SOL    HW225056   0.911   0.934  13.831  0.5955  0.7121  1.5846
 4475SOL     OW25057   3.681   4.726  16.967 -0.2290 -0.2759  0.4274
 4475SOL    HW125058   3.643   4.658  16.913  0.4656 -1.5791  1.5891
 4475SOL    HW225059   3.733   0.043  16.907 -1.6599  0.6179 -0.0116
 4476SOL     OW25060   3.297   4.639  14.379 -0.3059 -0.5732  0.0633
 4476SOL    HW125061   3.265   4.549  14.370  0.4539 -0.6751 -1.5800
 4476SOL    HW225062   3.355   4.658  14.305 -0.3028 -0.8650 -0.0082
 4477SOL     OW25063   1.286   4.598  14.171 -0.5722  0.3048  0.0054
 4477SOL    HW125064   1.201   4.642  14.162 -0.4769  0.7259  1.1450
 4477SOL    HW225065   1.301   4.612  14.264  0.0980  0.8976 -0.1955
 4478SOL     OW25066   1.657   4.700  15.302  0.1152 -0.3593 -0.0783
 4478SOL    HW125067   1.669   4.623  15.358 -4.3591 -3.6289 -3.5766
 4478SOL    HW225068   1.672   4.670  15.212  0.4642  0.8676 -0.4281
 4479SOL     OW25069   1.416   4.111  15.742 -0.0223 -0.2037 -0.2195
 4479SOL    HW125070   1.332   4.144  15.774 -1.5195 -2.6534 -1.6179
 4479SOL    HW225071   1.425   4.037  15.802  1.7862  1.3050  1.3865
 4480SOL     OW25072   1.364   4.044   1.841 -0.2546  0.4939 -0.5770
 4480SOL    HW125073   1.332   4.050   1.751  0.1354 -0.0639 -0.7491
 4480SOL    HW225074   1.439   3.984   1.840 -1.4718 -0.9939 -1.5794
 4481SOL     OW25075   0.275   3.676  14.679  0.9689 -0.4588 -0.1957
 4481SOL    HW125076   0.254   3.706  14.767 -0.0432  0.1951 -0.6639
 4481SOL    HW225077   0.223   3.742  14.634  0.5944 -0.1527  0.6898
 4482SOL     OW25078   0.274   3.472   0.852  0.0486  0.4713 -0.2483
 4482SOL    HW125079   0.357   3.439   0.816  0.3743  1.5256 -0.4633
 4482SOL    HW225080   0.207   3.427   0.802 -1.7621  1.3314  1.4058
 4483SOL     OW25081   0.872   1.917  10.959  0.4201 -0.0524 -0.1199
 4483SOL    HW125082   0.941   1.860  10.925  2.3484  3.0405 -1.3395
 4483SOL    HW225083   0.849   1.868  11.038 -0.6406 -0.0901 -0.4450
 4484SOL     OW25084   4.725   4.495  14.623 -0.6353  0.4833 -0.5370
 4484SOL    HW125085   0.019   4.462  14.707 -2.8679 -1.0491 -0.3311
 4484SOL    HW225086   4.681   4.412  14.605  1.5949 -0.8763  0.3004
 4485SOL     OW25087   1.173   2.712  14.807  0.2145 -0.1757  0.6365
 4485SOL    HW125088   1.268   2.713  14.799  0.1195  1.1774 -0.4971
 4485SOL    HW225089   1.144   2.671  14.725  0.8666  0.3778  0.1226
 4486SOL     OW25090   0.235   1.577   5.398  0.5103 -0.6198 -0.4512
 4486SOL    HW125091   0.271   1.585   5.486 -1.5046 -0.1026  0.3413
 4486SOL    HW225092   0.309   1.605   5.344  0.6220  1.0060  0.5454
 4487SOL     OW25093   0.744   1.349  15.740  0.3082 -0.2037  0.8050
 4487SOL    HW125094   0.661   1.325  15.781 -0.6528  0.9500 -0.4719
 4487SOL    HW225095   0.753   1.437  15.777 -2.3929 -0.3766  1.8944
 4488SOL     OW25096   0.642   2.440   8.705 -0.1331 -0.4899 -0.0690
 4488SOL    HW125097   0.561   2.446   8.756  0.5628 -0.7631  1.0689
 4488SOL    HW225098   0.664   2.347   8.713  0.6319 -0.5135 -2.7176
 4489SOL     OW25099   3.432   4.229  14.065  0.2315 -0.0233 -0.5626
 4489SOL    HW125100   3.433   4.136  14.040 -1.6245  0.0117 -0.7736
 4489SOL    HW225101   3.374   4.220  14.141  0.8559 -1.5547 -0.2508
 4490SOL     OW25102   1.248   0.397  10.886 -0.0739  0.1649  0.5185
 4490SOL    HW125103   1.226   0.355  10.803 -1.3008  0.0878  0.8820
 4490SOL    HW225104   1.287   0.323  10.933 -1.3971  0.5714  2.2529
 4491SOL     OW25105   4.642   2.062   8.999 -0.0245  0.0590 -0.1195
 4491SOL    HW125106   4.558   2.057   8.954 -0.3933 -2.0276  0.8112
 4491SOL    HW225107   4.635   1.996   9.069  0.0059  0.2279  0.0440
 4492SOL     OW25108   3.385   4.373   1.842  0.3288  0.7188 -0.3611
 4492SOL    HW125109   3.396   4.298   1.901 -1.1192  0.6828 -0.1447
 4492SOL    HW225110   3.365   4.336   1.756 -1.8292 -3.8380  2.0941
 4493SOL     OW25111   3.354   3.381   8.818  0.4086  0.1721  0.3828
 4493SOL    HW125112   3.404   3.367   8.738 -0.3910  1.9831 -0.4205
 4493SOL    HW225113   3.348   3.476   8.814  1.9333  0.1300 -2.7632
 4494SOL     OW25114   0.501   0.491   7.856  0.2523  0.5652 -0.0959
 4494SOL    HW125115   0.512   0.546   7.779 -1.8740  0.1358 -0.7031
 4494SOL    HW225116   0.407   0.478   7.861  0.6557 -2.7241 -1.3124
 4495SOL     OW25117   2.333   2.774  13.637 -0.2331 -0.2350 -0.3035
 4495SOL    HW125118   2.242   2.744  13.637 -0.5913  0.8520 -0.4226
 4495SOL    HW225119   2.368   2.767  13.725  0.0072  1.6015 -0.2621
 4496SOL     OW25120   3.524   0.036   4.706 -0.0138 -0.5127  0.4423
 4496SOL    HW125121   3.516   0.049   4.801  2.5808  0.8903  0.4645
 4496SOL    HW225122   3.434   0.050   4.677  0.2552 -3.1372 -1.6711
 4497SOL     OW25123   1.523   3.570   2.694 -0.6334 -0.5630  0.5565
 4497SOL    HW125124   1.461   3.503   2.667 -2.0301  1.1066 -0.4277
 4497SOL    HW225125   1.462   3.644   2.697  0.9376  0.6971  1.2720
 4498SOL     OW25126   4.403   2.824  11.987 -0.1926  0.5132 -0.8576
 4498SOL    HW125127   4.439   2.868  12.064  0.5219  0.3715 -1.1058
 4498SOL    HW225128   4.336   2.762  12.017  0.1778 -0.2185 -1.5224
 4499SOL     OW25129   0.185   1.918  11.572 -0.3178 -0.0779  0.4952
 4499SOL    HW125130   0.278   1.914  11.553 -0.4728  0.1060 -0.2731
 4499SOL    HW225131   0.143   1.902  11.488  0.6653  2.2256 -0.4379
 4500SOL     OW25132   3.824   4.685   6.743 -0.0696 -0.0363 -0.3961
 4500SOL    HW125133   3.844   4.645   6.828 -0.7844  1.8896  0.6704
 4500SOL    HW225134   3.729   4.675   6.738  0.0562 -1.7149  0.3849
 4501SOL     OW25135   3.707   0.650  13.236 -0.1105  0.3216 -0.6611
 4501SOL    HW125136   3.687   0.735  13.197 -2.6864  1.2099  2.5634
 4501SOL    HW225137   3.800   0.635  13.218  0.1159  1.5970 -0.5190
 4502SOL     OW25138   0.832   2.225   5.250 -0.2681 -0.0701  0.0976
 4502SOL    HW125139   0.918   2.242   5.212  0.0078 -2.0820 -0.2096
 4502SOL    HW225140   0.789   2.223   5.164  2.1964  0.9997 -1.1648
 4503SOL     OW25141   0.055   4.423   2.367  0.2988  0.3256  0.2269
 4503SOL    HW125142   0.025   4.389   2.452 -0.8684  1.4995  0.2928
 4503SOL    HW225143   0.095   4.349   2.322  1.8329  2.6835 -2.2264
 4504SOL     OW25144   2.935   3.772   0.326 -0.2226 -0.1321  0.6779
 4504SOL    HW125145   2.957   3.825   0.403 -2.0730  0.6130  0.6850
 4504SOL    HW225146   3.007   3.796   0.267  0.8830 -0.2345  2.0009
 4505SOL     OW25147   2.668   0.551   2.486  0.4187  0.8205 -0.0548
 4505SOL    HW125148   2.671   0.606   2.564  1.1651 -1.4732  1.5386
 4505SOL    HW225149   2.575   0.529   2.492  0.4598  0.7006  0.1369
 4506SOL     OW25150   1.604   3.251   7.184  0.3750 -0.2692 -0.1339
 4506SOL    HW125151   1.571   3.337   7.158  1.7586  0.5853  0.8903
 4506SOL    HW225152   1.650   3.273   7.265  0.5977  1.5334 -0.7427
 4507SOL     OW25153   4.346   3.070   0.810 -0.8113 -0.1040 -0.0553
 4507SOL    HW125154   4.264   3.074   0.760  0.4956  1.4717 -2.0413
 4507SOL    HW225155   4.314   3.135   0.873  0.0715 -0.9212  1.2283
 4508SOL     OW25156   3.188   4.085  10.581 -0.1679 -0.2912  0.7304
 4508SOL    HW125157   3.258   4.150  10.592 -0.7288  0.1787  1.4762
 4508SOL    HW225158   3.181   4.039  10.664 -0.0689 -1.2475  0.2018
 4509SOL     OW25159   3.511   4.023   7.875  0.0323  0.3981  0.0771
 4509SOL    HW125160   3.606   4.035   7.878  0.2344 -1.5226  1.2678
 4509SOL    HW225161   3.496   4.112   7.843 -0.8204 -0.2299 -1.2678
 4510SOL     OW25162   4.652   2.458   7.188 -0.0676  0.6777  0.0507
 4510SOL    HW125163   4.700   2.521   7.241 -0.2246 -1.0297  2.2141
 4510SOL    HW225164   4.663   2.387   7.251 -0.6975 -0.5249 -1.1903
 4511SOL     OW25165   1.128   1.006   7.821  0.0465  0.6953 -0.3982
 4511SOL    HW125166   1.074   0.942   7.774 -0.1571 -0.6553  1.6843
 4511SOL    HW225167   1.191   0.953   7.869 -0.0267  0.4238 -0.6002
 4512SOL     OW25168   0.337   3.244   4.478  0.1429 -0.0418  0.1534
 4512SOL    HW125169   0.395   3.244   4.555 -1.4907  0.5187  1.3735
 4512SOL    HW225170   0.257   3.234   4.529 -0.1077 -2.7174 -0.7495
 4513SOL     OW25171   3.257   1.850   3.894  0.1450 -0.4259  0.2885
 4513SOL    HW125172   3.189   1.845   3.826 -1.0255  2.6215  1.2093
 4513SOL    HW225173   3.219   1.807   3.970 -1.0343 -0.6563 -0.4357
 4514SOL     OW25174   3.077   1.084   8.900 -0.2832  0.2600 -0.2847
 4514SOL    HW125175   3.161   1.119   8.929 -0.2442  1.4022 -1.7932
 4514SOL    HW225176   3.073   1.094   8.805 -0.7923 -1.6580 -0.4680
 4515SOL     OW25177   1.030   2.362   7.679  0.1144  0.2220  0.2144
 4515SOL    HW125178   1.089   2.313   7.735 -0.4772 -0.7188  0.0061
 4515SOL    HW225179   1.065   2.337   7.593  1.6866  2.2295  0.2643
 4516SOL     OW25180   4.243   0.916  17.188 -0.3319  0.1170 -0.2750
 4516SOL    HW125181   4.224   0.987  17.126 -0.2436 -1.1559 -1.7692
 4516SOL    HW225182   4.337   0.931  17.198 -0.5984  0.5316  1.6113
 4517SOL     OW25183   0.690   4.670   1.189 -0.1307  0.3128  0.4951
 4517SOL    HW125184   0.621   4.735   1.177  0.4802  0.3680 -2.8097
 4517SOL    HW225185   0.759   4.734   1.205 -0.1365  0.2404  0.8173
 4518SOL     OW25186   3.026   0.169   8.696 -0.0992 -0.3162  0.0564
 4518SOL    HW125187   3.079   0.147   8.773  0.8355  0.4982 -0.3523
 4518SOL    HW225188   2.966   0.239   8.719 -0.2107 -0.2781 -0.3458
 4519SOL     OW25189   3.471   3.839  12.958  0.2401  0.0619 -0.0804
 4519SOL    HW125190   3.377   3.842  12.976  0.4433 -0.5733  1.1355
 4519SOL    HW225191   3.487   3.905  12.891 -1.2687  2.1778  1.6097
 4520SOL     OW25192   0.736   3.622   1.833 -0.1243 -0.1290 -0.1186
 4520SOL    HW125193   0.786   3.667   1.902  0.6658 -0.6023 -0.3810
 4520SOL    HW225194   0.720   3.536   1.871 -0.6347 -0.0112 -0.0694
 4521SOL     OW25195   4.335   0.761   2.322 -0.1034 -0.3035 -0.1724
 4521SOL    HW125196   4.395   0.738   2.252  2.3432  1.2827  1.3895
 4521SOL    HW225197   4.397   0.823   2.359 -0.8277  1.4231 -1.8817
 4522SOL     OW25198   4.588   1.076   0.295  0.2462  0.4796  0.5724
 4522SOL    HW125199   4.607   1.055   0.203  0.0095  1.3029  0.3336
 4522SOL    HW225200   4.594   1.171   0.284  1.5896  0.3564  0.2228
 4523SOL     OW25201   3.978   0.120   3.922  0.3589 -0.7230 -0.1850
 4523SOL    HW125202   4.029   0.142   4.000 -1.1498  2.3025 -0.0746
 4523SOL    HW225203   4.053   0.136   3.865  1.5379 -1.5352  1.1181
 4524SOL     OW25204   3.949   1.418   8.773  0.0853 -0.6235 -0.4152
 4524SOL    HW125205   3.891   1.385   8.843 -0.2748  1.2881  0.2085
 4524SOL    HW225206   3.913   1.507   8.765  0.2056 -0.6002 -0.6891
 4525SOL     OW25207   2.750   3.236   5.582 -0.3612  0.2259  0.2070
 4525SOL    HW125208   2.690   3.246   5.508  0.3403 -1.9509 -0.6745
 4525SOL    HW225209   2.795   3.319   5.565 -1.1980  0.6125 -0.1360
 4526SOL     OW25210   4.322   1.381   6.620  0.2692  0.2310 -0.3832
 4526SOL    HW125211   4.356   1.325   6.690 -2.1421 -1.2151 -0.3667
 4526SOL    HW225212   4.230   1.386   6.648 -0.3773  2.1467 -2.8570
 4527SOL     OW25213   4.255   3.509  17.397  0.0560  0.1165 -0.5080
 4527SOL    HW125214   4.166   3.515  17.364 -0.3716  0.5752  0.7325
 4527SOL    HW225215   4.250   3.567  17.473 -0.4082 -1.6081  0.7570
 4528SOL     OW25216   2.719   1.074  11.229  0.2099  0.6281 -0.7079
 4528SOL    HW125217   2.795   1.091  11.286 -1.4404  1.5912  1.2334
 4528SOL    HW225218   2.693   0.986  11.256 -1.1741  0.7678 -1.6090
 4529SOL     OW25219   3.226   0.611   5.284 -0.2362 -0.2996 -0.3540
 4529SOL    HW125220   3.282   0.535   5.301 -1.4603 -1.2592 -0.6272
 4529SOL    HW225221   3.251   0.671   5.355  0.4381 -2.8468  1.5579
 4530SOL     OW25222   4.342   1.741  11.449  0.1082  0.4552  0.2055
 4530SOL    HW125223   4.379   1.829  11.454 -1.2102  0.9662  0.9509
 4530SOL    HW225224   4.358   1.701  11.535  3.0455  0.8243 -0.1685
 4531SOL     OW25225   0.762   2.339  14.048 -0.4995  0.7319 -0.1984
 4531SOL    HW125226   0.806   2.422  14.029  0.2307  0.2028 -0.8324
 4531SOL    HW225227   0.789   2.337  14.140  1.1555  2.9961 -0.6111
 4532SOL     OW25228   1.339   0.075  10.073  0.5498  0.2926 -1.0316
 4532SOL    HW125229   1.424   0.050  10.108 -0.1451 -0.8103 -0.1290
 4532SOL    HW225230   1.355   0.007  10.008 -0.0847 -2.1905  1.4257
 4533SOL     OW25231   1.509   0.998   8.710  0.3197 -0.8749  0.2554
 4533SOL    HW125232   1.548   0.954   8.786 -0.2478 -0.3990  0.8190
 4533SOL    HW225233   1.571   1.069   8.695  1.2621 -1.5715  0.8476
 4534SOL     OW25234   3.011   3.726   7.160 -0.6171  0.9275 -0.1684
 4534SOL    HW125235   3.081   3.785   7.189 -1.4240  1.0972  1.4034
 4534SOL    HW225236   3.061   3.644   7.167  0.3043  1.4762 -0.2712
 4535SOL     OW25237   2.383   1.648   4.616  0.4763  0.5343 -0.0746
 4535SOL    HW125238   2.467   1.651   4.570  0.6689 -1.2010  0.1598
 4535SOL    HW225239   2.415   1.697   4.692 -0.2552  0.5076  0.2435
 4536SOL     OW25240   3.062   4.594  11.928  0.3773  0.0271 -0.4109
 4536SOL    HW125241   2.968   4.597  11.908  0.4115  2.7540 -0.1810
 4536SOL    HW225242   3.091   4.598  11.837 -0.4859 -0.3857 -0.7052
 4537SOL     OW25243   3.473   4.284   9.608 -0.5240  0.6468  0.0024
 4537SOL    HW125244   3.537   4.289   9.537  1.8259 -0.7142  2.0252
 4537SOL    HW225245   3.488   4.193   9.635 -2.1119  0.8390  1.5270
 4538SOL     OW25246   0.031   1.416   9.489  0.4044  0.0643  0.1801
 4538SOL    HW125247   4.689   1.457   9.527 -1.7791 -2.9256 -1.1584
 4538SOL    HW225248   4.732   1.388   9.405  0.2985 -0.9831  0.5780
 4539SOL     OW25249   4.370   0.634  11.361  0.0069 -0.8364  0.6403
 4539SOL    HW125250   4.334   0.704  11.306 -2.4397 -1.5005  1.4154
 4539SOL    HW225251   4.405   0.576  11.294 -0.9380 -1.2696  0.5208
 4540SOL     OW25252   4.061   2.403   9.645 -0.7379 -0.1568 -0.5062
 4540SOL    HW125253   4.037   2.333   9.706  2.6694 -0.4404  0.5072
 4540SOL    HW225254   4.099   2.352   9.574  0.4599  2.2711 -1.6461
 4541SOL     OW25255   4.117   0.631   8.692 -0.6257  0.2379  0.0238
 4541SOL    HW125256   4.039   0.645   8.638  1.2909  0.8765 -2.5417
 4541SOL    HW225257   4.115   0.535   8.689  0.6919  0.2361 -0.8567
 4542SOL     OW25258   0.105   2.526   9.956 -0.1997 -0.3733  0.2643
 4542SOL    HW125259   0.148   2.488  10.033  0.7529  1.3301  0.5747
 4542SOL    HW225260   0.092   2.440   9.915  1.5209  0.5793 -2.3267
 4543SOL     OW25261   4.246   3.934  14.226 -0.7584  0.4676  0.7659
 4543SOL    HW125262   4.249   4.028  14.204  1.1332 -0.0009 -0.9430
 4543SOL    HW225263   4.256   3.960  14.317 -1.4396  1.6548  0.5129
 4544SOL     OW25264   2.127   3.219   4.979  0.1525  0.2199  0.5031
 4544SOL    HW125265   2.204   3.169   5.008 -1.6390 -2.3879  0.7872
 4544SOL    HW225266   2.072   3.141   4.968 -1.4313  1.7397 -2.4203
 4545SOL     OW25267   1.770   0.403   5.570  0.9174 -0.0199  0.2126
 4545SOL    HW125268   1.858   0.395   5.532  0.3433 -0.6341 -0.9829
 4545SOL    HW225269   1.797   0.360   5.651  0.9978 -0.3171  0.0274
 4546SOL     OW25270   2.090   1.174   9.593 -0.0672  0.3428 -0.2968
 4546SOL    HW125271   2.014   1.230   9.613 -1.1892 -2.5960  3.6262
 4546SOL    HW225272   2.152   1.227   9.543 -1.6881  1.1425 -1.4694
 4547SOL     OW25273   3.265   0.329  15.153 -0.1316  0.0084  0.4223
 4547SOL    HW125274   3.286   0.420  15.173  0.8880 -0.2494  0.5432
 4547SOL    HW225275   3.350   0.293  15.129 -0.5462 -0.6433 -0.0762
 4548SOL     OW25276   1.338   1.171   3.147 -0.9040  0.4964 -0.1754
 4548SOL    HW125277   1.286   1.225   3.087  0.8711  1.0551 -1.1883
 4548SOL    HW225278   1.302   1.209   3.227 -1.6310 -2.3341  0.8577
 4549SOL     OW25279   4.527   1.363   5.071  0.4472  0.7431 -0.2548
 4549SOL    HW125280   4.585   1.316   5.011 -0.3175  0.5303 -0.8215
 4549SOL    HW225281   4.557   1.452   5.055  2.2944  0.5087  1.8121
 4550SOL     OW25282   3.367   4.687  15.548  0.6401 -0.0139  0.1888
 4550SOL    HW125283   3.323   4.700  15.464  0.1902 -0.9356  0.2723
 4550SOL    HW225284   3.308   4.618  15.579 -0.2514  0.3334 -0.7234
 4551SOL     OW25285   0.993   3.326   6.972  0.5641 -0.9935  0.2961
 4551SOL    HW125286   1.080   3.355   6.946 -0.0313 -0.5359 -1.1619
 4551SOL    HW225287   0.971   3.279   6.892  0.6631  0.5533 -0.6374
 4552SOL     OW25288   1.946   3.994   2.816 -0.4104  0.1680  0.0393
 4552SOL    HW125289   1.912   3.925   2.759 -0.0530  0.4480 -0.5093
 4552SOL    HW225290   1.929   4.066   2.756 -2.3280 -0.3746 -0.0821
 4553SOL     OW25291   1.120   4.414   6.365  0.3174  0.7958  0.5634
 4553SOL    HW125292   1.177   4.364   6.424  1.1836  2.1745  0.8970
 4553SOL    HW225293   1.174   4.408   6.286 -1.5439 -0.5965 -0.6069
 4554SOL     OW25294   4.219   0.762   4.800  0.0550 -0.6884  0.1299
 4554SOL    HW125295   4.288   0.813   4.759  1.1906 -1.6725  0.8230
 4554SOL    HW225296   4.165   0.732   4.727 -1.1552  1.8920 -0.0402
 4555SOL     OW25297   1.591   4.662  14.527 -0.5500  0.9109  0.0556
 4555SOL    HW125298   1.500   4.635  14.513 -0.3350 -0.0280  0.4966
 4555SOL    HW225299   1.623   4.671  14.437  0.8118 -1.3852  0.3234
 4556SOL     OW25300   3.093   3.042  17.323  0.1808 -0.0757 -0.1923
 4556SOL    HW125301   3.152   2.973  17.354  1.6238  1.8630  1.3623
 4556SOL    HW225302   3.154   3.107  17.288  0.2029 -0.3031 -0.5858
 4557SOL     OW25303   1.844   2.837   1.563 -0.0430  0.3483 -0.0397
 4557SOL    HW125304   1.753   2.822   1.537  0.3842  0.4949 -1.6192
 4557SOL    HW225305   1.844   2.839   1.659  2.1535 -1.2262 -0.0067
 4558SOL     OW25306   2.814   2.984   9.187 -0.2372 -0.3507  0.1838
 4558SOL    HW125307   2.802   2.891   9.205  0.3920 -0.3406  0.6816
 4558SOL    HW225308   2.730   3.008   9.147 -0.2019 -0.7413 -0.1216
 4559SOL     OW25309   0.452   0.992   2.197 -0.6003  0.5915  0.3509
 4559SOL    HW125310   0.491   0.907   2.176 -1.2093  0.3599  0.1416
 4559SOL    HW225311   0.381   0.987   2.132 -1.1024 -1.7676  1.0766
 4560SOL     OW25312   1.898   2.463   8.733  0.4983  0.4768 -0.4872
 4560SOL    HW125313   1.983   2.488   8.771 -0.9057 -1.2098  3.8043
 4560SOL    HW225314   1.930   2.443   8.645 -1.3720  1.3222 -1.3624
 4561SOL     OW25315   2.533   0.036   6.532 -0.2637  0.7672  0.4092
 4561SOL    HW125316   2.497   4.684   6.534  0.7212  0.4201  2.4115
 4561SOL    HW225317   2.509   0.067   6.619  0.2011  1.7846  0.1806
 4562SOL     OW25318   1.742   2.040   2.192 -0.0240 -0.1958  0.2207
 4562SOL    HW125319   1.662   2.027   2.141  0.8050  1.5923 -1.5144
 4562SOL    HW225320   1.755   1.960   2.243  1.2359 -0.0053  0.1950
 4563SOL     OW25321   2.264   2.030   2.928  0.2141  0.2793  0.1115
 4563SOL    HW125322   2.215   2.095   2.979  0.7528  2.5632 -2.3020
 4563SOL    HW225323   2.346   2.077   2.917  0.8040 -1.1835 -1.6979
 4564SOL     OW25324   3.838   0.108   7.143  0.0689 -0.0786  0.3849
 4564SOL    HW125325   3.908   0.165   7.112 -1.9141  0.2521 -3.6269
 4564SOL    HW225326   3.866   0.023   7.109 -0.3294 -0.2812  0.5611
 4565SOL     OW25327   2.949   4.335   1.457  0.2666 -0.7249 -0.0693
 4565SOL    HW125328   2.855   4.326   1.437  0.1271  2.9123 -1.0350
 4565SOL    HW225329   2.974   4.391   1.384  0.5531 -0.7679 -0.0016
 4566SOL     OW25330   1.085   1.270   1.889 -0.0256  0.1933 -0.6731
 4566SOL    HW125331   1.044   1.224   1.962 -0.9307 -0.4637 -1.5909
 4566SOL    HW225332   1.097   1.357   1.928  0.4518  1.0046 -2.6308
 4567SOL     OW25333   2.032   1.608   3.211 -0.0600 -0.1285 -0.2586
 4567SOL    HW125334   2.096   1.653   3.266  0.6602 -2.5425  0.8547
 4567SOL    HW225335   2.008   1.684   3.159  1.0361 -0.2059 -0.8672
 4568SOL     OW25336   1.955   2.457   7.760 -0.0902 -0.0394  0.1848
 4568SOL    HW125337   2.002   2.374   7.766  2.3268  1.3740  0.7220
 4568SOL    HW225338   1.993   2.517   7.824  0.1392 -0.6873  0.6553
 4569SOL     OW25339   1.589   0.319  17.436 -0.0852 -0.4132 -0.3949
 4569SOL    HW125340   1.590   0.411  17.407 -3.5437 -0.4407 -0.6144
 4569SOL    HW225341   1.531   0.287  17.367 -0.0705  2.9332 -1.9542
 4570SOL     OW25342   1.306   0.029   7.508  0.1156 -0.3817 -0.1888
 4570SOL    HW125343   1.378   4.702   7.505 -1.8413 -2.6279  0.3184
 4570SOL    HW225344   1.279   0.022   7.599 -2.5108 -0.9094 -1.0025
 4571SOL     OW25345   0.468   1.529   5.908 -0.2341 -0.3075  0.1229
 4571SOL    HW125346   0.546   1.573   5.873 -0.7360  0.2141 -0.3376
 4571SOL    HW225347   0.492   1.524   6.000  2.9941  1.0738 -0.6178
 4572SOL     OW25348   1.825   0.615  11.761  0.2874 -0.0158  0.4333
 4572SOL    HW125349   1.905   0.635  11.810  2.0950 -0.9928 -2.1059
 4572SOL    HW225350   1.863   0.567  11.687 -1.6215  0.8888 -1.1347
 4573SOL     OW25351   0.778   0.862   6.120  0.0542  0.1339  0.2958
 4573SOL    HW125352   0.763   0.888   6.211  0.4193  1.7916 -0.1088
 4573SOL    HW225353   0.692   0.876   6.080  0.2662 -1.9634 -0.8676
 4574SOL     OW25354   2.915   2.147   1.799 -0.2113  0.3115 -0.0095
 4574SOL    HW125355   2.858   2.071   1.803  0.1382 -0.0139 -1.2614
 4574SOL    HW225356   2.977   2.105   1.739 -1.5985  0.7215 -1.7279
 4575SOL     OW25357   2.085   3.710   1.774 -0.0504 -0.0933  0.0395
 4575SOL    HW125358   2.150   3.750   1.717  0.2680 -0.0805  0.4089
 4575SOL    HW225359   2.011   3.770   1.765 -0.1176  0.0969  1.8636
 4576SOL     OW25360   2.218   0.694   2.536  0.0344  0.2455  0.6083
 4576SOL    HW125361   2.291   0.678   2.476 -2.0642 -0.5787 -1.7445
 4576SOL    HW225362   2.162   0.620   2.512  2.4690 -1.0287 -1.0813
 4577SOL     OW25363   4.606   4.486   2.122  0.3485 -0.3427  0.5582
 4577SOL    HW125364   4.679   4.519   2.175 -0.0780  0.6605  0.5174
 4577SOL    HW225365   4.531   4.500   2.180  0.8111 -1.1806  1.3684
 4578SOL     OW25366   0.025   4.412   5.619  0.7539 -0.3525 -0.0141
 4578SOL    HW125367   0.114   4.377   5.619  1.1326  0.5963 -1.3187
 4578SOL    HW225368   4.712   4.335   5.590 -1.2938  1.0726 -0.3064
 4579SOL     OW25369   1.576   3.696   6.303 -0.2056  0.3552  0.9303
 4579SOL    HW125370   1.534   3.641   6.237 -1.1655  2.8887 -0.5729
 4579SOL    HW225371   1.663   3.657   6.310 -0.9900 -1.4807  0.4317
 4580SOL     OW25372   1.615   3.927  10.202 -0.0476  0.7807  0.1578
 4580SOL    HW125373   1.542   3.931  10.140 -0.8763 -0.3922  1.0632
 4580SOL    HW225374   1.607   3.833  10.217 -0.1649  0.8498  0.5242
 4581SOL     OW25375   0.141   4.464   4.077  0.4092  0.4578 -0.0672
 4581SOL    HW125376   0.081   4.414   4.022 -0.0341 -2.3864  3.0553
 4581SOL    HW225377   0.230   4.449   4.044  0.8411  0.0057  1.3240
 4582SOL     OW25378   4.521   3.340  11.303 -0.4106  0.6593 -0.7216
 4582SOL    HW125379   4.582   3.323  11.375 -1.9911 -0.9521  0.2438
 4582SOL    HW225380   4.491   3.429  11.317  0.2929  0.7380  0.2549
 4583SOL     OW25381   1.444   1.811   3.133  0.6083 -0.1235  0.3326
 4583SOL    HW125382   1.400   1.873   3.075 -2.4551 -3.0578 -0.4527
 4583SOL    HW225383   1.468   1.871   3.204 -0.1371  2.0465 -1.2651
 4584SOL     OW25384   1.277   0.426   3.966 -0.1012 -0.4415  0.7648
 4584SOL    HW125385   1.296   0.518   3.985  0.0898 -0.2002 -0.6056
 4584SOL    HW225386   1.359   0.385   3.993  0.9127  0.6029 -0.8055
 4585SOL     OW25387   4.572   1.417  13.484  0.0392 -0.0777  0.3930
 4585SOL    HW125388   4.525   1.493  13.518  0.5996  0.4645 -0.0424
 4585SOL    HW225389   4.546   1.417  13.392 -1.8226  0.7310  0.9332
 4586SOL     OW25390   1.715   1.024   6.856 -0.2209  0.4830  0.2431
 4586SOL    HW125391   1.684   1.112   6.835  0.4106  0.1951 -1.9069
 4586SOL    HW225392   1.778   1.019   6.784 -0.3127 -0.9424  0.2780
 4587SOL     OW25393   2.342   0.342   6.855  0.4033 -0.7383 -0.2089
 4587SOL    HW125394   2.406   0.274   6.833  1.4720  0.2528 -0.1617
 4587SOL    HW225395   2.288   0.285   6.909 -0.4062 -1.0186 -1.3194
 4588SOL     OW25396   0.683   2.638   4.008  0.2267 -0.1673  0.4505
 4588SOL    HW125397   0.731   2.567   3.966 -0.6749 -1.4431  1.5829
 4588SOL    HW225398   0.692   2.692   3.930 -0.0593  1.1733  1.3412
 4589SOL     OW25399   1.619   0.791   8.901  0.4763  0.0873 -0.6277
 4589SOL    HW125400   1.696   0.758   8.854  1.4697  1.9312 -0.3103
 4589SOL    HW225401   1.630   0.761   8.992 -1.0294 -0.8073 -0.7499
 4590SOL     OW25402   2.325   3.057   5.421 -0.6312 -0.0334 -0.6020
 4590SOL    HW125403   2.375   2.975   5.421 -2.1509 -0.9724 -1.9590
 4590SOL    HW225404   2.281   3.046   5.505  0.1107  0.1093 -0.1978
 4591SOL     OW25405   2.247   2.098   9.599  0.2044  0.1698 -0.3543
 4591SOL    HW125406   2.268   2.034   9.531 -0.9748 -1.1776  0.5586
 4591SOL    HW225407   2.320   2.159   9.597 -0.0161  0.4861  1.6186
 4592SOL     OW25408   1.688   0.758  12.307 -0.3699 -0.3986 -0.2928
 4592SOL    HW125409   1.695   0.666  12.333 -0.1769 -0.0970  0.7138
 4592SOL    HW225410   1.747   0.806  12.365  1.2962 -1.7582 -0.8648
 4593SOL     OW25411   2.141   1.953   0.134 -0.0928  0.9191  0.1642
 4593SOL    HW125412   2.143   1.859   0.116  2.2681  1.1653 -0.9102
 4593SOL    HW225413   2.228   1.967   0.172  0.6252 -0.6635 -0.9010
 4594SOL     OW25414   4.210   3.356   8.333  0.2661  0.1572  0.3398
 4594SOL    HW125415   4.221   3.303   8.412  0.8620 -2.5801 -1.5409
 4594SOL    HW225416   4.120   3.378   8.357 -0.5134 -0.7534 -1.7267
 4595SOL     OW25417   2.085   1.804   7.612 -0.7431 -0.2452  0.2216
 4595SOL    HW125418   2.143   1.843   7.677 -0.0509 -0.5612 -0.2053
 4595SOL    HW225419   2.120   1.850   7.536  2.3143 -0.3660  1.5820
 4596SOL     OW25420   3.511   3.657   4.830 -0.5057  0.0519 -0.3171
 4596SOL    HW125421   3.569   3.690   4.762 -1.7633 -1.1595 -1.9537
 4596SOL    HW225422   3.501   3.563   4.813 -0.5163  0.5237 -2.9074
 4597SOL     OW25423   3.373   2.228  13.072 -0.3187  0.5367  0.5195
 4597SOL    HW125424   3.300   2.167  13.068  0.5358 -0.5705  1.7339
 4597SOL    HW225425   3.430   2.184  13.135  0.3350  0.4427 -0.1386
 4598SOL     OW25426   3.509   1.406   0.995  0.3878  0.8385 -0.2519
 4598SOL    HW125427   3.522   1.327   1.046  1.2257 -0.4697 -2.4926
 4598SOL    HW225428   3.498   1.373   0.906  0.1533  1.7161 -0.5466
 4599SOL     OW25429   0.032   3.903  13.070  0.5308 -0.3498  0.1027
 4599SOL    HW125430   0.059   3.994  13.082 -0.4387  0.1700 -1.4892
 4599SOL    HW225431   0.018   3.883  12.977 -2.5411 -2.2222  0.9395
 4600SOL     OW25432   4.611   2.744  16.486  0.2984  0.5455  0.4373
 4600SOL    HW125433   4.690   2.785  16.451  0.0574  2.6388  2.3896
 4600SOL    HW225434   4.545   2.813  16.492  2.6595  2.8477 -0.3917
 4601SOL     OW25435   4.224   2.555   5.340  0.0024  0.1168 -0.1837
 4601SOL    HW125436   4.267   2.486   5.389 -0.4083 -0.7413 -1.0250
 4601SOL    HW225437   4.200   2.612   5.414 -3.6731 -0.3936 -0.9541
 4602SOL     OW25438   3.077   3.927   7.777  0.2211 -0.6884 -0.5675
 4602SOL    HW125439   3.165   3.900   7.802 -0.7042 -0.6562  2.7877
 4602SOL    HW225440   3.099   3.981   7.702  0.5346 -0.8981 -0.6248
 4603SOL     OW25441   1.811   1.400   7.763  0.1962  0.0406 -0.3433
 4603SOL    HW125442   1.855   1.322   7.728  0.5578 -1.6438  3.9299
 4603SOL    HW225443   1.823   1.399   7.858  0.1511  0.8014 -0.3312
 4604SOL     OW25444   3.668   3.206   7.747  0.2994  0.5950  0.0684
 4604SOL    HW125445   3.702   3.243   7.665  0.4797 -1.7306 -0.9151
 4604SOL    HW225446   3.730   3.241   7.811 -0.2500  0.4847  0.6527
 4605SOL     OW25447   0.084   0.525   7.276  0.0003 -0.3350  0.1258
 4605SOL    HW125448   0.158   0.469   7.301  1.0532  1.2216  0.4949
 4605SOL    HW225449   0.075   0.496   7.185 -1.2364  1.3068 -0.2724
 4606SOL     OW25450   2.068   2.660   0.674 -0.2701  0.1586  0.1146
 4606SOL    HW125451   2.028   2.574   0.683 -0.1415  0.3175  2.0968
 4606SOL    HW225452   2.074   2.690   0.765 -1.0279 -1.4140  0.6831
 4607SOL     OW25453   3.871   4.315   2.882 -0.2635 -0.4659 -0.6962
 4607SOL    HW125454   3.777   4.317   2.902 -0.2602  0.2132 -0.7194
 4607SOL    HW225455   3.902   4.400   2.915  1.9092 -1.4818 -0.1213
 4608SOL     OW25456   1.518   4.718  11.515  0.5397 -0.5600  0.4221
 4608SOL    HW125457   1.469   4.641  11.484 -0.0675 -0.7604  1.8536
 4608SOL    HW225458   1.541   4.692  11.604 -1.0701 -0.0732  0.9887
 4609SOL     OW25459   2.661   1.326   8.154  0.4799 -0.2685  0.1307
 4609SOL    HW125460   2.606   1.317   8.076  0.4865  0.7979  0.0054
 4609SOL    HW225461   2.603   1.300   8.226 -1.0420  1.0130 -0.6225
 4610SOL     OW25462   2.982   3.700   2.124 -0.4072  0.1162 -0.8125
 4610SOL    HW125463   3.006   3.664   2.209 -1.1659  0.1719 -0.5747
 4610SOL    HW225464   2.898   3.742   2.142 -1.5485 -1.4865 -2.4226
 4611SOL     OW25465   3.926   2.543   5.466  0.0569 -0.5650  0.4400
 4611SOL    HW125466   4.003   2.554   5.522 -1.3593  1.4038  1.9838
 4611SOL    HW225467   3.912   2.449   5.455 -0.9229 -0.5136  1.2985
 4612SOL     OW25468   2.610   3.571   7.160 -0.3169  0.2773  0.0494
 4612SOL    HW125469   2.697   3.541   7.136 -1.0468 -1.5901 -0.2998
 4612SOL    HW225470   2.625   3.627   7.236  1.1330  0.0505 -0.0800
 4613SOL     OW25471   2.617   0.913   2.719 -0.3066  0.2234 -0.4763
 4613SOL    HW125472   2.572   0.830   2.733 -0.1489 -0.1645 -2.2568
 4613SOL    HW225473   2.631   0.940   2.809  0.4090 -1.2719 -0.1465
 4614SOL     OW25474   4.174   3.789   5.063 -0.2769 -0.1075  0.2647
 4614SOL    HW125475   4.232   3.861   5.089  1.4648 -1.7637  0.9255
 4614SOL    HW225476   4.235   3.717   5.049 -0.7219 -0.3663 -0.3673
 4615SOL     OW25477   1.323   1.341   5.121 -0.0055  0.4172 -0.0431
 4615SOL    HW125478   1.355   1.380   5.039  1.7640 -0.5567  0.1806
 4615SOL    HW225479   1.373   1.388   5.188  0.5902 -1.9457  1.1662
 4616SOL     OW25480   4.621   3.522   2.645  0.2847 -0.8332 -0.1022
 4616SOL    HW125481   4.553   3.578   2.683  1.0162  0.2528 -0.3794
 4616SOL    HW225482   4.705   3.546   2.683  0.4126 -2.5777  0.7147
 4617SOL     OW25483   3.764   4.056   7.960  0.0739  0.4552 -0.0012
 4617SOL    HW125484   3.808   3.998   8.022  0.3077 -3.3255 -3.7101
 4617SOL    HW225485   3.770   4.138   8.009  2.7167 -0.9270  1.9636
 4618SOL     OW25486   3.700   2.566   3.030  0.6807  0.1088  0.3754
 4618SOL    HW125487   3.782   2.609   3.007  0.4999  0.5964  0.6431
 4618SOL    HW225488   3.654   2.617   3.097  0.2070 -0.0898  0.2021
 4619SOL     OW25489   4.652   0.760   5.822  0.0901 -0.3927  0.2403
 4619SOL    HW125490   4.669   0.722   5.908  1.6626  0.8027  0.4674
 4619SOL    HW225491   4.722   0.722   5.768 -0.8221 -1.1540 -0.4023
 4620SOL     OW25492   0.861   1.851   6.747  0.6337 -0.0176  0.0775
 4620SOL    HW125493   0.815   1.904   6.681 -0.1233  0.0986  0.7060
 4620SOL    HW225494   0.941   1.823   6.703  0.0039 -1.6285 -0.0099
 4621SOL     OW25495   1.474   2.447   2.204 -0.1972 -0.4670 -0.0068
 4621SOL    HW125496   1.475   2.538   2.172  0.0616  0.1019  1.6162
 4621SOL    HW225497   1.387   2.443   2.244 -0.1480  0.8833  0.2331
 4622SOL     OW25498   4.721   4.247   2.602 -0.3679 -0.4890 -0.3098
 4622SOL    HW125499   4.699   4.156   2.619  1.1568 -0.7618  0.1808
 4622SOL    HW225500   4.728   4.288   2.688 -1.8056 -2.8735  0.9339
 4623SOL     OW25501   3.556   3.595  17.424 -0.0123  0.4045  0.1484
 4623SOL    HW125502   3.560   3.501  17.406 -0.4100  0.4181 -0.0223
 4623SOL    HW225503   3.549   3.630  17.335 -1.2233  2.1376  0.9184
 4624SOL     OW25504   2.286   1.243   5.703 -0.4045  0.1824  0.0501
 4624SOL    HW125505   2.269   1.285   5.618 -1.7580  4.5318  2.4680
 4624SOL    HW225506   2.195   1.219   5.719 -0.4187 -0.5140 -1.0454
 4625SOL     OW25507   2.150   0.899   6.600 -0.3759  0.0202  0.2013
 4625SOL    HW125508   2.170   0.968   6.537  0.6187 -0.0333  0.4488
 4625SOL    HW225509   2.231   0.847   6.605 -0.1676  0.2013 -1.1997
 4626SOL     OW25510   0.298   1.328   7.126 -0.6014  0.2475 -0.4016
 4626SOL    HW125511   0.239   1.368   7.190  0.9488  0.3739  0.9522
 4626SOL    HW225512   0.383   1.367   7.143 -0.7927 -0.2329  1.7137
 4627SOL     OW25513   2.642   0.912   1.150  0.2686 -0.1548  0.3434
 4627SOL    HW125514   2.586   0.989   1.163  0.9459  0.8003 -2.3253
 4627SOL    HW225515   2.616   0.879   1.065  1.6365 -0.7748  0.1654
 4628SOL     OW25516   4.141   3.979  17.304 -0.3823 -0.3649  0.7039
 4628SOL    HW125517   4.097   3.935  17.377  0.2202  0.9822  1.8691
 4628SOL    HW225518   4.068   3.984  17.243  2.4304 -2.2037 -2.8715
 4629SOL     OW25519   3.756   0.222   3.786  0.1881  0.9295  0.0387
 4629SOL    HW125520   3.847   0.223   3.814 -0.5025 -1.8499  2.3227
 4629SOL    HW225521   3.727   0.155   3.848 -0.5295 -1.6313 -3.0134
 4630SOL     OW25522   3.185   3.283   4.459  0.0328  0.4038  0.5113
 4630SOL    HW125523   3.092   3.303   4.460 -0.1486 -0.5386  1.7405
 4630SOL    HW225524   3.181   3.205   4.405 -1.0003  1.2556 -0.6215
 4631SOL     OW25525   1.556   2.086   8.322  0.3032  0.0727 -0.2921
 4631SOL    HW125526   1.560   2.080   8.418 -1.1397 -1.4196 -0.3142
 4631SOL    HW225527   1.537   2.179   8.313 -0.5922 -0.1476 -0.6768
 4632SOL     OW25528   4.315   1.001   5.204 -0.2395  0.2385 -0.0107
 4632SOL    HW125529   4.245   0.979   5.143  0.9322 -0.8305 -0.9718
 4632SOL    HW225530   4.374   1.027   5.134 -2.8985  3.3940 -1.0842
 4633SOL     OW25531   3.824   2.012   2.750  0.1360  0.3078 -0.2381
 4633SOL    HW125532   3.742   1.980   2.788 -0.2548  1.1742 -0.3451
 4633SOL    HW225533   3.794   2.043   2.664  0.9028  0.5040 -0.4379
 4634SOL     OW25534   0.420   4.712   3.960 -0.1416 -0.1503 -0.0617
 4634SOL    HW125535   0.464   4.732   3.877  0.1227 -1.3150 -0.2069
 4634SOL    HW225536   0.429   4.617   3.967 -2.3604 -0.5459 -2.5282
 4635SOL     OW25537   0.548   1.866  13.875 -0.3018 -0.4461  0.0422
 4635SOL    HW125538   0.480   1.928  13.848 -1.5598 -1.8806 -0.0457
 4635SOL    HW225539   0.517   1.781  13.846 -0.8667  0.0938 -0.9216
 4636SOL     OW25540   2.428   4.485   2.786  0.5827  0.0216 -0.1665
 4636SOL    HW125541   2.344   4.489   2.740 -0.2392 -0.9756  1.2459
 4636SOL    HW225542   2.396   4.473   2.875 -2.0896  0.3706 -1.0510
 4637SOL     OW25543   3.996   0.057  16.609  0.6302 -0.1510  0.2516
 4637SOL    HW125544   4.046   0.107  16.544  1.9978  0.9508  2.1584
 4637SOL    HW225545   4.050   4.714  16.601 -1.3343 -1.4262 -0.2054
 4638SOL     OW25546   1.768   2.156  13.315 -0.7047  0.6790  0.2714
 4638SOL    HW125547   1.710   2.112  13.377  0.4341 -0.3294  0.6168
 4638SOL    HW225548   1.730   2.137  13.230 -1.5781 -1.3555  1.1135
 4639SOL     OW25549   1.582   1.587   3.625  0.3856 -0.0765 -0.0154
 4639SOL    HW125550   1.546   1.544   3.702  0.5553  0.4906  0.3868
 4639SOL    HW225551   1.675   1.598   3.645  0.0727  2.2491  0.1609
 4640SOL     OW25552   3.063   0.450   9.518 -0.2702 -0.0218  0.1630
 4640SOL    HW125553   3.099   0.458   9.430 -4.0476 -1.0740 -1.4770
 4640SOL    HW225554   3.114   0.372   9.543  1.9956  1.6104  0.6109
 4641SOL     OW25555   2.186   4.066   0.505 -0.5520  0.1746  0.5341
 4641SOL    HW125556   2.237   4.111   0.573 -0.1274  0.3392  0.1055
 4641SOL    HW225557   2.150   3.993   0.555 -1.0556  0.4979  0.6432
 4642SOL     OW25558   0.144   0.966   5.763  0.3541  0.0364  0.0873
 4642SOL    HW125559   0.216   1.026   5.743 -0.0466  0.4562 -0.0998
 4642SOL    HW225560   0.095   0.975   5.681 -0.0286 -3.0654 -0.0099
 4643SOL     OW25561   3.353   2.457   9.271 -0.0175  0.3031 -0.4817
 4643SOL    HW125562   3.327   2.428   9.184  0.7488  2.1839 -1.3312
 4643SOL    HW225563   3.430   2.514   9.264  0.2642  0.1988  1.6490
 4644SOL     OW25564   3.267   1.226  16.793  0.0262  0.3884  0.0615
 4644SOL    HW125565   3.186   1.176  16.803  1.9910 -3.4936 -3.1236
 4644SOL    HW225566   3.228   1.311  16.772  0.7777  0.5511 -0.6967
 4645SOL     OW25567   0.070   0.644   8.007  0.4707  0.0115 -0.6436
 4645SOL    HW125568   4.718   0.670   8.031  0.5004  1.4322 -2.0329
 4645SOL    HW225569   0.105   0.640   8.096 -0.4384  0.8580 -0.2503
 4646SOL     OW25570   2.129   3.481   0.424 -0.0747  0.1435  0.3673
 4646SOL    HW125571   2.115   3.419   0.496 -0.6326  0.5017  0.5699
 4646SOL    HW225572   2.118   3.419   0.352 -0.1376  0.9569 -0.3076
 4647SOL     OW25573   0.954   1.236  10.099  0.4936  0.2271 -0.3511
 4647SOL    HW125574   0.887   1.168  10.091  1.8035 -0.9737 -1.2613
 4647SOL    HW225575   0.929   1.293  10.026 -0.6761  3.5484  2.6399
 4648SOL     OW25576   3.973   1.795  13.420  0.0396  0.3131 -0.0226
 4648SOL    HW125577   3.989   1.842  13.502 -0.8703 -0.0441  0.3648
 4648SOL    HW225578   3.887   1.830  13.396 -0.0992  1.0823  1.5713
 4649SOL     OW25579   1.743   1.357  17.448  0.2217 -0.0041  0.4029
 4649SOL    HW125580   1.674   1.420  17.470 -1.3600 -1.5325 -0.1720
 4649SOL    HW225581   1.825   1.394  17.482  0.4264  0.5956 -0.7767
 4650SOL     OW25582   3.930   2.401   7.010 -0.2870  0.6596 -0.5186
 4650SOL    HW125583   3.887   2.463   6.951 -1.8163 -2.5072 -2.7522
 4650SOL    HW225584   3.911   2.318   6.967  1.6878 -1.0164  1.8388
 4651SOL     OW25585   3.198   2.806  11.073  0.1566  0.4101  0.0021
 4651SOL    HW125586   3.254   2.883  11.062  0.9794 -0.5615 -2.8458
 4651SOL    HW225587   3.231   2.751  11.002  0.7890 -0.6464  1.1139
 4652SOL     OW25588   1.416   3.149   5.842  0.4348  0.0258  0.0323
 4652SOL    HW125589   1.387   3.181   5.927 -0.1353 -0.4829  0.0278
 4652SOL    HW225590   1.489   3.090   5.861 -0.0764 -1.1721 -1.7345
 4653SOL     OW25591   0.646   1.017   8.983 -0.3359 -0.3897  0.1926
 4653SOL    HW125592   0.699   0.939   8.969 -1.0236 -0.7532 -0.3688
 4653SOL    HW225593   0.639   1.016   9.078 -1.6246  1.7467  0.1264
 4654SOL     OW25594   2.482   1.980  12.584  0.2266 -0.2894 -0.6164
 4654SOL    HW125595   2.519   2.034  12.654 -1.8068  2.5972 -1.7739
 4654SOL    HW225596   2.388   1.974  12.599  0.0876  2.3063 -0.4635
 4655SOL     OW25597   3.054   4.076   3.780  0.2168 -0.0146 -0.0389
 4655SOL    HW125598   3.034   4.011   3.713  0.9800 -2.8380  2.4817
 4655SOL    HW225599   2.967   4.106   3.807  1.5628  1.9043  2.1421
 4656SOL     OW25600   3.408   3.141   9.197  0.8515  0.8046 -0.6894
 4656SOL    HW125601   3.452   3.204   9.254 -3.0490  0.3144  2.8207
 4656SOL    HW225602   3.418   3.053   9.231 -2.1148  1.0527  0.9068
 4657SOL     OW25603   2.011   4.337   7.865  0.1641  0.2599 -0.2995
 4657SOL    HW125604   1.937   4.311   7.811 -0.4109  2.2668 -0.4472
 4657SOL    HW225605   2.056   4.256   7.891  0.7102  0.7610  0.3478
 4658SOL     OW25606   1.259   2.210  15.242 -0.9390 -0.0060 -0.2210
 4658SOL    HW125607   1.286   2.242  15.155  2.4306  1.4816  1.3736
 4658SOL    HW225608   1.335   2.151  15.244 -0.2117  0.9952  1.3785
 4659SOL     OW25609   2.647   2.226   4.701  0.9515  0.2081 -0.9284
 4659SOL    HW125610   2.592   2.168   4.753 -0.7171  1.7769 -0.9601
 4659SOL    HW225611   2.592   2.304   4.708  0.0506 -0.3645 -1.6140
 4660SOL     OW25612   4.501   1.051   2.098 -0.0824 -0.3899 -0.1917
 4660SOL    HW125613   4.492   1.146   2.107  0.0037 -0.5085  1.0362
 4660SOL    HW225614   4.450   1.040   2.017  0.4074 -0.6397 -0.4668
 4661SOL     OW25615   4.427   1.821   4.105 -0.1578 -0.3172  0.6110
 4661SOL    HW125616   4.374   1.797   4.029  0.6070  0.0503 -0.0391
 4661SOL    HW225617   4.440   1.916   4.094 -0.1379 -0.3256  0.5610
 4662SOL     OW25618   0.970   4.348  16.275 -0.1168  0.3548  0.5698
 4662SOL    HW125619   0.986   4.267  16.322 -0.0430  0.3332  0.5079
 4662SOL    HW225620   1.038   4.401  16.316  1.2754 -1.2191  0.2766
 4663SOL     OW25621   3.689   2.016   6.318 -0.9225  0.0520  0.2968
 4663SOL    HW125622   3.671   1.928   6.352 -0.5754 -0.7616 -1.6296
 4663SOL    HW225623   3.725   1.980   6.237 -1.8157 -1.5243  0.5980
 4664SOL     OW25624   0.393   0.152   7.201 -0.2591 -0.3825  0.1347
 4664SOL    HW125625   0.466   0.140   7.140  1.6483 -0.0760  2.3984
 4664SOL    HW225626   0.318   0.125   7.148 -1.3955  1.9853  0.5481
 4665SOL     OW25627   4.334   4.290   1.558  0.8152  0.0937  0.3185
 4665SOL    HW125628   4.247   4.317   1.589  0.2228 -1.0990 -0.3024
 4665SOL    HW225629   4.321   4.198   1.533 -0.8144  0.0386  1.2886
 4666SOL     OW25630   2.269   4.728   2.430  0.2587  0.1240  0.2319
 4666SOL    HW125631   2.221   4.720   2.347  3.3909 -2.5156 -1.3590
 4666SOL    HW225632   2.256   4.637   2.458  1.2502 -0.1286 -0.1209
 4667SOL     OW25633   2.931   2.150   3.990 -0.1323  0.0938 -0.6642
 4667SOL    HW125634   2.929   2.065   4.034  1.0603  0.0429 -0.7208
 4667SOL    HW225635   2.957   2.210   4.060  0.6473  0.1574 -1.0062
 4668SOL     OW25636   4.300   4.417   9.252 -0.0183  0.2716  0.3041
 4668SOL    HW125637   4.301   4.322   9.253 -0.6635  0.2779  1.1558
 4668SOL    HW225638   4.221   4.437   9.301  0.3265  1.5858  0.3299
 4669SOL     OW25639   4.412   4.501  13.416  0.2443  0.4136  0.1681
 4669SOL    HW125640   4.332   4.459  13.384 -0.5579  0.6889  1.7953
 4669SOL    HW225641   4.452   4.436  13.475  1.6031  2.2153  1.2456
 4670SOL     OW25642   4.399   3.517   3.298 -0.0561  0.1230 -0.4336
 4670SOL    HW125643   4.376   3.540   3.208  3.9771 -1.1644 -1.7781
 4670SOL    HW225644   4.493   3.503   3.285  0.1560  1.6447 -0.6104
 4671SOL     OW25645   0.018   4.609   2.988 -0.5434  0.4207  0.3989
 4671SOL    HW125646   4.658   4.606   2.989 -0.5445  0.2265 -0.9188
 4671SOL    HW225647   0.028   4.672   2.917  3.0346  1.4972  1.8872
 4672SOL     OW25648   3.062   0.054   6.150 -0.4196  0.2908  0.0034
 4672SOL    HW125649   3.059   0.096   6.236 -1.0942  0.4625 -0.1055
 4672SOL    HW225650   3.104   4.707   6.169  0.4983  1.0854  1.5054
 4673SOL     OW25651   3.884   3.462  13.707  0.6291  0.4053  0.0145
 4673SOL    HW125652   3.807   3.480  13.761  1.2371 -1.7916  1.6507
 4673SOL    HW225653   3.948   3.440  13.774  2.0808 -0.2214 -1.5800
 4674SOL     OW25654   0.259   3.512  12.788 -0.1763  0.2838  0.3146
 4674SOL    HW125655   0.257   3.433  12.841  0.0141  0.5495  0.7129
 4674SOL    HW225656   0.169   3.544  12.789  0.2873  1.5713  1.1212
 4675SOL     OW25657   3.732   2.455  15.533  0.7716 -0.4480 -0.0565
 4675SOL    HW125658   3.757   2.543  15.505  0.1518 -0.1773  0.2497
 4675SOL    HW225659   3.654   2.457  15.477  1.2409  1.6724 -0.6271
 4676SOL     OW25660   0.940   1.304   8.191 -0.3662  0.5290 -0.1685
 4676SOL    HW125661   0.905   1.219   8.165 -2.5982  0.4450  3.1221
 4676SOL    HW225662   0.899   1.366   8.130  0.0629  1.5320  0.5529
 4677SOL     OW25663   1.034   1.281  16.206  0.1114  0.0764  0.3834
 4677SOL    HW125664   0.962   1.268  16.145  0.3785  1.7871 -0.2960
 4677SOL    HW225665   1.083   1.355  16.169 -0.3519  0.3145  0.2491
 4678SOL     OW25666   3.772   2.338   6.606 -0.2934 -0.1331  0.5661
 4678SOL    HW125667   3.811   2.275   6.546 -1.4837  0.9315 -1.3078
 4678SOL    HW225668   3.786   2.290   6.688  1.3388  0.6062  0.7014
 4679SOL     OW25669   2.018   2.402  17.711 -0.9354  0.0867  0.3100
 4679SOL    HW125670   2.089   2.354   0.009 -0.8423  1.0150  1.2053
 4679SOL    HW225671   2.063   2.427  17.630 -0.4895  0.0333  0.5365
 4680SOL     OW25672   2.161   3.207   3.776 -0.1571  0.4501 -0.1846
 4680SOL    HW125673   2.145   3.133   3.834 -1.7367  0.5776 -0.4620
 4680SOL    HW225674   2.256   3.197   3.772 -0.1350  0.3549  0.6480
 4681SOL     OW25675   1.425   0.697  10.797 -0.2642  0.4261 -0.5723
 4681SOL    HW125676   1.435   0.770  10.736 -0.0332  0.8085 -0.0766
 4681SOL    HW225677   1.509   0.696  10.843 -0.9104 -1.0543  0.5674
 4682SOL     OW25678   1.323   3.021   8.407 -0.0989  0.2218  0.2685
 4682SOL    HW125679   1.242   3.057   8.443  0.7743  2.7369 -0.2574
 4682SOL    HW225680   1.286   3.004   8.320  1.1567 -1.2491  0.0126
 4683SOL     OW25681   2.808   4.425  11.926  0.3488 -0.5167 -0.3274
 4683SOL    HW125682   2.728   4.478  11.925 -0.0427 -1.0886  0.8774
 4683SOL    HW225683   2.810   4.373  12.006  0.9047  1.5916  1.0329
 4684SOL     OW25684   4.611   3.420   7.960  0.4230 -0.6404  0.3096
 4684SOL    HW125685   4.537   3.423   7.899  0.2933  1.1615  0.5622
 4684SOL    HW225686   4.671   3.485   7.924  0.0962 -0.9059 -0.7337
 4685SOL     OW25687   4.573   3.380   5.345  0.3481 -0.6779 -0.4013
 4685SOL    HW125688   4.609   3.292   5.334 -0.7325 -1.3087  1.1189
 4685SOL    HW225689   4.527   3.396   5.262  2.2219  2.8124 -0.7810
 4686SOL     OW25690   1.295   0.418  13.341  0.7400 -0.3122 -0.5074
 4686SOL    HW125691   1.391   0.426  13.348  0.6736  0.4325 -0.4555
 4686SOL    HW225692   1.286   0.463  13.257 -0.2324  0.8740  0.2275
 4687SOL     OW25693   1.243   3.373  15.895 -0.3042  0.2172  0.1814
 4687SOL    HW125694   1.232   3.417  15.811 -3.3575 -0.1002  0.3907
 4687SOL    HW225695   1.241   3.280  15.873 -2.3389 -0.2324  2.2057
 4688SOL     OW25696   1.737   3.484   3.148  0.4705 -0.0289  0.4518
 4688SOL    HW125697   1.663   3.424   3.144 -0.8761  1.5339  1.6649
 4688SOL    HW225698   1.741   3.514   3.057 -1.7175 -0.5774  0.1750
 4689SOL     OW25699   2.036   0.869  17.202  0.2555 -0.5100 -0.1494
 4689SOL    HW125700   2.126   0.844  17.220  0.1891  0.0152  0.9315
 4689SOL    HW225701   2.052   0.936  17.135  0.2292  0.2183  0.5714
 4690SOL     OW25702   1.515   3.174  12.149  0.2535  0.0658 -0.4273
 4690SOL    HW125703   1.521   3.265  12.175 -0.1084  0.3813 -1.4425
 4690SOL    HW225704   1.589   3.146  12.202  0.4067 -0.9258 -1.1566
 4691SOL     OW25705   2.898   4.139   1.162 -0.0291 -0.5966 -0.0794
 4691SOL    HW125706   2.898   4.176   1.074 -2.0597  0.7342  0.4611
 4691SOL    HW225707   2.958   4.201   1.206  0.4830 -0.0704 -1.5212
 4692SOL     OW25708   2.485   1.397  17.699 -0.2730 -0.2976 -0.1951
 4692SOL    HW125709   2.469   1.306  17.675 -1.7646 -0.1653  0.2806
 4692SOL    HW225710   2.488   1.390   0.050 -0.1976 -0.0713 -0.1813
 4693SOL     OW25711   2.150   2.007   3.634  0.2431 -0.2713  0.0595
 4693SOL    HW125712   2.184   2.011   3.545 -0.6659 -1.0617 -0.3183
 4693SOL    HW225713   2.228   1.980   3.681 -1.7207 -2.3540  2.1384
 4694SOL     OW25714   0.515   4.508  10.974 -0.2851 -0.5605 -0.3883
 4694SOL    HW125715   0.510   4.458  11.056 -0.1676  0.0380 -0.0186
 4694SOL    HW225716   0.520   4.600  10.999 -1.1717 -0.8729  0.9655
 4695SOL     OW25717   4.517   1.248   2.411  0.0908 -0.3091  0.5108
 4695SOL    HW125718   4.596   1.226   2.361  0.0961  0.7897  0.0266
 4695SOL    HW225719   4.511   1.342   2.395 -0.4616  0.2099  3.8724
 4696SOL     OW25720   2.862   0.644   8.119  0.6419 -0.0692  0.0409
 4696SOL    HW125721   2.824   0.701   8.186 -0.5032 -1.3568  0.4664
 4696SOL    HW225722   2.811   0.566   8.140 -2.6308  1.7937 -0.9500
 4697SOL     OW25723   0.950   4.068  15.411 -0.4430 -0.0524  0.0596
 4697SOL    HW125724   1.043   4.085  15.394 -0.4070 -0.9146 -0.6461
 4697SOL    HW225725   0.902   4.114  15.342  0.7682 -0.4461 -1.0728
 4698SOL     OW25726   4.594   3.825   5.960 -0.3201 -0.1352  0.0634
 4698SOL    HW125727   4.532   3.755   5.940 -1.5792  1.3165 -1.2051
 4698SOL    HW225728   4.628   3.798   6.045  0.2453 -0.0004 -0.1247
 4699SOL     OW25729   1.773   2.120   7.667  0.4397  0.2514 -0.2327
 4699SOL    HW125730   1.810   2.033   7.655  2.7671  1.1844 -0.0168
 4699SOL    HW225731   1.772   2.124   7.763  0.7661  0.2061 -0.2269
 4700SOL     OW25732   2.899   4.626   9.095  0.2250  0.1874 -0.6521
 4700SOL    HW125733   2.865   4.712   9.071 -0.3290  0.0106 -0.5174
 4700SOL    HW225734   2.836   4.621   9.167  2.3023 -2.3997  0.9549
 4701SOL     OW25735   2.137   3.284  15.341 -0.6743 -0.6978 -0.0341
 4701SOL    HW125736   2.103   3.315  15.257  2.1161 -1.0861 -1.3240
 4701SOL    HW225737   2.194   3.212  15.315 -0.9711 -1.4487  1.4087
 4702SOL     OW25738   3.826   2.714   6.290  0.0151  0.0493 -0.3583
 4702SOL    HW125739   3.896   2.678   6.236  1.9430  0.3902  1.9161
 4702SOL    HW225740   3.851   2.676   6.374 -1.0578 -0.5511 -0.3088
 4703SOL     OW25741   4.235   3.048   1.551  0.1309 -0.5645  0.3370
 4703SOL    HW125742   4.188   3.039   1.468  0.3777  1.0319  0.0212
 4703SOL    HW225743   4.304   3.113   1.538 -0.5668  0.3735  1.2979
 4704SOL     OW25744   3.435   3.797   6.424 -0.0871  0.6477 -0.3161
 4704SOL    HW125745   3.409   3.711   6.392  1.0114 -0.3977  1.5912
 4704SOL    HW225746   3.490   3.786   6.501 -0.5222  1.0434  0.0498
 4705SOL     OW25747   0.077   1.642   1.345 -0.0227 -0.1006  0.2175
 4705SOL    HW125748   0.081   1.592   1.427  0.0274 -1.3940 -0.5641
 4705SOL    HW225749   0.049   1.578   1.279 -0.7721 -1.2780  1.6708
 4706SOL     OW25750   1.491   0.905   7.092 -0.5377  0.1207  0.1655
 4706SOL    HW125751   1.471   0.823   7.136  0.6802 -1.1899 -1.7513
 4706SOL    HW225752   1.426   0.908   7.022  1.1451  1.4644 -1.3547
 4707SOL     OW25753   2.351   2.255   0.726 -0.6290 -0.1910 -0.0010
 4707SOL    HW125754   2.391   2.321   0.783  0.6528 -2.5688  1.8221
 4707SOL    HW225755   2.429   2.226   0.680 -0.8294  1.4867 -1.4232
 4708SOL     OW25756   3.267   2.738   8.968 -0.2383  0.2009 -0.5962
 4708SOL    HW125757   3.182   2.781   8.962  0.6209  1.7600 -1.4936
 4708SOL    HW225758   3.236   2.659   9.012  1.2341  0.1583  0.3490
 4709SOL     OW25759   2.296   1.816   5.466  0.2181 -0.1566 -0.7717
 4709SOL    HW125760   2.283   1.785   5.377  0.3459  0.1636 -0.9008
 4709SOL    HW225761   2.362   1.885   5.455  0.1696 -0.0760 -0.5753
 4710SOL     OW25762   4.360   1.982   8.322  0.1570  0.3032 -0.2808
 4710SOL    HW125763   4.297   1.910   8.329 -0.3182  1.0057  2.7617
 4710SOL    HW225764   4.344   2.007   8.231  0.1507 -1.3336 -0.7351
 4711SOL     OW25765   2.621   1.518  14.067  0.7936 -0.6673 -0.0529
 4711SOL    HW125766   2.581   1.431  14.069  0.7576 -0.6533 -0.1778
 4711SOL    HW225767   2.627   1.529  13.972 -0.7973 -1.4622 -0.2379
 4712SOL     OW25768   3.191   0.104  12.029 -0.0523 -0.9072  0.4084
 4712SOL    HW125769   3.163   0.021  11.991  1.2885 -1.7859  1.3799
 4712SOL    HW225770   3.120   0.157  11.992  0.6870  0.6706  1.2432
 4713SOL     OW25771   3.961   1.847   8.475 -0.0173 -0.0811 -0.4742
 4713SOL    HW125772   3.893   1.912   8.495 -0.4139 -1.3850  2.4827
 4713SOL    HW225773   3.934   1.778   8.537  0.2825  0.4785  0.2803
 4714SOL     OW25774   4.680   4.406   4.532 -0.0742 -0.5299  0.1067
 4714SOL    HW125775   0.008   4.465   4.569 -1.1203 -0.6776  2.1509
 4714SOL    HW225776   4.734   4.361   4.467 -0.9097 -1.8720  0.3295
 4715SOL     OW25777   3.422   1.642   1.029  0.6258  0.5456 -0.1826
 4715SOL    HW125778   3.494   1.697   0.999  1.1659  0.1914  0.4752
 4715SOL    HW225779   3.464   1.558   1.012 -0.9789 -0.2468 -0.1717
 4716SOL     OW25780   4.048   2.281   5.667  0.0088  0.1028 -0.2760
 4716SOL    HW125781   3.998   2.283   5.585  0.2975  1.1958 -0.4305
 4716SOL    HW225782   4.086   2.194   5.656 -0.5625 -0.1758 -0.0618
 4717SOL     OW25783   3.457   3.240  16.212 -0.3948  0.1661  0.4601
 4717SOL    HW125784   3.423   3.187  16.140  2.4182  0.0559 -0.7754
 4717SOL    HW225785   3.547   3.209  16.226 -0.3996  1.1473  2.7769
 4718SOL     OW25786   4.550   1.442   6.047 -0.7603 -0.1384  0.0688
 4718SOL    HW125787   4.518   1.352   6.053  0.5891 -0.5947  0.5935
 4718SOL    HW225788   4.603   1.428   5.969 -0.8659  1.9507 -0.3747
 4719SOL     OW25789   4.565   3.622   8.470  0.6068  0.2300  0.2246
 4719SOL    HW125790   4.574   3.527   8.460  0.6863  0.3131 -0.4994
 4719SOL    HW225791   4.596   3.657   8.387 -4.3814  1.7163 -0.9974
 4720SOL     OW25792   0.093   0.384  12.028 -0.4634  0.0122  0.0983
 4720SOL    HW125793   0.127   0.424  11.948 -1.7203 -1.6050 -1.2187
 4720SOL    HW225794   0.014   0.438  12.037 -0.6502 -0.2444 -0.0091
 4721SOL     OW25795   4.039   4.437   3.701 -0.4818  0.3680  0.1793
 4721SOL    HW125796   4.033   4.513   3.644 -1.7515 -1.4169 -2.0623
 4721SOL    HW225797   4.026   4.473   3.789  2.6259  2.6608 -0.3250
 4722SOL     OW25798   3.028   3.948   5.949  0.4358 -0.1029  0.0307
 4722SOL    HW125799   3.089   3.958   6.022  1.4058 -0.8339 -0.6741
 4722SOL    HW225800   3.028   3.853   5.933 -1.9058 -0.0204 -0.4636
 4723SOL     OW25801   1.212   2.944  10.590 -0.6185  0.8184  0.1306
 4723SOL    HW125802   1.269   3.021  10.598  0.3222  0.0626  0.7268
 4723SOL    HW225803   1.124   2.976  10.606 -1.4947 -0.8191 -1.4557
 4724SOL     OW25804   2.009   4.209   5.966  0.3165  0.4775 -1.1604
 4724SOL    HW125805   2.047   4.221   5.878  0.1947 -1.5083 -1.4790
 4724SOL    HW225806   1.960   4.291   5.970 -0.2782 -0.0233  1.5629
 4725SOL     OW25807   3.320   2.005  16.586  0.8915  0.0355  0.0296
 4725SOL    HW125808   3.292   2.037  16.500 -0.4323  0.1453  0.5052
 4725SOL    HW225809   3.253   1.941  16.609  1.6881 -0.7093  0.2545
 4726SOL     OW25810   1.454   2.667  10.462 -0.0711  0.0640 -0.1147
 4726SOL    HW125811   1.475   2.695  10.551  1.7074 -0.0401 -0.5117
 4726SOL    HW225812   1.541   2.660  10.422 -0.4290  0.3589 -0.9481
 4727SOL     OW25813   3.304   2.168   3.059  0.6905  0.0706 -0.1773
 4727SOL    HW125814   3.361   2.214   3.120  0.7397 -1.2874  0.8038
 4727SOL    HW225815   3.232   2.168   3.123  1.7599 -2.1450  1.0085
 4728SOL     OW25816   4.636   1.833   2.715  0.6745  0.4955 -0.3447
 4728SOL    HW125817   4.600   1.879   2.639  0.7458  2.4111  0.7719
 4728SOL    HW225818   4.634   1.746   2.676  1.9922  0.2436  0.1671
 4729SOL     OW25819   3.942   1.663   7.395  0.0399 -0.4211  0.0005
 4729SOL    HW125820   3.968   1.738   7.447 -1.1703  0.1650 -0.2267
 4729SOL    HW225821   3.991   1.683   7.315  0.5585 -1.1849  0.1336
 4730SOL     OW25822   1.574   4.356   3.691  0.2479 -0.1918  0.1567
 4730SOL    HW125823   1.601   4.414   3.762 -2.5606  0.4069  0.7546
 4730SOL    HW225824   1.588   4.411   3.614  1.6283 -0.3357  0.3089
 4731SOL     OW25825   3.657   3.500  13.900  0.3450 -0.2146  0.0063
 4731SOL    HW125826   3.688   3.575  13.953 -2.0514 -0.5061  1.8316
 4731SOL    HW225827   3.714   3.437  13.943 -1.1873 -1.6225 -0.0278
 4732SOL     OW25828   1.429   1.269  11.646  0.3070  0.3364 -0.1605
 4732SOL    HW125829   1.349   1.218  11.640 -0.8644  2.2293 -0.7156
 4732SOL    HW225830   1.419   1.297  11.737  0.7480 -0.5353  0.1592
 4733SOL     OW25831   3.394   0.942   6.109 -0.4677  0.1604  0.0063
 4733SOL    HW125832   3.455   0.899   6.168 -0.8540  2.4914  2.1132
 4733SOL    HW225833   3.328   0.873   6.102  2.0998 -2.0671 -2.6650
 4734SOL     OW25834   2.060   1.950   6.248 -0.5940  0.2653 -0.3948
 4734SOL    HW125835   1.974   1.922   6.277 -0.2827  1.4352  1.7125
 4734SOL    HW225836   2.111   1.981   6.323  1.4997 -1.1431 -1.2226
 4735SOL     OW25837   4.188   2.657   4.610  0.2319 -0.0199 -1.0506
 4735SOL    HW125838   4.157   2.740   4.645  1.4619 -0.1233  0.2819
 4735SOL    HW225839   4.108   2.619   4.575 -0.1448 -0.2718  0.0817
 4736SOL     OW25840   4.486   4.690   7.849 -0.7177  0.1649 -0.0903
 4736SOL    HW125841   4.556   0.017   7.864  1.2951 -2.3813  1.1530
 4736SOL    HW225842   4.510   4.660   7.762 -0.8778  1.1059 -0.4633
 4737SOL     OW25843   0.168   3.726  14.932 -0.2406 -0.5424 -0.4658
 4737SOL    HW125844   0.167   3.811  14.976 -1.2189 -1.4361  1.2194
 4737SOL    HW225845   0.084   3.692  14.962 -0.7297  2.0644  1.0513
 4738SOL     OW25846   3.378   2.495  13.157 -0.2727  0.0762 -0.7027
 4738SOL    HW125847   3.300   2.494  13.213  0.6041 -1.4106  0.4689
 4738SOL    HW225848   3.371   2.402  13.135 -1.2969  0.1639 -0.7833
 4739SOL     OW25849   3.989   0.807   8.889  0.1651 -0.2153 -0.5934
 4739SOL    HW125850   4.043   0.886   8.886 -0.6384  0.3387 -0.6446
 4739SOL    HW225851   4.039   0.753   8.828  0.8509  1.4869 -1.5510
 4740SOL     OW25852   1.350   0.947  10.637  0.3540  0.2579  0.0371
 4740SOL    HW125853   1.438   0.924  10.606  0.4295 -0.4193  0.7448
 4740SOL    HW225854   1.334   1.026  10.586  0.5592  1.7563  2.3141
 4741SOL     OW25855   1.636   2.880   7.614 -0.1476 -0.2545 -0.2202
 4741SOL    HW125856   1.720   2.841   7.637  0.7456  1.8542  0.1532
 4741SOL    HW225857   1.591   2.803   7.579 -0.1821 -0.4697  0.2962
 4742SOL     OW25858   1.139   3.647   7.134  0.3250  0.3350 -0.1762
 4742SOL    HW125859   1.172   3.619   7.220  1.8832 -1.2684 -1.2969
 4742SOL    HW225860   1.206   3.712   7.117 -0.1110  1.1804  1.3175
 4743SOL     OW25861   1.840   3.423   0.208  0.1040 -0.0363  0.0469
 4743SOL    HW125862   1.778   3.494   0.223  1.6178  0.8695  1.9836
 4743SOL    HW225863   1.828   3.375   0.290 -0.8483  0.9781  0.4973
 4744SOL     OW25864   0.049   3.020  14.477  0.1952  0.3066 -0.9561
 4744SOL    HW125865   0.104   3.093  14.452  0.8775  0.0946 -0.0654
 4744SOL    HW225866   4.697   3.043  14.448 -0.6323  0.5347  1.7257
 4745SOL     OW25867   4.407   1.302  11.704  0.3597  0.1498 -0.2754
 4745SOL    HW125868   4.311   1.307  11.699  0.6979  4.5423 -2.5059
 4745SOL    HW225869   4.410   1.278  11.797 -0.7903 -0.5979 -0.4302
 4746SOL     OW25870   2.476   1.783   7.339  0.1599 -0.6927 -0.3466
 4746SOL    HW125871   2.398   1.785   7.283  0.2181  1.5902 -0.3412
 4746SOL    HW225872   2.453   1.719   7.406 -0.2372 -0.6410 -0.4294
 4747SOL     OW25873   3.153   1.246   4.733  0.2962  0.2433 -0.1179
 4747SOL    HW125874   3.112   1.165   4.705 -1.6223  1.4887 -0.9433
 4747SOL    HW225875   3.195   1.227   4.817  1.6785 -1.6525 -1.2512
 4748SOL     OW25876   3.351   4.130  10.326  0.8170 -0.1227 -0.1740
 4748SOL    HW125877   3.291   4.110  10.398  1.6028  1.9745  1.0550
 4748SOL    HW225878   3.323   4.081  10.249  0.9125 -1.1063  0.4163
 4749SOL     OW25879   1.517   2.798  10.045  0.0331  0.0661  0.5260
 4749SOL    HW125880   1.527   2.890  10.023  1.3027 -0.1193  0.3226
 4749SOL    HW225881   1.422   2.792  10.057  0.1727 -2.3363  0.5724
 4750SOL     OW25882   0.466   2.524   2.736 -0.2505 -0.0025  0.4089
 4750SOL    HW125883   0.427   2.601   2.696  1.5491  0.9112  0.4134
 4750SOL    HW225884   0.413   2.451   2.703 -1.0145  0.9279 -0.3940
 4751SOL     OW25885   1.462   4.712  11.085  0.0348 -1.2822 -0.1852
 4751SOL    HW125886   1.487   4.623  11.108  0.1931 -0.4625  2.8082
 4751SOL    HW225887   1.534   0.001  11.028 -1.1773  2.1457 -0.2025
 4752SOL     OW25888   2.253   0.565  14.907 -0.0314  0.0992  0.8392
 4752SOL    HW125889   2.251   0.642  14.964  1.3091  0.8936 -0.2099
 4752SOL    HW225890   2.181   0.506  14.930  0.7207 -1.1261  0.0312
 4753SOL     OW25891   0.077   2.179   9.340  0.5534  0.1663  0.3003
 4753SOL    HW125892   0.109   2.212   9.423  1.7316 -1.7921  0.6172
 4753SOL    HW225893   0.084   2.245   9.270 -1.6069  0.5991  0.4784
 4754SOL     OW25894   3.336   1.036   4.094  0.0353  0.7688 -0.2119
 4754SOL    HW125895   3.419   0.995   4.070 -0.9954 -1.1203 -0.4911
 4754SOL    HW225896   3.288   0.962   4.131 -2.1152  2.4765  0.4127
 4755SOL     OW25897   0.993   4.647   5.082  0.1564 -0.2044 -0.5515
 4755SOL    HW125898   1.011   4.604   4.999 -1.6478  1.3257 -1.7171
 4755SOL    HW225899   0.955   4.584   5.143  0.7459 -0.0873 -0.0500
 4756SOL     OW25900   2.408   3.439   3.812 -0.0794  0.5538 -0.0094
 4756SOL    HW125901   2.365   3.516   3.773  1.3903  0.5756 -1.5927
 4756SOL    HW225902   2.475   3.425   3.745 -0.7334 -0.8385 -0.3686
 4757SOL     OW25903   4.276   0.261   7.440 -0.2631 -0.6213  0.0537
 4757SOL    HW125904   4.306   0.301   7.522 -0.0480  0.1315 -0.3940
 4757SOL    HW225905   4.350   0.253   7.381 -0.8386 -2.8928 -0.3688
 4758SOL     OW25906   2.658   2.898   8.374 -0.3921  0.9403 -0.0491
 4758SOL    HW125907   2.692   2.917   8.461  0.5121 -1.4964  0.1194
 4758SOL    HW225908   2.609   2.821   8.403 -0.4222  1.8706  2.3190
 4759SOL     OW25909   2.616   0.237   7.462  1.1462  0.0373 -0.2951
 4759SOL    HW125910   2.579   0.325   7.461 -2.1923 -1.3617  1.4843
 4759SOL    HW225911   2.655   0.233   7.549  1.4072 -1.4033 -0.4785
 4760SOL     OW25912   4.233   1.272   3.251  0.4513 -0.0405 -0.0079
 4760SOL    HW125913   4.218   1.180   3.276 -0.9956 -0.2576 -1.6940
 4760SOL    HW225914   4.225   1.259   3.156 -0.9722  2.5941 -0.2294
 4761SOL     OW25915   1.710   2.251  16.880  0.1476 -0.0210 -0.4532
 4761SOL    HW125916   1.704   2.176  16.940  0.3039 -0.8135 -1.4250
 4761SOL    HW225917   1.704   2.326  16.938 -1.2292 -1.3215  1.1028
 4762SOL     OW25918   2.081   1.989   8.899 -0.5018 -0.1581  0.0841
 4762SOL    HW125919   2.130   1.935   8.836  1.4770  1.3997  0.2959
 4762SOL    HW225920   2.009   2.029   8.851 -0.9703  0.1189  1.0122
 4763SOL     OW25921   3.035   0.563   1.407  0.4142  0.4451 -0.4770
 4763SOL    HW125922   2.995   0.621   1.472  0.1487 -2.2322  1.7280
 4763SOL    HW225923   3.037   0.615   1.326 -2.5011  1.4912  0.1336
 4764SOL     OW25924   2.519   0.812   7.280  0.2338 -0.0317  0.3963
 4764SOL    HW125925   2.472   0.803   7.363 -0.0961  1.5760  0.3848
 4764SOL    HW225926   2.610   0.828   7.304  0.3767 -0.8095  0.3691
 4765SOL     OW25927   1.795   0.815  14.979  0.0852  0.1023 -0.3940
 4765SOL    HW125928   1.790   0.733  14.930  0.3775 -1.4252  2.1609
 4765SOL    HW225929   1.770   0.871  14.905  0.0313  1.6640  0.7943
 4766SOL     OW25930   1.204   2.701  17.398  0.3398 -0.0281  0.3398
 4766SOL    HW125931   1.164   2.767  17.454  0.0634 -0.4753  0.6743
 4766SOL    HW225932   1.257   2.648  17.457  0.8291 -2.2778 -2.0651
 4767SOL     OW25933   0.390   2.362   9.448 -0.0268 -0.2921  0.1813
 4767SOL    HW125934   0.467   2.326   9.493 -1.7940 -3.1686  0.8749
 4767SOL    HW225935   0.386   2.310   9.368 -1.5712  0.4846 -0.2307
 4768SOL     OW25936   3.331   1.431   3.960 -0.5429 -0.0986 -0.0484
 4768SOL    HW125937   3.425   1.446   3.946 -0.5848  1.0033  0.7899
 4768SOL    HW225938   3.338   1.393   4.047 -1.9575  0.4298  0.2927
 4769SOL     OW25939   1.026   2.525   2.528  0.2680 -0.2432  0.5977
 4769SOL    HW125940   0.990   2.484   2.450 -0.3795 -0.2039  0.8710
 4769SOL    HW225941   0.995   2.615   2.514  1.7181 -0.1617 -1.9878
 4770SOL     OW25942   0.565   4.463   8.853  0.4555  0.0148 -0.0255
 4770SOL    HW125943   0.633   4.474   8.787  0.3472 -0.4563 -0.2224
 4770SOL    HW225944   0.501   4.415   8.800  0.7671 -1.0239  0.5442
 4771SOL     OW25945   3.322   0.389   0.732  0.4543  0.0861  0.6220
 4771SOL    HW125946   3.363   0.406   0.647 -3.5924  0.8434 -1.1967
 4771SOL    HW225947   3.242   0.340   0.709  0.1346  0.5108  0.8326
 4772SOL     OW25948   1.397   0.306   9.245 -0.2237  0.3759  0.2995
 4772SOL    HW125949   1.388   0.390   9.200 -1.1951  1.1373  1.9168
 4772SOL    HW225950   1.480   0.308   9.293 -0.5150  1.1901  0.7703
 4773SOL     OW25951   1.594   0.140   4.517 -0.3646 -0.2148  1.0989
 4773SOL    HW125952   1.630   0.105   4.436  3.6672  0.4057  2.6106
 4773SOL    HW225953   1.657   0.112   4.584 -0.1371  2.8694  2.2049
 4774SOL     OW25954   2.480   3.828  11.848  0.0614 -0.1462 -0.4613
 4774SOL    HW125955   2.540   3.821  11.922 -0.3684 -0.8322 -0.1731
 4774SOL    HW225956   2.414   3.880  11.894  1.6042  0.6127  0.9100
 4775SOL     OW25957   1.863   1.706  16.700  0.8769 -0.5614 -0.0182
 4775SOL    HW125958   1.802   1.682  16.630  1.1375 -0.5864 -0.2368
 4775SOL    HW225959   1.816   1.771  16.752  0.3160 -0.7197 -0.3242
 4776SOL     OW25960   3.523   4.037  17.540 -0.0481  0.8658  0.9455
 4776SOL    HW125961   3.615   4.017  17.520 -0.1607  1.5798 -0.3183
 4776SOL    HW225962   3.505   4.119  17.493 -2.2770 -0.0985  0.1468
 4777SOL     OW25963   0.272   1.464   8.634 -0.4241  0.1070 -0.0413
 4777SOL    HW125964   0.295   1.374   8.656  1.6919  0.0003 -2.7367
 4777SOL    HW225965   0.209   1.450   8.563 -0.6271  1.2278 -0.0924
 4778SOL     OW25966   3.964   4.237   6.983 -0.0375  0.0762  0.0766
 4778SOL    HW125967   3.945   4.192   6.900 -1.0485  0.6258  0.0218
 4778SOL    HW225968   3.884   4.279   7.012 -0.4750 -0.9765  0.4151
 4779SOL     OW25969   2.469   3.545   7.560  0.1911  0.1462 -0.2035
 4779SOL    HW125970   2.531   3.586   7.619 -0.4748  0.1987  0.4662
 4779SOL    HW225971   2.499   3.591   7.482  0.8266 -1.5148 -0.9524
 4780SOL     OW25972   0.249   3.529   3.232 -0.0370  0.1698 -0.1312
 4780SOL    HW125973   0.194   3.603   3.258 -2.6751 -2.6286  2.3237
 4780SOL    HW225974   0.190   3.455   3.213  1.8830 -1.4160  0.1048
 4781SOL     OW25975   2.176   4.632   5.152  0.2616  0.0074 -0.2871
 4781SOL    HW125976   2.147   4.668   5.235  0.1484  0.1488 -0.3866
 4781SOL    HW225977   2.196   4.544   5.182 -0.1845  1.0600  3.0915
 4782SOL     OW25978   3.068   3.375   4.943  0.2084 -0.3789  0.4621
 4782SOL    HW125979   3.097   3.454   4.897  0.3658 -0.7790 -0.1280
 4782SOL    HW225980   3.012   3.347   4.870  0.4625 -0.1007  0.1565
 4783SOL     OW25981   2.075   3.338  14.220 -0.4850 -0.2515  1.0145
 4783SOL    HW125982   2.127   3.389  14.283 -1.8062  0.4183  1.5527
 4783SOL    HW225983   2.141   3.274  14.194 -0.8180  0.5004 -1.6536
 4784SOL     OW25984   0.533   1.157   6.206  0.2638 -0.0991 -0.9030
 4784SOL    HW125985   0.448   1.152   6.250  0.4557  0.4495 -0.4679
 4784SOL    HW225986   0.528   1.081   6.148 -1.4793 -0.8119  0.1793
 4785SOL     OW25987   3.488   0.881   7.703 -0.5274  0.0519 -0.0639
 4785SOL    HW125988   3.557   0.821   7.733  1.2143  1.6265 -0.9680
 4785SOL    HW225989   3.416   0.841   7.754 -0.8423  1.7045  0.7908
 4786SOL     OW25990   1.275   1.468   2.129  0.6127 -0.1522  0.5311
 4786SOL    HW125991   1.362   1.462   2.170  0.3449 -3.7091  0.5845
 4786SOL    HW225992   1.246   1.377   2.138 -0.4557  0.0830 -0.5457
 4787SOL     OW25993   1.067   2.873   3.543 -0.3595 -0.5629  0.1610
 4787SOL    HW125994   1.058   2.855   3.637 -0.3133 -2.6424 -0.2440
 4787SOL    HW225995   1.129   2.802   3.526 -0.8402 -1.6980  3.0846
 4788SOL     OW25996   3.108   3.642   5.304 -0.0773  0.2815 -0.3051
 4788SOL    HW125997   3.044   3.583   5.266  1.2898 -2.1523  1.1555
 4788SOL    HW225998   3.128   3.706   5.236 -0.5339  0.3488 -0.3741
 4789SOL     OW25999   2.091   3.647   0.675  0.0965 -0.2371  0.0247
 4789SOL    HW126000   2.039   3.604   0.607  0.9323  1.2198 -1.5228
 4789SOL    HW226001   2.067   3.594   0.751 -0.3378 -1.6030 -1.0653
 4790SOL     OW26002   1.229   2.868   7.047 -0.0889  0.4940 -0.0979
 4790SOL    HW126003   1.156   2.916   7.088 -0.5900  2.7598 -3.6187
 4790SOL    HW226004   1.294   2.878   7.116  0.1399 -0.5025 -0.1782
 4791SOL     OW26005   4.319   1.593   9.226 -0.2181  0.0634 -0.0100
 4791SOL    HW126006   4.310   1.669   9.168  0.4603  0.8589  0.9429
 4791SOL    HW226007   4.412   1.589   9.247  0.1996  1.6306 -1.6288
 4792SOL     OW26008   4.561   4.381   0.112  0.1176 -0.3158 -0.1434
 4792SOL    HW126009   4.468   4.392   0.133  0.7273  2.5698  0.9520
 4792SOL    HW226010   4.593   4.453   0.166 -2.4336  1.6627 -1.2950
 4793SOL     OW26011   2.817   0.836   4.001 -0.7133  0.4531  0.0716
 4793SOL    HW126012   2.894   0.793   4.037 -1.1503 -0.0331  0.4159
 4793SOL    HW226013   2.744   0.777   4.017  1.5359 -2.0292  1.2120
 4794SOL     OW26014   0.290   4.136   4.930  0.0192 -0.1622 -0.8745
 4794SOL    HW126015   0.210   4.154   4.979 -0.0711 -1.6123 -0.4943
 4794SOL    HW226016   0.309   4.048   4.962 -1.7522 -0.5803 -0.9461
 4795SOL     OW26017   4.478   3.610   0.688 -0.2257  0.6783  0.1672
 4795SOL    HW126018   4.468   3.629   0.781  0.2627 -1.3520  0.6455
 4795SOL    HW226019   4.572   3.595   0.699 -0.3846  0.4534  1.1660
 4796SOL     OW26020   1.984   2.681   1.163 -0.1449  0.3530  0.2737
 4796SOL    HW126021   2.028   2.734   1.229 -2.8252  1.5045  1.1510
 4796SOL    HW226022   1.895   2.711   1.183  0.0630  0.0990  1.5500
 4797SOL     OW26023   2.431   4.557   5.695  0.8508 -0.2980 -0.0099
 4797SOL    HW126024   2.405   4.645   5.722  0.3272  0.0476 -1.6597
 4797SOL    HW226025   2.396   4.497   5.762  0.5356  0.8083  0.8127
 4798SOL     OW26026   1.234   2.560   7.471  0.1724 -0.5625  0.1730
 4798SOL    HW126027   1.171   2.598   7.409 -1.1352  0.5628  2.1684
 4798SOL    HW226028   1.186   2.477   7.482 -0.8202 -0.0570 -0.3116
 4799SOL     OW26029   2.281   2.719   2.861  0.0750 -0.4623 -0.2871
 4799SOL    HW126030   2.311   2.696   2.773 -0.4166 -0.7811 -0.3716
 4799SOL    HW226031   2.256   2.810   2.846  0.2247 -0.4085 -0.2038
 4800SOL     OW26032   3.481   1.723   8.571  0.1178 -0.1318  0.1998
 4800SOL    HW126033   3.445   1.806   8.603 -0.2324  0.7311 -2.4023
 4800SOL    HW226034   3.478   1.745   8.478 -1.1829  0.7919  0.4592
 4801SOL     OW26035   2.862   0.118   7.899 -0.6136 -0.0087  0.0853
 4801SOL    HW126036   2.845   0.039   7.848 -1.1123 -1.0328  1.8431
 4801SOL    HW226037   2.947   0.093   7.935  0.1275  1.0518 -0.9367
 4802SOL     OW26038   0.094   4.085   8.060 -0.6964 -0.1086 -0.8082
 4802SOL    HW126039   0.014   4.032   8.064  0.3827 -1.7702 -1.3423
 4802SOL    HW226040   0.103   4.102   7.966 -0.1106  1.8014 -0.4070
 4803SOL     OW26041   3.233   2.900   8.394  0.2452 -0.0708 -0.4722
 4803SOL    HW126042   3.211   2.846   8.318 -2.6159 -0.4768  0.6273
 4803SOL    HW226043   3.327   2.883   8.399 -0.0204 -1.3470  0.3534
 4804SOL     OW26044   1.738   3.599   4.066  0.6909 -0.4052 -0.2507
 4804SOL    HW126045   1.715   3.509   4.043 -1.0559 -0.4322  1.5693
 4804SOL    HW226046   1.831   3.597   4.047  0.4430  0.2167 -1.5337
 4805SOL     OW26047   1.591   1.309   7.549  0.0652 -0.2497  0.3925
 4805SOL    HW126048   1.554   1.393   7.523  0.5299 -0.2473 -0.2710
 4805SOL    HW226049   1.661   1.336   7.609  0.8646  1.4914 -1.3476
 4806SOL     OW26050   0.545   0.742   2.898  0.2812 -0.2064 -0.9632
 4806SOL    HW126051   0.583   0.655   2.912  0.8397  0.7069  3.2460
 4806SOL    HW226052   0.467   0.744   2.954  0.2710  0.1203 -0.9929
 4807SOL     OW26053   0.670   3.427  14.257 -0.0667 -0.1600 -0.0570
 4807SOL    HW126054   0.619   3.416  14.177  0.5753 -0.1865 -0.4541
 4807SOL    HW226055   0.755   3.465  14.237 -0.5803  0.8407 -0.3336
 4808SOL     OW26056   1.818   1.163   9.386  0.4371 -0.0149 -0.0106
 4808SOL    HW126057   1.788   1.091   9.442 -3.5901  1.4222 -0.3162
 4808SOL    HW226058   1.738   1.170   9.335  0.1070  3.3227  0.9764
 4809SOL     OW26059   2.441   0.542   0.878  0.1727 -0.0150  0.4106
 4809SOL    HW126060   2.380   0.470   0.889  0.3952 -0.0736  1.2557
 4809SOL    HW226061   2.479   0.521   0.792  0.9767  1.2004  0.4591
 4810SOL     OW26062   1.615   4.388  14.207 -0.6321  0.1374 -0.2627
 4810SOL    HW126063   1.608   4.338  14.125  0.8980  2.3034 -1.7069
 4810SOL    HW226064   1.530   4.358  14.240 -1.1316 -0.0665 -1.6995
 4811SOL     OW26065   0.273   1.312   3.791 -0.6477 -0.1362  0.4643
 4811SOL    HW126066   0.229   1.394   3.812  1.2534  0.7183  1.1267
 4811SOL    HW226067   0.320   1.281   3.868  0.0894 -1.5555 -0.5485
 4812SOL     OW26068   0.558   1.051  12.599  0.6168 -0.2492  0.0368
 4812SOL    HW126069   0.625   1.077  12.536  1.1919 -0.2447  0.6457
 4812SOL    HW226070   0.606   1.013  12.673  0.8350 -3.2991 -1.6363
 4813SOL     OW26071   2.241   3.381   2.709  0.7024  0.4778 -0.7182
 4813SOL    HW126072   2.159   3.369   2.757 -0.1029 -0.1480 -2.2256
 4813SOL    HW226073   2.311   3.397   2.773  0.4392 -2.3598  0.3106
 4814SOL     OW26074   4.722   0.164   1.255 -0.2015  0.0615  0.0430
 4814SOL    HW126075   4.691   0.231   1.194  1.4361 -0.0397 -0.9040
 4814SOL    HW226076   4.728   0.093   1.191 -4.8065  1.0760 -1.5493
 4815SOL     OW26077   1.147   0.946   5.182 -0.5732 -0.2522 -0.9611
 4815SOL    HW126078   1.112   0.875   5.127 -2.3931 -0.7145  0.7963
 4815SOL    HW226079   1.122   0.917   5.269  1.7904  0.1471 -0.1668
 4816SOL     OW26080   3.383   0.123   2.935 -0.1980  0.3924  0.2172
 4816SOL    HW126081   3.410   0.136   3.026  0.7296 -0.8931  0.1279
 4816SOL    HW226082   3.450   0.178   2.895 -0.8169  0.5116 -0.6697
 4817SOL     OW26083   4.002   2.131   6.118 -0.2499 -0.2391  0.0870
 4817SOL    HW126084   4.090   2.100   6.097  0.3465  1.5347 -0.0623
 4817SOL    HW226085   3.953   2.124   6.036  1.0781  1.0899 -0.8234
 4818SOL     OW26086   3.192   0.119   9.177  0.2769  0.1714 -0.7313
 4818SOL    HW126087   3.156   0.187   9.120  0.3119 -0.1645 -1.1524
 4818SOL    HW226088   3.112   0.081   9.215  2.1643 -0.4896  2.6031
 4819SOL     OW26089   1.431   1.621   5.695  0.0828 -0.6463  0.7633
 4819SOL    HW126090   1.420   1.708   5.732  1.6451 -0.5267  0.9533
 4819SOL    HW226091   1.428   1.568   5.775  2.1644  0.8375  1.8204
 4820SOL     OW26092   0.104   4.109   6.119 -0.7427  0.1629 -0.4232
 4820SOL    HW126093   0.121   4.015   6.113  0.0266  0.3233 -0.7562
 4820SOL    HW226094   0.189   4.150   6.138 -0.4100  0.5410 -2.7527
 4821SOL     OW26095   3.331   0.139   4.393  0.0531  0.4576  0.4104
 4821SOL    HW126096   3.249   0.189   4.390 -0.5584 -0.4954  1.3878
 4821SOL    HW226097   3.314   0.082   4.469 -0.9385 -0.9907 -0.9110
 4822SOL     OW26098   1.856   1.142   7.645 -0.3448 -0.1600  0.8251
 4822SOL    HW126099   1.843   1.118   7.554 -0.4275  0.1146  0.7656
 4822SOL    HW226100   1.874   1.059   7.690  1.2999  0.3996  1.1902
 4823SOL     OW26101   3.396   0.642   5.962 -0.0531 -0.1595 -0.1050
 4823SOL    HW126102   3.385   0.587   6.039  1.9300  0.2390  0.4728
 4823SOL    HW226103   3.484   0.675   5.980  1.3619 -1.6221 -4.3681
 4824SOL     OW26104   0.367   0.850   5.883 -0.2076  0.1069  0.8553
 4824SOL    HW126105   0.304   0.914   5.848 -1.1729 -0.4033  1.6715
 4824SOL    HW226106   0.380   0.784   5.815  0.1820 -0.5306  1.5458
 4825SOL     OW26107   1.976   4.049   4.758  0.0909  0.3471  0.2976
 4825SOL    HW126108   2.031   4.018   4.830  1.5917 -0.4782 -1.2124
 4825SOL    HW226109   1.948   3.966   4.719 -1.3409  0.7816  0.3835
 4826SOL     OW26110   2.467   1.522   5.885 -0.6988  0.0660 -0.4603
 4826SOL    HW126111   2.395   1.489   5.939 -2.5134 -0.4667 -3.2164
 4826SOL    HW226112   2.495   1.594   5.942  0.3918 -2.2615  1.9580
 4827SOL     OW26113   4.707   3.156   2.571  0.0231  0.6897  0.1437
 4827SOL    HW126114   4.688   3.111   2.488  1.1588 -1.9116  1.3141
 4827SOL    HW226115   4.614   3.177   2.584 -0.2648  0.3618 -1.3410
 4828SOL     OW26116   1.378   3.078   0.346  0.7017  0.0837  0.1274
 4828SOL    HW126117   1.303   3.048   0.294  1.6713 -1.1785 -0.5475
 4828SOL    HW226118   1.370   3.037   0.432  1.4632 -1.0713 -0.3534
 4829SOL     OW26119   2.141   0.538   6.080  0.0521 -0.0578  0.0693
 4829SOL    HW126120   2.198   0.595   6.131 -1.1156  2.0056 -0.8922
 4829SOL    HW226121   2.061   0.586   6.100  0.4007 -0.0179  1.3668
 4830SOL     OW26122   3.791   0.330  10.084 -0.3842  0.5400  0.6322
 4830SOL    HW126123   3.743   0.301  10.006  1.7846  1.4449 -1.0611
 4830SOL    HW226124   3.871   0.369  10.049 -0.0441 -1.3270 -0.6584
 4831SOL     OW26125   2.272   3.830  17.231  0.3409 -0.1892 -0.3392
 4831SOL    HW126126   2.303   3.806  17.318 -2.1464 -0.0790  0.5824
 4831SOL    HW226127   2.178   3.818  17.246  0.3672 -0.1769 -0.1676
 4832SOL     OW26128   1.177   2.878  13.482  0.1326  0.1199  0.1305
 4832SOL    HW126129   1.247   2.941  13.466 -0.9511  1.1488 -0.5664
 4832SOL    HW226130   1.145   2.850  13.396  2.7824 -0.4058 -0.6779
 4833SOL     OW26131   1.096   0.106   2.717 -0.1310  0.2939  0.1181
 4833SOL    HW126132   1.109   0.076   2.807 -0.7671 -1.6233 -0.4172
 4833SOL    HW226133   1.128   0.036   2.660  1.4097  1.1313 -0.0440
 4834SOL     OW26134   1.396   2.991  15.212 -0.4980 -0.1225 -0.3204
 4834SOL    HW126135   1.339   2.984  15.136  0.8115 -1.8218 -1.1468
 4834SOL    HW226136   1.440   3.075  15.197  2.1494 -1.1698  1.5380
 4835SOL     OW26137   2.036   0.207   0.737  0.6472  0.3930 -0.4175
 4835SOL    HW126138   1.948   0.234   0.762  1.2685  1.9663  0.0607
 4835SOL    HW226139   2.017   0.151   0.661 -2.5149 -1.1290  1.5366
 4836SOL     OW26140   2.746   2.308   6.878  0.4927 -0.0159 -0.0612
 4836SOL    HW126141   2.823   2.343   6.924  1.1180  0.0346 -1.1418
 4836SOL    HW226142   2.716   2.389   6.836 -0.3985  0.4935  1.5653
 4837SOL     OW26143   3.463   2.941   5.505 -0.0279 -0.6720 -0.2985
 4837SOL    HW126144   3.453   2.992   5.425  0.4692  0.1441  0.1546
 4837SOL    HW226145   3.371   2.941   5.529 -0.1502 -1.3171 -0.7731
 4838SOL     OW26146   0.245   1.136  16.113 -0.4870 -0.1241 -0.0074
 4838SOL    HW126147   0.273   1.156  16.202  0.5693  1.4970 -0.6892
 4838SOL    HW226148   0.292   1.197  16.056  0.8493 -2.2277 -1.1434
 4839SOL     OW26149   3.470   1.597   6.625 -0.3700 -1.0412  0.0754
 4839SOL    HW126150   3.387   1.633   6.657  0.9029 -0.4822  2.7504
 4839SOL    HW226151   3.529   1.656   6.672 -1.5435  0.8834 -0.8584
 4840SOL     OW26152   1.086   3.350   2.115 -0.2532 -0.2388  0.3188
 4840SOL    HW126153   1.177   3.366   2.088  0.1696 -1.3048  1.1165
 4840SOL    HW226154   1.090   3.301   2.197  0.7537  1.0213  1.0291
 4841SOL     OW26155   2.629   0.035   8.138 -0.9811 -0.1340  0.1919
 4841SOL    HW126156   2.646   4.684   8.105  1.8658  1.1547 -1.6534
 4841SOL    HW226157   2.566   0.014   8.208 -0.8373 -1.5579 -0.1069
 4842SOL     OW26158   0.377   3.525   3.736 -0.2847 -0.4332  0.2405
 4842SOL    HW126159   0.301   3.576   3.709  2.5256  2.7456 -1.5845
 4842SOL    HW226160   0.444   3.593   3.731 -0.8369  0.0781 -0.1633
 4843SOL     OW26161   3.678   1.625  13.555 -0.1018 -0.3296  0.1812
 4843SOL    HW126162   3.695   1.716  13.582  1.0261 -0.1060 -1.2544
 4843SOL    HW226163   3.609   1.597  13.615  0.1790 -2.1857 -0.3874
 4844SOL     OW26164   2.638   1.101   5.117 -0.1906 -0.5835 -0.4703
 4844SOL    HW126165   2.576   1.148   5.173  0.0531 -0.6138 -0.1721
 4844SOL    HW226166   2.696   1.060   5.182 -0.1870  1.3313  0.7169
 4845SOL     OW26167   0.551   4.075  15.545  0.4561 -0.6213 -0.5779
 4845SOL    HW126168   0.567   4.169  15.551 -5.0222  0.3283 -0.5208
 4845SOL    HW226169   0.558   4.051  15.453 -3.7113 -3.3346 -0.1845
 4846SOL     OW26170   3.906   0.705   9.137  0.3808  0.1295 -0.1292
 4846SOL    HW126171   3.872   0.782   9.183 -0.6040 -0.7806  0.6785
 4846SOL    HW226172   3.933   0.744   9.054  4.0100  2.2529  2.0698
 4847SOL     OW26173   0.334   1.706   1.769 -0.3084  0.3855 -0.0879
 4847SOL    HW126174   0.359   1.714   1.677 -1.3658  0.3565 -0.3749
 4847SOL    HW226175   0.247   1.746   1.775  0.1596  0.7229  4.1557
 4848SOL     OW26176   3.498   2.456  15.359 -0.3242 -0.1350  0.2096
 4848SOL    HW126177   3.545   2.511  15.296 -1.4745  1.2130  0.5194
 4848SOL    HW226178   3.541   2.372  15.348  2.6720  1.6986 -2.0949
 4849SOL     OW26179   4.299   0.153   5.228  0.8283  0.1021  0.0617
 4849SOL    HW126180   4.366   0.219   5.210  0.8779  0.2613  0.8317
 4849SOL    HW226181   4.290   0.154   5.323  0.0023  1.3808 -0.0151
 4850SOL     OW26182   3.769   0.154  16.767 -0.3202 -0.4216  0.5045
 4850SOL    HW126183   3.852   0.130  16.727 -1.9557 -0.2994 -3.0293
 4850SOL    HW226184   3.748   0.236  16.722 -0.2414 -0.7367 -0.1010
 4851SOL     OW26185   1.596   2.469   0.309 -0.4602 -0.0829 -0.6643
 4851SOL    HW126186   1.598   2.431   0.397  1.4378 -0.5283 -0.9197
 4851SOL    HW226187   1.616   2.561   0.330  0.4527 -0.1585 -1.2084
 4852SOL     OW26188   3.313   3.798   2.970 -0.1186  0.1008 -0.5113
 4852SOL    HW126189   3.248   3.868   2.981  2.0794  2.0320  0.1194
 4852SOL    HW226190   3.257   3.727   2.939 -1.7447  1.5349 -0.8931
 4853SOL     OW26191   2.544   1.364   2.275 -0.2519 -0.0868  0.3719
 4853SOL    HW126192   2.550   1.305   2.200 -2.2981 -0.4202  0.4937
 4853SOL    HW226193   2.485   1.321   2.337 -0.3809  1.7163  1.5133
 4854SOL     OW26194   1.989   2.069   4.046 -0.5423 -0.2698  0.2238
 4854SOL    HW126195   1.985   2.021   3.963 -2.4569  1.0801 -0.4726
 4854SOL    HW226196   2.014   2.154   4.009  1.4846 -1.6033 -1.4628
 4855SOL     OW26197   3.440   3.408  15.345 -0.2418 -0.2869  0.5389
 4855SOL    HW126198   3.383   3.456  15.286  2.7013  1.8602 -0.4822
 4855SOL    HW226199   3.421   3.315  15.327  1.0926 -0.3643 -0.3868
 4856SOL     OW26200   4.707   3.937  12.785  0.2176 -0.0044 -0.1484
 4856SOL    HW126201   4.718   4.022  12.827  0.8425 -0.7832  1.2250
 4856SOL    HW226202   0.026   3.950  12.708  0.3593  2.6252  0.3954
 4857SOL     OW26203   4.041   1.407   6.566  0.0082 -0.1056 -0.5050
 4857SOL    HW126204   3.963   1.428   6.618  1.0242  0.6652  0.7280
 4857SOL    HW226205   4.018   1.331   6.514 -0.9221  1.1678 -1.9283
 4858SOL     OW26206   4.024   3.578   3.682 -0.2042 -0.2425 -0.6225
 4858SOL    HW126207   3.942   3.596   3.728  0.4080  0.4324  0.2017
 4858SOL    HW226208   4.018   3.613   3.593 -0.0939 -0.9358 -0.9003
 4859SOL     OW26209   1.140   0.119  10.227  0.2110 -0.5401 -0.1777
 4859SOL    HW126210   1.195   0.142  10.301 -1.5338 -1.4497  1.4213
 4859SOL    HW226211   1.214   0.082  10.179 -0.2659 -0.6920 -0.7958
 4860SOL     OW26212   0.298   1.742   4.996  0.2514 -0.2087 -0.4276
 4860SOL    HW126213   0.262   1.757   4.908  2.3409 -1.0560 -1.4403
 4860SOL    HW226214   0.257   1.656   5.009 -0.2452 -0.0478 -0.9621
 4861SOL     OW26215   3.045   2.169  14.623 -0.1954  0.3247  0.5219
 4861SOL    HW126216   2.998   2.147  14.703 -1.7596  0.0257 -0.4857
 4861SOL    HW226217   2.982   2.145  14.556  1.7661 -0.9239 -0.8845
 4862SOL     OW26218   2.555   4.308   4.198  0.2717 -0.3229 -0.4329
 4862SOL    HW126219   2.543   4.268   4.284  0.6554 -1.8826 -1.0962
 4862SOL    HW226220   2.642   4.343   4.215  0.1387 -0.2116  0.0088
 4863SOL     OW26221   2.536   4.668   2.116 -0.6492 -0.4894  0.4868
 4863SOL    HW126222   2.488   4.676   2.033 -0.7259  0.3385  0.6084
 4863SOL    HW226223   2.538   0.020   2.152 -0.3404  0.7728 -2.5793
 4864SOL     OW26224   4.683   1.690   2.962 -0.0885  0.2832 -0.0996
 4864SOL    HW126225   4.662   1.748   3.035 -0.3701 -0.6771  0.5733
 4864SOL    HW226226   4.642   1.740   2.891 -0.9055  1.9070  1.4993
 4865SOL     OW26227   0.914   1.037  12.859 -1.0632 -0.3367 -0.1507
 4865SOL    HW126228   0.905   1.130  12.839  0.4606  0.2917  1.9790
 4865SOL    HW226229   0.999   1.032  12.903 -2.3155 -2.0054  2.1148
 4866SOL     OW26230   4.127   1.465   6.177  0.1452 -0.2514  0.2416
 4866SOL    HW126231   4.203   1.459   6.235  0.2163  2.3370  0.4169
 4866SOL    HW226232   4.117   1.559   6.160  3.0786 -0.1444 -0.9450
 4867SOL     OW26233   0.368   4.589   6.960 -0.2231 -0.3532  0.2147
 4867SOL    HW126234   0.315   4.531   7.015  1.0382 -0.6495  1.0948
 4867SOL    HW226235   0.370   4.536   6.880 -2.1746  0.5618 -0.4442
 4868SOL     OW26236   1.644   0.390  13.949  0.1630  0.1919 -0.5329
 4868SOL    HW126237   1.603   0.459  13.897 -0.8873 -0.4374 -0.5421
 4868SOL    HW226238   1.683   0.435  14.024 -1.6936 -3.1618  2.4854
 4869SOL     OW26239   4.010   3.669   6.447 -0.4532  0.5733 -0.3131
 4869SOL    HW126240   4.006   3.729   6.522  1.1860 -0.6949  0.7879
 4869SOL    HW226241   4.014   3.589   6.500  0.9706  0.2655 -0.8975
 4870SOL     OW26242   0.655   0.859   9.770  0.1781 -0.4823  0.1311
 4870SOL    HW126243   0.599   0.886   9.842 -0.1769 -0.6323 -0.0929
 4870SOL    HW226244   0.661   0.764   9.775  0.3860 -0.4601  0.3289
 4871SOL     OW26245   1.984   3.210  10.512  0.2861 -0.1864  0.2914
 4871SOL    HW126246   2.034   3.279  10.468 -0.4293  1.8390  2.6509
 4871SOL    HW226247   1.974   3.246  10.601 -0.6917  0.4020 -0.0538
 4872SOL     OW26248   3.155   0.605   1.751  0.0630 -0.3711  0.1637
 4872SOL    HW126249   3.072   0.650   1.733  1.3045  1.6574 -0.5302
 4872SOL    HW226250   3.159   0.590   1.845  1.2962 -3.3662 -0.3711
 4873SOL     OW26251   2.735   2.027   8.007  0.0062  0.2856  0.6117
 4873SOL    HW126252   2.749   2.001   8.098  0.0094 -0.9063  0.2686
 4873SOL    HW226253   2.825   2.053   7.989 -0.0807 -0.3162 -0.6648
 4874SOL     OW26254   0.059   1.822   1.745  0.0705  0.0835  0.4666
 4874SOL    HW126255   0.089   1.830   1.655  0.0847  2.6601  0.7182
 4874SOL    HW226256   4.701   1.812   1.737  0.0742  0.3063  0.1613
 4875SOL     OW26257   3.717   0.458   9.046 -0.3109 -0.9137  0.2870
 4875SOL    HW126258   3.769   0.476   8.968 -0.8550  0.9082  0.3607
 4875SOL    HW226259   3.789   0.423   9.098 -0.1581  4.2459  3.5196
 4876SOL     OW26260   0.872   2.908   3.387 -0.2114 -0.3470  0.4288
 4876SOL    HW126261   0.845   2.823   3.351 -0.8034 -0.2811  0.7097
 4876SOL    HW226262   0.955   2.886   3.429 -0.3911 -1.3748  0.2388
 4877SOL     OW26263   1.808   4.731  12.571 -0.1018 -0.1269 -0.0151
 4877SOL    HW126264   1.714   4.712  12.574  0.0052 -0.2420  2.7832
 4877SOL    HW226265   1.841   4.677  12.499 -0.0535  0.9737 -0.8224
 4878SOL     OW26266   2.636   3.722   9.211  0.3473 -0.3775  1.0352
 4878SOL    HW126267   2.661   3.630   9.211 -2.9888 -1.2812  0.9618
 4878SOL    HW226268   2.647   3.744   9.304 -2.4001  3.4398  0.4823
 4879SOL     OW26269   3.288   0.138  16.449  0.2313 -0.0895  0.1170
 4879SOL    HW126270   3.255   0.079  16.381 -2.0075  0.8928  0.3743
 4879SOL    HW226271   3.383   0.137  16.434  0.6642  0.9142  2.6708
 4880SOL     OW26272   1.545   0.921  11.087  0.2709 -0.2832 -0.3948
 4880SOL    HW126273   1.453   0.922  11.062  0.9409  0.2466 -2.8785
 4880SOL    HW226274   1.581   0.995  11.038 -1.8196  0.6051 -0.5647
 4881SOL     OW26275   2.269   0.760   1.621  0.4993 -0.0180  0.5591
 4881SOL    HW126276   2.234   0.827   1.562  0.8503 -0.0471  0.3198
 4881SOL    HW226277   2.251   0.678   1.575  2.9910 -1.3366  1.9496
 4882SOL     OW26278   1.951   1.517   8.561  0.4111 -0.0253  0.0136
 4882SOL    HW126279   1.869   1.468   8.566 -0.1914  1.1062  1.1259
 4882SOL    HW226280   1.935   1.577   8.488 -0.9442 -1.3271 -0.7897
 4883SOL     OW26281   3.825   1.381   2.189 -0.2311 -0.4658  0.2256
 4883SOL    HW126282   3.806   1.342   2.104 -1.3913 -0.3875  0.4417
 4883SOL    HW226283   3.823   1.474   2.164 -3.7665 -0.7171 -0.4706
 4884SOL     OW26284   4.357   0.975   7.695 -0.1965  0.2292 -0.0490
 4884SOL    HW126285   4.326   1.043   7.755  1.0144  0.7371  0.0193
 4884SOL    HW226286   4.351   1.030   7.616  2.2392  2.1945  1.1131
 4885SOL     OW26287   1.320   3.564   5.374  0.2706  0.3906 -0.0695
 4885SOL    HW126288   1.365   3.534   5.453 -2.5520 -2.3517  0.4836
 4885SOL    HW226289   1.307   3.653   5.408 -1.4188 -0.1861  0.7799
 4886SOL     OW26290   2.014   1.833   9.387 -0.1866  0.1296 -0.0797
 4886SOL    HW126291   2.031   1.912   9.336  2.5996  0.0738  0.7228
 4886SOL    HW226292   1.963   1.867   9.460 -1.1801 -0.6361 -0.4269
 4887SOL     OW26293   3.402   0.045  16.778  0.0104  0.4302  0.0560
 4887SOL    HW126294   3.492   0.072  16.761  0.2228 -0.6602 -0.5554
 4887SOL    HW226295   3.399   4.704  16.722  3.9434  0.2189  0.1685
 4888SOL     OW26296   2.462   4.119  11.307 -0.8041  0.0054  0.3834
 4888SOL    HW126297   2.386   4.068  11.332  0.0617 -1.4009  0.1480
 4888SOL    HW226298   2.528   4.049  11.309 -0.3078  0.4927  0.9441
 4889SOL     OW26299   4.370   1.629   7.189  0.3973  0.0684 -0.3550
 4889SOL    HW126300   4.415   1.705   7.224  0.4039  0.8426 -2.0511
 4889SOL    HW226301   4.412   1.618   7.104  0.4815 -1.3042 -0.1421
 4890SOL     OW26302   3.581   1.761  12.351 -0.1471  0.0762  0.0235
 4890SOL    HW126303   3.510   1.787  12.410 -1.0631 -2.4901  0.0325
 4890SOL    HW226304   3.538   1.692  12.300  0.5509  1.6781 -2.7800
 4891SOL     OW26305   0.772   0.522   7.891 -0.0433  0.0204  0.2083
 4891SOL    HW126306   0.677   0.512   7.879 -0.2344  2.0506 -0.0229
 4891SOL    HW226307   0.767   0.509   7.985 -1.1807 -3.3617 -0.3058
 4892SOL     OW26308   1.166   0.208   7.391 -0.0764  0.6091  0.3131
 4892SOL    HW126309   1.223   0.136   7.419  0.7734  1.4655  0.7812
 4892SOL    HW226310   1.227   0.280   7.376 -1.3658  1.5235 -0.4916
 4893SOL     OW26311   1.505   4.019   7.045 -0.0671  0.0629  0.6758
 4893SOL    HW126312   1.599   4.006   7.040  0.2365  1.8943  1.5597
 4893SOL    HW226313   1.497   4.006   7.140  3.9036  0.8245  1.0985
 4894SOL     OW26314   2.497   0.163   7.894  0.3105  0.1570 -0.3608
 4894SOL    HW126315   2.544   0.205   7.822  0.5781  0.6829  0.1196
 4894SOL    HW226316   2.573   0.141   7.947 -1.6821 -2.5841  1.3961
 4895SOL     OW26317   3.112   0.406   6.271 -0.3066 -0.3966 -0.1802
 4895SOL    HW126318   3.019   0.387   6.279 -0.4780 -0.0737 -1.3653
 4895SOL    HW226319   3.139   0.417   6.362  3.0039 -0.5149 -1.1515
 4896SOL     OW26320   3.167   3.205  12.822 -0.0886  0.1448 -0.0639
 4896SOL    HW126321   3.126   3.230  12.740  0.3963  0.3422 -0.2508
 4896SOL    HW226322   3.210   3.285  12.853 -2.2846  1.0872  0.5457
 4897SOL     OW26323   4.413   2.259   3.744 -0.1723  0.0872  0.1812
 4897SOL    HW126324   4.409   2.340   3.796 -0.7577  0.8840 -1.0930
 4897SOL    HW226325   4.506   2.239   3.740  0.1083  1.5547 -0.7937
 4898SOL     OW26326   0.849   3.924  11.808  0.4880 -0.1153 -0.6018
 4898SOL    HW126327   0.804   3.858  11.861  1.5024  0.7642  1.3947
 4898SOL    HW226328   0.940   3.901  11.830 -0.0165 -0.1802  1.4561
 4899SOL     OW26329   0.293   0.750   9.881  0.2039 -0.4126 -0.0058
 4899SOL    HW126330   0.388   0.764   9.886  0.2302 -0.5963  0.0029
 4899SOL    HW226331   0.282   0.656   9.893  2.1544 -0.7567 -0.8427
 4900SOL     OW26332   2.276   1.050   9.190 -0.1175 -0.0283 -0.1276
 4900SOL    HW126333   2.182   1.038   9.173 -0.0570 -1.8498  0.8644
 4900SOL    HW226334   2.288   1.139   9.157  2.2072  0.0075  0.8318
 4901SOL     OW26335   0.895   1.812   5.919 -0.1419 -0.1120 -0.1353
 4901SOL    HW126336   0.966   1.750   5.930  0.0546 -0.3532 -2.8599
 4901SOL    HW226337   0.922   1.878   5.983 -0.0022  0.0993 -0.4101
 4902SOL     OW26338   3.006   1.000   4.687 -0.0509  0.6744  0.5374
 4902SOL    HW126339   2.915   1.030   4.694  0.4578  2.0757  1.1607
 4902SOL    HW226340   3.008   0.950   4.605  0.0958  0.3947  0.7122
 4903SOL     OW26341   4.543   1.597  16.692  0.4111 -0.3214  1.1146
 4903SOL    HW126342   4.488   1.519  16.690 -0.7497  0.5064  0.5132
 4903SOL    HW226343   4.561   1.619  16.601  0.1134 -3.1318  0.3958
 4904SOL     OW26344   2.643   0.264  13.870 -0.0388  0.7568 -0.1011
 4904SOL    HW126345   2.629   0.275  13.776 -1.1900  2.9776  0.3099
 4904SOL    HW226346   2.731   0.301  13.870 -0.4671  1.7955  1.0571
 4905SOL     OW26347   1.105   2.108   7.057  0.2076  0.6220  0.1950
 4905SOL    HW126348   1.149   2.169   7.116  0.0285 -0.2885  1.2522
 4905SOL    HW226349   1.167   2.090   6.986 -1.5543 -1.7285 -0.7312
 4906SOL     OW26350   1.116   2.746   1.666  0.5087  0.1867  0.1531
 4906SOL    HW126351   1.097   2.695   1.588 -0.3157 -0.8592  1.0566
 4906SOL    HW226352   1.029   2.755   1.703  0.8337  0.4873  0.8393
 4907SOL     OW26353   4.095   0.308   8.626 -0.0644 -0.3434 -0.5348
 4907SOL    HW126354   4.073   0.228   8.674  0.4787 -0.2994 -0.2135
 4907SOL    HW226355   4.027   0.320   8.560 -0.1364  0.2723 -0.3479
 4908SOL     OW26356   3.512   1.406  13.193  0.7085 -0.1896  0.0062
 4908SOL    HW126357   3.557   1.485  13.163  1.2197 -0.6016 -0.3118
 4908SOL    HW226358   3.470   1.372  13.115  1.0475 -1.0927  0.2182
 4909SOL     OW26359   4.412   1.598   8.171  0.3447 -0.3154 -0.1612
 4909SOL    HW126360   4.355   1.521   8.181 -0.2271  0.0946 -0.3067
 4909SOL    HW226361   4.421   1.634   8.260  1.4152 -1.3605  0.1589
 4910SOL     OW26362   2.788   1.562   1.972 -0.3161  0.1962 -0.1756
 4910SOL    HW126363   2.808   1.549   1.879 -0.2645 -0.2404 -0.1044
 4910SOL    HW226364   2.850   1.632   1.991 -0.3163  0.0036  0.5391
 4911SOL     OW26365   0.684   1.095  13.281 -0.0119 -0.7782  0.5498
 4911SOL    HW126366   0.647   1.016  13.322  1.2191 -1.1769  0.8927
 4911SOL    HW226367   0.660   1.143  13.359 -1.7463  1.2582 -1.2468
 4912SOL     OW26368   1.456   2.471   7.722 -0.1134  0.1038  0.5011
 4912SOL    HW126369   1.465   2.553   7.675  1.5408 -0.9635 -1.0260
 4912SOL    HW226370   1.381   2.494   7.778 -2.0376 -0.7095 -1.7401
 4913SOL     OW26371   2.965   2.766   4.434 -0.1110 -0.7691  0.2738
 4913SOL    HW126372   2.899   2.708   4.396 -0.7937 -0.2331  0.6353
 4913SOL    HW226373   2.987   2.815   4.354 -0.9616 -1.0905 -0.1565
 4914SOL     OW26374   2.505   4.376  17.134  0.5334 -0.6108  0.4201
 4914SOL    HW126375   2.491   4.309  17.067 -2.0571 -2.1281  2.4662
 4914SOL    HW226376   2.476   4.450  17.080  2.2242  0.5197  1.0778
 4915SOL     OW26377   3.691   0.319   7.762 -0.4142  0.0280 -0.0677
 4915SOL    HW126378   3.670   0.225   7.765  1.1299 -0.2912  1.2573
 4915SOL    HW226379   3.696   0.336   7.856 -0.7090  0.3153 -0.1049
 4916SOL     OW26380   0.609   4.252  10.886 -0.0182  0.1729 -0.4938
 4916SOL    HW126381   0.531   4.200  10.868  0.1523 -0.8669  1.8744
 4916SOL    HW226382   0.562   4.324  10.928 -0.9975  0.8759 -2.7664
 4917SOL     OW26383   3.003   2.148  16.963  0.4756 -0.0892  0.1048
 4917SOL    HW126384   2.911   2.175  16.968 -0.0710 -1.6282 -1.5396
 4917SOL    HW226385   2.995   2.140  16.868  0.6893 -1.1065  0.1678
 4918SOL     OW26386   3.057   2.809   5.941 -0.5880  0.5058  0.1838
 4918SOL    HW126387   3.089   2.722   5.919  1.2858  1.0252  0.8275
 4918SOL    HW226388   3.124   2.868   5.906  0.2014  0.2215  1.1945
 4919SOL     OW26389   0.651   0.915  11.711  0.6554  0.4718  0.6024
 4919SOL    HW126390   0.650   1.010  11.699 -3.1008  0.2816 -0.9137
 4919SOL    HW226391   0.738   0.903  11.672  0.8008  0.8169  0.8319
 4920SOL     OW26392   3.060   1.468   3.960 -0.3212  0.3741  0.0006
 4920SOL    HW126393   3.073   1.561   3.980  0.6599 -0.3190  2.6509
 4920SOL    HW226394   3.151   1.437   3.951 -0.5044  0.6447 -2.8426
 4921SOL     OW26395   2.946   2.470   4.381 -0.0888  0.6296 -0.0109
 4921SOL    HW126396   2.974   2.482   4.472 -1.1761 -1.7842  0.6203
 4921SOL    HW226397   2.854   2.496   4.382 -0.2598 -0.0210  0.8994
 4922SOL     OW26398   0.674   0.674  11.838  0.3913 -0.2569  0.2593
 4922SOL    HW126399   0.758   0.690  11.880 -0.0897  2.9496 -0.0301
 4922SOL    HW226400   0.674   0.752  11.783 -2.9214  0.6144  1.4861
 4923SOL     OW26401   4.103   4.049   8.534  0.0511  0.1519  0.5588
 4923SOL    HW126402   4.019   4.036   8.578 -0.6449  3.8989  0.2949
 4923SOL    HW226403   4.124   3.957   8.516  0.1589  0.4106 -0.6426
 4924SOL     OW26404   1.907   0.888   3.985  0.3685 -0.4381 -0.5681
 4924SOL    HW126405   2.000   0.904   3.970  0.1743  0.8292 -0.4640
 4924SOL    HW226406   1.879   0.839   3.907  0.1971  0.2508 -0.9439
 4925SOL     OW26407   2.833   2.780   6.907 -0.0836 -0.5506 -0.4513
 4925SOL    HW126408   2.832   2.817   6.995  2.5846 -2.2246  0.3003
 4925SOL    HW226409   2.791   2.849   6.856 -1.4181  0.0975  1.5563
 4926SOL     OW26410   1.832   2.619   4.068 -0.0836  0.6047 -0.2429
 4926SOL    HW126411   1.788   2.606   3.984 -0.4433  0.3421 -0.0179
 4926SOL    HW226412   1.762   2.638   4.131  0.0196  1.3993 -0.3776
 4927SOL     OW26413   2.864   2.389   0.755 -0.2223  0.1298 -0.6213
 4927SOL    HW126414   2.877   2.451   0.827 -0.7131 -0.0756 -0.3510
 4927SOL    HW226415   2.940   2.332   0.763 -1.0043 -0.9959 -1.1602
 4928SOL     OW26416   0.343   4.340   9.741  0.4791  0.3065 -0.7059
 4928SOL    HW126417   0.420   4.354   9.686  0.5987 -0.9552 -0.8622
 4928SOL    HW226418   0.334   4.430   9.773  3.3335 -0.8005  3.2206
 4929SOL     OW26419   0.251   0.807   8.427 -0.2277 -0.2694 -0.4721
 4929SOL    HW126420   0.210   0.730   8.387 -0.8303 -0.5866  0.7671
 4929SOL    HW226421   0.279   0.863   8.355 -0.5731  1.5660  0.8227
 4930SOL     OW26422   4.034   1.265   3.452 -0.1123 -0.1484 -0.0931
 4930SOL    HW126423   4.062   1.185   3.495 -0.4499 -0.0157  0.3786
 4930SOL    HW226424   4.084   1.335   3.494  0.2387 -0.8318  0.6287
 4931SOL     OW26425   0.253   2.487  13.190  0.2429  0.4898  0.6326
 4931SOL    HW126426   0.333   2.472  13.240 -0.7918 -0.7442  1.9265
 4931SOL    HW226427   0.197   2.442  13.253  2.1456 -4.2354 -1.0396
 4932SOL     OW26428   3.452   0.264  14.254 -0.2459 -0.6606  0.0592
 4932SOL    HW126429   3.362   0.254  14.224  0.1491 -1.1618 -0.9719
 4932SOL    HW226430   3.488   0.320  14.184  0.6785  0.1166  1.1528
 4933SOL     OW26431   1.965   1.569   2.033 -0.0576  0.7710 -0.4623
 4933SOL    HW126432   1.883   1.554   1.986  2.4272  1.0674 -4.9980
 4933SOL    HW226433   1.981   1.487   2.079  0.7896 -0.9142 -3.7716
 4934SOL     OW26434   2.497   3.602  11.444  0.2679  0.4193  0.1526
 4934SOL    HW126435   2.442   3.525  11.456  2.8338 -1.4198 -0.1748
 4934SOL    HW226436   2.529   3.619  11.532  1.3510  0.5593 -0.2657
 4935SOL     OW26437   4.424   3.664   7.104 -0.3502 -0.1385  0.0582
 4935SOL    HW126438   4.507   3.700   7.072 -0.3907  1.2223  1.4813
 4935SOL    HW226439   4.389   3.630   7.022  1.8901  0.8869 -1.3258
 4936SOL     OW26440   3.535   1.236  13.631  0.0518  0.2451 -0.0422
 4936SOL    HW126441   3.558   1.262  13.542  0.6554  2.1131  0.6620
 4936SOL    HW226442   3.601   1.292  13.671 -1.5023  2.6843 -0.8672
 4937SOL     OW26443   4.423   3.040  11.685  0.9007 -0.4208  0.3179
 4937SOL    HW126444   4.424   2.946  11.704  0.4301 -1.4866 -4.7334
 4937SOL    HW226445   4.512   3.064  11.709  0.3810  0.1748  1.6221
 4938SOL     OW26446   3.904   2.846   7.662  0.1627  0.2892 -0.5401
 4938SOL    HW126447   3.932   2.865   7.751 -0.1738  0.8955 -0.5639
 4938SOL    HW226448   3.979   2.878   7.611  2.0160 -1.8609  0.8337
 4939SOL     OW26449   2.161   3.688   8.477  0.5006  0.4406 -0.0652
 4939SOL    HW126450   2.069   3.710   8.494  0.5847 -0.2935  1.2733
 4939SOL    HW226451   2.193   3.766   8.522  0.5305  0.0148  0.6442
 4940SOL     OW26452   2.880   3.544   0.776 -0.3346 -0.1632  0.0591
 4940SOL    HW126453   2.948   3.556   0.709 -1.3697 -0.7053 -1.0935
 4940SOL    HW226454   2.850   3.457   0.751 -0.0806 -0.7644  1.9149
 4941SOL     OW26455   2.054   4.283   3.000 -0.2300  0.2636  0.3776
 4941SOL    HW126456   2.107   4.260   2.925 -1.0192 -0.9650  0.2065
 4941SOL    HW226457   1.983   4.324   2.950  3.7096  1.6759 -4.0462
 4942SOL     OW26458   0.298   4.227   7.148 -0.3327  0.4146 -0.5762
 4942SOL    HW126459   0.354   4.234   7.071  0.5856 -1.3346 -0.0644
 4942SOL    HW226460   0.366   4.217   7.215  0.3028 -0.1783 -1.3053
 4943SOL     OW26461   2.386   0.252  17.248  0.0784  0.1336 -0.2665
 4943SOL    HW126462   2.350   0.257  17.159  0.3273 -1.5883 -0.4558
 4943SOL    HW226463   2.457   0.189  17.241 -2.0183 -2.0964 -1.3925
 4944SOL     OW26464   1.221   2.927   3.021  0.1688  0.0198 -0.4137
 4944SOL    HW126465   1.136   2.906   2.984 -1.2359  3.9953  0.4472
 4944SOL    HW226466   1.191   2.961   3.106 -0.6187 -1.5760 -0.0564
 4945SOL     OW26467   2.552   3.186   9.729  0.3026 -0.2678 -0.2008
 4945SOL    HW126468   2.575   3.144   9.812  0.2258 -0.7529 -0.4227
 4945SOL    HW226469   2.520   3.267   9.768 -0.9781 -1.5082  1.3361
 4946SOL     OW26470   0.468   0.326   4.209 -0.3221 -0.2695  0.1566
 4946SOL    HW126471   0.427   0.386   4.271 -1.7457 -1.6583  0.5291
 4946SOL    HW226472   0.396   0.278   4.170  0.5525 -0.0267 -1.7630
 4947SOL     OW26473   3.121   1.943   6.507 -0.1159 -0.2374 -0.5055
 4947SOL    HW126474   3.104   1.940   6.413  2.6924 -3.4470 -0.9062
 4947SOL    HW226475   3.195   2.004   6.511  0.8912 -1.5494  0.8513
 4948SOL     OW26476   0.856   0.203   4.339  0.3197 -0.5176 -0.1590
 4948SOL    HW126477   0.880   0.223   4.249 -2.6944  3.4787 -0.0724
 4948SOL    HW226478   0.941   0.206   4.384  0.4090 -0.7992 -0.3093
 4949SOL     OW26479   4.533   3.957   8.026 -0.4611 -0.1639  0.1097
 4949SOL    HW126480   4.438   3.952   8.034 -0.2976 -3.5121 -0.2004
 4949SOL    HW226481   4.547   3.911   7.944  2.1988  0.9061 -0.0415
 4950SOL     OW26482   0.066   2.926   5.174  0.9049  0.0014 -0.0473
 4950SOL    HW126483   0.022   2.853   5.131  0.1998 -0.1112  0.8676
 4950SOL    HW226484   0.036   2.988   5.107  1.4473  0.6907  0.3404
 4951SOL     OW26485   0.841   2.975   6.839 -0.3707 -0.4396 -0.1617
 4951SOL    HW126486   0.852   2.889   6.799 -1.8922 -0.6887 -0.0407
 4951SOL    HW226487   0.916   3.016   6.795 -0.5831  1.0663  0.8739
 4952SOL     OW26488   0.913   2.868  16.799  0.2286  0.6998 -0.1652
 4952SOL    HW126489   0.883   2.825  16.879 -1.8437  2.1359 -0.1510
 4952SOL    HW226490   0.949   2.946  16.840  1.5218 -0.2464  0.4957
 4953SOL     OW26491   1.747   4.616  14.268 -0.6534  0.1862  0.2499
 4953SOL    HW126492   1.725   4.523  14.264 -0.2191  0.0673  0.6369
 4953SOL    HW226493   1.679   4.658  14.215 -0.8174  0.3141  0.5585
 4954SOL     OW26494   3.395   1.434   9.135  0.7324  0.5964 -0.0737
 4954SOL    HW126495   3.325   1.498   9.121  0.1399 -0.2520 -0.9741
 4954SOL    HW226496   3.420   1.462   9.223  0.1104 -0.4570  0.4353
 4955SOL     OW26497   0.546   3.663   9.467  0.0936 -0.2232  0.0322
 4955SOL    HW126498   0.469   3.714   9.490  0.0451 -0.8409  1.2409
 4955SOL    HW226499   0.500   3.585   9.433 -3.0054  0.6973  2.1249
 4956SOL     OW26500   4.622   4.043  11.909  0.3045  0.4968  0.9218
 4956SOL    HW126501   4.642   4.026  11.817  0.9388 -0.5483  1.2507
 4956SOL    HW226502   4.590   4.133  11.912 -0.2448  0.2515  2.5476
 4957SOL     OW26503   0.634   0.651  10.162 -0.1956  0.1589 -0.0395
 4957SOL    HW126504   0.600   0.653  10.251 -3.2997  1.3766 -1.2516
 4957SOL    HW226505   0.681   0.568  10.155 -1.8437 -0.9610  1.8853
 4958SOL     OW26506   0.212   2.086   7.865 -0.1856  0.4449 -0.1388
 4958SOL    HW126507   0.173   2.110   7.949 -1.5025  0.4576 -0.7426
 4958SOL    HW226508   0.195   1.992   7.874  1.1472  0.3105  0.8570
 4959SOL     OW26509   2.871   0.872   3.462  0.1132 -0.6869 -0.2468
 4959SOL    HW126510   2.933   0.928   3.413 -0.2338 -1.4392 -1.5547
 4959SOL    HW226511   2.903   0.890   3.550  0.2740  0.2793 -0.4925
 4960SOL     OW26512   3.431   4.156   6.915  0.5379 -0.1255  0.3349
 4960SOL    HW126513   3.350   4.104   6.910 -0.5498  1.5992 -0.0752
 4960SOL    HW226514   3.404   4.235   6.868  0.5471 -1.8930 -2.6351
 4961SOL     OW26515   1.453   3.589   4.172 -0.4609  0.0467  0.2058
 4961SOL    HW126516   1.464   3.495   4.184  1.8177  0.3899  0.7389
 4961SOL    HW226517   1.539   3.625   4.148 -0.9082  0.9269 -0.0907
 4962SOL     OW26518   4.341   2.026   8.065  0.1580 -0.1024 -0.2495
 4962SOL    HW126519   4.305   2.115   8.065 -1.5708 -0.7902  0.3325
 4962SOL    HW226520   4.268   1.978   8.025 -0.7755  1.0667  0.0379
 4963SOL     OW26521   0.033   4.449   7.260 -0.1635  0.2886  0.1427
 4963SOL    HW126522   0.076   4.484   7.182  0.7150 -0.9830  0.0694
 4963SOL    HW226523   4.711   4.389   7.214 -1.7871  1.9126  0.0629
 4964SOL     OW26524   2.175   0.506   7.538 -0.5546 -0.1955  0.0199
 4964SOL    HW126525   2.153   0.473   7.625 -2.2407 -0.1060 -0.3699
 4964SOL    HW226526   2.096   0.484   7.488 -1.1265  3.4938 -0.7322
 4965SOL     OW26527   3.060   1.915   5.448  0.0791  0.5404 -0.2154
 4965SOL    HW126528   3.025   1.916   5.358 -2.0671  0.2608  0.6209
 4965SOL    HW226529   3.064   1.822   5.469  1.1075  0.4106 -0.9704
 4966SOL     OW26530   0.237   2.935   4.375  0.3346  0.5672  0.3660
 4966SOL    HW126531   0.294   3.011   4.385  0.1270  1.3264 -4.2307
 4966SOL    HW226532   0.281   2.884   4.307 -0.7596  0.4308 -0.2498
 4967SOL     OW26533   2.459   2.908   9.189  0.0057 -0.7105  0.1688
 4967SOL    HW126534   2.495   2.986   9.147 -1.5505  0.9276  1.8503
 4967SOL    HW226535   2.407   2.870   9.119 -0.9436 -2.0481  1.6016
 4968SOL     OW26536   0.373   4.637   4.774  0.2267 -0.2853 -0.1102
 4968SOL    HW126537   0.329   4.618   4.857 -1.6911  0.8852 -0.8689
 4968SOL    HW226538   0.401   4.727   4.790  0.5611 -0.0178 -2.1241
 4969SOL     OW26539   2.085   1.061  13.080  0.2099  0.0184  0.2483
 4969SOL    HW126540   2.156   1.093  13.136 -0.7023  0.6047  1.0884
 4969SOL    HW226541   2.033   1.003  13.134 -1.9686 -0.1428 -2.0160
 4970SOL     OW26542   3.045   0.656   4.002  0.3069  0.2407 -0.4040
 4970SOL    HW126543   3.016   0.644   3.911 -0.7381  0.1152 -0.0485
 4970SOL    HW226544   3.016   0.574   4.042  0.2941  0.5932  0.2970
 4971SOL     OW26545   1.791   1.625   7.334  0.4486 -0.3132 -0.4714
 4971SOL    HW126546   1.698   1.633   7.353  0.6395  0.5826  0.0921
 4971SOL    HW226547   1.830   1.639   7.421  0.0154  0.4100 -0.3971
 4972SOL     OW26548   4.411   0.698  12.201  0.3238  0.1877 -0.4834
 4972SOL    HW126549   4.379   0.781  12.236  1.9981  0.1956  1.0392
 4972SOL    HW226550   4.330   0.653  12.178  0.5298 -0.5623  0.2535
 4973SOL     OW26551   2.681   4.011  12.963  1.2535  0.7079 -0.3944
 4973SOL    HW126552   2.754   3.954  12.985  1.2150  0.9696  0.3997
 4973SOL    HW226553   2.685   4.013  12.867  0.7379 -0.2713 -0.4347
 4974SOL     OW26554   2.326   3.864   4.766 -0.0466 -0.4052 -0.1693
 4974SOL    HW126555   2.350   3.867   4.859  1.0648  0.3600 -0.4811
 4974SOL    HW226556   2.280   3.780   4.755 -1.2607  0.2046  0.2351
 4975SOL     OW26557   0.529   0.847  10.007  0.4749  0.3275 -0.3885
 4975SOL    HW126558   0.566   0.764  10.038 -0.4244  0.4519  1.0217
 4975SOL    HW226559   0.513   0.890  10.091  2.7686  0.4877 -0.0372
 4976SOL     OW26560   2.295   1.183   9.777  0.7806  0.3030 -0.4491
 4976SOL    HW126561   2.236   1.189   9.703 -0.3435 -0.3493  0.3929
 4976SOL    HW226562   2.369   1.154   9.724  0.8608  0.6804 -0.5466
 4977SOL     OW26563   1.853   0.056   2.392  0.0822 -0.4254  0.0079
 4977SOL    HW126564   1.785   0.054   2.325  0.4364 -1.1559 -0.3240
 4977SOL    HW226565   1.892   0.142   2.374  0.0702 -0.5049 -0.3982
 4978SOL     OW26566   4.341   0.173   4.566  0.2427  0.1932  0.2720
 4978SOL    HW126567   4.385   0.252   4.534 -2.3825  1.0758 -1.1858
 4978SOL    HW226568   4.397   0.165   4.643  1.6722 -2.3168 -1.0023
 4979SOL     OW26569   1.291   1.188   0.725 -0.3680 -0.3197 -0.2929
 4979SOL    HW126570   1.220   1.251   0.740 -0.3734 -0.1611 -0.9701
 4979SOL    HW226571   1.306   1.159   0.815 -1.6466 -1.4712 -0.4509
 4980SOL     OW26572   4.057   2.457  12.163  0.2247 -0.5895 -0.0727
 4980SOL    HW126573   4.027   2.513  12.235  2.4850  0.0782  0.3414
 4980SOL    HW226574   4.070   2.377  12.214  3.2518 -0.1557 -0.1513
 4981SOL     OW26575   2.351   2.569   3.803  0.0335 -0.4199 -0.2907
 4981SOL    HW126576   2.274   2.625   3.790 -0.4761 -1.0565 -0.0169
 4981SOL    HW226577   2.312   2.482   3.805 -1.7404  0.4134  1.2701
 4982SOL     OW26578   1.990   1.096   1.696 -0.2708 -0.0765 -0.0629
 4982SOL    HW126579   2.060   1.077   1.759 -1.0051 -0.7357  0.5549
 4982SOL    HW226580   1.919   1.127   1.752 -1.8377 -4.5676  0.4596
 4983SOL     OW26581   3.695   3.382   6.308  0.5452 -0.1599  0.3674
 4983SOL    HW126582   3.682   3.294   6.272  2.8093 -0.1388 -0.4905
 4983SOL    HW226583   3.779   3.369   6.351  0.3994 -1.2009  0.3374
 4984SOL     OW26584   2.097   2.965   4.441 -0.0216  0.1986  0.0180
 4984SOL    HW126585   2.072   2.875   4.417  1.5372  0.1371 -1.3643
 4984SOL    HW226586   2.067   3.021   4.369  0.3273  1.3540  0.7760
 4985SOL     OW26587   3.915   1.918   6.514  0.7950  0.0643 -0.4645
 4985SOL    HW126588   3.911   1.823   6.507 -0.4406 -0.0057  1.4737
 4985SOL    HW226589   3.995   1.941   6.467 -1.6129  1.6035 -3.8348
 4986SOL     OW26590   3.958   3.832   4.880  0.5869  0.4115 -0.1838
 4986SOL    HW126591   3.882   3.794   4.925  0.9375  1.0669  0.9526
 4986SOL    HW226592   4.030   3.810   4.938 -0.0556  1.9249  1.2004
 4987SOL     OW26593   4.372   1.678   5.941  0.5568  0.2841 -0.0335
 4987SOL    HW126594   4.305   1.639   5.885 -1.7103  1.8180  1.6412
 4987SOL    HW226595   4.401   1.601   5.991  0.5824 -0.2432 -0.8515
 4988SOL     OW26596   1.367   0.807   7.461  0.1841  0.9041  0.1486
 4988SOL    HW126597   1.387   0.897   7.433 -0.1450  0.5049 -1.3411
 4988SOL    HW226598   1.338   0.771   7.378  0.6626 -1.2537  0.9323
 4989SOL     OW26599   4.466   1.798   5.698 -0.1393 -0.4943 -0.2078
 4989SOL    HW126600   4.405   1.780   5.769 -1.6147  2.9158 -0.6144
 4989SOL    HW226601   4.503   1.711   5.687  0.5060 -0.4335  1.6227
 4990SOL     OW26602   4.447   4.246   8.918  0.4445  0.1550  0.3837
 4990SOL    HW126603   4.509   4.174   8.914 -0.2378 -0.4095 -0.0509
 4990SOL    HW226604   4.362   4.205   8.934 -0.6141  1.6189 -1.5219
 4991SOL     OW26605   0.859   2.589  13.977  0.2853  0.2260  0.1396
 4991SOL    HW126606   0.800   2.585  13.902 -1.3295 -0.8465  1.4484
 4991SOL    HW226607   0.941   2.596  13.930  1.9471 -1.2061  2.7943
 4992SOL     OW26608   2.776   4.155   2.078 -0.1569 -0.0932 -0.0600
 4992SOL    HW126609   2.794   4.126   2.168 -0.8357 -0.6028 -0.0842
 4992SOL    HW226610   2.740   4.242   2.098  0.8702 -0.0782  1.7335
 4993SOL     OW26611   2.307   4.475   1.981 -0.1262  0.0631  0.0947
 4993SOL    HW126612   2.257   4.397   1.958 -0.0047  0.2534 -0.8322
 4993SOL    HW226613   2.360   4.478   1.901  1.3287  1.5387  1.1183
 4994SOL     OW26614   0.393   2.248   5.489  0.5225  0.2238 -0.1216
 4994SOL    HW126615   0.352   2.180   5.436 -2.3669  1.3721  0.6526
 4994SOL    HW226616   0.477   2.253   5.442 -0.0475  0.7799 -1.0888
 4995SOL     OW26617   0.854   2.180   7.157  0.2728  0.0074 -0.6458
 4995SOL    HW126618   0.910   2.153   7.084 -1.7066 -0.0451 -2.1568
 4995SOL    HW226619   0.866   2.116   7.228 -0.4844  1.7972  1.0937
 4996SOL     OW26620   4.100   2.549  16.958  0.0634 -0.1485 -0.0739
 4996SOL    HW126621   4.134   2.627  17.002 -2.5726  0.9113  0.0904
 4996SOL    HW226622   4.125   2.480  17.019  1.3631 -0.6006 -1.1237
 4997SOL     OW26623   3.995   0.696   3.262 -0.1373 -0.1763  0.5660
 4997SOL    HW126624   3.937   0.711   3.187 -1.7452 -3.9924  1.0108
 4997SOL    HW226625   3.966   0.609   3.289 -1.8686 -0.1227 -1.1613
 4998SOL     OW26626   3.416   0.197   1.975 -0.1941  0.3860 -0.1039
 4998SOL    HW126627   3.425   0.235   1.888  1.2876 -1.3567 -0.7215
 4998SOL    HW226628   3.322   0.189   1.985 -0.0133 -0.7086  0.8084
 4999SOL     OW26629   3.589   2.200  12.244 -0.0067 -0.0792  0.0566
 4999SOL    HW126630   3.653   2.230  12.309  2.1964 -1.3271 -1.5570
 4999SOL    HW226631   3.609   2.111  12.219  2.4439  0.6586 -0.5600
 5000SOL     OW26632   3.300   0.889   0.747 -0.5756  0.7194 -0.2809
 5000SOL    HW126633   3.332   0.885   0.657 -1.6416  1.0414 -0.6771
 5000SOL    HW226634   3.251   0.807   0.744  0.0556  0.3476 -0.4144
 5001SOL     OW26635   2.291   3.441   4.912  0.1035 -0.1938  0.0567
 5001SOL    HW126636   2.357   3.447   4.980  0.1504  0.4738 -0.0402
 5001SOL    HW226637   2.220   3.392   4.953  0.5815  0.0226  1.1223
 5002SOL     OW26638   2.268   2.989   5.674  0.1010  0.2491  0.7140
 5002SOL    HW126639   2.354   3.029   5.680  0.4544 -0.5941  1.2756
 5002SOL    HW226640   2.278   2.909   5.725  0.6883  0.6707  1.2663
 5003SOL     OW26641   4.318   3.135  16.445  0.3538 -0.3112  0.0527
 5003SOL    HW126642   4.244   3.134  16.385 -0.7890  0.3304  1.4367
 5003SOL    HW226643   4.359   3.213  16.407 -2.4786  1.0773 -0.1840
 5004SOL     OW26644   3.056   4.143   0.240 -0.1965 -0.0094  0.2145
 5004SOL    HW126645   3.110   4.121   0.164 -0.0276 -0.4419  0.4592
 5004SOL    HW226646   2.968   4.132   0.204  0.9626 -3.5361 -1.5149
 5005SOL     OW26647   1.111   2.037   1.467  0.3856  0.1921 -0.1420
 5005SOL    HW126648   1.052   2.013   1.538 -1.4355  1.1188 -1.3491
 5005SOL    HW226649   1.195   2.024   1.511  0.9285  0.8299 -1.0070
 5006SOL     OW26650   3.774   0.931   9.180  0.4509 -0.0479  0.0914
 5006SOL    HW126651   3.839   0.994   9.210  0.0236 -1.1969  3.5215
 5006SOL    HW226652   3.706   0.965   9.239 -0.0092 -2.1518  0.8071
 5007SOL     OW26653   3.165   3.577  13.695 -0.1337  0.5064  0.1852
 5007SOL    HW126654   3.073   3.551  13.700  0.0931 -0.4690 -0.6747
 5007SOL    HW226655   3.206   3.498  13.658 -1.6500  0.7443 -1.9986
 5008SOL     OW26656   1.572   2.783   0.387  0.4054 -0.1226 -0.2891
 5008SOL    HW126657   1.548   2.803   0.478 -0.0443 -1.4582 -0.1043
 5008SOL    HW226658   1.664   2.758   0.404  0.5501  1.2516  0.9236
 5009SOL     OW26659   2.665   3.055   1.049 -0.4645  0.4387 -0.0280
 5009SOL    HW126660   2.719   3.044   1.127 -1.6050  2.7892  1.0972
 5009SOL    HW226661   2.671   3.148   1.028 -2.6840  0.0792 -2.3500
 5010SOL     OW26662   3.928   0.400   7.093 -0.3934  0.5580 -0.3810
 5010SOL    HW126663   3.836   0.426   7.101  0.0864  1.6049  1.7173
 5010SOL    HW226664   3.958   0.436   7.177 -2.7087  0.6004  0.4302
 5011SOL     OW26665   0.085   0.708   9.729  0.2146 -1.1278 -0.4186
 5011SOL    HW126666   0.153   0.732   9.792 -0.8065  0.7433 -0.0110
 5011SOL    HW226667   0.009   0.682   9.782 -0.0166  1.6900  0.6613
 5012SOL     OW26668   0.549   3.653   0.145 -0.1963  0.2024  0.2554
 5012SOL    HW126669   0.455   3.638   0.142 -0.2331  0.9353 -2.3917
 5012SOL    HW226670   0.572   3.638   0.053 -2.0469 -0.9489 -0.0089
 5013SOL     OW26671   3.714   1.874   5.672 -0.2969  0.1401  0.8046
 5013SOL    HW126672   3.643   1.907   5.727 -0.2267 -0.2731  1.1380
 5013SOL    HW226673   3.786   1.911   5.723  0.6104 -0.0268 -0.3516
 5014SOL     OW26674   1.843   0.720   8.425  0.2854 -0.5631 -0.5802
 5014SOL    HW126675   1.756   0.760   8.416 -1.5424 -4.3910  0.1677
 5014SOL    HW226676   1.851   0.650   8.360  1.7709 -1.7753  0.9184
 5015SOL     OW26677   2.535   0.295   4.408 -0.1570 -0.2110  0.2458
 5015SOL    HW126678   2.529   0.242   4.488  0.5396 -0.3598  0.2018
 5015SOL    HW226679   2.626   0.322   4.421 -0.0870 -0.3847  0.1254
 5016SOL     OW26680   0.213   1.828   1.528  0.3673 -0.1679  0.0417
 5016SOL    HW126681   0.201   1.789   1.442  2.2759 -0.5237 -0.0778
 5016SOL    HW226682   0.249   1.913   1.505  0.0800 -0.3558 -1.0598
 5017SOL     OW26683   1.489   1.910   8.116 -0.0843  0.4333  0.1906
 5017SOL    HW126684   1.495   1.963   8.195 -0.6087 -3.0891  2.6113
 5017SOL    HW226685   1.470   1.986   8.061 -2.2890 -1.1492 -1.2605
 5018SOL     OW26686   0.844   0.591   8.323  0.2591  0.1247 -0.0957
 5018SOL    HW126687   0.903   0.610   8.396  1.7930 -1.3192 -0.9573
 5018SOL    HW226688   0.759   0.599   8.366 -0.1496 -0.6419 -0.7633
 5019SOL     OW26689   3.105   1.869   8.011  0.2082 -0.0474  0.1945
 5019SOL    HW126690   3.136   1.935   8.073  0.8705  0.2178 -0.4085
 5019SOL    HW226691   3.146   1.793   8.051 -1.3144 -1.5458 -1.0882
 5020SOL     OW26692   0.192   4.365   5.195 -0.2997 -0.1437 -0.2151
 5020SOL    HW126693   0.222   4.297   5.256 -0.9374  0.8166  1.1636
 5020SOL    HW226694   0.133   4.307   5.146 -0.7293 -1.1526  1.4908
 5021SOL     OW26695   1.181   0.387   6.554  0.1220 -0.1471 -0.4139
 5021SOL    HW126696   1.242   0.451   6.516  1.0622  0.1296  1.5452
 5021SOL    HW226697   1.228   0.355   6.632 -0.7500 -0.9212 -0.2030
 5022SOL     OW26698   1.171   0.680   4.823 -0.0607 -0.0868  0.5567
 5022SOL    HW126699   1.246   0.666   4.881 -0.8780 -0.9368  1.4335
 5022SOL    HW226700   1.210   0.670   4.736 -1.1136  1.4124 -0.0829
 5023SOL     OW26701   0.558   0.647   4.213 -0.1002 -0.3122 -0.2303
 5023SOL    HW126702   0.480   0.637   4.267  0.3102 -0.6766  0.2920
 5023SOL    HW226703   0.585   0.735   4.240 -0.3429  0.3127 -2.0192
 5024SOL     OW26704   4.017   0.138   6.174 -0.6914  0.1342  0.4337
 5024SOL    HW126705   4.078   0.064   6.183  1.3461  1.9889  1.8183
 5024SOL    HW226706   3.952   0.107   6.111  2.2771 -0.8466 -2.1813
 5025SOL     OW26707   4.486   1.346   2.048  0.9493 -0.3423 -0.0744
 5025SOL    HW126708   4.489   1.439   2.071 -0.9127 -0.5303  0.8474
 5025SOL    HW226709   4.453   1.349   1.958 -0.9951 -0.0132  0.6720
 5026SOL     OW26710   1.794   3.068   0.675  0.2957 -0.4319  0.5348
 5026SOL    HW126711   1.780   3.077   0.769  2.1320 -0.1780  0.7871
 5026SOL    HW226712   1.883   3.036   0.685  0.2749 -0.5717  0.2695
 5027SOL     OW26713   1.379   3.593   0.690  0.4923 -0.2003  0.2128
 5027SOL    HW126714   1.330   3.529   0.742  0.4452 -1.4661 -1.4208
 5027SOL    HW226715   1.384   3.670   0.747  0.4136 -0.3439  0.4159
 5028SOL     OW26716   0.922   2.084  16.690 -0.8264  0.4234  0.3359
 5028SOL    HW126717   0.843   2.136  16.673 -0.4643  1.1777  0.9350
 5028SOL    HW226718   0.910   2.048  16.777 -0.7091 -0.1345  0.1216
 5029SOL     OW26719   2.552   0.423   8.941  0.4956  0.4467  0.2408
 5029SOL    HW126720   2.555   0.509   8.983  0.0826  1.9560 -2.7805
 5029SOL    HW226721   2.531   0.362   9.011 -1.7271 -0.3210 -1.1186
 5030SOL     OW26722   0.668   0.418   8.644  0.2019  0.2332  0.3701
 5030SOL    HW126723   0.592   0.360   8.635 -1.3339  2.2039  0.7385
 5030SOL    HW226724   0.657   0.492   8.585  0.5409  0.8901  1.1379
 5031SOL     OW26725   3.487   4.582   2.956 -0.1741  0.0137 -0.0770
 5031SOL    HW126726   3.444   4.645   3.013 -0.7710  1.4983 -2.1635
 5031SOL    HW226727   3.470   4.601   2.864 -1.4103 -1.5181 -0.1773
 5032SOL     OW26728   1.903   2.035  12.180  0.1041  0.1477 -0.1971
 5032SOL    HW126729   1.838   2.094  12.141  0.6243  1.7935  1.4216
 5032SOL    HW226730   1.890   2.059  12.272  0.5656  0.9216 -0.3307
 5033SOL     OW26731   4.174   1.790   6.657  0.2527 -0.2185 -0.1668
 5033SOL    HW126732   4.257   1.807   6.702 -0.6689  0.5006  1.2798
 5033SOL    HW226733   4.111   1.809   6.727 -0.1326 -0.2864 -0.4997
 5034SOL     OW26734   3.639   2.310   2.618 -0.1913 -0.0262 -0.7105
 5034SOL    HW126735   3.585   2.374   2.664 -1.1279 -1.5211  0.2750
 5034SOL    HW226736   3.587   2.308   2.537 -0.1234 -1.3459 -0.7361
 5035SOL     OW26737   2.583   3.001   2.082  0.4040 -0.5677 -0.1927
 5035SOL    HW126738   2.574   2.936   2.151 -1.6727 -0.2389 -0.1447
 5035SOL    HW226739   2.509   3.062   2.091  0.5284 -0.3885 -0.3752
 5036SOL     OW26740   1.196   4.398   4.286 -0.0558  0.2330  0.2150
 5036SOL    HW126741   1.200   4.481   4.334 -1.7293  1.9421 -2.5903
 5036SOL    HW226742   1.126   4.411   4.223 -0.3643 -0.8658  0.3387
 5037SOL     OW26743   3.671   4.510  12.202 -0.5699  0.3161  0.1849
 5037SOL    HW126744   3.665   4.424  12.159 -1.7232  0.1281  0.7469
 5037SOL    HW226745   3.583   4.516  12.237  0.4845  0.5159  2.7741
 5038SOL     OW26746   0.676   4.044   6.591 -0.4647  0.2339 -0.5983
 5038SOL    HW126747   0.763   4.063   6.627 -0.8914 -1.8014  1.5091
 5038SOL    HW226748   0.651   3.971   6.648  0.6191  1.0296  0.8898
 5039SOL     OW26749   1.231   3.505  16.156  0.0483 -0.1339  0.8237
 5039SOL    HW126750   1.180   3.560  16.095  0.2848 -0.6681  0.1431
 5039SOL    HW226751   1.246   3.430  16.099 -0.0073  0.8802 -0.5632
 5040SOL     OW26752   2.808   2.838   3.796  0.4301 -0.1550 -0.2576
 5040SOL    HW126753   2.773   2.850   3.708  1.0393  1.7957 -0.2224
 5040SOL    HW226754   2.896   2.869   3.773  0.7067  0.0133  0.9944
 5041SOL     OW26755   2.814   2.760   2.753 -0.0160  0.6104 -0.1775
 5041SOL    HW126756   2.852   2.676   2.729 -1.8804  0.5350 -2.8441
 5041SOL    HW226757   2.897   2.805   2.737 -0.5782  1.0143 -2.0214
 5042SOL     OW26758   3.062   4.047   1.490  0.3603  0.5223 -0.6944
 5042SOL    HW126759   3.095   3.982   1.552  1.3939  2.4827  0.7941
 5042SOL    HW226760   2.976   4.060   1.528  1.3663  0.0934  1.7252
 5043SOL     OW26761   0.524   4.241   7.007  0.2135  0.4500 -0.0790
 5043SOL    HW126762   0.589   4.297   7.049  0.1643  0.0722  0.4903
 5043SOL    HW226763   0.561   4.157   7.036  1.2984  0.5045 -1.2876
 5044SOL     OW26764   2.415   3.261  10.482  0.4753  0.3874  0.3075
 5044SOL    HW126765   2.459   3.176  10.483  0.3378  0.3382  2.4699
 5044SOL    HW226766   2.349   3.249  10.551  1.5195  2.7482  1.7247
 5045SOL     OW26767   4.524   2.377   9.080 -0.0999 -0.0205 -0.0864
 5045SOL    HW126768   4.546   2.413   8.993  2.3339  1.3058  1.0547
 5045SOL    HW226769   4.455   2.437   9.107  1.8399  2.1821 -0.0164
 5046SOL     OW26770   1.559   0.084   4.876 -0.3994 -0.0980  0.2208
 5046SOL    HW126771   1.515   0.006   4.843 -2.3407  2.2675 -2.8035
 5046SOL    HW226772   1.636   0.077   4.818 -0.5547 -1.4072  0.1808
 5047SOL     OW26773   2.847   1.054   9.070  0.2883  0.4381 -0.0953
 5047SOL    HW126774   2.930   1.066   9.023  1.8848 -0.5840  2.4894
 5047SOL    HW226775   2.840   0.959   9.061 -0.8015  0.6115 -1.1375
 5048SOL     OW26776   0.699   2.785  13.211  0.1478 -0.2820 -0.5963
 5048SOL    HW126777   0.614   2.802  13.171 -0.0744  0.0372  0.0167
 5048SOL    HW226778   0.697   2.691  13.229 -2.5666  0.2401  1.8457
 5049SOL     OW26779   2.355   3.267   7.446  0.6222 -0.3889 -0.2688
 5049SOL    HW126780   2.295   3.320   7.498  2.5930  0.0840  1.5270
 5049SOL    HW226781   2.320   3.183   7.474 -0.0218 -0.5195 -1.4634
 5050SOL     OW26782   0.963   3.357  12.152  0.6441 -0.1611 -0.4622
 5050SOL    HW126783   0.973   3.436  12.206  0.9464 -1.7436  1.7949
 5050SOL    HW226784   0.903   3.307  12.208  0.6038  1.4893  0.9827
 5051SOL     OW26785   3.278   3.466   4.634  0.2537 -0.3209  0.3391
 5051SOL    HW126786   3.279   3.403   4.562 -2.1112 -1.4371  1.3080
 5051SOL    HW226787   3.359   3.440   4.678 -0.6338 -2.6192  0.6133
 5052SOL     OW26788   2.012   2.153   6.800 -0.1626 -0.5530 -0.2295
 5052SOL    HW126789   2.037   2.116   6.884  0.4516  2.0365  0.7226
 5052SOL    HW226790   1.951   2.093   6.757 -1.8188 -0.2179  1.6567
 5053SOL     OW26791   0.879   1.202   7.706  0.0358  0.1326  0.9068
 5053SOL    HW126792   0.869   1.127   7.764 -2.9693 -0.4477 -0.3668
 5053SOL    HW226793   0.804   1.252   7.737 -1.1766 -0.0708 -1.7176
 5054SOL     OW26794   3.957   4.481  12.271 -0.0712 -0.0817  0.5709
 5054SOL    HW126795   3.962   4.575  12.252  2.2269 -0.1156  1.0281
 5054SOL    HW226796   3.863   4.464  12.266 -0.4173  1.8481  0.5125
 5055SOL     OW26797   3.568   1.021   1.978 -0.0914  0.3854  0.0965
 5055SOL    HW126798   3.601   0.978   2.056  0.0508 -0.1819 -0.2753
 5055SOL    HW226799   3.482   0.981   1.962 -0.6768  0.6131  2.6560
 5056SOL     OW26800   4.225   0.987  14.681 -0.0798 -0.4515 -0.1771
 5056SOL    HW126801   4.296   0.939  14.725 -0.9635 -1.1181  0.5422
 5056SOL    HW226802   4.146   0.948  14.717  0.7622 -2.9556 -1.0381
 5057SOL     OW26803   0.148   0.568   8.249  0.0860  0.3239  1.0682
 5057SOL    HW126804   0.060   0.531   8.256  0.9892 -2.4288 -2.1140
 5057SOL    HW226805   0.200   0.499   8.288 -1.7280 -0.8299  1.4538
 5058SOL     OW26806   4.187   4.673   6.186  0.1063 -0.3063 -0.6882
 5058SOL    HW126807   4.220   4.649   6.099 -2.0998  0.0905 -1.6166
 5058SOL    HW226808   4.120   4.608   6.208 -0.7721 -0.0750 -2.6872
 5059SOL     OW26809   2.950   2.515   9.786  0.3022  0.3885  0.4379
 5059SOL    HW126810   2.918   2.426   9.769  0.2390  0.1709  1.7615
 5059SOL    HW226811   2.936   2.536   9.878  1.8406  1.3739  0.4410
 5060SOL     OW26812   0.522   2.374   9.835  0.4309  0.1853  0.0550
 5060SOL    HW126813   0.580   2.438   9.876 -0.4322  0.0008  1.5871
 5060SOL    HW226814   0.580   2.298   9.826  2.2625  1.6654 -0.5359
 5061SOL     OW26815   1.607   0.284   7.911 -0.2533  0.9777 -0.1715
 5061SOL    HW126816   1.537   0.220   7.897 -0.0295  1.1511 -2.1188
 5061SOL    HW226817   1.573   0.361   7.866 -1.8133 -0.7725 -1.9900
 5062SOL     OW26818   2.504   3.147   5.691 -0.1152  0.1645  0.2966
 5062SOL    HW126819   2.590   3.177   5.662 -0.3632  0.9262  0.3312
 5062SOL    HW226820   2.474   3.234   5.718  0.5484  0.2251  0.8472
 5063SOL     OW26821   3.996   1.737  11.223  0.3943  0.3429 -0.0868
 5063SOL    HW126822   3.975   1.819  11.178 -2.8596 -0.8040 -0.6220
 5063SOL    HW226823   3.912   1.692  11.230 -0.2277  1.6919  1.1248
 5064SOL     OW26824   4.359   2.092   7.013  0.2609  0.3508 -0.0480
 5064SOL    HW126825   4.419   2.167   7.012 -2.6347  2.5734 -3.1882
 5064SOL    HW226826   4.331   2.092   7.105  0.5738 -0.1024  0.0485
 5065SOL     OW26827   0.307   1.900   2.956 -0.0307  0.4637  0.1685
 5065SOL    HW126828   0.387   1.847   2.952  0.7291  1.7722 -1.7853
 5065SOL    HW226829   0.262   1.886   2.872  1.0679  0.2519 -0.3872
 5066SOL     OW26830   1.266   1.332   7.081  0.9431  0.6516 -0.4900
 5066SOL    HW126831   1.206   1.259   7.064  0.6463  0.8975 -0.5048
 5066SOL    HW226832   1.329   1.298   7.144  1.0314 -0.6045 -1.2557
 5067SOL     OW26833   2.132   3.886   5.215 -0.1579 -0.2427 -0.2273
 5067SOL    HW126834   2.155   3.938   5.292  2.0412 -2.3325  0.5106
 5067SOL    HW226835   2.120   3.797   5.248  0.7512  0.0250  0.8557
 5068SOL     OW26836   3.023   0.644  15.399 -0.1487  0.0239  0.1327
 5068SOL    HW126837   3.017   0.633  15.304  1.4466 -4.9959  0.5793
 5068SOL    HW226838   3.006   0.555  15.431  0.2189  0.5855  1.9114
 5069SOL     OW26839   1.167   1.353   3.047 -0.1745  0.2970 -0.5209
 5069SOL    HW126840   1.081   1.331   3.082  0.5003 -0.6464  0.5345
 5069SOL    HW226841   1.192   1.434   3.091 -0.2530 -0.2395  0.5082
 5070SOL     OW26842   4.145   2.760   5.225 -0.1777 -0.0501  0.2981
 5070SOL    HW126843   4.213   2.811   5.268  1.2728 -0.4008 -1.5957
 5070SOL    HW226844   4.175   2.675   5.258  0.7899  0.0125 -0.4146
 5071SOL     OW26845   3.328   0.107  14.772 -0.2064 -0.9474 -0.4613
 5071SOL    HW126846   3.269   0.033  14.757 -0.3181 -0.8738 -0.3828
 5071SOL    HW226847   3.319   0.141  14.683  1.1511 -1.5051 -0.8142
 5072SOL     OW26848   2.036   4.071   3.749  0.0770  0.2842  0.1696
 5072SOL    HW126849   1.977   4.136   3.712 -1.7093 -0.6347  1.3695
 5072SOL    HW226850   2.003   3.991   3.708  4.8291 -0.5767 -1.9527
 5073SOL     OW26851   1.512   4.450   3.402 -0.0740  0.3705  0.5701
 5073SOL    HW126852   1.541   4.541   3.407 -1.8453  0.9445  0.1868
 5073SOL    HW226853   1.425   4.440   3.440 -0.8114 -0.1528 -1.2595
 5074SOL     OW26854   2.407   3.227   0.423  0.4555 -0.0812  0.3796
 5074SOL    HW126855   2.481   3.242   0.365  0.9441 -0.2529  0.9514
 5074SOL    HW226856   2.438   3.233   0.514 -0.4552 -0.6265  0.7331
 5075SOL     OW26857   2.055   0.206   9.587  0.1000  0.8153 -0.1668
 5075SOL    HW126858   1.976   0.168   9.548 -0.5634  1.7265  0.2726
 5075SOL    HW226859   2.113   0.201   9.511 -1.9796 -1.1159 -1.6358
 5076SOL     OW26860   3.383   2.845   3.102 -0.2850  0.2709 -0.2017
 5076SOL    HW126861   3.449   2.819   3.166  1.4380  0.8116 -1.7541
 5076SOL    HW226862   3.325   2.769   3.101 -1.1356  0.9021  0.8660
 5077SOL     OW26863   3.658   1.783   8.380  0.3618  0.1569 -0.3411
 5077SOL    HW126864   3.664   1.821   8.292 -0.5926 -0.7119 -0.7888
 5077SOL    HW226865   3.645   1.860   8.435 -1.5486  0.4760 -1.2294
 5078SOL     OW26866   0.730   1.712  14.210 -0.0242 -0.6394  0.7280
 5078SOL    HW126867   0.645   1.668  14.216  0.7119 -2.3084 -0.8629
 5078SOL    HW226868   0.722   1.781  14.275 -0.6126  1.4901 -1.6248
 5079SOL     OW26869   1.355   0.567   6.757 -1.2237 -0.1880  0.1526
 5079SOL    HW126870   1.415   0.566   6.832 -2.0152 -3.3319  0.7626
 5079SOL    HW226871   1.400   0.636   6.708  2.5226 -2.1117  0.8484
 5080SOL     OW26872   1.257   4.081   4.806  0.7478  0.1932  0.1194
 5080SOL    HW126873   1.191   4.067   4.874  0.7931 -1.6507 -0.1901
 5080SOL    HW226874   1.337   4.034   4.828  0.1232 -0.4558  1.0229
 5081SOL     OW26875   4.441   4.681  15.660 -0.1752 -0.5756 -0.0159
 5081SOL    HW126876   4.516   4.708  15.712 -1.1074  1.9629  0.0296
 5081SOL    HW226877   4.425   4.587  15.666  2.3366 -1.1019 -1.8007
 5082SOL     OW26878   1.863   3.843   6.545  0.5300  0.2221  0.0845
 5082SOL    HW126879   1.932   3.881   6.598  0.2148 -0.0350  0.6847
 5082SOL    HW226880   1.880   3.751   6.565  0.5423  0.3874  0.8355
 5083SOL     OW26881   3.262   0.721   0.235 -0.2254 -0.3640  0.6844
 5083SOL    HW126882   3.195   0.776   0.194 -0.4211 -1.0077  0.1444
 5083SOL    HW226883   3.343   0.733   0.186 -1.3545  0.0814 -1.0896
 5084SOL     OW26884   2.854   4.443   6.797 -0.0869 -0.7576  0.1769
 5084SOL    HW126885   2.892   4.530   6.794  0.5201 -1.0777 -1.4161
 5084SOL    HW226886   2.921   4.409   6.857  0.4752  0.3870  0.1936
 5085SOL     OW26887   4.312   0.338   2.442  0.6021 -0.3986 -0.2262
 5085SOL    HW126888   4.253   0.396   2.491  0.5225 -0.6789  0.0038
 5085SOL    HW226889   4.287   0.256   2.483  0.1144  0.9685  2.2283
 5086SOL     OW26890   0.735   3.645   8.328 -0.1064 -0.0518  0.5854
 5086SOL    HW126891   0.685   3.715   8.286 -1.6003  0.5332  3.2954
 5086SOL    HW226892   0.665   3.582   8.347  1.4696 -1.1427  2.7907
 5087SOL     OW26893   4.612   1.726   6.741 -0.0827  0.4355  0.0993
 5087SOL    HW126894   4.598   1.691   6.653  0.7243 -1.5190  0.7577
 5087SOL    HW226895   4.556   1.804   6.746 -1.0311 -0.2509  0.1847
 5088SOL     OW26896   0.743   1.238  17.263 -0.4374  0.2343  0.0868
 5088SOL    HW126897   0.657   1.231  17.304  0.1594 -2.4980  0.8548
 5088SOL    HW226898   0.781   1.301  17.324  0.0889 -0.4481  0.4700
 5089SOL     OW26899   2.858   0.565  17.321  0.1245  0.5562 -0.2389
 5089SOL    HW126900   2.875   0.581  17.228  1.0992  0.1635 -0.1271
 5089SOL    HW226901   2.774   0.521  17.322 -0.4033  1.5562 -0.3170
 5090SOL     OW26902   2.177   2.513   9.695  1.0171  0.7389  0.1002
 5090SOL    HW126903   2.165   2.551   9.782  2.1005  0.6841  0.2823
 5090SOL    HW226904   2.273   2.519   9.688  0.8876  2.7292 -0.0389
 5091SOL     OW26905   4.130   2.316   0.381  0.3069 -0.3234  0.2955
 5091SOL    HW126906   4.056   2.310   0.321  0.8566 -0.8290 -0.3300
 5091SOL    HW226907   4.206   2.331   0.326 -0.1336  0.0486 -0.2063
 5092SOL     OW26908   2.897   1.061   8.194 -0.0347 -0.1598 -0.5809
 5092SOL    HW126909   2.834   1.000   8.233 -1.9076  2.0937 -0.1310
 5092SOL    HW226910   2.841   1.100   8.127 -0.1151  3.9945  1.9380
 5093SOL     OW26911   4.525   3.691  16.607 -0.0179 -0.4439 -0.9403
 5093SOL    HW126912   4.451   3.630  16.606  0.5382 -1.1236 -1.2512
 5093SOL    HW226913   4.495   3.756  16.544 -0.2227 -0.0007 -0.3885
 5094SOL     OW26914   0.688   3.455   0.306  0.0740  0.6003 -0.3613
 5094SOL    HW126915   0.640   3.526   0.263  0.4556  0.6416 -0.7261
 5094SOL    HW226916   0.642   3.465   0.389 -0.0506  1.5909 -0.5428
 5095SOL     OW26917   4.230   0.361   6.523 -1.1704 -0.4002 -0.5461
 5095SOL    HW126918   4.263   0.320   6.443 -0.9252 -1.0953 -0.0909
 5095SOL    HW226919   4.301   0.420   6.549 -1.2252 -0.4815 -0.2133
 5096SOL     OW26920   4.604   4.467   5.856 -0.5253 -0.0032  0.0684
 5096SOL    HW126921   4.672   4.440   5.794  0.1533  0.3240  0.6606
 5096SOL    HW226922   4.610   4.562   5.846 -3.3565  0.2293  0.5600
 5097SOL     OW26923   2.276   4.104  12.224  0.0077 -0.2887 -0.0225
 5097SOL    HW126924   2.188   4.075  12.199 -0.2695  2.0443 -1.7636
 5097SOL    HW226925   2.273   4.091  12.318 -0.1012 -1.8195 -0.2337
 5098SOL     OW26926   0.843   2.535   4.499  0.0110 -0.3210  0.0496
 5098SOL    HW126927   0.850   2.445   4.531 -1.3359 -1.6869 -3.4207
 5098SOL    HW226928   0.767   2.525   4.441 -0.3818  2.2847  0.1112
 5099SOL     OW26929   4.669   2.793   2.102  0.3214  0.0655 -0.1369
 5099SOL    HW126930   4.706   2.743   2.175  1.0788  0.4336 -0.2595
 5099SOL    HW226931   4.577   2.798   2.128  0.4764 -2.0056  0.8276
 5100SOL     OW26932   3.184   3.739   5.560 -0.3550  0.5103  0.1430
 5100SOL    HW126933   3.149   3.675   5.498  1.1790 -0.0248 -0.1715
 5100SOL    HW226934   3.099   3.753   5.603 -0.8737  0.1016 -0.7504
 5101SOL     OW26935   1.154   0.630  10.793 -0.1396  0.4612  0.0080
 5101SOL    HW126936   1.249   0.641  10.793 -0.2359  1.2705  0.1068
 5101SOL    HW226937   1.148   0.545  10.836 -0.0425  0.8846  0.8576
 5102SOL     OW26938   2.855   3.989   0.149  0.2996 -0.0308 -0.3495
 5102SOL    HW126939   2.872   3.895   0.155 -0.8898 -0.2572 -0.4232
 5102SOL    HW226940   2.783   4.008   0.210  0.5632  0.5325 -0.2129
 5103SOL     OW26941   4.332   4.526   4.889  0.4509  0.2257  0.2070
 5103SOL    HW126942   4.426   4.533   4.877  0.4567  1.5938  1.1457
 5103SOL    HW226943   4.310   4.615   4.917  1.3239  0.0269  1.5159
 5104SOL     OW26944   4.453   2.166   2.346  0.1533 -0.5901 -0.3248
 5104SOL    HW126945   4.435   2.236   2.283 -3.9404 -0.8437  0.5500
 5104SOL    HW226946   4.370   2.117   2.343  0.2584 -0.9570  2.4474
 5105SOL     OW26947   1.075   4.697   6.841  0.0700  0.0424  0.1804
 5105SOL    HW126948   1.143   4.675   6.904  2.5299  0.3246 -2.3889
 5105SOL    HW226949   1.121   4.680   6.759  0.3870 -0.8705  0.5505
 5106SOL     OW26950   1.377   2.549   0.120 -0.5392  0.2306 -0.5973
 5106SOL    HW126951   1.445   2.495   0.159  0.6794  0.9655 -1.6852
 5106SOL    HW226952   1.310   2.530   0.185 -0.3615 -0.0564 -0.4979
 5107SOL     OW26953   3.567   2.955   9.388  0.0739  0.2841  0.0892
 5107SOL    HW126954   3.588   2.885   9.449 -0.5211  0.4207  0.4434
 5107SOL    HW226955   3.621   2.926   9.314 -1.1537 -1.4121 -0.1274
 5108SOL     OW26956   0.636   3.820   5.684  1.2705  0.2213 -0.2631
 5108SOL    HW126957   0.716   3.768   5.693  0.7550 -0.8746 -1.9693
 5108SOL    HW226958   0.604   3.797   5.596 -1.5911  1.9549  0.3150
 5109SOL     OW26959   4.459   2.825   6.358 -0.4231 -0.3702 -0.2648
 5109SOL    HW126960   4.396   2.799   6.425  1.1625  0.1197  1.4267
 5109SOL    HW226961   4.427   2.915   6.350 -0.6379 -0.5430 -1.3322
 5110SOL     OW26962   1.588   3.210   2.562 -0.2611 -0.7027 -0.2679
 5110SOL    HW126963   1.529   3.145   2.599 -0.6355 -1.0265 -1.4509
 5110SOL    HW226964   1.645   3.213   2.639  0.8888  0.0035 -1.1525
 5111SOL     OW26965   3.594   4.056   6.442  0.0324  0.2167 -0.7663
 5111SOL    HW126966   3.522   3.992   6.447 -0.7441  1.2581  1.3074
 5111SOL    HW226967   3.672   4.000   6.441 -0.0944  0.0855 -2.7239
 5112SOL     OW26968   3.155   4.506   1.912  0.6072  0.4613 -0.0358
 5112SOL    HW126969   3.229   4.446   1.919  0.4214  0.3434  1.0372
 5112SOL    HW226970   3.097   4.457   1.854 -0.2369  1.2719  0.1136
 5113SOL     OW26971   2.891   0.456   2.383  0.4281  0.0593 -0.1326
 5113SOL    HW126972   2.805   0.492   2.404  1.1002  1.6011 -0.0234
 5113SOL    HW226973   2.951   0.496   2.446 -0.9505  1.7382  0.1251
 5114SOL     OW26974   4.584   2.777   8.573  0.0746 -0.1357  0.4065
 5114SOL    HW126975   4.678   2.784   8.554  0.2746 -0.5682  1.2208
 5114SOL    HW226976   4.552   2.730   8.497 -0.4494 -0.2798  0.7151
 5115SOL     OW26977   1.488   4.180   5.113 -0.1862  0.1430  0.5505
 5115SOL    HW126978   1.561   4.142   5.065 -0.6066  0.1294 -0.0758
 5115SOL    HW226979   1.525   4.202   5.199 -1.8396  0.9747  1.0522
 5116SOL     OW26980   1.133   3.867  11.819 -0.9495  0.0844  0.0460
 5116SOL    HW126981   1.128   3.787  11.768 -2.5115 -1.3979  2.5562
 5116SOL    HW226982   1.162   3.822  11.898 -0.9792 -3.0959 -1.7578
 5117SOL     OW26983   0.146   0.919   3.932  0.1181  0.1249 -0.5511
 5117SOL    HW126984   0.210   0.870   3.982  0.0213  1.2573  0.6981
 5117SOL    HW226985   0.123   0.984   3.999  1.5782  0.2246 -0.1617
 5118SOL     OW26986   2.456   3.757   1.843 -0.0315 -0.1405 -0.7859
 5118SOL    HW126987   2.514   3.830   1.864  0.1341 -0.7456  0.8921
 5118SOL    HW226988   2.503   3.701   1.904 -0.6939 -0.5676 -0.6706
 5119SOL     OW26989   3.210   0.526   3.676  0.1629 -0.4863 -0.0483
 5119SOL    HW126990   3.270   0.589   3.717  2.5961 -1.6327 -1.8291
 5119SOL    HW226991   3.147   0.574   3.622  0.1430  1.0550  1.3418
 5120SOL     OW26992   4.558   1.186   9.658 -0.0720  0.1069  0.4853
 5120SOL    HW126993   4.466   1.192   9.635  0.3576 -2.9154 -2.2193
 5120SOL    HW226994   4.582   1.096   9.637 -0.4238  0.1161  0.0432
 5121SOL     OW26995   1.789   3.439   5.223  0.3603  0.2245  0.2306
 5121SOL    HW126996   1.719   3.459   5.284  0.3989  0.8559  0.0704
 5121SOL    HW226997   1.752   3.459   5.137 -1.5660  0.2104  1.0646
 5122SOL     OW26998   1.018   0.038  13.773 -0.5391  0.2133  0.0866
 5122SOL    HW126999   1.031   4.694  13.724 -0.9828 -0.5178  1.1718
 5122SOL    HW227000   1.100   0.042  13.822 -0.7187 -0.5981  0.4554
 5123SOL     OW27001   1.567   2.194   2.723  0.5685 -0.0196  0.9232
 5123SOL    HW127002   1.649   2.161   2.761  0.0199 -0.9348  1.3266
 5123SOL    HW227003   1.603   2.260   2.664 -0.1341 -1.1975 -0.8519
 5124SOL     OW27004   0.396   2.975   4.697 -0.6894 -0.1756  0.0325
 5124SOL    HW127005   0.441   2.950   4.616 -1.0030 -2.5070  0.5744
 5124SOL    HW227006   0.466   2.999   4.757 -0.5092 -0.0146 -0.2476
 5125SOL     OW27007   3.171   3.887  14.923  0.6642  0.4592 -0.0854
 5125SOL    HW127008   3.230   3.925  14.859  0.8754 -0.7073 -0.5925
 5125SOL    HW227009   3.125   3.961  14.962  2.0668  1.3267 -0.0765
 5126SOL     OW27010   2.123   0.056   5.689  0.3712 -0.4308 -0.0408
 5126SOL    HW127011   2.191   0.112   5.724  1.3897 -0.6733 -1.6532
 5126SOL    HW227012   2.044   0.110   5.692  1.1561  0.5326  2.7726
 5127SOL     OW27013   1.491   2.947   2.052 -0.3328  0.1482 -0.2715
 5127SOL    HW127014   1.396   2.947   2.060 -0.3061  2.1127  0.1129
 5127SOL    HW227015   1.511   3.025   1.999  3.1099 -1.2606 -1.0766
 5128SOL     OW27016   3.032   2.547   4.645  0.0747 -0.2449  0.1840
 5128SOL    HW127017   3.062   2.537   4.736 -1.2827 -1.5198  0.4865
 5128SOL    HW227018   3.095   2.612   4.613 -0.3798 -1.4264 -3.1141
 5129SOL     OW27019   4.208   3.669  12.341  0.0694 -0.2157  0.3520
 5129SOL    HW127020   4.139   3.612  12.376 -0.8617  0.0968 -0.9860
 5129SOL    HW227021   4.160   3.707  12.268  0.0547 -0.6725  0.1192
 5130SOL     OW27022   0.716   4.685  14.001  0.1243 -0.2452  0.3271
 5130SOL    HW127023   0.732   0.031  13.954  1.2172 -1.6888 -1.8101
 5130SOL    HW227024   0.668   4.721  14.076  0.6616 -2.1109  1.5657
 5131SOL     OW27025   0.474   3.911  16.296 -0.1892 -0.1954  0.1483
 5131SOL    HW127026   0.520   3.967  16.233  1.3774 -1.7616 -0.1169
 5131SOL    HW227027   0.529   3.931  16.372  0.7567 -0.7365 -0.3877
 5132SOL     OW27028   3.410   4.438   5.825  0.9272  0.5707  0.9894
 5132SOL    HW127029   3.364   4.465   5.905 -0.3576 -2.0225  1.1323
 5132SOL    HW227030   3.404   4.343   5.834  1.0678  0.3612 -1.2032
 5133SOL     OW27031   4.616   4.227   7.139  0.4729  0.0416 -0.1445
 5133SOL    HW127032   4.591   4.135   7.138  2.5269 -0.5238  0.9762
 5133SOL    HW227033   4.657   4.219   7.052 -0.5863 -0.4821 -0.5942
 5134SOL     OW27034   0.380   1.064   5.443 -0.2144 -0.1050 -0.1709
 5134SOL    HW127035   0.402   1.078   5.535 -2.6092 -1.9317  0.6747
 5134SOL    HW227036   0.429   0.984   5.426  1.5154  1.0947 -0.9309
 5135SOL     OW27037   4.428   0.277   6.079 -0.1232  0.7856  0.5760
 5135SOL    HW127038   4.374   0.250   6.004 -1.2137 -1.5756  2.1899
 5135SOL    HW227039   4.506   0.301   6.028 -1.6216  0.0444 -2.0768
 5136SOL     OW27040   4.297   0.309   4.911 -0.1390  0.3057  0.2141
 5136SOL    HW127041   4.248   0.308   4.829  0.0672  0.4260  0.0920
 5136SOL    HW227042   4.257   0.383   4.956  2.1121  1.9929 -0.5717
 5137SOL     OW27043   0.338   3.082   5.373  0.3724 -0.4945  1.3085
 5137SOL    HW127044   0.431   3.068   5.386  0.5238 -1.4264 -0.7392
 5137SOL    HW227045   0.332   3.101   5.279 -0.0219 -0.1069  1.4111
 5138SOL     OW27046   2.593   4.433   8.611  0.0032  0.1659 -0.6926
 5138SOL    HW127047   2.672   4.479   8.581  0.0612  0.8763  0.5365
 5138SOL    HW227048   2.588   4.449   8.706 -0.6571  0.0790 -0.7145
 5139SOL     OW27049   0.778   2.072   1.648 -0.2622  0.3999 -0.2696
 5139SOL    HW127050   0.855   2.089   1.702  2.1749 -1.4205 -3.1620
 5139SOL    HW227051   0.759   2.156   1.606 -0.9479  0.0250 -0.7192
 5140SOL     OW27052   3.711   2.090   3.591 -0.1424  0.6158 -0.9830
 5140SOL    HW127053   3.761   2.009   3.591  0.2397  0.8590 -2.2410
 5140SOL    HW227054   3.782   2.150   3.614 -1.4927  1.9901 -0.3606
 5141SOL     OW27055   1.952   3.646   5.392  0.1026  0.2256 -0.1209
 5141SOL    HW127056   1.873   3.601   5.362 -0.5718  0.7694  0.8358
 5141SOL    HW227057   1.924   3.737   5.398  1.5895  0.7901 -1.8028
 5142SOL     OW27058   2.026   1.223   5.110 -0.2360  0.2285 -0.2957
 5142SOL    HW127059   2.084   1.208   5.184 -0.9204  1.6157  0.5084
 5142SOL    HW227060   1.942   1.196   5.146  0.5351  2.0337  2.8538
 5143SOL     OW27061   0.703   3.300   8.539 -0.6742 -0.0319 -0.8369
 5143SOL    HW127062   0.771   3.234   8.543 -0.9573 -0.3181 -0.7610
 5143SOL    HW227063   0.719   3.332   8.628  1.2324  0.5835 -1.4138
 5144SOL     OW27064   2.328   1.298   0.833 -0.1936  0.5004 -0.4937
 5144SOL    HW127065   2.342   1.227   0.896 -1.8015  2.5628  2.1811
 5144SOL    HW227066   2.419   1.305   0.803  0.4734 -1.1170  1.1304
 5145SOL     OW27067   1.199   4.173   2.329  0.1628 -0.4634 -0.5034
 5145SOL    HW127068   1.114   4.135   2.306 -0.1170  0.4485 -0.9808
 5145SOL    HW227069   1.201   4.258   2.285  1.7979 -0.4269 -0.3450
 5146SOL     OW27070   1.953   0.802   2.825 -0.4488  0.5201  0.1488
 5146SOL    HW127071   1.988   0.713   2.816 -0.3125  0.6865 -1.0624
 5146SOL    HW227072   2.037   0.844   2.804 -1.0707  0.6390 -2.1262
 5147SOL     OW27073   0.848   4.522   5.395  0.1676 -0.0294  0.2644
 5147SOL    HW127074   0.858   4.589   5.462  1.1440 -0.5138  0.6102
 5147SOL    HW227075   0.753   4.518   5.401  0.2106  0.5619  1.3070
 5148SOL     OW27076   1.856   1.987   8.208  0.1619  0.1332  0.2494
 5148SOL    HW127077   1.769   2.025   8.224  0.5848  0.0443  2.8803
 5148SOL    HW227078   1.901   2.043   8.271  1.9039 -0.6628 -0.3063
 5149SOL     OW27079   0.010   4.423  12.836  0.0284  0.7964 -0.5351
 5149SOL    HW127080   4.736   4.516  12.819  0.3709  1.1480  1.1976
 5149SOL    HW227081   0.105   4.423  12.852 -0.2293 -0.7072  1.0666
 5150SOL     OW27082   2.082   4.132  15.876 -0.2120  0.0929 -0.6465
 5150SOL    HW127083   1.986   4.128  15.874 -0.2082 -0.5234  0.4390
 5150SOL    HW227084   2.080   4.211  15.931 -2.2795 -0.8368  0.6638
 5151SOL     OW27085   3.696   1.298   8.033  0.0125  0.2458 -1.2122
 5151SOL    HW127086   3.620   1.308   8.090  2.9411  0.1191  2.7098
 5151SOL    HW227087   3.726   1.388   8.028 -0.5491  0.4405 -1.1082
 5152SOL     OW27088   2.618   2.324   9.506  0.3826 -0.2544  0.4873
 5152SOL    HW127089   2.575   2.292   9.585 -1.6868 -1.0114 -0.9543
 5152SOL    HW227090   2.576   2.272   9.437  1.6949  1.4770 -1.6400
 5153SOL     OW27091   1.098   1.728   6.653  0.1568  0.0527  0.0724
 5153SOL    HW127092   1.182   1.714   6.610  0.0236  0.7026 -0.4060
 5153SOL    HW227093   1.100   1.677   6.734 -0.8049  0.0703  0.1168
 5154SOL     OW27094   1.101   1.234   3.911 -0.0104  0.1404  0.5196
 5154SOL    HW127095   1.090   1.289   3.834  2.4152 -0.4687 -0.2738
 5154SOL    HW227096   1.016   1.267   3.940 -0.8835 -1.5394 -0.1492
 5155SOL     OW27097   1.216   2.433   3.023 -0.3835  0.1147  0.0005
 5155SOL    HW127098   1.259   2.507   2.980 -1.7417  0.3138 -1.0163
 5155SOL    HW227099   1.237   2.363   2.961 -0.2309  0.9278 -0.8808
 5156SOL     OW27100   2.891   0.277   3.528  0.0388  0.7373  0.1047
 5156SOL    HW127101   2.910   0.256   3.437  0.1160  0.4107  0.1971
 5156SOL    HW227102   2.804   0.312   3.510  0.0905  1.5892  1.5179
 5157SOL     OW27103   0.716   1.805   4.817  0.6130 -0.0411  0.3266
 5157SOL    HW127104   0.803   1.845   4.818  1.0625 -1.0170 -1.1355
 5157SOL    HW227105   0.725   1.758   4.734  0.1490 -0.5107  0.5412
 5158SOL     OW27106   4.051   2.654   8.586  0.5002  0.1977  0.2431
 5158SOL    HW127107   4.096   2.739   8.578  1.3565 -0.2692  0.1149
 5158SOL    HW227108   4.117   2.613   8.641  0.1567 -0.5990  0.0581
 5159SOL     OW27109   2.242   1.282  11.977  0.0004  0.1151  0.1158
 5159SOL    HW127110   2.263   1.207  12.033 -0.0962 -1.0352 -1.4114
 5159SOL    HW227111   2.320   1.293  11.923  0.3171 -1.1654  0.3117
 5160SOL     OW27112   3.702   0.041  14.100 -0.6907  0.2516 -0.4089
 5160SOL    HW127113   3.745   0.124  14.122 -0.6755 -0.4775  2.3543
 5160SOL    HW227114   3.765   0.006  14.037  0.6276 -0.9643  1.5876
 5161SOL     OW27115   2.472   0.581  15.708  0.2225 -0.4478 -0.9144
 5161SOL    HW127116   2.567   0.591  15.709  0.2452 -0.7161 -0.6283
 5161SOL    HW227117   2.460   0.500  15.658 -0.9405 -0.1291 -1.1625
 5162SOL     OW27118   0.585   3.067   7.765 -0.4839 -0.3629 -0.5301
 5162SOL    HW127119   0.580   2.974   7.743 -2.1698 -0.3591 -0.1293
 5162SOL    HW227120   0.575   3.063   7.860  2.4284 -3.4237 -0.3033
 5163SOL     OW27121   2.278   2.688  11.597 -0.3989 -0.1591 -0.0267
 5163SOL    HW127122   2.230   2.613  11.632 -0.8807  0.4607  0.6686
 5163SOL    HW227123   2.362   2.644  11.592  1.2836  2.9999  0.2587
 5164SOL     OW27124   4.489   3.054  13.757 -0.6343 -0.2084 -0.2007
 5164SOL    HW127125   4.574   3.009  13.762  0.1201  1.3825  1.5529
 5164SOL    HW227126   4.478   3.081  13.849  2.4361 -1.3831  0.5228
 5165SOL     OW27127   1.490   0.138   5.146 -0.3943 -0.2058  0.0420
 5165SOL    HW127128   1.525   0.129   5.058 -0.2516 -1.9793  0.2946
 5165SOL    HW227129   1.443   0.055   5.156  0.8372 -1.0862 -1.5786
 5166SOL     OW27130   0.798   1.798   3.942  0.3902  0.2137  0.4384
 5166SOL    HW127131   0.849   1.729   3.899  1.4640  0.2538  1.6458
 5166SOL    HW227132   0.799   1.866   3.875 -1.6213  0.2606  0.4534
 5167SOL     OW27133   0.489   0.248   9.315  0.0929 -0.3547  0.0248
 5167SOL    HW127134   0.504   0.273   9.223 -0.6178 -2.1764 -0.5910
 5167SOL    HW227135   0.396   0.270   9.321  0.3483 -0.0596  2.5516
 5168SOL     OW27136   3.590   2.304  11.905  0.3360  0.5049  0.3852
 5168SOL    HW127137   3.635   2.373  11.955  0.2885  1.6832 -1.1834
 5168SOL    HW227138   3.655   2.235  11.919 -0.7439 -0.2417  1.6349
 5169SOL     OW27139   1.155   4.130  16.308  0.7873  0.0469  0.0689
 5169SOL    HW127140   1.174   4.060  16.245  0.9738 -0.3866  0.6138
 5169SOL    HW227141   1.132   4.076  16.383  0.0845 -2.5496 -1.9958
 5170SOL     OW27142   0.105   3.622  16.324 -0.1895 -0.2926  0.0345
 5170SOL    HW127143   0.099   3.654  16.414 -0.9954 -1.7730  0.5065
 5170SOL    HW227144   0.199   3.621  16.307 -0.0552  1.5217  0.6045
 5171SOL     OW27145   4.266   1.165   2.418 -0.4705  0.0608 -0.2064
 5171SOL    HW127146   4.234   1.236   2.362  0.2667  1.5429  1.2359
 5171SOL    HW227147   4.360   1.174   2.402 -0.4982  0.1213 -0.3335
 5172SOL     OW27148   2.440   3.738  12.708 -0.2222 -0.3364  0.0255
 5172SOL    HW127149   2.453   3.708  12.617 -0.5371  2.3060 -0.8957
 5172SOL    HW227150   2.402   3.825  12.696 -3.4232 -1.9191 -1.1586
 5173SOL     OW27151   3.999   2.112   5.106 -0.2538  0.3846 -0.5503
 5173SOL    HW127152   4.046   2.196   5.112 -2.9322  1.8510 -0.2293
 5173SOL    HW227153   3.974   2.099   5.015  0.7360  0.1483 -0.7863
 5174SOL     OW27154   3.741   2.029   9.775  0.6386 -0.2209  0.8329
 5174SOL    HW127155   3.768   1.996   9.860  0.9788  1.9670  1.5911
 5174SOL    HW227156   3.822   2.020   9.725  0.6639 -0.7166  0.9682
 5175SOL     OW27157   2.301   4.176   1.952  0.3905 -0.2116 -0.1948
 5175SOL    HW127158   2.262   4.089   1.951 -0.2359  0.0524  1.4473
 5175SOL    HW227159   2.253   4.218   1.880  0.3398 -0.7871 -0.4939
 5176SOL     OW27160   2.627   2.903   2.350  0.1719  0.6379 -0.1820
 5176SOL    HW127161   2.586   2.922   2.434 -1.0674 -1.5194 -0.2895
 5176SOL    HW227162   2.598   2.812   2.347  0.2205  0.6558 -1.1021
 5177SOL     OW27163   3.028   1.999   5.123  0.4183 -0.3888  0.6243
 5177SOL    HW127164   3.095   2.056   5.160  0.9478 -0.3797 -0.3322
 5177SOL    HW227165   2.996   2.058   5.054  2.6695 -0.9871 -0.9223
 5178SOL     OW27166   2.472   3.544   8.765 -0.0041 -0.0403 -0.2163
 5178SOL    HW127167   2.405   3.499   8.715 -1.1111  1.4744 -0.1078
 5178SOL    HW227168   2.411   3.570   8.835 -0.8481  2.5421 -1.9315
 5179SOL     OW27169   4.231   1.519   6.894 -0.0682 -0.2851 -0.1313
 5179SOL    HW127170   4.264   1.441   6.939  0.3603 -0.1100 -0.1392
 5179SOL    HW227171   4.282   1.594   6.925 -0.6946  0.6777 -1.4583
 5180SOL     OW27172   1.644   1.360  16.073  0.6598  0.0987  0.1649
 5180SOL    HW127173   1.720   1.310  16.042 -0.8059 -2.4413  0.6864
 5180SOL    HW227174   1.665   1.398  16.158 -2.0886  0.7117  0.5599
 5181SOL     OW27175   1.586   0.698   9.518  0.2728  0.7080 -0.1894
 5181SOL    HW127176   1.595   0.753   9.440 -1.1281  1.4149  0.1440
 5181SOL    HW227177   1.495   0.672   9.505  0.8311 -0.7550 -1.1401
 5182SOL     OW27178   0.034   3.486   6.348  0.1718 -0.0458  0.5147
 5182SOL    HW127179   0.086   3.536   6.411  1.4364  1.1367 -1.4672
 5182SOL    HW227180   4.720   3.430   6.407 -0.4461  0.0373  0.0687
 5183SOL     OW27181   0.209   3.961   3.909  0.0697 -0.3281  0.0408
 5183SOL    HW127182   0.135   3.907   3.937 -0.7263  0.5756 -0.2932
 5183SOL    HW227183   0.169   4.025   3.851  0.9172 -0.4762 -0.7065
 5184SOL     OW27184   0.527   3.154   0.855  0.3712 -0.5565 -0.2919
 5184SOL    HW127185   0.604   3.178   0.907  0.3826 -1.2174 -0.0088
 5184SOL    HW227186   0.463   3.119   0.917 -0.9406 -2.1040 -2.5455
 5185SOL     OW27187   2.434   0.366   4.151  0.2180 -0.1088 -0.6671
 5185SOL    HW127188   2.347   0.400   4.174  0.5830 -0.0897  0.6367
 5185SOL    HW227189   2.476   0.367   4.236 -1.1533 -0.0919  0.0084
 5186SOL     OW27190   0.004   3.507   6.944 -0.3028 -0.1360 -0.3525
 5186SOL    HW127191   4.658   3.459   6.952 -0.0434 -0.3390  1.1783
 5186SOL    HW227192   0.067   3.461   6.999 -0.3012 -0.6431 -0.7828
 5187SOL     OW27193   4.115   0.961  12.973  0.1980  0.4081  0.4478
 5187SOL    HW127194   4.128   1.056  12.982 -4.1215  1.1430 -0.6320
 5187SOL    HW227195   4.188   0.944  12.913 -0.2101  0.2637 -0.0151
 5188SOL     OW27196   4.260   0.053  15.824  0.3802 -0.2433  0.3973
 5188SOL    HW127197   4.302   0.043  15.909  1.0380 -4.5205 -0.4147
 5188SOL    HW227198   4.319   0.021  15.755  1.4474 -0.5808  1.4810
 5189SOL     OW27199   3.531   0.547   4.122  0.5975 -0.7503 -0.5896
 5189SOL    HW127200   3.454   0.491   4.122 -1.0266  1.5109 -1.3110
 5189SOL    HW227201   3.577   0.532   4.040 -0.6338 -0.5642 -1.3075
 5190SOL     OW27202   3.781   4.574  14.305 -0.2074  0.2177 -0.4388
 5190SOL    HW127203   3.790   4.613  14.219 -0.2768  1.4846  0.1360
 5190SOL    HW227204   3.858   4.517  14.316 -0.5289 -0.3631 -1.2085
 5191SOL     OW27205   3.879   1.932  15.092 -0.4509 -0.6465 -0.0248
 5191SOL    HW127206   3.784   1.937  15.100 -0.3433  0.1195  0.8919
 5191SOL    HW227207   3.901   1.961  15.181  1.7838  2.8806 -1.7077
 5192SOL     OW27208   1.040   1.211   6.782 -0.4102 -0.0211  0.2247
 5192SOL    HW127209   1.057   1.292   6.734  0.2820 -0.1356  0.2693
 5192SOL    HW227210   0.945   1.198   6.774 -0.3230 -0.9065  0.6421
 5193SOL     OW27211   0.348   2.383   7.825  0.2858 -0.0052 -0.3811
 5193SOL    HW127212   0.388   2.407   7.741 -0.5591 -0.1230 -0.8098
 5193SOL    HW227213   0.260   2.355   7.800 -0.2560 -0.0605  1.6012
 5194SOL     OW27214   2.465   4.687  11.728 -0.0179  0.7587 -0.5652
 5194SOL    HW127215   2.523   4.726  11.663  1.6993  0.5014  0.8056
 5194SOL    HW227216   2.414   0.024  11.762  1.9302  1.3475  1.1065
 5195SOL     OW27217   0.133   0.848  14.252 -0.5552  0.7609 -0.4208
 5195SOL    HW127218   0.115   0.929  14.205  0.1871  1.0329 -0.2410
 5195SOL    HW227219   0.174   0.799  14.180  1.2096 -0.5669  1.4609
 5196SOL     OW27220   0.410   3.585  15.030  0.8575 -0.2097 -0.3660
 5196SOL    HW127221   0.454   3.575  14.945 -1.9586  3.3431 -2.2402
 5196SOL    HW227222   0.332   3.627  14.993  1.1357 -1.1346 -2.0408
 5197SOL     OW27223   1.327   1.758   7.678 -0.0467 -0.6934  0.4287
 5197SOL    HW127224   1.405   1.799   7.640 -2.3100  0.1946 -3.3407
 5197SOL    HW227225   1.365   1.687   7.729 -0.5898 -0.4407  1.1922
 5198SOL     OW27226   2.570   0.336  10.113 -0.4382  0.1186 -0.3318
 5198SOL    HW127227   2.545   0.378  10.195  0.1462 -1.5268  0.6863
 5198SOL    HW227228   2.636   0.279  10.153 -0.0533  1.7827  1.4031
 5199SOL     OW27229   2.492   1.146   8.662 -0.0864 -0.1719  0.4714
 5199SOL    HW127230   2.410   1.098   8.668 -0.4391  0.1575 -1.8169
 5199SOL    HW227231   2.483   1.221   8.722  1.8691 -2.1106  3.1512
 5200SOL     OW27232   4.144   4.012  10.536 -0.3450 -0.3121  0.2436
 5200SOL    HW127233   4.156   4.040  10.445 -0.2844  1.3908  0.7882
 5200SOL    HW227234   4.055   4.040  10.554 -0.8645 -0.6429 -1.7435
 5201SOL     OW27235   2.987   2.524   5.180  0.1940 -0.5316 -0.4183
 5201SOL    HW127236   2.899   2.560   5.195  0.7750  0.3068  1.0144
 5201SOL    HW227237   3.043   2.583   5.231 -1.0010 -0.0766  0.3719
 5202SOL     OW27238   1.660   0.327  16.503  0.4605  0.4951 -0.6001
 5202SOL    HW127239   1.565   0.327  16.496  0.3893  1.6011  0.3958
 5202SOL    HW227240   1.686   0.265  16.571 -1.1383 -1.6165 -1.9092
 5203SOL     OW27241   1.161   2.338   0.406  0.0241 -0.0912 -0.2333
 5203SOL    HW127242   1.214   2.328   0.327 -1.3472 -0.9332 -1.0479
 5203SOL    HW227243   1.159   2.433   0.410  2.3463  0.0459 -2.0372
 5204SOL     OW27244   1.214   2.281   6.160 -0.1272  0.1218 -0.4224
 5204SOL    HW127245   1.121   2.277   6.185  0.0077  2.2008  0.3696
 5204SOL    HW227246   1.215   2.365   6.115  3.2262  0.6321  0.6490
 5205SOL     OW27247   1.794   3.997   9.548 -0.1968  0.1315  0.0158
 5205SOL    HW127248   1.836   4.054   9.612 -2.5094  1.0780  0.7065
 5205SOL    HW227249   1.871   3.950   9.515  0.3782  0.8766  0.2881
 5206SOL     OW27250   3.950   1.017   7.983 -0.3276 -0.0594 -0.2403
 5206SOL    HW127251   3.952   0.940   8.040 -1.2031  0.3217  0.2901
 5206SOL    HW227252   3.859   1.023   7.956 -0.5592 -2.0031  0.1364
 5207SOL     OW27253   1.076   1.313   3.428  0.1070  0.1687  0.3346
 5207SOL    HW127254   1.146   1.249   3.426  0.1040  0.1160  2.1728
 5207SOL    HW227255   1.029   1.286   3.349 -0.6936  0.7723  0.5997
 5208SOL     OW27256   3.199   1.286  14.483  0.0088  0.1333 -0.2907
 5208SOL    HW127257   3.277   1.333  14.453 -0.8794  2.0866  0.4413
 5208SOL    HW227258   3.169   1.231  14.411 -2.8157  2.1154 -0.6449
 5209SOL     OW27259   3.631   4.449   1.597 -0.0544 -0.2030  0.7932
 5209SOL    HW127260   3.619   4.358   1.625 -0.0442 -0.4811 -0.1018
 5209SOL    HW227261   3.540   4.474   1.606  0.1732  0.8691  0.0894
 5210SOL     OW27262   0.547   0.579   7.297  0.3511 -0.3153 -0.0700
 5210SOL    HW127263   0.589   0.497   7.324 -0.1897 -1.0410 -1.4229
 5210SOL    HW227264   0.615   0.646   7.302 -1.6922  1.7400  0.0738
 5211SOL     OW27265   0.688   4.654   9.738 -0.3299 -0.2362 -0.2282
 5211SOL    HW127266   0.697   4.581   9.800 -3.2091  0.5862  1.1313
 5211SOL    HW227267   0.600   4.633   9.709 -0.8965 -1.6763  2.5318
 5212SOL     OW27268   3.173   0.228   2.416  0.4365 -0.2967 -0.6068
 5212SOL    HW127269   3.181   0.285   2.492 -2.3390 -0.3033 -0.2987
 5212SOL    HW227270   3.089   0.246   2.374  0.4348  0.9883 -0.0666
 5213SOL     OW27271   1.922   1.851   1.791  0.1625 -0.4142  0.0007
 5213SOL    HW127272   1.920   1.933   1.842  1.1467 -0.9896  0.9778
 5213SOL    HW227273   1.860   1.882   1.725 -1.2299 -1.1259  0.9971
 5214SOL     OW27274   0.859   0.707   5.531 -0.3157 -0.2503  0.2751
 5214SOL    HW127275   0.878   0.724   5.624 -2.4051 -1.0106  0.8400
 5214SOL    HW227276   0.800   0.631   5.536  0.2644 -0.7206  0.0463
 5215SOL     OW27277   1.830   2.096   4.988  0.5829  0.2538  0.6982
 5215SOL    HW127278   1.923   2.100   5.011  0.7642 -1.5087  0.2566
 5215SOL    HW227279   1.829   2.003   4.967  0.9364  0.5213 -0.4860
 5216SOL     OW27280   1.845   2.828   2.451  0.1292 -0.2184 -0.0472
 5216SOL    HW127281   1.827   2.918   2.426 -0.5280 -0.7912 -1.6219
 5216SOL    HW227282   1.768   2.788   2.410  0.7235 -0.5364 -0.8544
 5217SOL     OW27283   4.020   0.880   6.948 -0.0958  0.3568 -0.3000
 5217SOL    HW127284   3.963   0.940   6.996  0.2052 -1.2193  2.0185
 5217SOL    HW227285   4.062   0.825   7.015 -0.1595  1.8704  0.9876
 5218SOL     OW27286   1.880   0.680   6.096  0.1404  0.0578 -0.3058
 5218SOL    HW127287   1.916   0.718   6.176 -1.3637  0.2053  0.3153
 5218SOL    HW227288   1.829   0.752   6.059  2.1310  2.0777  0.8764
 5219SOL     OW27289   0.030   1.243  11.737  0.1528  0.1602 -0.1951
 5219SOL    HW127290   4.703   1.189  11.785 -1.0154  1.1421 -0.6264
 5219SOL    HW227291   0.001   1.333  11.747 -2.3854 -0.7545  0.6494
 5220SOL     OW27292   0.415   4.483  12.640  0.3954 -0.8112 -0.0187
 5220SOL    HW127293   0.403   4.572  12.608 -2.0526 -1.2196 -0.2642
 5220SOL    HW227294   0.504   4.461  12.613  0.3344  2.8900 -3.1745
 5221SOL     OW27295   0.616   0.755   0.272 -0.3023  0.1641 -0.2242
 5221SOL    HW127296   0.525   0.739   0.299  0.4165 -0.6828  1.7092
 5221SOL    HW227297   0.663   0.782   0.351  0.4330 -1.4974 -0.0845
 5222SOL     OW27298   3.998   4.279  12.472  0.0549 -0.2129  0.1143
 5222SOL    HW127299   3.979   4.353  12.415 -1.6570 -1.9002 -1.4571
 5222SOL    HW227300   3.939   4.218  12.429  1.0487 -1.7121  0.8648
 5223SOL     OW27301   3.744   3.606   3.753  0.6302 -0.0565 -0.0555
 5223SOL    HW127302   3.723   3.623   3.845 -1.4386  0.5040 -0.6418
 5223SOL    HW227303   3.678   3.661   3.711  0.0570 -1.0704 -0.4720
 5224SOL     OW27304   0.293   2.573   9.271 -0.0084 -0.1535  0.6919
 5224SOL    HW127305   0.293   2.511   9.344  0.0659 -1.9166 -0.8307
 5224SOL    HW227306   0.200   2.566   9.252 -0.0057  2.1891 -0.1566
 5225SOL     OW27307   4.612   1.413   9.804 -0.2940 -0.4886 -0.7135
 5225SOL    HW127308   4.591   1.348   9.737 -1.8700 -1.3558  0.6295
 5225SOL    HW227309   4.595   1.493   9.754 -0.0578 -0.2909 -0.4783
 5226SOL     OW27310   3.859   2.377   6.148  0.1314 -0.1021  0.4613
 5226SOL    HW127311   3.876   2.314   6.078  0.5557  2.8469 -2.0948
 5226SOL    HW227312   3.849   2.314   6.219 -0.3626  1.0655  1.4387
 5227SOL     OW27313   2.103   0.760   3.827 -0.1594 -0.1072  0.0808
 5227SOL    HW127314   2.186   0.731   3.864 -0.2439  0.2007  0.5115
 5227SOL    HW227315   2.140   0.830   3.774 -1.1229  0.4435  0.1493
 5228SOL     OW27316   3.143   0.282   5.944 -0.3754  0.2511 -0.2814
 5228SOL    HW127317   3.182   0.265   6.030  1.6396  1.3914 -0.9625
 5228SOL    HW227318   3.134   0.191   5.916 -1.9593 -0.3214  2.0605
 5229SOL     OW27319   4.494   3.397   5.081  0.6371  0.0797 -0.0241
 5229SOL    HW127320   4.472   3.306   5.061  3.7014 -0.9241  1.1915
 5229SOL    HW227321   4.589   3.398   5.069  0.7350  0.6037  0.7742
 5230SOL     OW27322   1.225   3.840   5.721  0.0973  0.2593  0.0747
 5230SOL    HW127323   1.164   3.767   5.719  2.5936 -1.7419 -2.3253
 5230SOL    HW227324   1.179   3.917   5.756  0.0024 -0.3395  1.2741
 5231SOL     OW27325   2.698   0.229   6.937  0.3814 -0.4757 -0.2796
 5231SOL    HW127326   2.666   0.239   7.027  1.0892  0.4361 -0.1371
 5231SOL    HW227327   2.675   0.137   6.921  0.4561 -0.2816 -1.5311
 5232SOL     OW27328   3.010   0.684   7.004 -0.0542  0.6994 -0.1100
 5232SOL    HW127329   3.018   0.720   7.093  0.6482  0.8448 -0.2291
 5232SOL    HW227330   2.915   0.670   7.002 -0.4869  3.4543  0.3773
 5233SOL     OW27331   3.600   3.481  11.761 -0.2907  0.0106 -1.2807
 5233SOL    HW127332   3.571   3.567  11.731  1.2745  1.2839  0.9074
 5233SOL    HW227333   3.534   3.461  11.828  1.2053  0.1777  0.2617
 5234SOL     OW27334   2.854   0.666  16.031  0.2755 -1.0285 -0.2978
 5234SOL    HW127335   2.885   0.715  16.107  1.9108 -2.2041 -0.2065
 5234SOL    HW227336   2.890   0.710  15.953  0.7830  1.4176  1.3093
 5235SOL     OW27337   0.017   1.378  15.212 -0.3295 -0.1449  0.0380
 5235SOL    HW127338   4.725   1.287  15.206  0.2811 -0.3735  0.5129
 5235SOL    HW227339   0.107   1.376  15.180  0.0801 -1.4617  1.2539
 5236SOL     OW27340   2.152   3.585   6.573 -0.5499 -0.1935  0.1579
 5236SOL    HW127341   2.236   3.546   6.596 -2.0589 -3.5113  0.1713
 5236SOL    HW227342   2.155   3.583   6.478 -2.8602  1.0848  0.0557
 5237SOL     OW27343   0.328   0.132   0.768  0.0056 -0.0407 -0.0561
 5237SOL    HW127344   0.279   0.110   0.848 -1.2584  1.7377 -0.3438
 5237SOL    HW227345   0.379   0.052   0.756  0.3856  0.1178  0.4755
 5238SOL     OW27346   1.996   1.367  12.887 -0.6638  0.4907  0.0189
 5238SOL    HW127347   2.011   1.381  12.981  1.6203  0.0453 -0.2947
 5238SOL    HW227348   1.901   1.355  12.885 -0.6413  0.7026 -1.7600
 5239SOL     OW27349   3.042   3.444  13.080  0.1010  0.1203  0.1765
 5239SOL    HW127350   3.018   3.458  13.172 -0.6620 -0.2293  0.0238
 5239SOL    HW227351   3.133   3.415  13.089 -0.4889 -1.3922  1.2075
 5240SOL     OW27352   0.283   0.098   8.441 -0.4607  0.3175 -0.1072
 5240SOL    HW127353   0.221   0.054   8.500  0.6615 -1.4169 -0.2185
 5240SOL    HW227354   0.281   0.039   8.366 -0.5698  0.1214  0.0472
 5241SOL     OW27355   0.495   3.980   3.793  0.0947  0.3004 -0.6092
 5241SOL    HW127356   0.425   3.915   3.782 -1.9010  2.0734  1.7247
 5241SOL    HW227357   0.439   4.052   3.820 -0.2139 -0.8002  1.6713
 5242SOL     OW27358   3.121   0.721  15.798 -0.0300  0.3351  0.4295
 5242SOL    HW127359   3.030   0.751  15.808 -0.1886 -0.3876  1.1200
 5242SOL    HW227360   3.117   0.650  15.862  0.2318 -0.1121 -0.0497
 5243SOL     OW27361   2.629   0.031  11.531 -0.3072  0.0781 -0.0606
 5243SOL    HW127362   2.653   4.734  11.444  2.4914 -0.5469  0.9620
 5243SOL    HW227363   2.677   0.114  11.526  0.7210 -0.3693  2.4937
 5244SOL     OW27364   2.840   3.070   6.563 -0.1144  0.6646 -0.4000
 5244SOL    HW127365   2.864   3.129   6.635 -0.0983 -2.4071  2.1121
 5244SOL    HW227366   2.890   2.993   6.590 -1.5584  0.0820  0.6318
 5245SOL     OW27367   4.296   3.995   4.792 -0.1289  0.3277 -0.1652
 5245SOL    HW127368   4.285   4.088   4.815 -0.2891  0.5971 -1.3567
 5245SOL    HW227369   4.216   3.954   4.825  0.3686 -0.0316  0.5981
 5246SOL     OW27370   4.639   0.998   1.015  0.1321  0.3272  0.4154
 5246SOL    HW127371   4.651   0.913   0.972  1.5867  1.9468 -2.3824
 5246SOL    HW227372   4.544   0.992   1.000  0.3553  0.5075 -1.0344
 5247SOL     OW27373   3.237   2.369   3.978 -0.1142 -0.1101  0.5116
 5247SOL    HW127374   3.255   2.395   4.069 -2.0078  1.1401  0.5469
 5247SOL    HW227375   3.144   2.391   3.976  0.4053  1.9894 -0.2631
 5248SOL     OW27376   3.783   1.193   9.350 -0.2342 -0.2903  0.0558
 5248SOL    HW127377   3.807   1.285   9.342 -2.0477 -0.0601 -2.6054
 5248SOL    HW227378   3.695   1.210   9.384 -0.2269 -2.6511  1.2702
 5249SOL     OW27379   1.811   1.844   7.546 -0.3361 -0.1291 -0.6707
 5249SOL    HW127380   1.900   1.813   7.562 -0.9793 -0.6979  1.7438
 5249SOL    HW227381   1.759   1.789   7.606  0.9356  1.0657  1.5273
 5250SOL     OW27382   0.117   1.373  17.361  0.5008 -0.3022 -0.2174
 5250SOL    HW127383   0.065   1.338  17.289 -1.4615  0.5682  0.7808
 5250SOL    HW227384   0.152   1.298  17.409 -1.1890 -0.5977  0.5528
 5251SOL     OW27385   0.341   2.118   5.834 -0.6388 -0.0649 -0.3229
 5251SOL    HW127386   0.432   2.111   5.805  1.0995  3.3687  4.2816
 5251SOL    HW227387   0.341   2.178   5.909 -1.9209 -0.6191  0.1104
 5252SOL     OW27388   2.318   0.116   8.085  0.2304  0.1633  0.3126
 5252SOL    HW127389   2.368   0.117   8.004 -0.4948  1.2621 -0.1302
 5252SOL    HW227390   2.237   0.070   8.062 -0.6943  1.0886  1.6718
 5253SOL     OW27391   1.065   2.825  10.852 -0.1834  0.4824  0.1782
 5253SOL    HW127392   1.001   2.869  10.797  1.7087  1.6554 -1.0905
 5253SOL    HW227393   1.124   2.900  10.859  0.0282  0.3088  0.2606
 5254SOL     OW27394   2.723   2.849   0.852 -0.4768  0.2827 -0.5146
 5254SOL    HW127395   2.721   2.906   0.929  0.9331  2.0257 -1.7562
 5254SOL    HW227396   2.696   2.919   0.792 -0.6064 -1.6205 -2.6931
 5255SOL     OW27397   0.936   1.369   4.952  0.2906  0.0478 -0.5960
 5255SOL    HW127398   0.984   1.301   4.999 -0.6036  0.0487  0.3178
 5255SOL    HW227399   0.903   1.417   5.028  2.2680 -0.1616  0.3964
 5256SOL     OW27400   0.712   3.104   3.806 -0.3439  0.0630 -0.2401
 5256SOL    HW127401   0.784   3.100   3.744 -0.3840  2.6759 -0.4610
 5256SOL    HW227402   0.754   3.120   3.890  0.6917  0.4371 -0.8343
 5257SOL     OW27403   2.095   4.510   5.788 -0.1075 -0.2892 -0.1059
 5257SOL    HW127404   2.040   4.497   5.865 -0.4075 -2.0565 -0.6245
 5257SOL    HW227405   2.119   4.603   5.790 -2.5484  0.3476 -0.8373
 5258SOL     OW27406   1.168   0.913  11.560 -0.1695 -0.0767 -0.0995
 5258SOL    HW127407   1.183   0.980  11.627 -1.6919  1.9018 -1.6913
 5258SOL    HW227408   1.180   0.836  11.614  0.0627 -2.1706 -3.1381
 5259SOL     OW27409   2.217   1.882  15.211 -0.2351 -0.1631 -0.3208
 5259SOL    HW127410   2.217   1.850  15.302 -0.5797  2.5914  0.6517
 5259SOL    HW227411   2.169   1.965  15.219 -1.4089 -0.8619 -0.1166
 5260SOL     OW27412   0.166   1.396   3.413  0.7303 -0.0583 -0.7610
 5260SOL    HW127413   0.236   1.453   3.381 -0.3989  1.3738 -0.7207
 5260SOL    HW227414   0.134   1.452   3.484  2.0017 -0.3366  0.0190
 5261SOL     OW27415   1.759   3.064   3.607 -0.4733  0.5027  0.2023
 5261SOL    HW127416   1.716   3.104   3.683 -0.1703 -0.2928  0.7927
 5261SOL    HW227417   1.742   3.131   3.541  0.3422 -0.8264 -1.3535
 5262SOL     OW27418   0.104   3.314   3.201 -0.2993  0.0955  0.0883
 5262SOL    HW127419   0.101   3.223   3.231  0.6214  0.3424  0.9190
 5262SOL    HW227420   0.076   3.301   3.111 -1.0548 -0.8234  0.4543
 5263SOL     OW27421   3.579   4.238   5.432  0.3504  0.0162 -0.0992
 5263SOL    HW127422   3.608   4.321   5.393 -1.5135  0.4114 -0.6491
 5263SOL    HW227423   3.663   4.203   5.461 -0.1210 -0.9153  0.1296
 5264SOL     OW27424   2.157   4.203  11.256 -0.0391 -0.0384 -0.2504
 5264SOL    HW127425   2.240   4.194  11.209  0.1998 -1.5056  0.4426
 5264SOL    HW227426   2.175   4.152  11.336  0.3891  0.5206  0.0098
 5265SOL     OW27427   2.275   2.586   7.566 -0.0860 -0.2267  0.1415
 5265SOL    HW127428   2.213   2.595   7.494 -1.0391  0.5475  1.0679
 5265SOL    HW227429   2.249   2.510   7.616 -0.5943 -0.9969 -1.2790
 5266SOL     OW27430   1.402   0.565   9.174  0.0026  0.1766 -0.7898
 5266SOL    HW127431   1.336   0.626   9.208 -1.1202 -0.6298 -1.5152
 5266SOL    HW227432   1.475   0.625   9.157  0.4792 -0.1369  0.1457
 5267SOL     OW27433   4.202   1.886   6.040  0.2689 -0.4929  0.2036
 5267SOL    HW127434   4.273   1.828   6.016  1.9869  0.5360  2.8337
 5267SOL    HW227435   4.150   1.842   6.107 -1.3631  1.6957  0.3855
 5268SOL     OW27436   1.162   3.391   9.251  0.0766  0.1804  0.2683
 5268SOL    HW127437   1.093   3.326   9.235 -0.7843  1.5427 -1.5297
 5268SOL    HW227438   1.119   3.477   9.261  0.9674  1.0170 -3.1831
 5269SOL     OW27439   1.219   3.452   8.709  0.2129  0.0035 -0.0685
 5269SOL    HW127440   1.144   3.494   8.752  0.6228 -0.3963  1.0601
 5269SOL    HW227441   1.223   3.371   8.762 -0.3049  0.8350  1.2417
 5270SOL     OW27442   0.433   3.273   8.754  0.3973  0.1921  0.0264
 5270SOL    HW127443   0.433   3.214   8.678  1.6532 -0.7342  0.7291
 5270SOL    HW227444   0.358   3.238   8.802  1.1607 -0.2162  0.9293
 5271SOL     OW27445   1.707   1.815   2.790  0.1289 -0.0073  0.0787
 5271SOL    HW127446   1.745   1.789   2.706  0.0143  0.2180 -0.0422
 5271SOL    HW227447   1.749   1.900   2.803  1.5287 -0.7949  0.6809
 5272SOL     OW27448   0.677   2.702   5.150  0.5179 -0.1970  0.5883
 5272SOL    HW127449   0.696   2.796   5.150 -1.7334  0.2198 -1.8794
 5272SOL    HW227450   0.704   2.677   5.062  0.0653  0.2178  0.3378
 5273SOL     OW27451   4.669   1.267   3.960 -0.4523 -0.6377  0.0292
 5273SOL    HW127452   4.718   1.213   3.898  0.2599  2.6364 -2.2739
 5273SOL    HW227453   4.693   1.219   4.039  1.6847  1.4451  0.6575
 5274SOL     OW27454   4.329   3.042   6.257 -0.0298  0.7532  0.0601
 5274SOL    HW127455   4.342   3.104   6.185 -0.2530  1.1308  0.3461
 5274SOL    HW227456   4.239   3.063   6.283 -0.8581 -1.6071 -0.8565
 5275SOL     OW27457   2.909   1.620   1.733 -0.1263 -0.2651  0.3800
 5275SOL    HW127458   2.878   1.701   1.692  1.5792 -0.5444 -1.4674
 5275SOL    HW227459   2.897   1.564   1.656  2.7419 -1.3343  0.7290
 5276SOL     OW27460   1.135   1.260  14.756 -0.5616  0.4322  0.0697
 5276SOL    HW127461   1.174   1.182  14.716  0.9738  0.5523  1.3521
 5276SOL    HW227462   1.107   1.222  14.839 -1.5875 -0.6201 -0.7454
 5277SOL     OW27463   4.459   0.269   8.945 -0.2178 -0.3583  0.5697
 5277SOL    HW127464   4.471   0.334   9.015 -1.0621 -0.1812  0.5456
 5277SOL    HW227465   4.418   0.316   8.872  1.8254  0.5857  0.0147
 5278SOL     OW27466   2.455   0.281  14.079  0.4187  0.2526 -0.1071
 5278SOL    HW127467   2.505   0.294  13.998  1.3396 -1.0875  0.2594
 5278SOL    HW227468   2.484   0.365  14.115  0.5271  0.4746 -0.7000
 5279SOL     OW27469   0.137   3.447  12.354 -0.0908  0.2515  0.2619
 5279SOL    HW127470   0.141   3.532  12.398 -2.0821  0.0728  0.7837
 5279SOL    HW227471   0.109   3.384  12.419  0.8890  1.4547  1.8442
 5280SOL     OW27472   3.173   1.327   7.486 -0.2557 -0.3240 -0.0997
 5280SOL    HW127473   3.260   1.287   7.479 -0.3386 -0.3375 -1.0995
 5280SOL    HW227474   3.124   1.252   7.451 -1.2177 -0.7809  2.2685
 5281SOL     OW27475   1.184   0.752  11.785  0.1839 -0.2149  0.6814
 5281SOL    HW127476   1.241   0.682  11.817 -0.3073 -0.1295  1.7413
 5281SOL    HW227477   1.163   0.788  11.871  0.3365  2.2285 -0.3004
 5282SOL     OW27478   3.513   0.818   3.965  0.3781  0.1235 -0.0290
 5282SOL    HW127479   3.516   0.783   4.054  3.0802  0.0845 -0.1542
 5282SOL    HW227480   3.441   0.766   3.928  1.1127 -0.1889 -1.0070
 5283SOL     OW27481   4.056   2.916   2.766  0.9045 -0.1707  0.2972
 5283SOL    HW127482   4.015   2.894   2.682  0.2302 -0.6518  0.7527
 5283SOL    HW227483   3.979   2.912   2.823  0.5014 -0.3408 -0.2637
 5284SOL     OW27484   0.045   2.070   3.231  0.7572 -0.1045  0.0356
 5284SOL    HW127485   0.104   2.108   3.166  1.6418 -0.8159  0.4081
 5284SOL    HW227486   4.736   1.999   3.187 -1.4174  1.6809 -0.5724
 5285SOL     OW27487   0.442   1.842   6.004  0.2167 -0.4974 -0.5841
 5285SOL    HW127488   0.404   1.879   5.924  2.0323 -1.0412 -1.7042
 5285SOL    HW227489   0.402   1.756   6.012 -0.9423  0.1843  0.8090
 5286SOL     OW27490   0.017   0.265   6.554 -0.4737  0.1281 -0.9803
 5286SOL    HW127491   4.673   0.239   6.598  0.0235  0.6858  0.2706
 5286SOL    HW227492   0.008   0.200   6.484 -1.6934  1.3150 -1.9316
 5287SOL     OW27493   3.723   2.306   1.207  0.5783  0.3308  0.5324
 5287SOL    HW127494   3.680   2.359   1.275 -0.2053 -2.4029  2.1724
 5287SOL    HW227495   3.691   2.354   1.131 -1.7630  0.0813  1.3441
 5288SOL     OW27496   3.736   1.952  12.235  0.2992  0.0439  0.5275
 5288SOL    HW127497   3.804   1.893  12.201 -0.5953  0.1093 -1.3629
 5288SOL    HW227498   3.672   1.884  12.257 -0.4097  0.2128 -1.0638
 5289SOL     OW27499   0.759   2.789   5.650 -0.1139 -0.3708 -0.4988
 5289SOL    HW127500   0.696   2.730   5.690  1.7936 -1.0522  1.5348
 5289SOL    HW227501   0.753   2.859   5.715  0.8342 -0.8996  0.1614
 5290SOL     OW27502   0.267   2.138   1.499 -0.1423 -0.0377  0.7615
 5290SOL    HW127503   0.246   2.081   1.425  3.1047  0.8900 -0.8267
 5290SOL    HW227504   0.192   2.135   1.560 -1.0387  2.7905 -0.2077
 5291SOL     OW27505   4.695   2.734   7.737 -0.1751  0.9210  0.2572
 5291SOL    HW127506   4.706   2.825   7.711  1.1501  0.5113 -0.5732
 5291SOL    HW227507   0.051   2.711   7.745  0.0601  1.1371 -1.8012
 5292SOL     OW27508   0.042   2.909   7.022  0.5152 -0.4506 -0.7811
 5292SOL    HW127509   0.009   2.919   7.112 -0.6478  1.2518 -1.3970
 5292SOL    HW227510   0.009   2.824   6.993 -0.8807 -0.8633  2.0409
 5293SOL     OW27511   0.883   0.730  10.679 -0.1380  0.0634 -0.3426
 5293SOL    HW127512   0.909   0.820  10.697 -1.2766  1.0084 -3.2845
 5293SOL    HW227513   0.965   0.681  10.676  0.9202  1.7666  1.3465
 5294SOL     OW27514   1.467   3.027   3.762  0.1825  0.0024  0.5528
 5294SOL    HW127515   1.400   3.006   3.826  2.2156 -1.6346  2.1532
 5294SOL    HW227516   1.449   3.121   3.755  1.9590  0.5219  3.1786
 5295SOL     OW27517   3.782   2.845   3.338  0.2094  0.5194  0.3477
 5295SOL    HW127518   3.782   2.938   3.362 -0.3569 -0.5382  4.4381
 5295SOL    HW227519   3.876   2.827   3.341  0.4569  2.0285  1.9119
 5296SOL     OW27520   2.174   0.239   7.060 -0.1450  0.0089 -0.6321
 5296SOL    HW127521   2.088   0.278   7.079  0.0507  0.6228 -0.9841
 5296SOL    HW227522   2.221   0.252   7.142  3.2263  0.3014 -2.6133
 5297SOL     OW27523   1.746   0.737   6.787  0.3568  0.1190 -0.4999
 5297SOL    HW127524   1.841   0.744   6.784  0.5581 -3.1070 -1.9366
 5297SOL    HW227525   1.727   0.810   6.846  0.0188  0.1830 -0.6874
 5298SOL     OW27526   1.239   0.756   9.261 -0.2265 -0.3372  0.0285
 5298SOL    HW127527   1.149   0.778   9.234 -0.2367 -0.2262  0.1504
 5298SOL    HW227528   1.239   0.783   9.353  0.1305  0.5510 -0.2341
 5299SOL     OW27529   4.605   1.854   6.070  0.1060 -0.7113  0.0470
 5299SOL    HW127530   4.521   1.836   6.028  0.2366 -0.7004 -0.2216
 5299SOL    HW227531   4.604   1.813   6.156 -0.4871  2.7434  1.7152
 5300SOL     OW27532   2.029   4.230   3.261 -0.0200 -0.2681 -0.0756
 5300SOL    HW127533   2.036   4.313   3.307 -1.8726  0.8316 -1.8030
 5300SOL    HW227534   2.047   4.259   3.172 -0.5614 -1.6391 -0.6334
 5301SOL     OW27535   0.294   4.300   5.668 -0.3025  0.2659 -0.0054
 5301SOL    HW127536   0.353   4.228   5.690 -0.1401  0.7487  1.1072
 5301SOL    HW227537   0.344   4.374   5.700  2.9298 -1.6179 -0.6985
 5302SOL     OW27538   1.110   4.660  17.149 -0.2856 -0.4826  0.1357
 5302SOL    HW127539   1.194   4.696  17.178 -0.2215  0.7003 -1.5457
 5302SOL    HW227540   1.107   4.579  17.201  0.5656 -1.1348 -0.8232
 5303SOL     OW27541   2.179   3.280   6.162 -0.8560  0.1663 -0.4454
 5303SOL    HW127542   2.256   3.272   6.105  0.1889 -1.4051  1.1484
 5303SOL    HW227543   2.213   3.227   6.235  0.6421  3.3376  1.1427
 5304SOL     OW27544   3.974   1.649   5.563 -0.4406 -0.1885 -0.8721
 5304SOL    HW127545   3.998   1.658   5.471  0.1650 -1.6590 -0.8646
 5304SOL    HW227546   3.930   1.733   5.574  1.6194  0.7923 -0.2274
 5305SOL     OW27547   2.614   0.164   2.233  0.5228  0.8454 -0.2388
 5305SOL    HW127548   2.628   0.197   2.321 -3.2500  0.1654  0.5892
 5305SOL    HW227549   2.535   0.213   2.213 -0.1654 -0.9688 -2.0301
 5306SOL     OW27550   2.224   3.885   2.818 -0.0925 -0.1351 -0.0253
 5306SOL    HW127551   2.131   3.905   2.804 -0.7604 -4.3236 -1.5338
 5306SOL    HW227552   2.221   3.801   2.773 -1.7700 -1.0215  1.6972
 5307SOL     OW27553   3.330   3.321   2.615 -0.4379  0.4189  0.5295
 5307SOL    HW127554   3.259   3.381   2.592  0.9870  0.7644 -3.0237
 5307SOL    HW227555   3.401   3.386   2.626  0.4072 -0.3775 -0.2313
 5308SOL     OW27556   0.575   0.402  14.801  0.1731  0.6167  0.2857
 5308SOL    HW127557   0.596   0.348  14.878 -0.1518  0.3240  0.1685
 5308SOL    HW227558   0.605   0.340  14.735 -1.0928 -0.1457  0.4171
 5309SOL     OW27559   2.962   1.221   2.155 -0.0345 -0.0024  0.1330
 5309SOL    HW127560   3.019   1.268   2.215  2.0535 -0.6162 -1.3856
 5309SOL    HW227561   2.979   1.128   2.171 -0.8005 -0.5855 -2.4096
 5310SOL     OW27562   2.386   0.966   2.223 -0.6098 -0.2961  0.0141
 5310SOL    HW127563   2.447   0.950   2.294 -1.7321 -0.6635  0.9021
 5310SOL    HW227564   2.435   0.923   2.153  0.0167 -2.5756  1.8400
 5311SOL     OW27565   1.719   0.047   5.967  0.1045 -0.8574 -0.3770
 5311SOL    HW127566   1.646   0.004   6.011 -0.7853  0.0503 -0.9589
 5311SOL    HW227567   1.784   0.064   6.035 -1.6732  2.4017  0.4992
 5312SOL     OW27568   1.380   0.813   3.757 -0.1232  0.2452  0.1648
 5312SOL    HW127569   1.450   0.777   3.813  0.5252  2.7416  0.9454
 5312SOL    HW227570   1.430   0.850   3.684 -0.5600 -0.2693 -0.3893
 5313SOL     OW27571   1.663   2.405  10.132 -0.1329 -0.2263  0.5237
 5313SOL    HW127572   1.642   2.491  10.095 -1.1895 -0.3043  0.9673
 5313SOL    HW227573   1.758   2.416  10.140 -0.2844 -0.0692  2.1327
 5314SOL     OW27574   0.797   4.052   5.811 -0.0142  0.2131  0.0199
 5314SOL    HW127575   0.760   4.128   5.767  1.3657  0.1730 -1.1921
 5314SOL    HW227576   0.824   3.996   5.739  1.9678  1.3395 -0.1068
 5315SOL     OW27577   1.685   3.883   1.433 -0.6967  0.5851  0.0934
 5315SOL    HW127578   1.670   3.807   1.490 -0.4985  1.0262  0.7427
 5315SOL    HW227579   1.759   3.842   1.387 -0.4467  2.2230 -0.9575
 5316SOL     OW27580   2.029   2.503  13.193 -0.1536 -0.0792  0.2411
 5316SOL    HW127581   2.002   2.412  13.206 -2.2720  0.4400 -0.4716
 5316SOL    HW227582   2.122   2.493  13.213 -0.1239 -1.3726 -0.6118
 5317SOL     OW27583   2.063   3.015   2.525 -0.3733  0.7915 -0.0484
 5317SOL    HW127584   2.012   2.935   2.510 -1.7036  1.5200  0.5332
 5317SOL    HW227585   1.999   3.074   2.567  1.5558  1.7658  1.5167
 5318SOL     OW27586   0.344   2.027   9.398  0.2260 -0.3539  0.1698
 5318SOL    HW127587   0.360   2.059   9.487  2.0299  2.4488 -1.1642
 5318SOL    HW227588   0.350   1.934   9.419 -0.7520 -0.4407  0.0546
 5319SOL     OW27589   2.289   2.620  10.284 -0.2648 -0.0702 -0.3624
 5319SOL    HW127590   2.247   2.686  10.228  1.0117  1.7110  0.7714
 5319SOL    HW227591   2.254   2.651  10.368  1.5216  0.4012  0.2095
 5320SOL     OW27592   3.173   1.060   3.824 -0.0488  0.3095  0.3793
 5320SOL    HW127593   3.198   1.081   3.914  1.6775  0.8061 -0.2096
 5320SOL    HW227594   3.189   1.142   3.777  1.8588 -1.0344 -1.3046
 5321SOL     OW27595   3.347   2.610   6.915 -0.0316  0.1982  0.0619
 5321SOL    HW127596   3.288   2.684   6.901 -1.0381 -0.6117  0.0241
 5321SOL    HW227597   3.416   2.638   6.855  1.4987 -1.9512  0.8225
 5322SOL     OW27598   1.193   1.978   4.317 -0.1624  0.6152  0.0651
 5322SOL    HW127599   1.171   1.887   4.296  0.5175  0.9647 -2.2188
 5322SOL    HW227600   1.283   1.965   4.349 -0.7334 -2.4868  0.4470
 5323SOL     OW27601   3.291   4.282   8.064 -0.0063 -0.1237 -0.4566
 5323SOL    HW127602   3.324   4.349   8.003  0.5136 -0.7075 -0.8115
 5323SOL    HW227603   3.318   4.320   8.147 -0.9184  2.4573 -1.3443
 5324SOL     OW27604   0.759   3.879   6.022 -0.1979 -0.1610 -0.0919
 5324SOL    HW127605   0.771   3.933   5.944  2.2394 -1.3960 -0.5772
 5324SOL    HW227606   0.696   3.931   6.070  0.8313  0.9874  0.0067
 5325SOL     OW27607   3.633   2.185   8.688  0.6313 -0.5784  0.1090
 5325SOL    HW127608   3.602   2.186   8.779 -0.7372 -1.5517 -0.3417
 5325SOL    HW227609   3.551   2.196   8.640  2.1015 -1.4007 -2.5834
 5326SOL     OW27610   1.046   2.569   3.202 -0.0827 -0.3494  0.1020
 5326SOL    HW127611   0.959   2.548   3.169  0.0221 -1.7113  0.6872
 5326SOL    HW227612   1.101   2.535   3.132  1.2216  0.4887  0.7131
 5327SOL     OW27613   3.924   4.466   4.870  0.2825 -0.7144  0.2811
 5327SOL    HW127614   3.854   4.463   4.935 -1.6608 -1.5141 -1.8378
 5327SOL    HW227615   4.003   4.483   4.922 -0.7064  2.6723  0.6714
 5328SOL     OW27616   2.597   1.482   4.526  0.2053 -0.0952  0.1438
 5328SOL    HW127617   2.637   1.548   4.582 -0.1272  0.0519  0.2067
 5328SOL    HW227618   2.658   1.409   4.536 -0.6943 -0.9871 -0.8336
 5329SOL     OW27619   0.943   1.604   1.463 -0.3430  0.2485  0.1164
 5329SOL    HW127620   0.880   1.673   1.483  2.5242  2.1966  2.5141
 5329SOL    HW227621   0.955   1.624   1.370  0.2739  1.7925  0.5301
 5330SOL     OW27622   4.132   2.337   5.186 -0.2550 -0.1853  0.7758
 5330SOL    HW127623   4.132   2.410   5.124  0.5692 -0.1036  0.8637
 5330SOL    HW227624   4.203   2.361   5.246  1.3672 -0.7754 -0.9001
 5331SOL     OW27625   4.426   0.249   6.353  0.3219 -0.0229 -0.3005
 5331SOL    HW127626   4.439   0.244   6.259 -0.7191  0.1378 -0.4568
 5331SOL    HW227627   4.440   0.156   6.369 -0.0775 -0.2587 -1.3561
 5332SOL     OW27628   4.282   2.833   1.700  0.2363 -0.1227  0.2655
 5332SOL    HW127629   4.251   2.915   1.660 -3.4772 -2.3451 -1.3761
 5332SOL    HW227630   4.321   2.801   1.619 -0.8920  0.7703 -0.6355
 5333SOL     OW27631   4.426   4.335   7.472  0.0041 -0.0453  0.3395
 5333SOL    HW127632   4.415   4.377   7.386  1.5459  0.1363  0.2302
 5333SOL    HW227633   4.518   4.311   7.478  0.5124  1.6635 -0.4893
 5334SOL     OW27634   2.549   1.386   2.954  0.5187 -0.1786 -0.4085
 5334SOL    HW127635   2.481   1.323   2.928 -0.1765  1.6025 -2.9585
 5334SOL    HW227636   2.503   1.470   2.952 -0.0818 -0.4246  3.1881
 5335SOL     OW27637   0.119   2.231   5.248  0.4668 -0.2316  0.0960
 5335SOL    HW127638   0.085   2.143   5.261 -0.5547  0.4158  1.8234
 5335SOL    HW227639   0.151   2.214   5.159  0.7626 -1.0107  0.3532
 5336SOL     OW27640   3.210   1.735  14.041  0.4646 -0.0869 -0.2259
 5336SOL    HW127641   3.291   1.787  14.040  1.2164 -1.2570  0.3974
 5336SOL    HW227642   3.195   1.713  14.133 -2.1152 -1.2166 -0.9447
 5337SOL     OW27643   0.277   4.218   2.117 -0.0508  0.0788  0.2726
 5337SOL    HW127644   0.334   4.184   2.048  2.4006  1.9239  1.4050
 5337SOL    HW227645   0.334   4.292   2.140 -2.2395  1.6343  0.7338
 5338SOL     OW27646   1.032   0.896   3.384  0.5578 -0.2902 -0.3788
 5338SOL    HW127647   1.032   0.908   3.479 -1.3079 -1.5614 -0.2131
 5338SOL    HW227648   0.938   0.907   3.366  0.4548  2.5722  1.9259
 5339SOL     OW27649   4.420   2.973   2.182 -0.1039 -0.0437  0.0507
 5339SOL    HW127650   4.328   2.948   2.191 -0.0860 -1.1455 -2.7717
 5339SOL    HW227651   4.423   3.009   2.093  2.2208 -3.0283 -1.0710
 5340SOL     OW27652   2.592   3.186  17.509  0.7976  0.1078 -0.0967
 5340SOL    HW127653   2.517   3.235  17.541  0.9975  0.5059 -0.2394
 5340SOL    HW227654   2.613   3.138  17.589 -0.2180 -0.7692 -0.3596
 5341SOL     OW27655   3.978   0.024   3.054  0.0698 -0.7125 -0.3121
 5341SOL    HW127656   3.911   0.039   3.121  0.4948 -0.3643  0.0373
 5341SOL    HW227657   4.022   4.684   3.091  1.2410  0.6008  0.9867
 5342SOL     OW27658   4.069   1.873   6.934  0.6396  0.1010 -0.2108
 5342SOL    HW127659   3.992   1.922   6.961  1.3698  1.4732 -0.6402
 5342SOL    HW227660   4.125   1.950   6.928  1.4946 -0.5792 -1.1269
 5343SOL     OW27661   4.366   2.307   5.415  0.0220 -0.5713  0.4936
 5343SOL    HW127662   4.427   2.295   5.488  1.2000 -0.3311 -0.4500
 5343SOL    HW227663   4.413   2.286   5.334  1.3787  0.8407  0.9136
 5344SOL     OW27664   3.741   0.349   5.196 -0.2040 -0.5257 -0.2093
 5344SOL    HW127665   3.827   0.365   5.158  0.5661 -1.9287  0.9525
 5344SOL    HW227666   3.688   0.356   5.117  0.1192  2.7101 -0.1766
 5345SOL     OW27667   1.581   1.930   9.638  0.8794  0.1478 -0.3391
 5345SOL    HW127668   1.520   1.995   9.602  0.0152  0.0384  0.9427
 5345SOL    HW227669   1.668   1.969   9.625 -0.1433  2.0188 -1.6010
 5346SOL     OW27670   3.864   4.586   7.001 -0.4111  0.4448 -0.4163
 5346SOL    HW127671   3.948   4.546   7.021 -0.1904  0.6383 -0.9387
 5346SOL    HW227672   3.804   4.511   7.000  1.1675 -0.8204 -0.3377
 5347SOL     OW27673   3.516   3.217   2.383  0.0378  0.2510 -0.1923
 5347SOL    HW127674   3.437   3.192   2.336  1.0484 -1.3123 -1.0486
 5347SOL    HW227675   3.486   3.221   2.474  0.3273 -1.3198 -0.0250
 5348SOL     OW27676   1.585   0.682  11.310 -0.0700 -0.0325 -0.0383
 5348SOL    HW127677   1.588   0.599  11.262  1.4062 -0.6161  1.0480
 5348SOL    HW227678   1.503   0.728  11.293 -0.1027 -0.3014 -0.5982
 5349SOL     OW27679   0.247   3.426   2.274 -0.1716  0.1008  0.1150
 5349SOL    HW127680   0.263   3.386   2.359 -0.5018 -1.5965 -0.5973
 5349SOL    HW227681   0.223   3.516   2.296 -1.0426 -1.3551  5.0801
 5350SOL     OW27682   2.733   4.311   7.352 -0.2289  0.3642 -0.4512
 5350SOL    HW127683   2.707   4.385   7.407 -0.0248  0.2820 -0.2425
 5350SOL    HW227684   2.816   4.286   7.393  0.2432  1.7016 -0.5848
 5351SOL     OW27685   2.867   4.276   6.048  0.1204  0.4111  0.4352
 5351SOL    HW127686   2.825   4.224   5.980 -2.0710  1.6465  0.8648
 5351SOL    HW227687   2.857   4.226   6.129  1.7243 -0.5957  0.0200
 5352SOL     OW27688   2.763   1.908   4.952  0.6300  0.5969  0.0474
 5352SOL    HW127689   2.728   1.996   4.968 -0.9159  0.1165 -0.7035
 5352SOL    HW227690   2.771   1.912   4.857 -1.7935 -1.5015 -0.2629
 5353SOL     OW27691   1.705   1.620  15.043 -0.0987  0.1665  0.2086
 5353SOL    HW127692   1.627   1.609  15.098 -0.2979 -2.3598 -0.5652
 5353SOL    HW227693   1.662   1.655  14.965 -0.7470  2.1438  1.4485
 5354SOL     OW27694   1.179   3.741   2.484  0.3595 -0.2229 -0.6765
 5354SOL    HW127695   1.111   3.683   2.450 -0.3244 -0.0481  0.3887
 5354SOL    HW227696   1.197   3.789   2.403  1.7627 -0.3050 -0.4065
 5355SOL     OW27697   1.858   2.740  10.458 -0.9024  0.2322 -0.7414
 5355SOL    HW127698   1.832   2.686  10.533 -1.5314  2.0445  0.3536
 5355SOL    HW227699   1.897   2.817  10.498 -1.7701  1.3618 -2.1010
 5356SOL     OW27700   3.788   3.867  17.535 -0.1446 -0.5851  0.4316
 5356SOL    HW127701   3.815   3.850  17.625 -0.8574 -0.0794  0.7365
 5356SOL    HW227702   3.799   3.780  17.496  0.4787  0.3112 -1.4139
 5357SOL     OW27703   4.218   4.638   3.414  0.0741 -0.0711  0.1461
 5357SOL    HW127704   4.270   4.703   3.461  0.1924 -0.0592 -0.0011
 5357SOL    HW227705   4.135   4.658   3.458  0.2397 -0.4533  0.6300
 5358SOL     OW27706   4.687   4.505  12.518 -0.3803 -0.3721  0.2878
 5358SOL    HW127707   0.001   4.426  12.535 -0.7788 -0.7950 -0.4682
 5358SOL    HW227708   4.649   4.486  12.432 -0.8503 -0.3999  0.5015
 5359SOL     OW27709   1.839   0.619   4.469 -0.6175 -0.2134  0.0911
 5359SOL    HW127710   1.916   0.674   4.481  0.6417 -1.3528 -2.8094
 5359SOL    HW227711   1.862   0.538   4.514  3.7176  0.7689 -0.4261
 5360SOL     OW27712   2.501   3.868   2.584 -0.3425 -0.3638 -0.6012
 5360SOL    HW127713   2.416   3.861   2.542 -0.8130 -0.9050  0.4255
 5360SOL    HW227714   2.538   3.924   2.517 -0.3034  1.9269  1.3475
 5361SOL     OW27715   0.689   3.158   9.055 -0.0097  0.5715 -0.0971
 5361SOL    HW127716   0.735   3.077   9.074 -0.2841  0.2489 -0.8044
 5361SOL    HW227717   0.613   3.106   9.029  0.3820 -1.1218  2.0985
 5362SOL     OW27718   1.614   1.003  17.092  0.4769 -0.1856 -0.6191
 5362SOL    HW127719   1.652   1.036  17.173  0.0252  0.1482 -0.5444
 5362SOL    HW227720   1.547   0.944  17.126  0.4300  0.0981 -0.2265
 5363SOL     OW27721   4.176   0.848   6.729  0.3206  0.1263  0.3080
 5363SOL    HW127722   4.116   0.839   6.803  0.1346  1.4054  0.3265
 5363SOL    HW227723   4.119   0.829   6.654  0.2855  0.6599  0.1993
 5364SOL     OW27724   1.608   1.272   6.182  0.2162  0.2273 -0.4281
 5364SOL    HW127725   1.546   1.328   6.135 -3.0167 -2.0135  1.1904
 5364SOL    HW227726   1.662   1.238   6.111  0.6096 -1.8771  0.8837
 5365SOL     OW27727   0.941   2.504  13.093 -0.0049 -0.1094 -0.3585
 5365SOL    HW127728   0.977   2.566  13.030  1.1603 -0.3752  0.0525
 5365SOL    HW227729   0.912   2.443  13.026 -0.3608  0.3993 -0.6721
 5366SOL     OW27730   1.483   0.765   6.634 -0.4309 -0.0676  0.0658
 5366SOL    HW127731   1.571   0.732   6.620 -0.2713  0.6870 -0.7043
 5366SOL    HW227732   1.491   0.861   6.634  0.8008 -0.1849 -1.0850
 5367SOL     OW27733   3.478   4.137   2.376  0.1553 -0.2203  0.9645
 5367SOL    HW127734   3.422   4.172   2.307  1.4805 -0.2267 -0.1119
 5367SOL    HW227735   3.506   4.224   2.403  0.0063 -0.1774  0.9776
 5368SOL     OW27736   0.235   1.216  17.529 -0.1746 -0.1103 -0.1003
 5368SOL    HW127737   0.255   1.123  17.529  0.8474  0.1015  1.5158
 5368SOL    HW227738   0.242   1.237  17.623  2.1715  0.3672 -0.3814
 5369SOL     OW27739   2.926   0.726   0.266 -0.1899 -0.1574  0.4808
 5369SOL    HW127740   2.944   0.682   0.183  0.7175  1.4616 -0.1822
 5369SOL    HW227741   2.892   0.646   0.306 -1.6246 -0.4969 -1.4419
 5370SOL     OW27742   2.401   4.545  12.155 -0.2498  0.1606 -0.1563
 5370SOL    HW127743   2.342   4.487  12.107  0.0694 -1.2173  1.0905
 5370SOL    HW227744   2.336   4.583  12.215  2.4509  2.0502  1.5870
 5371SOL     OW27745   0.433   1.611   3.726 -0.6672  0.6538 -0.9465
 5371SOL    HW127746   0.406   1.702   3.742 -0.5625 -0.0077  2.7623
 5371SOL    HW227747   0.461   1.568   3.806  1.4096  1.6948 -1.0895
 5372SOL     OW27748   0.159   0.365   4.316 -0.2246 -0.3655 -0.0808
 5372SOL    HW127749   0.133   0.314   4.239  0.3786 -0.8969  0.0708
 5372SOL    HW227750   0.068   0.387   4.338 -0.4971 -2.3933  0.7970
 5373SOL     OW27751   2.029   2.744  13.681 -0.2043 -0.2837  0.0525
 5373SOL    HW127752   1.998   2.659  13.650 -1.6901  0.4017 -0.3491
 5373SOL    HW227753   1.993   2.745  13.769 -2.2196 -1.4148 -0.7552
 5374SOL     OW27754   1.616   0.677  10.996  0.1424 -0.4650 -0.3033
 5374SOL    HW127755   1.696   0.633  11.025  1.2947  2.5614  1.2326
 5374SOL    HW227756   1.619   0.754  11.054  2.2470 -1.1572  0.5136
 5375SOL     OW27757   3.475   0.398  11.749 -0.1567  0.5028  0.0476
 5375SOL    HW127758   3.545   0.391  11.684 -0.0415  0.9360  0.1230
 5375SOL    HW227759   3.510   0.446  11.824 -1.9029  1.5012  0.2289
 5376SOL     OW27760   0.839   0.341   8.219 -0.2761  0.3753 -0.5008
 5376SOL    HW127761   0.844   0.425   8.264  3.1487  0.8536 -1.7656
 5376SOL    HW227762   0.775   0.292   8.271 -1.0858 -0.0095 -1.8531
 5377SOL     OW27763   4.634   1.615   6.270 -0.5937  0.0215  0.7003
 5377SOL    HW127764   4.710   1.568   6.303 -0.9341 -0.2940  1.0324
 5377SOL    HW227765   4.621   1.566   6.189  0.5276 -0.3764  0.7556
 5378SOL     OW27766   4.611   4.555   6.841 -0.1992 -0.3432  0.2594
 5378SOL    HW127767   4.642   4.602   6.763  0.3466 -0.9414  0.1087
 5378SOL    HW227768   4.519   4.579   6.847  0.1044  0.8771  0.0267
 5379SOL     OW27769   4.196   4.341   6.354  0.1056 -0.1156  0.4471
 5379SOL    HW127770   4.144   4.367   6.278  0.2630 -1.2987 -0.0506
 5379SOL    HW227771   4.250   4.267   6.325 -1.0620 -1.5268  1.8892
 5380SOL     OW27772   0.633   1.300  13.032  0.7899  0.4329 -0.0872
 5380SOL    HW127773   0.646   1.334  13.120 -0.7179 -1.6616  0.9543
 5380SOL    HW227774   0.725   1.287  13.008  1.0369 -0.5986  1.4202
 5381SOL     OW27775   0.957   2.855   6.166  0.1372  0.5142 -0.2988
 5381SOL    HW127776   1.034   2.846   6.110  0.3167 -0.2605  0.0780
 5381SOL    HW227777   1.001   2.898   6.239  2.2480  1.7425 -2.2881
 5382SOL     OW27778   3.784   3.120   9.599  0.4259 -0.6517  0.0576
 5382SOL    HW127779   3.711   3.060   9.612 -0.5875 -0.2375 -3.7544
 5382SOL    HW227780   3.856   3.075   9.643 -0.7998 -1.8328  0.8385
 5383SOL     OW27781   4.081   0.130   8.043  0.2947 -0.3875 -0.3726
 5383SOL    HW127782   4.136   0.099   8.115 -1.3996  1.6603  1.7956
 5383SOL    HW227783   4.103   0.068   7.974 -2.1960 -1.9041  0.1863
 5384SOL     OW27784   3.430   3.161   5.770 -0.4822  0.3488  0.6545
 5384SOL    HW127785   3.446   3.147   5.676  1.1171  0.1016  0.9561
 5384SOL    HW227786   3.518   3.176   5.804 -0.6154 -1.1867  1.6386
 5385SOL     OW27787   1.301   0.574  17.700 -0.7340 -0.0479 -0.1055
 5385SOL    HW127788   1.262   0.575  17.613 -1.5584 -2.5811  0.2205
 5385SOL    HW227789   1.297   0.667  17.722 -2.5295 -0.6952  2.3511
 5386SOL     OW27790   3.618   3.208  11.475 -0.3204  0.1736 -0.5223
 5386SOL    HW127791   3.599   3.214  11.569 -2.8778  2.4862 -1.1849
 5386SOL    HW227792   3.706   3.245  11.468 -0.5105 -0.0993 -4.4832
 5387SOL     OW27793   4.052   3.728  17.111 -0.5125  0.3249  0.0479
 5387SOL    HW127794   4.128   3.695  17.062 -0.0902 -1.6034  1.9914
 5387SOL    HW227795   4.035   3.802  17.053  1.4027 -0.6380 -1.7602
 5388SOL     OW27796   1.288   3.554   1.218  0.5329  0.0066 -0.0715
 5388SOL    HW127797   1.243   3.618   1.163 -2.6706 -3.4638 -1.5114
 5388SOL    HW227798   1.214   3.507   1.257  0.1562  0.6453 -0.0164
 5389SOL     OW27799   2.291   4.206   8.820 -0.0058  0.1874  0.3625
 5389SOL    HW127800   2.380   4.173   8.828 -0.8293 -2.1980 -0.3587
 5389SOL    HW227801   2.300   4.273   8.752  3.0837 -0.2961  0.3137
 5390SOL     OW27802   0.780   0.849  14.165 -0.0521 -0.1137 -0.5552
 5390SOL    HW127803   0.750   0.778  14.108  0.4229 -0.1906 -0.7040
 5390SOL    HW227804   0.696   0.881  14.199 -0.4606 -1.2084 -0.5280
 5391SOL     OW27805   1.675   4.727   8.327 -0.7406  0.8781 -0.6927
 5391SOL    HW127806   1.594   0.017   8.282 -0.8884  1.2977 -0.1901
 5391SOL    HW227807   1.636   4.651   8.369 -1.1926  1.7515  0.4682
 5392SOL     OW27808   2.188   4.187  13.064 -0.0973 -0.0017 -0.3152
 5392SOL    HW127809   2.117   4.200  13.126  1.6656  1.1782  1.4320
 5392SOL    HW227810   2.196   4.274  13.024  0.8571  0.3519  0.6562
 5393SOL     OW27811   1.506   3.988  15.493 -0.0784  0.4047  0.2958
 5393SOL    HW127812   1.492   4.032  15.577  0.3415  1.2325 -0.0708
 5393SOL    HW227813   1.483   3.904  15.534 -1.2938  0.0585 -1.0765
 5394SOL     OW27814   3.087   1.158   4.262 -0.2200 -0.2873 -0.1544
 5394SOL    HW127815   3.163   1.101   4.255 -0.2925 -0.3920 -0.0942
 5394SOL    HW227816   3.130   1.233   4.301  1.0330 -0.3132 -1.4964
 5395SOL     OW27817   0.923   3.199   8.332  1.0994 -0.0365  0.0511
 5395SOL    HW127818   0.905   3.274   8.275  0.3180 -1.7142 -1.8877
 5395SOL    HW227819   0.881   3.141   8.269  1.1595 -0.1653  0.1311
 5396SOL     OW27820   3.916   2.092   4.852  0.2160 -0.0782 -0.5664
 5396SOL    HW127821   3.838   2.051   4.814 -0.6037 -0.6533  1.7624
 5396SOL    HW227822   3.978   2.101   4.780  1.3706  0.1854  0.4729
 5397SOL     OW27823   2.338   1.478  16.884  0.6565  0.1339 -0.2049
 5397SOL    HW127824   2.428   1.509  16.891  0.3844  0.2599  2.7780
 5397SOL    HW227825   2.287   1.559  16.879 -0.9963 -0.7847  1.4910
 5398SOL     OW27826   1.431   4.719   8.207 -0.0283 -0.3258 -0.3389
 5398SOL    HW127827   1.424   0.030   8.124 -1.3621  0.3626  0.1488
 5398SOL    HW227828   1.340   4.729   8.236  0.5180  3.1937  0.2077
 5399SOL     OW27829   3.436   4.089   3.517  0.2897 -0.2266  0.0842
 5399SOL    HW127830   3.389   4.019   3.471  0.4084  1.0454 -1.9657
 5399SOL    HW227831   3.401   4.081   3.606  1.4108 -1.0783  0.4427
 5400SOL     OW27832   2.369   4.038  10.778  0.0656  0.5407 -0.1504
 5400SOL    HW127833   2.305   3.967  10.785 -0.7716  1.3644  0.5471
 5400SOL    HW227834   2.451   3.990  10.769  0.2196  0.6024  0.9313
 5401SOL     OW27835   0.984   0.027  10.511 -0.0711  0.4494 -0.3181
 5401SOL    HW127836   0.959   0.051  10.600 -0.9634  1.1962 -0.7719
 5401SOL    HW227837   1.077   0.004  10.520 -0.8026 -1.9998  1.1428
 5402SOL     OW27838   3.826   2.153   7.574 -0.6202  0.0961 -0.1636
 5402SOL    HW127839   3.871   2.214   7.515  0.7340 -2.0046 -1.2786
 5402SOL    HW227840   3.737   2.155   7.539 -0.5943 -0.4912 -0.2582
 5403SOL     OW27841   0.918   3.028   5.341 -0.2604  0.1850 -0.1493
 5403SOL    HW127842   0.959   3.044   5.427 -0.1657  0.7957 -0.3095
 5403SOL    HW227843   0.970   2.950   5.325 -2.0205 -0.5485 -2.2503
 5404SOL     OW27844   3.928   3.905   0.954  0.0305  0.3976 -0.4415
 5404SOL    HW127845   3.915   3.828   0.898 -0.1180  0.5998 -0.6877
 5404SOL    HW227846   3.850   3.889   1.006 -0.2744 -0.9961 -1.3196
 5405SOL     OW27847   3.034   0.338   5.337 -0.0802 -0.5429 -0.4038
 5405SOL    HW127848   3.025   0.391   5.417 -1.3105 -0.7085 -0.4419
 5405SOL    HW227849   2.954   0.286   5.329 -2.0827  2.4666  0.0614
 5406SOL     OW27850   2.605   2.879   5.674 -0.2518  0.0758  0.5011
 5406SOL    HW127851   2.636   2.867   5.584 -1.0703  2.5759 -0.1266
 5406SOL    HW227852   2.587   2.973   5.668 -0.9434 -0.0408  0.7271
 5407SOL     OW27853   2.370   2.098  15.404  0.6088 -0.4925 -0.2107
 5407SOL    HW127854   2.372   2.004  15.424 -0.2440 -0.6495 -0.8860
 5407SOL    HW227855   2.462   2.118  15.421  0.7798 -0.6008 -0.9796
 5408SOL     OW27856   2.922   3.955   8.525 -0.0936  0.2541 -0.4401
 5408SOL    HW127857   2.927   3.997   8.611  1.2387  0.0347 -0.4116
 5408SOL    HW227858   2.853   4.012   8.490  0.2195 -0.5364 -2.3088
 5409SOL     OW27859   4.390   4.375  10.943 -0.3281 -0.0678 -0.3358
 5409SOL    HW127860   4.372   4.327  10.862 -1.1922  0.3687 -0.4050
 5409SOL    HW227861   4.316   4.435  10.942  0.3316  0.7796  1.7176
 5410SOL     OW27862   3.831   4.150  12.295  0.3617  0.3009  0.5458
 5410SOL    HW127863   3.853   4.058  12.284 -4.1015 -0.8129  1.1343
 5410SOL    HW227864   3.806   4.172  12.206  0.8742 -0.5088  0.1993
 5411SOL     OW27865   3.982   2.042   9.639  0.1017 -0.2056  0.1552
 5411SOL    HW127866   4.018   2.099   9.571  0.1642  0.4715  0.7618
 5411SOL    HW227867   4.054   2.013   9.695  0.3524  1.2506  0.5651
 5412SOL     OW27868   0.238   4.106   1.152  0.6294 -0.1378 -0.1599
 5412SOL    HW127869   0.153   4.086   1.192  0.7592 -0.8785 -0.2483
 5412SOL    HW227870   0.231   4.201   1.155  2.3710 -0.0046 -0.0118
 5413SOL     OW27871   1.487   0.846  10.204 -0.1261 -0.0719 -0.2216
 5413SOL    HW127872   1.396   0.876  10.200 -0.1226  0.2149  1.6712
 5413SOL    HW227873   1.531   0.920  10.246  1.5495 -0.8630 -0.5723
 5414SOL     OW27874   1.726   0.048  12.245  0.0927 -0.1286  0.6364
 5414SOL    HW127875   1.786   4.717  12.275  2.0296  2.3472  2.3777
 5414SOL    HW227876   1.685   0.018  12.164  1.9896  0.6391 -0.6261
 5415SOL     OW27877   4.128   0.380   6.119 -0.0624  0.6505 -0.0377
 5415SOL    HW127878   4.090   0.301   6.157  0.5015  0.1364 -0.5505
 5415SOL    HW227879   4.217   0.347   6.104  0.5431  1.9518  0.6886
 5416SOL     OW27880   1.880   4.221   2.670 -0.2628 -0.4284  0.3870
 5416SOL    HW127881   1.786   4.231   2.659 -0.1652  0.0059 -0.0330
 5416SOL    HW227882   1.901   4.310   2.697 -0.7361 -0.6361  1.4103
 5417SOL     OW27883   2.960   2.139  15.093 -0.0886  0.0753 -0.1967
 5417SOL    HW127884   2.924   2.117  15.179 -2.2095  0.4609 -0.9736
 5417SOL    HW227885   2.894   2.204  15.066 -1.1199  0.2235  2.6801
 5418SOL     OW27886   3.009   2.786   3.374  0.0421  0.3584 -0.2517
 5418SOL    HW127887   2.971   2.720   3.315  1.4916 -2.9520  2.5217
 5418SOL    HW227888   3.067   2.726   3.420 -0.9536  0.0522  0.5804
 5419SOL     OW27889   3.146   4.333   4.859  0.8430 -0.0121 -0.0824
 5419SOL    HW127890   3.216   4.335   4.925  0.5981  2.4202  0.0959
 5419SOL    HW227891   3.140   4.426   4.840 -5.1838 -0.4458 -0.1562
 5420SOL     OW27892   3.851   1.848   1.970  0.9015  0.0484  0.0434
 5420SOL    HW127893   3.888   1.920   1.919  0.6105  2.2145  2.9389
 5420SOL    HW227894   3.868   1.890   2.054  0.8075  0.5853 -0.2068
 5421SOL     OW27895   0.504   1.908   5.006 -0.0064 -0.2008 -0.4416
 5421SOL    HW127896   0.584   1.862   4.981  0.0205  1.2839 -3.0485
 5421SOL    HW227897   0.431   1.848   4.996 -0.5696  0.5577 -0.8335
 5422SOL     OW27898   2.464   1.239   4.608  0.8481  0.4034 -0.0446
 5422SOL    HW127899   2.453   1.330   4.582  2.3913  0.2743 -1.1488
 5422SOL    HW227900   2.389   1.205   4.559  0.8253 -0.3141  0.4779
 5423SOL     OW27901   1.062   1.384   6.569 -0.0378  0.4920  0.0573
 5423SOL    HW127902   1.157   1.391   6.569 -0.0215  0.3073 -0.2291
 5423SOL    HW227903   1.031   1.460   6.519 -0.8970 -0.1344 -0.3650
 5424SOL     OW27904   1.230   1.799   1.833 -0.0500 -0.2454  0.0848
 5424SOL    HW127905   1.170   1.737   1.792 -0.0449 -2.2649  3.1055
 5424SOL    HW227906   1.314   1.753   1.825  0.5990  0.6289  1.7891
 5425SOL     OW27907   3.483   0.662  12.845 -0.0981 -0.0246  0.1684
 5425SOL    HW127908   3.409   0.652  12.785  0.5670  0.8074 -0.7752
 5425SOL    HW227909   3.472   0.750  12.881 -1.4650  0.0539 -0.4714
 5426SOL     OW27910   0.554   0.622   6.235  0.1624 -0.2162 -0.5308
 5426SOL    HW127911   0.496   0.548   6.217 -0.0290 -0.1910  0.0083
 5426SOL    HW227912   0.603   0.603   6.315  0.3924  0.3572 -0.5322
 5427SOL     OW27913   3.431   3.125  15.113 -0.2081  0.0182 -0.5055
 5427SOL    HW127914   3.338   3.100  15.109 -0.6420  1.7527 -1.3620
 5427SOL    HW227915   3.456   3.116  15.205  0.6376  1.8483 -0.5612
 5428SOL     OW27916   4.493   1.388   5.355 -0.2599  0.5993  0.0438
 5428SOL    HW127917   4.584   1.410   5.376 -0.3440  1.6288 -0.6249
 5428SOL    HW227918   4.497   1.387   5.259 -0.4356 -2.7947  0.0747
 5429SOL     OW27919   0.457   0.567   3.437 -0.3159 -0.2845 -0.5114
 5429SOL    HW127920   0.502   0.599   3.515  1.0789 -0.6816 -1.1526
 5429SOL    HW227921   0.415   0.646   3.404 -1.0653 -0.3206  0.3607
 5430SOL     OW27922   4.094   2.652   7.878 -0.2191 -0.3193  0.2637
 5430SOL    HW127923   4.177   2.649   7.925  0.3754  4.8456 -0.4624
 5430SOL    HW227924   4.040   2.581   7.912 -1.7454  0.2471 -0.9883
 5431SOL     OW27925   0.721   4.678  11.211  0.7130  0.4682  0.0366
 5431SOL    HW127926   0.739   4.606  11.150  0.0983 -0.2351  0.6724
 5431SOL    HW227927   0.635   4.707  11.180  0.3768  0.2657  0.7720
 5432SOL     OW27928   2.484   3.567  12.072  0.1892  0.0233 -0.1915
 5432SOL    HW127929   2.562   3.520  12.102 -0.0064  0.7671  1.4982
 5432SOL    HW227930   2.423   3.494  12.063 -1.2654  1.4161 -1.6338
 5433SOL     OW27931   4.689   3.255  11.517 -0.2704  0.3099  0.1554
 5433SOL    HW127932   0.007   3.333  11.531  2.7290 -1.3623 -2.2586
 5433SOL    HW227933   4.718   3.215  11.599  0.3802  0.4722  0.0051
 5434SOL     OW27934   0.349   0.003   7.821  0.2625  0.7365 -0.1458
 5434SOL    HW127935   0.326   4.723   7.730  1.6005  0.3536 -0.4092
 5434SOL    HW227936   0.332   4.652   7.854  3.2233  1.4046  3.1394
 5435SOL     OW27937   4.207   2.139   3.562 -0.4100  1.2014 -0.0492
 5435SOL    HW127938   4.269   2.210   3.574  1.1021 -0.0674 -0.2848
 5435SOL    HW227939   4.243   2.090   3.488 -0.5327 -0.9254  1.2835
 5436SOL     OW27940   2.195   1.463   2.316  0.7378 -1.0040 -0.8275
 5436SOL    HW127941   2.248   1.390   2.348  2.5020  0.3146 -0.7710
 5436SOL    HW227942   2.243   1.494   2.239 -0.2225 -2.6566 -2.1094
 5437SOL     OW27943   2.685   4.083   7.917 -0.5452  0.0341 -0.5390
 5437SOL    HW127944   2.671   4.121   8.004 -0.0086  0.7304 -0.7564
 5437SOL    HW227945   2.728   4.003   7.945  0.3878  1.3348  1.7568
 5438SOL     OW27946   1.139   0.005   2.972 -0.2332 -0.3025 -0.4915
 5438SOL    HW127947   1.093   0.013   3.056  0.0106 -2.2629 -0.1606
 5438SOL    HW227948   1.201   0.078   2.982 -0.7830 -0.0564  1.2296
 5439SOL     OW27949   3.802   3.361   5.292 -0.6546  0.1238  0.1864
 5439SOL    HW127950   3.759   3.443   5.267 -1.0359 -0.1741 -0.1413
 5439SOL    HW227951   3.888   3.383   5.327 -1.3262  3.4339 -0.2148
 5440SOL     OW27952   2.399   4.540   4.851 -0.3238 -0.5369 -0.0905
 5440SOL    HW127953   2.378   4.456   4.892 -2.8689  0.4392  0.6342
 5440SOL    HW227954   2.334   4.590   4.902  1.3566  2.3802 -0.8307
 5441SOL     OW27955   4.416   0.392  17.514 -0.4999  0.4712  0.6372
 5441SOL    HW127956   4.323   0.392  17.493 -0.4200  2.0021  0.2707
 5441SOL    HW227957   4.443   0.465  17.458 -0.8982 -1.7050 -2.3406
 5442SOL     OW27958   0.209   0.480   5.907 -0.1642 -0.3127  0.0960
 5442SOL    HW127959   0.144   0.534   5.953  0.0562 -0.1922  0.2679
 5442SOL    HW227960   0.220   0.530   5.825  1.8898  0.1644  0.6604
 5443SOL     OW27961   3.749   3.669   5.278 -0.0606 -0.4552  0.0585
 5443SOL    HW127962   3.678   3.729   5.300 -0.1375 -0.5980  0.2059
 5443SOL    HW227963   3.811   3.686   5.349 -0.1926  1.2785 -0.2419
 5444SOL     OW27964   3.288   0.506   1.509  0.2390 -0.2208  0.0747
 5444SOL    HW127965   3.268   0.551   1.591 -1.0016 -1.9320  0.7156
 5444SOL    HW227966   3.207   0.529   1.462  0.7521  1.4696  0.0486
 5445SOL     OW27967   2.675   1.817  12.232  0.0187  0.1951  0.2770
 5445SOL    HW127968   2.769   1.835  12.236  0.7230 -2.7549 -2.5196
 5445SOL    HW227969   2.649   1.800  12.322  0.9188  1.8672  0.8525
 5446SOL     OW27970   2.310   0.567   9.759  0.4257 -0.3403 -0.0645
 5446SOL    HW127971   2.391   0.519   9.779  0.4868 -0.5185 -0.7170
 5446SOL    HW227972   2.247   0.496   9.774  1.4151 -0.7309  2.2231
 5447SOL     OW27973   1.136   4.700   8.208  0.1352 -0.5400 -0.6815
 5447SOL    HW127974   1.117   0.055   8.187 -0.6232 -0.5115  0.1067
 5447SOL    HW227975   1.089   4.649   8.142  0.3002 -3.1461  1.2181
 5448SOL     OW27976   4.385   4.466   3.638 -0.4755  0.4950  0.4237
 5448SOL    HW127977   4.363   4.552   3.600 -0.2357  1.0036  1.4552
 5448SOL    HW227978   4.480   4.471   3.629 -0.2507  0.0166  2.7482
 5449SOL     OW27979   4.633   4.492   0.461 -0.7545  0.1436 -0.3069
 5449SOL    HW127980   4.646   4.511   0.368 -0.2394  0.2179 -0.2165
 5449SOL    HW227981   4.604   4.400   0.462  1.0316 -0.4138 -0.3564
 5450SOL     OW27982   4.694   0.373   9.604  0.3334  0.0731 -0.2281
 5450SOL    HW127983   4.708   0.355   9.511 -2.3130  0.4520 -0.6987
 5450SOL    HW227984   4.677   0.285   9.637  1.3761 -0.7852 -2.0109
 5451SOL     OW27985   4.287   4.546   8.630  0.2045 -0.3189 -0.1810
 5451SOL    HW127986   4.324   4.478   8.575  0.5551 -1.0602  0.9730
 5451SOL    HW227987   4.312   4.516   8.717  0.2034 -2.2956 -0.8665
 5452SOL     OW27988   1.295   1.775   7.028  0.0982  0.3152 -0.7166
 5452SOL    HW127989   1.321   1.837   7.095 -0.2772  0.2535 -0.5124
 5452SOL    HW227990   1.300   1.827   6.947 -0.9219  2.2656  0.4724
 5453SOL     OW27991   4.702   2.025   7.179 -0.2547 -0.6189 -0.1222
 5453SOL    HW127992   4.703   2.026   7.083 -0.9434  0.8754 -0.1181
 5453SOL    HW227993   4.707   2.116   7.210 -1.2089 -1.4423  2.4652
 5454SOL     OW27994   4.202   0.827  11.234  0.3750 -0.2251  0.3701
 5454SOL    HW127995   4.184   0.836  11.327 -0.4823 -1.2951  0.3079
 5454SOL    HW227996   4.141   0.756  11.215 -2.6923  2.6731 -0.6669
 5455SOL     OW27997   0.607   0.200   3.515 -0.1978  0.4237  0.1822
 5455SOL    HW127998   0.519   0.203   3.479 -0.8547 -1.6096  1.5932
 5455SOL    HW227999   0.650   0.238   3.438 -0.1269  1.7712  0.9008
 5456SOL     OW28000   3.737   3.123   9.066 -0.9946 -0.1099  0.2474
 5456SOL    HW128001   3.770   3.127   9.156  2.6276 -2.0968 -1.0271
 5456SOL    HW228002   3.676   3.049   9.073 -1.3168 -0.1828 -3.2143
 5457SOL     OW28003   1.797   0.994   4.667  0.0700 -0.0232  0.0465
 5457SOL    HW128004   1.756   1.076   4.641 -0.2494 -0.5872 -1.2408
 5457SOL    HW228005   1.826   1.018   4.755 -0.0282  0.0296  0.0635
 5458SOL     OW28006   1.915   3.596  12.634  0.2399  0.2494 -0.1078
 5458SOL    HW128007   1.964   3.589  12.552  0.1079  3.1087 -0.4481
 5458SOL    HW228008   1.990   3.591  12.692  1.0361 -0.1868 -1.1660
 5459SOL     OW28009   3.594   4.579   8.682 -0.0969  0.6740  0.5414
 5459SOL    HW128010   3.573   4.664   8.719 -1.7627 -0.4253  2.1344
 5459SOL    HW228011   3.679   4.555   8.720 -0.5049 -1.3630  0.1988
 5460SOL     OW28012   4.692   0.912  15.867  0.3597 -0.2570  0.3235
 5460SOL    HW128013   4.727   0.987  15.915 -0.3237  0.1953  0.1252
 5460SOL    HW228014   4.629   0.950  15.805  2.7307  1.5383 -0.9688
 5461SOL     OW28015   3.629   1.640   3.393  0.0145  0.6323 -0.3494
 5461SOL    HW128016   3.550   1.586   3.383 -1.0069  2.3578 -1.8245
 5461SOL    HW228017   3.667   1.649   3.305  2.9743  1.3427  1.0202
 5462SOL     OW28018   0.981   4.252   3.674 -0.9635 -0.2352 -0.1139
 5462SOL    HW128019   0.950   4.329   3.722 -3.1313 -0.4481 -1.1664
 5462SOL    HW228020   1.070   4.244   3.707 -0.7048 -1.2331 -1.0718
 5463SOL     OW28021   1.771   4.589   1.748  0.4340  0.4848  0.1813
 5463SOL    HW128022   1.676   4.604   1.753  0.0958 -2.0003  1.0744
 5463SOL    HW228023   1.763   4.508   1.698 -0.6237  0.2220  0.7852
 5464SOL     OW28024   1.074   3.719   4.188 -0.4720 -0.4424  0.5561
 5464SOL    HW128025   1.092   3.732   4.281  1.6904  1.4563 -0.1384
 5464SOL    HW228026   0.992   3.764   4.170  0.3076 -0.0752 -1.9989
 5465SOL     OW28027   1.947   2.425  15.807  0.2473 -0.0154 -0.3462
 5465SOL    HW128028   1.903   2.509  15.794  0.4933  0.0365 -0.8353
 5465SOL    HW228029   2.000   2.410  15.729 -0.3283 -1.6060 -0.4253
 5466SOL     OW28030   3.434   1.628   5.736  0.0699 -0.3901 -0.4162
 5466SOL    HW128031   3.357   1.571   5.745  1.1113 -1.5696  1.1050
 5466SOL    HW228032   3.512   1.576   5.754  0.0412  0.0107  0.9103
 5467SOL     OW28033   2.863   0.496   7.757 -0.1992 -0.2241 -0.2630
 5467SOL    HW128034   2.853   0.576   7.808 -0.2255 -0.8255  0.6665
 5467SOL    HW228035   2.954   0.475   7.780 -0.1195  0.8491  0.3707
 5468SOL     OW28036   2.593   1.020   3.724  0.6865 -0.3863  0.6317
 5468SOL    HW128037   2.683   0.999   3.700  0.7738  0.2645  0.3947
 5468SOL    HW228038   2.576   1.095   3.667  0.3634 -1.1566 -0.3030
 5469SOL     OW28039   2.031   0.326   7.726  0.0372  0.0853  0.0470
 5469SOL    HW128040   2.042   0.371   7.810 -0.4166  2.4153 -1.1275
 5469SOL    HW228041   1.974   0.255   7.753 -0.0011  0.3253  0.5993
 5470SOL     OW28042   1.254   0.625  11.482  0.4369  0.4867 -0.4116
 5470SOL    HW128043   1.343   0.612  11.512  1.1253  0.0846 -2.6084
 5470SOL    HW228044   1.228   0.539  11.449 -1.7621  1.1657 -0.4774
 5471SOL     OW28045   0.098   0.204   2.818 -0.4309  0.0008 -0.3636
 5471SOL    HW128046   0.074   0.116   2.791  0.5765 -0.6926  1.0250
 5471SOL    HW228047   0.175   0.212   2.761 -1.9383 -0.1486 -2.3847
 5472SOL     OW28048   2.168   1.620   9.464 -0.4429  0.0784 -0.0042
 5472SOL    HW128049   2.108   1.689   9.437  0.7196  0.6215 -1.2445
 5472SOL    HW228050   2.180   1.643   9.556 -1.6536 -2.8365  0.8893
 5473SOL     OW28051   4.518   4.133   4.998 -0.4074  0.2811  0.1430
 5473SOL    HW128052   4.481   4.190   5.066 -0.1130  0.7002 -0.0479
 5473SOL    HW228053   4.493   4.187   4.923  0.9866 -1.5176 -1.6051
 5474SOL     OW28054   1.910   1.090   8.121  0.2175  0.0268  0.2023
 5474SOL    HW128055   1.850   1.127   8.056 -0.2198  0.2226  0.7232
 5474SOL    HW228056   1.942   1.016   8.069 -0.0146 -1.9443  2.8652
 5475SOL     OW28057   0.651   4.654  15.979  0.4854  0.1353  0.0858
 5475SOL    HW128058   0.719   4.643  16.045 -0.4060 -1.4356  0.7311
 5475SOL    HW228059   0.613   4.731  16.022  0.3343 -0.1583  0.4703
 5476SOL     OW28060   1.972   3.582   7.116 -0.0842 -0.3501  0.0839
 5476SOL    HW128061   2.063   3.602   7.095  0.1497 -0.0039  1.4291
 5476SOL    HW228062   1.978   3.515   7.184  2.5938  1.4462  1.6093
 5477SOL     OW28063   2.521   0.537   6.142 -0.7929  0.3421  0.5099
 5477SOL    HW128064   2.584   0.474   6.174 -1.0073 -0.3209 -0.3920
 5477SOL    HW228065   2.572   0.578   6.073 -2.7865  0.6051 -0.8046
 5478SOL     OW28066   3.327   3.316  16.443 -0.0640 -0.4024 -0.1938
 5478SOL    HW128067   3.370   3.290  16.362 -3.7661 -1.7817 -1.6732
 5478SOL    HW228068   3.401   3.301  16.502 -0.0652  0.3813  0.0156
 5479SOL     OW28069   3.006   3.591   3.259  0.0767  0.1022 -0.3188
 5479SOL    HW128070   2.927   3.626   3.216  0.2086 -0.6108 -1.1227
 5479SOL    HW228071   2.957   3.556   3.333  0.8714 -2.0764 -0.8301
 5480SOL     OW28072   2.188   0.410   9.273  0.7087 -0.0217  0.6320
 5480SOL    HW128073   2.255   0.437   9.335  1.3781 -1.8141  0.6861
 5480SOL    HW228074   2.183   0.316   9.289 -1.9027 -0.1446 -0.9443
 5481SOL     OW28075   3.051   4.359  10.301 -0.7755  0.3135  0.1650
 5481SOL    HW128076   2.976   4.386  10.248 -0.4351 -0.8156 -0.8911
 5481SOL    HW228077   3.130   4.400  10.267 -1.4172  1.3548 -0.0660
 5482SOL     OW28078   4.354   0.946  12.845  0.5893  0.0382 -0.1727
 5482SOL    HW128079   4.411   0.889  12.792 -0.0702  0.9497 -1.8640
 5482SOL    HW228080   4.386   1.033  12.821 -2.9174  1.5951  0.7985
 5483SOL     OW28081   1.149   2.159  11.756  0.0072  0.6501 -0.1086
 5483SOL    HW128082   1.183   2.155  11.667  0.4525  0.8322  0.0525
 5483SOL    HW228083   1.101   2.241  11.742  1.7349  1.9132  1.4808
 5484SOL     OW28084   0.763   4.311   3.538 -0.2525  0.5559 -0.1894
 5484SOL    HW128085   0.839   4.258   3.565 -1.3849 -1.5159 -1.0950
 5484SOL    HW228086   0.696   4.276   3.596  0.3483 -0.5026 -0.1197
 5485SOL     OW28087   2.112   2.570   6.810  0.5651 -0.1901 -0.1972
 5485SOL    HW128088   2.169   2.646   6.817 -0.3339  0.5556 -0.8809
 5485SOL    HW228089   2.076   2.575   6.899  0.9557 -0.1020 -0.0458
 5486SOL     OW28090   3.186   3.524   7.258  0.0913 -0.1145 -0.1402
 5486SOL    HW128091   3.209   3.594   7.319  0.2715  0.9138 -1.3875
 5486SOL    HW228092   3.140   3.472   7.325  1.3470 -2.2232 -0.9316
 5487SOL     OW28093   1.520   0.840   3.543  0.4291  0.6834  0.8713
 5487SOL    HW128094   1.455   0.810   3.480  0.6674  0.3485  0.7866
 5487SOL    HW228095   1.548   0.923   3.504 -3.6228  1.4614 -0.4420
 5488SOL     OW28096   0.357   4.178   9.403 -0.0778 -0.1921  0.0193
 5488SOL    HW128097   0.373   4.238   9.476 -3.2065 -1.3527  1.6510
 5488SOL    HW228098   0.444   4.181   9.362 -0.8665  0.4797 -1.6060
 5489SOL     OW28099   1.933   3.171   9.278  0.2658 -0.2006  0.5590
 5489SOL    HW128100   2.013   3.133   9.313 -1.6621 -2.5002  2.5314
 5489SOL    HW228101   1.916   3.247   9.334 -2.0361  0.4651 -1.0290
 5490SOL     OW28102   1.027   3.074   2.007 -0.1345  0.1912  0.5564
 5490SOL    HW128103   1.037   3.086   1.912 -0.1620 -0.0351  0.5245
 5490SOL    HW228104   1.053   3.155   2.051  0.7917  0.5388 -0.6234
 5491SOL     OW28105   3.621   3.682   7.386  0.3953  0.6281  0.2576
 5491SOL    HW128106   3.568   3.617   7.341  1.0817  0.2055  0.0697
 5491SOL    HW228107   3.563   3.758   7.398  0.0822  0.2991  0.8321
 5492SOL     OW28108   4.666   1.491  17.541  0.3252 -0.7409 -0.1896
 5492SOL    HW128109   4.603   1.507  17.471  0.6958  1.9299  0.0727
 5492SOL    HW228110   0.005   1.461  17.492  0.8539  1.1885 -0.5534
 5493SOL     OW28111   3.156   0.413   6.987 -0.4066 -0.0267 -0.7452
 5493SOL    HW128112   3.184   0.409   6.896 -0.4528  0.4293 -0.7793
 5493SOL    HW228113   3.113   0.499   6.988 -0.9283 -0.2919 -0.4831
 5494SOL     OW28114   2.946   1.915   6.141  0.4457 -0.0622 -0.3446
 5494SOL    HW128115   2.948   1.996   6.191 -0.1358 -0.3693  0.1645
 5494SOL    HW228116   2.882   1.927   6.070  1.4422  0.1415 -1.2209
 5495SOL     OW28117   0.492   0.012   8.138  0.3715 -0.1619 -0.2675
 5495SOL    HW128118   0.512   0.089   8.084  2.7112  0.8331  1.9928
 5495SOL    HW228119   0.400   0.020   8.165  0.9046 -3.6695  2.6127
 5496SOL     OW28120   3.132   3.155   8.148  0.0976 -0.1044  0.2574
 5496SOL    HW128121   3.066   3.167   8.079 -0.1856  0.3159  0.5995
 5496SOL    HW228122   3.088   3.099   8.211 -0.1454 -0.7379 -0.4816
 5497SOL     OW28123   2.709   3.618   7.645  0.4711 -0.6799  0.2163
 5497SOL    HW128124   2.748   3.633   7.559  1.1547  2.8401  1.1630
 5497SOL    HW228125   2.724   3.701   7.691  0.1365 -1.3581  1.5597
 5498SOL     OW28126   2.937   2.849  10.992 -0.1616  0.6093  0.0059
 5498SOL    HW128127   3.029   2.838  11.014  0.3886  2.6670 -1.2234
 5498SOL    HW228128   2.949   2.853  10.897  0.3961 -1.3188  0.0090
 5499SOL     OW28129   3.633   0.196   6.230 -0.4658  0.5000  0.2035
 5499SOL    HW128130   3.585   0.114   6.218 -0.1343  0.2026  0.8876
 5499SOL    HW228131   3.628   0.233   6.142 -2.9504 -0.4259 -0.0460
 5500SOL     OW28132   1.472   4.602   8.781 -0.3326 -0.1039  0.5148
 5500SOL    HW128133   1.476   4.677   8.841  0.5523  0.2709 -0.0221
 5500SOL    HW228134   1.412   4.539   8.820 -0.3680 -1.2697 -1.4340
 5501SOL     OW28135   4.532   1.862   2.199  0.1562 -0.3622 -0.3513
 5501SOL    HW128136   4.511   1.949   2.165 -2.7380 -0.3019  1.5671
 5501SOL    HW228137   4.471   1.859   2.273 -2.4582 -1.9036 -2.5754
 5502SOL     OW28138   3.606   2.488   1.002 -0.0788  0.1412  0.7773
 5502SOL    HW128139   3.600   2.429   0.927  1.4319  1.0502 -0.0478
 5502SOL    HW228140   3.542   2.553   0.972  0.4754 -0.3103 -1.4254
 5503SOL     OW28141   2.055   1.742   2.812  0.3204  0.0451  0.5345
 5503SOL    HW128142   2.035   1.766   2.902  3.3853  1.9481  0.7245
 5503SOL    HW228143   2.080   1.825   2.770  0.4050  0.0832  0.6606
 5504SOL     OW28144   0.329   2.848   5.257  0.6859  0.0829 -0.0384
 5504SOL    HW128145   0.338   2.920   5.319 -0.9313  0.0827  0.2112
 5504SOL    HW228146   0.237   2.864   5.235  1.2770  1.0276 -1.8516
 5505SOL     OW28147   0.320   1.567  17.330 -0.0570 -0.8885 -0.0242
 5505SOL    HW128148   0.370   1.550  17.410  1.1167 -1.1751 -0.8342
 5505SOL    HW228149   0.250   1.502  17.342 -0.8751 -0.0348 -0.1392
 5506SOL     OW28150   4.587   1.579  14.477 -0.5477 -0.0921 -0.6446
 5506SOL    HW128151   4.554   1.525  14.549  2.2936 -0.6235  0.2828
 5506SOL    HW228152   4.521   1.648  14.473  1.1536  1.7312  2.0774
 5507SOL     OW28153   0.639   1.489   2.050  0.3322 -0.2105 -0.2765
 5507SOL    HW128154   0.657   1.397   2.066  0.9558 -0.0905 -0.3129
 5507SOL    HW228155   0.716   1.530   2.011 -0.0704  1.6422  0.8489
 5508SOL     OW28156   0.547   2.593   9.133  0.3569  0.1169 -0.0228
 5508SOL    HW128157   0.460   2.567   9.162  0.5582  1.2894  1.6623
 5508SOL    HW228158   0.573   2.650   9.205  1.0393  2.7841 -2.3689
 5509SOL     OW28159   4.538   2.998  16.182 -0.8018  0.5911  0.6782
 5509SOL    HW128160   4.558   3.089  16.201  1.2009  0.6798 -1.9076
 5509SOL    HW228161   4.448   2.998  16.213 -0.4238 -1.3787  1.8075
 5510SOL     OW28162   3.239   1.873   3.420 -0.0345 -0.3474 -0.3136
 5510SOL    HW128163   3.225   1.878   3.325 -0.8225  2.1017 -0.0665
 5510SOL    HW228164   3.168   1.810   3.431 -2.5464  2.4006 -0.7127
 5511SOL     OW28165   4.353   3.658  10.589 -0.1682  0.3135 -0.0330
 5511SOL    HW128166   4.272   3.678  10.636  0.0352  1.3924 -0.1395
 5511SOL    HW228167   4.375   3.748  10.566 -0.7526  0.9888  2.1446
 5512SOL     OW28168   4.339   3.897   5.641 -0.0020 -0.3693 -0.2804
 5512SOL    HW128169   4.371   3.983   5.666 -2.9624  0.2432  1.3106
 5512SOL    HW228170   4.279   3.914   5.569 -0.3512  2.4157  0.6925
 5513SOL     OW28171   1.310   4.424   1.520 -0.1310  0.2480  0.0221
 5513SOL    HW128172   1.252   4.349   1.509 -0.6001  0.7075 -0.6524
 5513SOL    HW228173   1.341   4.411   1.609  0.6875 -1.7779 -0.5693
 5514SOL     OW28174   4.163   1.989   3.973 -0.4288 -0.2698 -0.2157
 5514SOL    HW128175   4.132   1.929   3.905 -1.5906  0.6613 -0.5062
 5514SOL    HW228176   4.097   2.058   3.962 -0.4538 -0.5290 -1.6820
 5515SOL     OW28177   3.223   4.205   4.621 -0.5053 -0.4437 -0.0869
 5515SOL    HW128178   3.226   4.293   4.583 -0.3558  0.1952  1.3830
 5515SOL    HW228179   3.205   4.242   4.708  0.8110  0.3846 -0.1601
 5516SOL     OW28180   2.285   4.404  10.614  0.3235  0.4859  0.5174
 5516SOL    HW128181   2.319   4.479  10.565 -0.0908  0.5984  0.4020
 5516SOL    HW228182   2.210   4.377  10.562  0.0993 -0.1156  1.1585
 5517SOL     OW28183   4.625   1.149   5.812  0.5141 -0.6139  0.5411
 5517SOL    HW128184   4.577   1.165   5.894 -0.0254  0.8235 -0.0444
 5517SOL    HW228185   4.650   1.240   5.793 -0.5308 -1.1943 -3.6779
 5518SOL     OW28186   1.678   4.048   9.298 -0.0560  0.5459 -0.4637
 5518SOL    HW128187   1.730   4.051   9.378  1.0521  1.6423 -1.2111
 5518SOL    HW228188   1.588   4.044   9.331 -0.2238  2.0319 -0.7435
 5519SOL     OW28189   0.610   2.200  10.366 -0.6358  0.1986  0.2393
 5519SOL    HW128190   0.548   2.268  10.392 -2.2303 -1.2571  0.2241
 5519SOL    HW228191   0.593   2.149  10.445  0.2939 -0.3621  0.0825
 5520SOL     OW28192   0.284   2.191   6.920  0.0040 -0.2151 -0.5182
 5520SOL    HW128193   0.320   2.200   6.831 -0.9536  0.9303 -0.7969
 5520SOL    HW228194   0.305   2.279   6.950 -0.9217 -0.6139  1.2619
 5521SOL     OW28195   2.149   2.739   3.729  0.4597 -0.0566 -0.1069
 5521SOL    HW128196   2.063   2.743   3.770 -1.3735  1.5277 -4.0498
 5521SOL    HW228197   2.127   2.760   3.638  1.1149 -0.2540 -0.3155
 5522SOL     OW28198   0.961   2.699   9.715 -0.8335  0.1586 -0.7569
 5522SOL    HW128199   0.956   2.724   9.623 -0.2783 -0.7715 -1.0369
 5522SOL    HW228200   0.922   2.777   9.754  0.2043  0.0417  0.5471
 5523SOL     OW28201   0.895   2.481   6.811  0.2894 -0.2249 -0.0326
 5523SOL    HW128202   0.848   2.445   6.886  0.1850  1.5495  0.7485
 5523SOL    HW228203   0.972   2.515   6.857  0.1387  0.3277 -0.1889
 5524SOL     OW28204   4.313   1.725   6.385 -0.0963  0.3306  0.2366
 5524SOL    HW128205   4.390   1.679   6.416 -1.2695 -0.2941  2.2231
 5524SOL    HW228206   4.277   1.744   6.472 -1.2317  1.5855 -0.5036
 5525SOL     OW28207   2.733   3.325   0.989  0.9448  0.2840 -0.1613
 5525SOL    HW128208   2.736   3.310   0.895  0.7317  0.9228 -0.2673
 5525SOL    HW228209   2.657   3.383   0.999  1.5141  1.1758 -1.0213
 5526SOL     OW28210   3.516   0.519   6.536 -0.3831 -0.2422 -0.0126
 5526SOL    HW128211   3.568   0.438   6.537 -0.9534 -0.6279 -1.3832
 5526SOL    HW228212   3.520   0.550   6.626 -0.6203 -2.4440  0.7674
 5527SOL     OW28213   4.471   0.547   5.656  0.0366 -0.3087  0.0951
 5527SOL    HW128214   4.506   0.591   5.734  1.4230 -0.2631 -0.5522
 5527SOL    HW228215   4.386   0.530   5.697  1.0281 -0.1722  2.2045
 5528SOL     OW28216   3.264   4.410   7.442  0.1678  0.0037 -0.1132
 5528SOL    HW128217   3.238   4.465   7.516 -0.9710 -0.4977 -0.1390
 5528SOL    HW228218   3.202   4.430   7.372 -0.3621  0.9746  0.6266
 5529SOL     OW28219   0.873   4.100  14.906 -0.3081 -0.2836 -0.0317
 5529SOL    HW128220   0.945   4.055  14.950 -0.8028 -0.9472  0.0903
 5529SOL    HW228221   0.898   4.191  14.922 -0.9712 -0.2863  0.9565
 5530SOL     OW28222   2.306   4.652   3.268 -0.3880  0.2948 -0.4816
 5530SOL    HW128223   2.328   4.666   3.360  0.1545  3.2611 -1.0527
 5530SOL    HW228224   2.374   4.702   3.222 -0.3318  0.1774 -0.5254
 5531SOL     OW28225   2.267   4.017   4.093 -0.0957  0.7763 -0.3034
 5531SOL    HW128226   2.219   3.959   4.152  1.8762 -2.0240 -1.4384
 5531SOL    HW228227   2.306   4.071   4.163  1.6301  0.3307 -0.9106
 5532SOL     OW28228   3.325   1.821   2.702  0.2372 -0.0961  0.3053
 5532SOL    HW128229   3.239   1.860   2.719  0.8639  0.6493  1.7066
 5532SOL    HW228230   3.312   1.749   2.640  2.3750  0.9854 -1.3760
 5533SOL     OW28231   3.835   3.233   9.344 -0.7634 -0.3200 -0.3706
 5533SOL    HW128232   3.817   3.183   9.423  1.9801  1.4206  1.3446
 5533SOL    HW228233   3.908   3.291   9.365 -0.2258 -1.4693  0.9444
 5534SOL     OW28234   4.018   0.071   1.516 -0.0921 -0.2742  0.4533
 5534SOL    HW128235   4.057   0.128   1.582 -0.0651 -2.0501  1.9358
 5534SOL    HW228236   3.963   0.138   1.475 -0.1352  0.9909  2.5966
 5535SOL     OW28237   4.483   4.113   4.239  1.2319 -0.6370  0.3619
 5535SOL    HW128238   4.444   4.126   4.152 -1.2565 -0.5121  1.5096
 5535SOL    HW228239   4.402   4.102   4.287  0.5619  1.1905 -0.3635
 5536SOL     OW28240   1.205   0.808  10.160  0.0859  0.1883 -0.5175
 5536SOL    HW128241   1.196   0.899  10.188 -0.5296  0.5767 -1.9326
 5536SOL    HW228242   1.119   0.766  10.169 -0.1954  0.9170  0.2093
 5537SOL     OW28243   3.299   3.286   3.605 -0.4028 -0.5170 -0.1219
 5537SOL    HW128244   3.387   3.255   3.623 -0.1169  1.4458  1.8796
 5537SOL    HW228245   3.321   3.294   3.512 -0.7103  1.5475 -0.0098
 5538SOL     OW28246   2.098   2.065   1.378 -0.1096 -0.0504  0.0940
 5538SOL    HW128247   2.061   2.149   1.405  0.9712  0.6893 -0.7000
 5538SOL    HW228248   2.020   2.010   1.378  1.1857 -1.8622 -0.1438
 5539SOL     OW28249   0.371   1.268   9.381  0.1944 -0.3061 -0.1316
 5539SOL    HW128250   0.303   1.216   9.340 -0.2324 -0.6872  1.0486
 5539SOL    HW228251   0.446   1.243   9.327 -1.5308  0.3291 -2.7695
 5540SOL     OW28252   3.865   0.819   3.032  0.1048  0.2435  0.0544
 5540SOL    HW128253   3.810   0.886   2.991 -0.0318 -0.5376 -1.0463
 5540SOL    HW228254   3.949   0.853   3.002 -1.3772  2.1091 -1.9784
 5541SOL     OW28255   4.496   3.370   0.930  0.3174 -0.3629  0.5564
 5541SOL    HW128256   4.415   3.321   0.938 -0.0921  0.5227  1.9086
 5541SOL    HW228257   4.475   3.463   0.943  1.9264  0.2477 -1.1341
 5542SOL     OW28258   3.487   2.891   6.969 -0.0526  0.2796 -0.6736
 5542SOL    HW128259   3.510   2.914   7.059  0.4349  2.2579 -1.3101
 5542SOL    HW228260   3.511   2.801   6.948  2.2112  0.7305  0.0302
 5543SOL     OW28261   3.716   3.832  16.836  0.8453  0.2145  0.0692
 5543SOL    HW128262   3.671   3.904  16.793 -1.0645 -1.0355 -0.0327
 5543SOL    HW228263   3.717   3.758  16.775 -0.6567  0.6348 -0.4628
 5544SOL     OW28264   4.616   0.937   4.353  0.0700 -0.4487  0.4600
 5544SOL    HW128265   4.572   1.022   4.342  3.1029  1.1203  0.3375
 5544SOL    HW228266   4.632   0.933   4.448 -0.7133  1.2070  0.6590
 5545SOL     OW28267   1.548   2.583  15.355  0.3010  0.1205  0.0643
 5545SOL    HW128268   1.532   2.496  15.320 -0.4488  0.4583 -0.4371
 5545SOL    HW228269   1.573   2.566  15.446  0.9912 -0.7771 -0.3030
 5546SOL     OW28270   0.265   2.175   3.011  0.3261 -0.3366 -0.3724
 5546SOL    HW128271   0.289   2.084   2.995  1.0503 -0.1475 -0.3534
 5546SOL    HW228272   0.298   2.214   2.931 -0.3414  2.0436  0.5278
 5547SOL     OW28273   3.008   0.686   4.679  0.1110 -0.5489  0.2735
 5547SOL    HW128274   3.026   0.745   4.606 -0.6745 -1.1936 -0.4368
 5547SOL    HW228275   3.042   0.737   4.753 -0.8820 -0.3956  0.6216
 5548SOL     OW28276   0.532   4.145   7.795 -0.2036  0.6679  0.5421
 5548SOL    HW128277   0.485   4.160   7.876 -0.8482  1.7039 -0.0324
 5548SOL    HW228278   0.599   4.212   7.805 -0.8482  1.2660  0.8062
 5549SOL     OW28279   2.535   0.817   4.125 -0.4708  0.0334  0.2040
 5549SOL    HW128280   2.500   0.839   4.039 -0.9088 -1.5483 -0.0164
 5549SOL    HW228281   2.499   0.889   4.177 -1.7641  0.1664 -0.8708
 5550SOL     OW28282   4.415   4.057   5.831 -0.4221 -0.6641 -0.1714
 5550SOL    HW128283   4.417   4.148   5.861  0.3821 -0.9255  0.5620
 5550SOL    HW228284   4.459   4.006   5.900 -0.3606  1.9789  1.7218
 5551SOL     OW28285   1.265   0.250   2.963 -0.0123 -0.1686  0.5324
 5551SOL    HW128286   1.357   0.277   2.971 -0.0107 -0.5664  1.7426
 5551SOL    HW228287   1.238   0.281   3.049  1.7254  0.8593  0.6928
 5552SOL     OW28288   4.637   2.729   5.324 -0.4611 -0.0427  0.3006
 5552SOL    HW128289   4.696   2.656   5.307  0.3119  1.0034 -1.6067
 5552SOL    HW228290   4.549   2.693   5.318 -0.1327 -0.5949 -1.1362
 5553SOL     OW28291   3.677   1.590   1.784  0.6810  0.6197 -0.2712
 5553SOL    HW128292   3.631   1.667   1.752  1.4036  0.2655 -2.1852
 5553SOL    HW228293   3.746   1.632   1.835  0.2035  3.1081 -1.6692
 5554SOL     OW28294   0.567   3.572  15.591  0.0124 -0.1555 -0.3477
 5554SOL    HW128295   0.549   3.661  15.559 -1.6567 -1.2148 -2.3425
 5554SOL    HW228296   0.606   3.533  15.513  1.3276 -0.5600  0.5164
 5555SOL     OW28297   1.689   2.921   2.240 -0.0393  0.5238  0.1082
 5555SOL    HW128298   1.616   2.933   2.180  0.4088  0.9009 -0.3568
 5555SOL    HW228299   1.756   2.882   2.183  0.9480 -1.3163  2.5363
 5556SOL     OW28300   3.355   3.393   1.581  0.1385 -0.5606  0.3312
 5556SOL    HW128301   3.338   3.347   1.663 -0.1095 -2.1648 -0.6213
 5556SOL    HW228302   3.332   3.483   1.603 -1.5575 -1.4160  2.0008
 5557SOL     OW28303   1.078   3.228   5.087 -0.5233 -0.6635 -0.3580
 5557SOL    HW128304   1.134   3.151   5.080 -0.4165 -0.6961  0.8610
 5557SOL    HW228305   1.090   3.267   5.001  2.1001 -0.9060 -0.0922
 5558SOL     OW28306   3.388   3.224   1.149  0.7585 -0.5491  0.2829
 5558SOL    HW128307   3.390   3.320   1.152 -3.4500 -0.4400 -0.4367
 5558SOL    HW228308   3.375   3.211   1.243 -0.3316  1.0751  0.3732
 5559SOL     OW28309   0.109   2.443   8.566  0.3063 -0.6520 -0.1222
 5559SOL    HW128310   0.186   2.403   8.525 -0.0214 -1.9331  0.5069
 5559SOL    HW228311   0.039   2.379   8.563 -0.2836  0.0809 -2.0591
 5560SOL     OW28312   3.308   0.750   3.790  0.4116  0.0747 -0.0282
 5560SOL    HW128313   3.218   0.773   3.814  0.7889  1.9329 -0.3547
 5560SOL    HW228314   3.331   0.818   3.726  0.0861  1.1269  0.9667
 5561SOL     OW28315   4.384   1.163   7.475 -0.6496 -0.0978 -0.1226
 5561SOL    HW128316   4.400   1.233   7.411  0.6653 -0.6491 -0.3790
 5561SOL    HW228317   4.362   1.098   7.408  1.0781 -1.6292  0.8141
 5562SOL     OW28318   3.246   1.556   6.954  0.2118  0.2248 -0.2104
 5562SOL    HW128319   3.296   1.551   7.035  0.3228 -1.3377 -0.3850
 5562SOL    HW228320   3.230   1.651   6.957 -0.9341  0.0164  0.1061
 5563SOL     OW28321   2.239   1.115   4.510 -0.1577 -0.2122  0.2939
 5563SOL    HW128322   2.172   1.077   4.567 -0.1606  1.0689  1.1371
 5563SOL    HW228323   2.215   1.073   4.427  0.9013  1.5846 -0.9090
 5564SOL     OW28324   3.745   3.890  15.283  0.5240  0.5975  0.1904
 5564SOL    HW128325   3.700   3.872  15.365  0.1284 -0.5267 -0.2800
 5564SOL    HW228326   3.761   3.984  15.289  1.3343  0.2961  2.7643
 5565SOL     OW28327   2.294   0.217  16.951  0.5286 -0.2828  0.1459
 5565SOL    HW128328   2.240   0.261  16.886  0.3743 -0.6410  0.0306
 5565SOL    HW228329   2.331   0.139  16.911 -1.9322 -1.9426  1.0802
 5566SOL     OW28330   2.658   3.337  17.275 -0.0120  0.0256  0.1947
 5566SOL    HW128331   2.578   3.342  17.224 -1.0483  0.0923  1.8243
 5566SOL    HW228332   2.630   3.306  17.361  0.4532  1.4992  0.8748
 5567SOL     OW28333   1.706   0.011   7.636 -0.5714 -0.3507  0.2755
 5567SOL    HW128334   1.643   4.680   7.611 -2.7001  2.4030 -1.6469
 5567SOL    HW228335   1.707   0.060   7.554 -3.0267 -0.8821 -0.0796
 5568SOL     OW28336   3.870   3.139   5.587  0.1368 -0.1517 -0.4597
 5568SOL    HW128337   3.814   3.062   5.581  1.9637 -1.3601 -2.1957
 5568SOL    HW228338   3.934   3.110   5.522  0.0349 -1.4581  0.0195
 5569SOL     OW28339   1.793   2.453   6.042  0.3347  0.1464  0.3514
 5569SOL    HW128340   1.710   2.446   6.088  0.1135 -0.8177 -0.1992
 5569SOL    HW228341   1.821   2.362   6.039 -0.6046 -0.1446  0.5762
 5570SOL     OW28342   3.950   0.689  17.512  0.6482 -0.0952  0.1672
 5570SOL    HW128343   3.868   0.736  17.529  0.7888  0.0133  0.5505
 5570SOL    HW228344   3.982   0.728  17.431 -0.8462  1.1752  0.1882
 5571SOL     OW28345   0.827   4.309   9.276  0.1271 -0.3460 -0.1096
 5571SOL    HW128346   0.881   4.306   9.197 -0.8996  0.3681 -0.8388
 5571SOL    HW228347   0.813   4.403   9.262 -0.6271 -0.5079 -0.4594
 5572SOL     OW28348   3.120   1.846   3.177 -0.4271  0.7026  0.5175
 5572SOL    HW128349   3.166   1.766   3.153 -1.3166 -0.0449  1.3392
 5572SOL    HW228350   3.037   1.800   3.172  0.2687 -0.3507 -1.2423
 5573SOL     OW28351   1.492   1.829   3.541  0.7825 -0.1243 -0.0624
 5573SOL    HW128352   1.529   1.747   3.573  3.3790  0.5852 -1.2861
 5573SOL    HW228353   1.409   1.808   3.585 -0.0692  2.4637 -0.4237
 5574SOL     OW28354   4.294   1.725   9.612 -0.5121  0.4353 -0.5314
 5574SOL    HW128355   4.319   1.818   9.614  0.9157  0.0705 -1.3020
 5574SOL    HW228356   4.223   1.730   9.547 -0.6723 -2.2090 -0.5558
 5575SOL     OW28357   2.382   1.079   7.169  0.5994  0.0852 -0.5267
 5575SOL    HW128358   2.433   1.013   7.216  0.3473 -0.2129 -0.6740
 5575SOL    HW228359   2.314   1.102   7.232  0.1166  0.4534 -1.1813
 5576SOL     OW28360   1.275   0.864  11.041 -0.4685  0.7414  0.0838
 5576SOL    HW128361   1.299   0.850  11.133 -2.1679  0.5177  0.5002
 5576SOL    HW228362   1.313   0.785  11.003 -1.6201  0.4005 -0.3663
 5577SOL     OW28363   0.600   3.331  10.585  0.3716  0.5398 -0.2975
 5577SOL    HW128364   0.611   3.301  10.676  2.1342 -0.2610 -0.7715
 5577SOL    HW228365   0.577   3.249  10.541 -1.7763  1.9457 -1.7561
 5578SOL     OW28366   3.683   0.847   8.886 -0.0905  0.3251  0.4002
 5578SOL    HW128367   3.778   0.836   8.874 -0.3451 -1.1685 -0.1203
 5578SOL    HW228368   3.677   0.834   8.981 -2.4127 -0.2289  0.1560
 5579SOL     OW28369   1.406   3.027  16.479  0.3535  0.0540  0.5499
 5579SOL    HW128370   1.314   3.022  16.505  0.1433  1.2077  0.0182
 5579SOL    HW228371   1.423   3.118  16.505  0.3073 -0.1238  1.2097
 5580SOL     OW28372   3.549   0.705   8.687  0.0727 -0.5095  0.2473
 5580SOL    HW128373   3.477   0.766   8.674  1.0369  0.7092  0.5971
 5580SOL    HW228374   3.594   0.747   8.760 -0.1548  1.0707 -0.5231
 5581SOL     OW28375   3.122   3.416   3.792  0.1809  0.0231 -0.1924
 5581SOL    HW128376   3.191   3.374   3.741  2.0212  0.8916  1.5718
 5581SOL    HW228377   3.059   3.345   3.795  1.8615 -1.4148  0.7975
 5582SOL     OW28378   2.537   1.767   5.706  0.3666  0.5314  0.2154
 5582SOL    HW128379   2.463   1.717   5.673  1.4909 -0.9148 -0.0803
 5582SOL    HW228380   2.601   1.748   5.637  0.4467  1.2419  0.0921
 5583SOL     OW28381   1.084   1.203   2.434 -0.0438  0.1504  0.2423
 5583SOL    HW128382   1.090   1.215   2.529 -0.8438  0.9429  0.1867
 5583SOL    HW228383   1.131   1.120   2.424 -0.1003  0.1560 -0.0505
 5584SOL     OW28384   2.549   4.356   7.038 -0.1792 -0.2411 -0.3019
 5584SOL    HW128385   2.580   4.412   7.110  1.5486 -1.2281 -0.3004
 5584SOL    HW228386   2.458   4.387   7.033 -1.0478 -2.8816 -1.0658
 5585SOL     OW28387   3.642   3.196  17.345 -0.9832 -0.0309  0.0094
 5585SOL    HW128388   3.574   3.150  17.395 -0.5722  0.5346  1.0950
 5585SOL    HW228389   3.593   3.218  17.266 -2.0165  1.2271  0.9949
 5586SOL     OW28390   4.406   3.144   3.065  0.7814 -0.0008  0.0314
 5586SOL    HW128391   4.332   3.103   3.020  1.2131  1.4311 -1.9858
 5586SOL    HW228392   4.386   3.124   3.156 -0.5864  1.3637  0.0130
 5587SOL     OW28393   1.738   1.398   4.988  0.2197 -0.1562  0.5819
 5587SOL    HW128394   1.770   1.431   4.904 -1.1889 -2.5938 -0.9036
 5587SOL    HW228395   1.767   1.307   4.988 -0.5305 -0.3913  0.9946
 5588SOL     OW28396   0.301   3.895   6.218  0.0959 -0.1693  0.3878
 5588SOL    HW128397   0.323   3.982   6.250 -0.6196 -0.9512  2.9807
 5588SOL    HW228398   0.360   3.842   6.272 -2.4383 -0.6683  2.6357
 5589SOL     OW28399   3.801   1.450   6.681 -0.0007  0.6724  0.1802
 5589SOL    HW128400   3.755   1.528   6.710 -0.9826  0.3394 -0.4678
 5589SOL    HW228401   3.829   1.403   6.759  0.2733 -1.4800 -1.1774
 5590SOL     OW28402   1.844   2.914   6.487  0.1859  0.0440  0.5864
 5590SOL    HW128403   1.902   2.838   6.495  1.4477  0.7303 -2.1025
 5590SOL    HW228404   1.897   2.977   6.536 -0.5661 -0.5957  2.2216
 5591SOL     OW28405   1.443   1.080   9.606 -0.1370 -0.0058  0.2739
 5591SOL    HW128406   1.405   1.148   9.550 -1.5016  0.3811  1.6653
 5591SOL    HW228407   1.369   1.022   9.626 -0.5839  0.1756 -0.8954
 5592SOL     OW28408   2.809   4.633   6.434  0.3456 -0.7417  0.3500
 5592SOL    HW128409   2.767   4.684   6.503 -0.0165 -0.7928  0.1683
 5592SOL    HW228410   2.737   4.569   6.435  0.1326 -0.5056 -0.0366
 5593SOL     OW28411   4.597   1.633  15.337  0.0902 -0.3909  0.1057
 5593SOL    HW128412   4.687   1.609  15.356  0.0579 -1.2505 -0.8057
 5593SOL    HW228413   4.549   1.552  15.357  0.6559 -0.9023 -0.6094
 5594SOL     OW28414   2.934   3.826  13.921  0.0690 -0.2251 -0.1058
 5594SOL    HW128415   3.023   3.857  13.936 -0.4959  1.5649 -0.4470
 5594SOL    HW228416   2.921   3.877  13.841 -0.9352 -0.5307 -0.1453
 5595SOL     OW28417   3.228   3.328   5.880 -0.2681  0.0624 -0.0194
 5595SOL    HW128418   3.220   3.364   5.792  0.8261  1.7300  0.5394
 5595SOL    HW228419   3.293   3.259   5.865 -0.5018 -0.6058  1.9747
 5596SOL     OW28420   1.160   1.968   3.277 -0.1805 -0.3373 -0.0025
 5596SOL    HW128421   1.110   1.891   3.303  0.1705 -0.7575 -0.5693
 5596SOL    HW228422   1.170   2.005   3.365  2.4992  0.9458 -0.8418
 5597SOL     OW28423   0.834   0.094   0.960 -0.3146  0.3772 -0.0155
 5597SOL    HW128424   0.921   0.116   0.993 -1.0442  0.6998  1.6770
 5597SOL    HW228425   0.853   0.045   0.880  0.6050 -0.0999  0.5025
 5598SOL     OW28426   0.194   4.520   4.321  0.0782 -0.3464  0.0513
 5598SOL    HW128427   0.171   4.498   4.231 -0.5031  1.6315 -0.2800
 5598SOL    HW228428   0.271   4.575   4.305  0.1433 -0.4914 -0.1343
 5599SOL     OW28429   3.305   2.468   8.779  0.1733 -0.4463  0.1647
 5599SOL    HW128430   3.348   2.545   8.743  0.0279  0.4530  1.9465
 5599SOL    HW228431   3.352   2.475   8.862 -2.7893  2.7681  1.5375
 5600SOL     OW28432   4.271   3.459   5.871  0.4395 -0.1297  0.0252
 5600SOL    HW128433   4.366   3.453   5.863  0.4883  0.2558  0.3532
 5600SOL    HW228434   4.271   3.553   5.889  0.4969 -0.3865  1.4072
 5601SOL     OW28435   1.158   2.966  15.418 -0.0247  0.2161 -0.3942
 5601SOL    HW128436   1.176   2.880  15.379  1.2196  0.3831 -0.1826
 5601SOL    HW228437   1.220   3.019  15.368 -0.3901  2.7204  1.8269
 5602SOL     OW28438   0.233   0.460   7.849 -0.2334 -0.2731 -0.4018
 5602SOL    HW128439   0.228   0.447   7.754  0.2065 -1.0896 -0.3083
 5602SOL    HW228440   0.162   0.523   7.864 -1.8164 -2.1962  0.1340
 5603SOL     OW28441   2.871   4.620   7.223 -0.4669  0.2525  0.2134
 5603SOL    HW128442   2.879   4.707   7.262 -0.5847 -0.3383  1.5437
 5603SOL    HW228443   2.784   4.611   7.184 -0.4919 -0.0860  0.3481
 5604SOL     OW28444   1.430   2.416  14.970 -0.0534  0.0651  0.6757
 5604SOL    HW128445   1.514   2.379  14.996  0.5758  1.8910  1.2517
 5604SOL    HW228446   1.448   2.504  15.002  1.1552  0.6514 -1.5469
 5605SOL     OW28447   0.436   0.823  11.555 -0.1306  0.2602 -0.1977
 5605SOL    HW128448   0.480   0.851  11.635 -1.8292 -3.4854  2.0878
 5605SOL    HW228449   0.496   0.756  11.524  1.0310  1.5129 -0.6463
 5606SOL     OW28450   0.676   2.218  16.718 -0.5413 -0.5206  0.4101
 5606SOL    HW128451   0.630   2.135  16.702 -0.9982 -0.0307 -0.7444
 5606SOL    HW228452   0.599   2.258  16.759 -0.8337 -0.0958 -0.5709
 5607SOL     OW28453   1.352   3.702  17.356  0.2050  0.0989 -0.2469
 5607SOL    HW128454   1.297   3.702  17.278  1.3067  0.1147 -1.0221
 5607SOL    HW228455   1.431   3.660  17.321  0.6404  1.3843 -0.7876
 5608SOL     OW28456   2.674   1.760  14.843 -0.1062 -0.0248  0.2104
 5608SOL    HW128457   2.728   1.807  14.779  0.0605 -0.7757 -0.1975
 5608SOL    HW228458   2.649   1.685  14.788 -1.2370  0.6948 -0.2706
 5609SOL     OW28459   4.187   1.412   9.392 -0.3283  0.3644  0.0348
 5609SOL    HW128460   4.096   1.419   9.364  0.2747  0.5052 -1.8715
 5609SOL    HW228461   4.226   1.443   9.311 -2.8115 -1.2615 -1.8139
 5610SOL     OW28462   1.475   0.488   7.833 -0.1523 -0.1664  0.6415
 5610SOL    HW128463   1.436   0.522   7.914  0.9525  1.6277  0.4241
 5610SOL    HW228464   1.494   0.570   7.787 -0.0738 -0.3077  0.4238
 5611SOL     OW28465   2.939   4.261  17.396  0.2823 -0.7480 -0.0972
 5611SOL    HW128466   2.861   4.297  17.438 -0.2373 -2.8279  0.7211
 5611SOL    HW228467   2.919   4.299  17.310 -2.6205  1.5789  1.6355
 5612SOL     OW28468   2.807   0.121   6.622  0.4017 -0.0681  0.8095
 5612SOL    HW128469   2.713   0.133   6.618  0.1483 -2.5327 -0.4088
 5612SOL    HW228470   2.833   0.198   6.673 -0.8821  0.7876  0.1370
 5613SOL     OW28471   3.889   3.894  12.192 -0.5513  0.3460  0.1995
 5613SOL    HW128472   3.981   3.888  12.164 -0.8755 -1.5653 -0.4999
 5613SOL    HW228473   3.873   3.805  12.223  1.5745  0.2257  0.9738
 5614SOL     OW28474   4.075   3.266   2.030  0.0034  0.5055 -0.2715
 5614SOL    HW128475   4.068   3.201   1.961 -0.2595  0.2493 -0.0040
 5614SOL    HW228476   4.068   3.347   1.980 -2.0961  1.4163  1.4803
 5615SOL     OW28477   4.717   0.970  10.199 -0.3103  0.3891  0.1576
 5615SOL    HW128478   4.646   0.939  10.255 -3.3668  0.0156 -3.9284
 5615SOL    HW228479   4.692   0.927  10.118 -0.8747  2.1223 -0.5749
 5616SOL     OW28480   1.857   4.357   5.091 -0.1459  0.2939  0.2612
 5616SOL    HW128481   1.914   4.351   5.014  0.5708 -1.7601  0.9660
 5616SOL    HW228482   1.774   4.394   5.061  0.6771 -1.3671 -4.0897
 5617SOL     OW28483   4.422   4.676  12.579 -0.6358 -0.4029 -0.1312
 5617SOL    HW128484   4.353   4.731  12.542 -0.5976 -1.1205 -1.2571
 5617SOL    HW228485   4.497   4.702  12.526 -0.7978  0.0949 -0.1181
 5618SOL     OW28486   1.831   1.490  15.268  0.0965  0.2749 -0.1832
 5618SOL    HW128487   1.813   1.518  15.178 -0.4135 -0.2457 -0.2454
 5618SOL    HW228488   1.765   1.420  15.269 -1.1197  1.4586  1.4814
 5619SOL     OW28489   4.302   2.841  13.621 -0.3983 -0.4416  0.4027
 5619SOL    HW128490   4.361   2.914  13.641 -2.4641  1.0106  1.1235
 5619SOL    HW228491   4.216   2.882  13.623 -0.5129 -0.7131  1.0576
 5620SOL     OW28492   1.087   1.042  13.072 -0.1813  0.8075  0.3367
 5620SOL    HW128493   1.149   0.991  13.124  1.2935  0.0025 -2.2088
 5620SOL    HW228494   1.035   1.088  13.138 -1.8534 -2.8257  1.5209
 5621SOL     OW28495   2.836   2.556   8.637  0.3321  0.3487  0.0914
 5621SOL    HW128496   2.893   2.631   8.655  0.2880  0.0653  1.4004
 5621SOL    HW228497   2.888   2.477   8.656  0.3651 -0.1775 -2.1927
 5622SOL     OW28498   3.443   4.650   2.678 -0.6360  0.5574  0.5670
 5622SOL    HW128499   3.521   4.616   2.635 -0.1378  1.5060  0.7025
 5622SOL    HW228500   3.385   4.676   2.607  0.5395  1.0400 -0.2211
 5623SOL     OW28501   3.700   0.029   7.807  0.1662 -0.4463  0.2949
 5623SOL    HW128502   3.683   4.677   7.840 -3.5481  0.0481 -0.3608
 5623SOL    HW228503   3.730   0.070   7.889  2.4383 -1.3855 -0.0536
 5624SOL     OW28504   0.188   2.346   2.797 -0.1477  0.1980  0.1334
 5624SOL    HW128505   0.182   2.409   2.725 -1.1279 -0.1518 -0.0954
 5624SOL    HW228506   0.253   2.288   2.759  1.5023  1.2403  1.3235
 5625SOL     OW28507   2.724   3.318   1.564 -0.5469  0.3742 -0.2864
 5625SOL    HW128508   2.787   3.377   1.606 -0.3181  0.5297 -0.8455
 5625SOL    HW228509   2.756   3.322   1.474  0.0367 -2.8637 -0.2218
 5626SOL     OW28510   0.772   2.644   3.355  0.3596  0.0902  0.1862
 5626SOL    HW128511   0.793   2.584   3.427  0.9229  2.3838  1.9660
 5626SOL    HW228512   0.738   2.580   3.293  0.8673 -2.0255  2.0727
 5627SOL     OW28513   2.945   0.349   2.677 -0.4245 -0.1428 -0.1236
 5627SOL    HW128514   2.914   0.258   2.681 -0.9055  0.0794  1.1867
 5627SOL    HW228515   3.031   0.333   2.716 -1.2364  0.2659  1.8327
 5628SOL     OW28516   4.184   0.145   1.746 -0.1270  0.1464 -0.2463
 5628SOL    HW128517   4.251   0.212   1.737  1.4884 -1.3140  0.6686
 5628SOL    HW228518   4.115   0.196   1.787 -0.5190  0.5657 -1.4489
 5629SOL     OW28519   4.169   3.114   2.915 -0.4513 -0.4051 -0.5415
 5629SOL    HW128520   4.167   3.047   2.846 -1.0630  0.7519 -1.6556
 5629SOL    HW228521   4.085   3.154   2.896 -1.4374 -1.5632  1.3520
 5630SOL     OW28522   4.028   2.386   7.918 -0.4433 -0.2755  0.2821
 5630SOL    HW128523   4.099   2.369   7.855 -0.2519 -0.0327  0.4310
 5630SOL    HW228524   3.961   2.323   7.893  0.0970 -1.1686  1.0647
 5631SOL     OW28525   3.612   0.554   5.330  0.0394  0.1728 -0.0806
 5631SOL    HW128526   3.675   0.493   5.292 -0.1824  0.0170 -0.2027
 5631SOL    HW228527   3.527   0.512   5.317  0.3515 -0.1301 -1.1653
 5632SOL     OW28528   0.178   1.008   4.740  0.8245  0.3360  0.7898
 5632SOL    HW128529   0.197   1.073   4.808 -1.1936  1.0358  0.6970
 5632SOL    HW228530   0.262   1.024   4.698  0.6848 -0.4544  0.2196
 5633SOL     OW28531   2.412   4.540   6.240 -0.6509 -0.5584  0.0046
 5633SOL    HW128532   2.347   4.566   6.305 -0.6115 -0.7806  0.1323
 5633SOL    HW228533   2.484   4.517   6.299 -0.0961 -1.5060 -1.0227
 5634SOL     OW28534   1.100   1.508   9.427  0.0813  0.1283 -0.1678
 5634SOL    HW128535   1.157   1.578   9.460 -1.7378  1.0926  0.9818
 5634SOL    HW228536   1.040   1.559   9.372 -0.7536  1.3625  1.8624
 5635SOL     OW28537   0.207   3.823   3.145 -0.4478 -0.2266 -0.3239
 5635SOL    HW128538   0.246   3.858   3.065 -0.1812  1.0299  0.3618
 5635SOL    HW228539   0.127   3.783   3.110 -0.6478  1.3157 -1.6601
 5636SOL     OW28540   4.097   0.335   7.798  0.2352  0.4842 -0.2402
 5636SOL    HW128541   4.105   0.285   7.880  0.9740  0.0675 -0.5644
 5636SOL    HW228542   4.174   0.298   7.756 -0.2927  1.1372 -1.7510
 5637SOL     OW28543   0.287   4.718   9.383  0.0704  0.0311 -0.0158
 5637SOL    HW128544   0.266   4.670   9.302 -1.8274 -1.8097  1.5806
 5637SOL    HW228545   0.265   0.074   9.370  1.9435  0.4770 -0.0665
 5638SOL     OW28546   1.171   3.474  14.784 -0.6549  0.0545  0.2583
 5638SOL    HW128547   1.165   3.560  14.744 -0.8158  0.6137  1.4782
 5638SOL    HW228548   1.232   3.441  14.717  0.8722  2.8268  0.2742
 5639SOL     OW28549   1.947   1.412   6.339  0.2799 -0.0744 -0.7019
 5639SOL    HW128550   2.039   1.438   6.333  0.2754 -0.2475 -1.4670
 5639SOL    HW228551   1.923   1.492   6.291 -0.8131 -0.5027 -0.8637
 5640SOL     OW28552   3.972   2.237  10.368  0.3080 -0.4277  0.4220
 5640SOL    HW128553   3.945   2.311  10.315  2.0502  0.3284  0.5882
 5640SOL    HW228554   3.922   2.171  10.320 -0.1382  0.4687 -0.3485
 5641SOL     OW28555   4.173   3.947   8.287 -0.5201 -0.7309 -0.0151
 5641SOL    HW128556   4.078   3.957   8.295 -0.6445 -2.1742  0.3861
 5641SOL    HW228557   4.189   3.855   8.308  1.0097 -0.3651  0.4264
 5642SOL     OW28558   0.245   3.749  16.538  0.3901  0.1187  0.2795
 5642SOL    HW128559   0.297   3.799  16.601 -0.3575  1.7191 -0.3716
 5642SOL    HW228560   0.188   3.697  16.595  1.5641 -1.4709 -0.0086
 5643SOL     OW28561   1.191   1.611  15.954 -0.2599 -0.4453  0.3764
 5643SOL    HW128562   1.181   1.629  16.048 -2.2606  0.5689 -0.0313
 5643SOL    HW228563   1.250   1.681  15.929 -1.8316  0.4549 -0.7853
 5644SOL     OW28564   3.510   1.238   6.179  0.1571  0.0706  0.4011
 5644SOL    HW128565   3.545   1.159   6.220  2.3282  0.4913 -0.6825
 5644SOL    HW228566   3.584   1.279   6.136 -1.4188  0.6517 -1.7491
 5645SOL     OW28567   0.043   3.738   4.081 -0.0148 -0.8391 -0.7092
 5645SOL    HW128568   0.100   3.760   4.155 -1.5239  0.0417  0.1820
 5645SOL    HW228569   0.065   3.645   4.073  2.2880 -0.2011 -1.6022
 5646SOL     OW28570   1.424   1.073   2.540  0.4374  0.3567  0.5983
 5646SOL    HW128571   1.423   1.160   2.579 -1.3881  0.1561  1.0229
 5646SOL    HW228572   1.505   1.072   2.490  0.1268 -1.2452  0.1166
 5647SOL     OW28573   1.838   2.407   3.451 -0.3212  0.1571 -0.2090
 5647SOL    HW128574   1.813   2.343   3.383 -1.6590  1.4550 -0.9133
 5647SOL    HW228575   1.761   2.463   3.454 -1.0758 -0.7978 -1.4382
 5648SOL     OW28576   3.128   4.076   0.531 -0.0855  0.6448  0.0674
 5648SOL    HW128577   3.096   4.119   0.452  2.6057  1.6549 -0.4641
 5648SOL    HW228578   3.121   4.146   0.595 -0.0882  1.0507 -0.3722
 5649SOL     OW28579   4.359   4.114  13.403  0.1915 -0.1051  0.9363
 5649SOL    HW128580   4.287   4.070  13.358  0.9903  0.3022 -0.7587
 5649SOL    HW228581   4.420   4.111  13.329 -1.5895 -1.0450 -0.4970
 5650SOL     OW28582   0.943   1.634   5.340 -0.2427  0.1129  0.5893
 5650SOL    HW128583   0.956   1.573   5.412 -1.4569 -0.9167 -0.0567
 5650SOL    HW228584   1.031   1.641   5.304 -1.5979  1.9697 -2.3671
 5651SOL     OW28585   4.115   2.870   8.242  0.0730 -0.1442 -0.0493
 5651SOL    HW128586   4.110   2.947   8.298 -1.1412 -0.3278  0.0914
 5651SOL    HW228587   4.023   2.848   8.233 -0.1436  0.1584  1.5231
 5652SOL     OW28588   2.135   0.918   4.718  0.2623  0.1387 -0.1839
 5652SOL    HW128589   2.055   0.885   4.677 -0.0099  0.0407  0.4283
 5652SOL    HW228590   2.099   0.923   4.807 -0.2650  1.4530 -0.4654
 5653SOL     OW28591   2.207   3.889   1.996 -0.1015  0.2631  0.2076
 5653SOL    HW128592   2.266   3.824   2.035  0.2774 -0.3527 -1.4263
 5653SOL    HW228593   2.165   3.919   2.077 -0.7156 -0.0224 -0.0065
 5654SOL     OW28594   3.060   3.943   8.275  0.2528 -0.3096 -0.1321
 5654SOL    HW128595   3.108   3.915   8.353  1.5526  2.3630  0.0582
 5654SOL    HW228596   3.066   3.861   8.227 -1.0929 -0.2526 -0.3920
 5655SOL     OW28597   2.503   0.555   6.864  0.1643 -0.2915  0.2321
 5655SOL    HW128598   2.432   0.491   6.866 -0.0716 -0.0044  0.9183
 5655SOL    HW228599   2.522   0.555   6.770 -3.3350  0.6754 -0.4718
 5656SOL     OW28600   3.131   3.337   7.495 -0.2502  0.8689 -0.2452
 5656SOL    HW128601   3.217   3.358   7.534  0.0281 -1.1860  0.2247
 5656SOL    HW228602   3.084   3.299   7.569  2.3768 -1.3316  0.2867
 5657SOL     OW28603   2.480   2.333   3.615 -0.7457 -0.6616 -1.0642
 5657SOL    HW128604   2.419   2.391   3.569 -1.2651  0.2548  0.8090
 5657SOL    HW228605   2.559   2.384   3.602 -0.6645 -0.4498  0.3244
 5658SOL     OW28606   2.494   4.240  12.016 -0.2303  0.0463  0.4513
 5658SOL    HW128607   2.433   4.292  12.068 -0.8960  0.8118 -1.0836
 5658SOL    HW228608   2.457   4.231  11.928  1.4292  0.2337 -0.2684
 5659SOL     OW28609   0.443   0.707   8.607  0.6165  0.2961  0.0082
 5659SOL    HW128610   0.394   0.788   8.589  0.7809  0.1624 -1.0520
 5659SOL    HW228611   0.518   0.742   8.655  1.2156 -0.1219 -0.6199
 5660SOL     OW28612   1.098   2.687  10.579 -0.7720 -0.1713  0.3567
 5660SOL    HW128613   1.139   2.770  10.599  0.8004 -1.1364  1.0785
 5660SOL    HW228614   1.134   2.639  10.654  2.0718  2.0959  0.4082
 5661SOL     OW28615   2.343   0.683   5.741 -0.1499  0.0658 -0.1904
 5661SOL    HW128616   2.322   0.741   5.668  2.0772  0.3236 -0.6216
 5661SOL    HW228617   2.275   0.617   5.731 -1.9934  2.1682 -1.4750
 5662SOL     OW28618   2.795   4.042   1.581  0.1249 -0.0371 -0.3053
 5662SOL    HW128619   2.772   3.950   1.591 -1.4670  0.0171 -3.4948
 5662SOL    HW228620   2.802   4.048   1.486  2.0115  0.0727 -0.1520
 5663SOL     OW28621   0.131   4.633   9.164 -0.4664  0.3405 -0.0862
 5663SOL    HW128622   0.221   4.625   9.134 -0.9085  0.0679 -1.3108
 5663SOL    HW228623   0.086   4.575   9.103 -1.1981 -0.1421  0.9043
 5664SOL     OW28624   3.641   2.411   2.028 -0.1938  0.3419  1.0255
 5664SOL    HW128625   3.587   2.361   2.088 -0.9591  3.5853  3.0370
 5664SOL    HW228626   3.726   2.366   2.025  0.3231  1.3986 -0.4177
 5665SOL     OW28627   3.142   2.678  15.360  0.0532  0.1164  0.0091
 5665SOL    HW128628   3.165   2.597  15.315 -1.8628 -0.7919  0.6409
 5665SOL    HW228629   3.047   2.674  15.374 -0.0064 -0.8339 -0.6425
 5666SOL     OW28630   0.694   0.161  11.377 -0.0181 -0.1741 -0.1580
 5666SOL    HW128631   0.756   0.118  11.436  1.1904  0.7353 -0.7838
 5666SOL    HW228632   0.711   0.096  11.309  3.1164 -0.0065  0.4859
 5667SOL     OW28633   0.856   2.330  12.904 -0.0450 -0.0684 -0.5447
 5667SOL    HW128634   0.818   2.327  12.816 -0.5676 -1.7959 -0.2706
 5667SOL    HW228635   0.852   2.237  12.928  1.9801 -0.5920 -2.1668
 5668SOL     OW28636   3.757   2.556   5.884 -0.2794  0.1186 -0.5145
 5668SOL    HW128637   3.804   2.474   5.900 -0.1958  0.1157 -0.7666
 5668SOL    HW228638   3.681   2.558   5.941  0.7660  0.6211  0.8683
 5669SOL     OW28639   3.714   1.929   6.704  0.5963 -0.6455  0.1465
 5669SOL    HW128640   3.704   1.839   6.735 -0.8059 -1.0998 -1.6202
 5669SOL    HW228641   3.784   1.925   6.639  0.5261  1.0480 -0.0309
 5670SOL     OW28642   3.812   0.986   8.539 -0.6128 -0.1816 -0.2213
 5670SOL    HW128643   3.761   0.995   8.619  0.3460  0.5651  0.3006
 5670SOL    HW228644   3.897   0.978   8.581 -1.3605  1.4335  1.6086
 5671SOL     OW28645   4.139   2.013   2.104 -0.6166 -0.0698 -0.2317
 5671SOL    HW128646   4.108   2.066   2.031 -1.5501 -0.1608  0.0973
 5671SOL    HW228647   4.076   1.940   2.099 -0.7435  0.0065  0.2568
 5672SOL     OW28648   2.392   3.061   3.865 -0.7498  0.2147 -0.3444
 5672SOL    HW128649   2.481   3.028   3.873 -0.5396  0.5382 -1.4481
 5672SOL    HW228650   2.346   3.007   3.929 -0.8563  0.7033 -0.0048
 5673SOL     OW28651   3.669   0.867  12.307 -0.7406 -0.6135 -0.1950
 5673SOL    HW128652   3.670   0.962  12.306  3.4456 -0.6239  1.3650
 5673SOL    HW228653   3.657   0.846  12.400  0.3601 -1.6484 -0.2886
 5674SOL     OW28654   2.578   3.697   9.988  0.0120 -0.2420 -0.1410
 5674SOL    HW128655   2.575   3.664  10.078  0.1926 -2.1229 -0.8123
 5674SOL    HW228656   2.504   3.757   9.991  0.2423  0.0042  0.4560
 5675SOL     OW28657   0.725   4.278   3.929  0.3183  0.0767 -0.4577
 5675SOL    HW128658   0.691   4.328   4.004  2.9487 -1.0903  1.4887
 5675SOL    HW228659   0.678   4.324   3.859 -1.1841  1.5759  1.4966
 5676SOL     OW28660   4.335   0.407   8.749  1.2046 -0.1437 -0.4736
 5676SOL    HW128661   4.289   0.383   8.669  0.1597 -0.7754  0.3258
 5676SOL    HW228662   4.263   0.397   8.811 -0.1237  1.6917 -1.7205
 5677SOL     OW28663   4.338   1.971   5.531 -0.0005 -0.4029  0.3227
 5677SOL    HW128664   4.397   2.043   5.553 -0.5345  0.2982 -0.5049
 5677SOL    HW228665   4.369   1.896   5.580  2.4410  0.0632 -0.5112
 5678SOL     OW28666   3.572   0.879   3.263  0.5083 -0.2069 -0.6956
 5678SOL    HW128667   3.642   0.904   3.203  2.3523 -2.3958  0.5728
 5678SOL    HW228668   3.515   0.816   3.219  0.8715 -0.0252 -1.4326
 5679SOL     OW28669   3.667   2.763   4.202 -0.3247  0.7577  0.4343
 5679SOL    HW128670   3.747   2.783   4.153 -0.3374  0.7715  0.4190
 5679SOL    HW228671   3.605   2.710   4.152  0.0343  0.3839  0.3823
 5680SOL     OW28672   0.077   1.566   2.528 -0.0886 -0.0305 -0.0942
 5680SOL    HW128673   0.030   1.618   2.462 -1.0570 -2.1685 -1.1060
 5680SOL    HW228674   0.009   1.546   2.592 -0.8634  1.7771 -0.3534
 5681SOL     OW28675   1.159   3.619   7.387  0.0806  0.3333  0.0676
 5681SOL    HW128676   1.138   3.686   7.452  1.5607  0.3984  0.4925
 5681SOL    HW228677   1.243   3.586   7.421 -0.4319 -2.6628 -1.6137
 5682SOL     OW28678   3.705   2.167  15.808  0.1119  0.5144  0.0381
 5682SOL    HW128679   3.723   2.187  15.716 -0.4955 -1.6813 -0.5600
 5682SOL    HW228680   3.745   2.246  15.844  1.6740 -0.3817  0.2827
 5683SOL     OW28681   1.599   1.114   8.406 -0.8371  0.1329  0.0214
 5683SOL    HW128682   1.586   1.154   8.492  1.0453  0.4459  0.1640
 5683SOL    HW228683   1.509   1.132   8.381 -0.0845  1.9885 -1.3900
 5684SOL     OW28684   1.340   3.940  13.760 -0.0456 -0.2784 -0.2970
 5684SOL    HW128685   1.341   4.034  13.742 -0.0792 -0.2568 -0.1872
 5684SOL    HW228686   1.269   3.939  13.824  0.7174 -1.2234  0.5452
 5685SOL     OW28687   4.716   3.969   6.723 -0.0392  0.3275 -0.4297
 5685SOL    HW128688   4.630   3.927   6.732  0.0027  0.4002  0.3051
 5685SOL    HW228689   0.027   3.886   6.734  0.8637  1.1520  2.1148
 5686SOL     OW28690   1.165   0.509   1.659 -0.1727  0.1381  0.5473
 5686SOL    HW128691   1.159   0.459   1.577 -0.2730  0.5093  0.3269
 5686SOL    HW228692   1.132   0.597   1.644  3.8010  1.7865  1.7115
 5687SOL     OW28693   3.359   0.536   8.297  0.0089 -0.2716 -0.2708
 5687SOL    HW128694   3.410   0.455   8.303 -0.5669 -0.5383  0.9765
 5687SOL    HW228695   3.353   0.566   8.388  2.3630  0.4404 -0.3400
 5688SOL     OW28696   3.444   4.657   3.406  0.0441  0.8908 -0.2162
 5688SOL    HW128697   3.361   4.610   3.412  2.3283 -2.7172  3.3277
 5688SOL    HW228698   3.486   4.595   3.346 -0.0962 -0.4417  1.0796
 5689SOL     OW28699   0.809   4.377   4.576 -0.6325 -0.0918  0.1150
 5689SOL    HW128700   0.761   4.354   4.656 -0.2132  0.2725  0.4703
 5689SOL    HW228701   0.743   4.439   4.544 -0.7465 -1.1756 -1.7486
 5690SOL     OW28702   2.687   1.435   6.868  0.1040 -0.1992  0.8415
 5690SOL    HW128703   2.692   1.531   6.874  1.3297 -0.1796 -0.5168
 5690SOL    HW228704   2.738   1.399   6.941 -0.8781  0.1774  1.7163
 5691SOL     OW28705   0.139   3.487   1.388 -0.6101 -0.1093  0.0910
 5691SOL    HW128706   0.209   3.526   1.439  0.0265 -0.7459 -0.3012
 5691SOL    HW228707   0.175   3.511   1.303  2.4976 -2.4700  0.7566
 5692SOL     OW28708   3.387   4.282  10.043 -0.1108 -0.1968  0.4667
 5692SOL    HW128709   3.352   4.323  10.122 -0.5416  0.0095  0.1655
 5692SOL    HW228710   3.432   4.345   9.987  0.4986 -0.7832  0.2959
 5693SOL     OW28711   2.692   2.628   6.405  0.2320 -0.5943 -0.1287
 5693SOL    HW128712   2.617   2.615   6.463  1.0368  0.0739  1.0592
 5693SOL    HW228713   2.694   2.557   6.341 -0.0421 -0.5158 -0.2207
 5694SOL     OW28714   1.446   0.270   9.611 -0.0091  0.3845  0.4161
 5694SOL    HW128715   1.516   0.318   9.567 -1.2870  1.1570 -0.7961
 5694SOL    HW228716   1.461   0.281   9.705 -0.0975 -2.1329  0.7420
 5695SOL     OW28717   4.468   0.948  10.614 -0.2118  0.2276 -0.6463
 5695SOL    HW128718   4.547   0.897  10.632 -0.8163 -0.1816  0.9152
 5695SOL    HW228719   4.464   0.992  10.699 -1.6414  1.4902 -1.3759
 5696SOL     OW28720   4.234   0.761   7.078 -0.1509 -0.4156 -0.1675
 5696SOL    HW128721   4.263   0.691   7.137 -0.3060  0.3145  0.7640
 5696SOL    HW228722   4.278   0.837   7.115 -0.9098  0.4530 -1.0740
 5697SOL     OW28723   2.208   4.138  17.385  0.0906 -0.5230  0.6115
 5697SOL    HW128724   2.233   4.133  17.478 -0.4362  0.6552  0.8067
 5697SOL    HW228725   2.257   4.063  17.351  2.1970  0.7197  0.8983
 5698SOL     OW28726   1.383   0.831  17.213 -0.3079  0.0469 -0.0253
 5698SOL    HW128727   1.295   0.860  17.189  0.7172  0.2315 -3.4987
 5698SOL    HW228728   1.411   0.920  17.235 -0.4137  0.4358 -1.4459
 5699SOL     OW28729   0.252   4.602   2.348 -0.6546  0.2284  0.8176
 5699SOL    HW128730   0.303   4.532   2.308  0.2940  1.6003 -0.4007
 5699SOL    HW228731   0.179   4.548   2.378 -0.8731 -0.0635 -0.2091
 5700SOL     OW28732   4.606   2.719   4.424 -0.6214 -0.9490  0.0556
 5700SOL    HW128733   4.551   2.787   4.464 -0.2984 -0.2769 -0.6376
 5700SOL    HW228734   4.685   2.727   4.477  0.8640 -1.2914 -2.1323
 5701SOL     OW28735   4.515   0.587   4.823 -0.2562 -0.3362  0.3280
 5701SOL    HW128736   4.538   0.587   4.916 -1.4179 -0.0394  0.6149
 5701SOL    HW228737   4.514   0.682   4.809 -0.4816 -0.3631  0.1633
 5702SOL     OW28738   3.780   4.279   7.786  0.0168 -0.0711 -0.2264
 5702SOL    HW128739   3.753   4.235   7.706 -0.7581 -0.2916  0.1623
 5702SOL    HW228740   3.805   4.207   7.843  2.0762  1.1009  0.3708
 5703SOL     OW28741   3.702   1.708   2.826 -0.4505 -0.6617  0.0456
 5703SOL    HW128742   3.645   1.635   2.852  1.1660 -2.0267 -0.2853
 5703SOL    HW228743   3.790   1.682   2.851 -0.8019  0.4378  2.4015
 5704SOL     OW28744   0.012   1.767   8.688  0.0408  0.3063  0.1139
 5704SOL    HW128745   0.087   1.756   8.747  0.1924  1.6582  0.1672
 5704SOL    HW228746   0.065   1.772   8.608  0.4071 -1.0961  0.2736
 5705SOL     OW28747   1.587   4.405   0.888 -0.2140  0.4236 -0.0737
 5705SOL    HW128748   1.639   4.324   0.887 -0.6358  0.1471  0.5336
 5705SOL    HW228749   1.618   4.448   0.808 -0.0391 -0.7169 -0.6222
 5706SOL     OW28750   1.306   0.953   1.450  0.1181 -0.6163  0.2694
 5706SOL    HW128751   1.330   0.939   1.358  1.7026  2.4467  0.2184
 5706SOL    HW228752   1.277   1.044   1.450 -0.2315 -0.7447  2.6295
 5707SOL     OW28753   3.491   1.712   7.424 -0.1394 -0.2184 -0.0131
 5707SOL    HW128754   3.570   1.658   7.427  0.2199  0.3582  0.8923
 5707SOL    HW228755   3.447   1.653   7.485  1.9335 -1.7705 -0.0072
 5708SOL     OW28756   3.086   2.586   6.474 -0.5721  0.4461 -0.1666
 5708SOL    HW128757   3.024   2.642   6.426 -2.2308  0.2834  1.7847
 5708SOL    HW228758   3.143   2.557   6.403  1.6345  1.9710  1.0036
 5709SOL     OW28759   1.927   0.902   7.752  0.2268  0.4050 -0.5786
 5709SOL    HW128760   1.928   0.806   7.752 -2.4761  0.3828  0.2491
 5709SOL    HW228761   1.946   0.924   7.843  0.4637 -0.7595 -0.3426
 5710SOL     OW28762   3.557   4.679   7.602 -0.2680 -0.3481  0.2975
 5710SOL    HW128763   3.610   4.725   7.537  3.8122 -0.2371  3.7305
 5710SOL    HW228764   3.603   4.710   7.679 -2.1555 -0.5640  1.5151
 5711SOL     OW28765   4.642   1.481  12.058 -0.0300  0.1816 -0.1597
 5711SOL    HW128766   4.709   1.413  12.063 -0.4115 -0.3021 -1.5599
 5711SOL    HW228767   4.666   1.511  11.970  1.5365 -1.4838 -0.2907
 5712SOL     OW28768   3.811   3.611  11.941  0.1996  0.4893 -0.4870
 5712SOL    HW128769   3.785   3.591  12.031 -1.3542  1.1213 -0.7970
 5712SOL    HW228770   3.759   3.551  11.887  0.6183 -0.2299 -0.1066
 5713SOL     OW28771   0.807   3.460  16.762 -0.0031  0.5463  0.1324
 5713SOL    HW128772   0.832   3.377  16.720 -0.2538  0.2064  0.6582
 5713SOL    HW228773   0.731   3.486  16.711  0.7108  0.6553 -0.8759
 5714SOL     OW28774   0.917   2.847  10.070 -0.1054  0.3465 -0.0447
 5714SOL    HW128775   0.904   2.876   9.979  0.2800  1.3499  0.2115
 5714SOL    HW228776   0.950   2.758  10.058 -0.8696  0.4155 -2.8231
 5715SOL     OW28777   3.906   0.593  13.517  0.2203 -0.1042 -0.7446
 5715SOL    HW128778   3.861   0.677  13.506 -0.0870 -0.1981 -0.1577
 5715SOL    HW228779   3.991   0.631  13.497  2.1709 -3.3395  1.4476
 5716SOL     OW28780   1.915   2.466  10.071  0.1792  0.4387 -0.0708
 5716SOL    HW128781   1.900   2.501   9.983  0.6384  1.3760  0.2211
 5716SOL    HW228782   1.949   2.537  10.125  0.5005 -1.0595  1.6991
 5717SOL     OW28783   0.112   4.214   1.807 -0.2381 -0.3072 -0.3414
 5717SOL    HW128784   0.153   4.225   1.721 -1.2276  2.0997 -0.5134
 5717SOL    HW228785   0.114   4.305   1.837  1.5209  0.0499 -1.5388
 5718SOL     OW28786   2.065   1.219   9.033 -0.0145  0.2074 -0.4415
 5718SOL    HW128787   2.037   1.150   9.093  0.5837 -0.0312 -0.4422
 5718SOL    HW228788   1.980   1.263   9.035  0.1113  0.2631  3.2337
 5719SOL     OW28789   4.545   0.667   8.634  0.2762 -0.2550 -0.2130
 5719SOL    HW128790   4.483   0.661   8.707 -1.8721  2.3519 -1.8189
 5719SOL    HW228791   4.628   0.685   8.678 -0.1518  0.2541  0.4007
 5720SOL     OW28792   2.523   1.368   7.443 -0.1194 -0.1309  0.3614
 5720SOL    HW128793   2.567   1.285   7.424  2.1761  0.9513  0.9195
 5720SOL    HW228794   2.444   1.327   7.478 -0.9458  0.6364 -0.5859
 5721SOL     OW28795   2.198   2.776   5.173  0.4750 -0.2734  0.0210
 5721SOL    HW128796   2.226   2.863   5.144 -3.4103  1.2476  0.8561
 5721SOL    HW228797   2.106   2.798   5.184  0.4506 -0.2739 -0.1962
 5722SOL     OW28798   3.621   2.690   2.149  0.1299  0.4460 -0.1192
 5722SOL    HW128799   3.594   2.644   2.229  0.0760  0.2184 -0.2664
 5722SOL    HW228800   3.623   2.615   2.090  1.1351  1.2080 -1.0466
 5723SOL     OW28801   4.050   2.672   2.471  0.3027 -0.5343 -0.1314
 5723SOL    HW128802   4.022   2.605   2.534 -0.0067 -0.5938 -0.3340
 5723SOL    HW228803   3.981   2.735   2.492 -0.0653 -0.5284 -1.3885
 5724SOL     OW28804   2.813   0.757   9.176  0.6743  0.2337  0.0187
 5724SOL    HW128805   2.735   0.712   9.143  0.2509  0.5583  0.5877
 5724SOL    HW228806   2.887   0.748   9.116 -0.5234 -0.8757 -1.2890
 5725SOL     OW28807   3.683   3.694   9.284 -0.4000 -0.3739 -0.0535
 5725SOL    HW128808   3.630   3.617   9.304 -0.1385 -0.9577 -1.5833
 5725SOL    HW228809   3.659   3.744   9.362  2.1858  0.5329  0.1606
 5726SOL     OW28810   1.965   3.512   3.965  0.0060  0.3791  0.6854
 5726SOL    HW128811   2.035   3.447   3.960  0.9311  1.1527  3.3753
 5726SOL    HW228812   1.966   3.558   3.880 -3.4577 -1.1241 -0.1580
 5727SOL     OW28813   0.407   1.537   3.338  0.2342 -0.2856 -0.1841
 5727SOL    HW128814   0.377   1.627   3.326 -2.3237 -0.8843  1.8508
 5727SOL    HW228815   0.482   1.530   3.279  0.9475 -1.4253  0.8601
 5728SOL     OW28816   0.743   1.040   1.772  0.2670  0.2828 -0.0398
 5728SOL    HW128817   0.649   1.039   1.753  0.7151  0.5806 -2.2588
 5728SOL    HW228818   0.750   0.973   1.839 -1.7269 -0.0371 -0.1549
 5729SOL     OW28819   3.872   1.550  14.749  0.2031  0.1946 -0.7454
 5729SOL    HW128820   3.812   1.505  14.810  0.5363 -0.8709 -1.2107
 5729SOL    HW228821   3.836   1.639  14.744  0.2766  0.2608 -0.0939
 5730SOL     OW28822   0.306   1.416   9.582  0.3831  0.3325 -0.0485
 5730SOL    HW128823   0.212   1.403   9.569  0.1814  0.0367  1.6915
 5730SOL    HW228824   0.337   1.353   9.518 -1.7413 -1.0065  0.2540
 5731SOL     OW28825   0.596   2.696  15.648 -0.4020  0.1061  0.3281
 5731SOL    HW128826   0.581   2.777  15.599  1.1445 -0.5837 -1.3110
 5731SOL    HW228827   0.692   2.701  15.649 -0.3825  0.0903 -1.6769
 5732SOL     OW28828   1.874   1.351   6.845  0.0859  0.0614  0.4447
 5732SOL    HW128829   1.896   1.414   6.913  2.5662  0.6115 -0.8523
 5732SOL    HW228830   1.916   1.392   6.769 -2.6803  0.0637 -1.0751
 5733SOL     OW28831   0.594   4.518   8.045 -0.2812  0.2011 -0.1457
 5733SOL    HW128832   0.543   4.590   8.082 -0.3499  0.6743 -1.1455
 5733SOL    HW228833   0.666   4.571   8.012 -1.7144  1.9839 -0.4585
 5734SOL     OW28834   3.506   2.840   7.446  0.8539 -0.2320 -0.0989
 5734SOL    HW128835   3.551   2.860   7.528 -0.5112 -0.2661  0.6549
 5734SOL    HW228836   3.572   2.795   7.394  2.2380 -1.8713  3.1496
 5735SOL     OW28837   2.789   1.595   5.861 -0.4297  0.4395 -0.4080
 5735SOL    HW128838   2.748   1.661   5.917  0.1530  0.4647  0.0006
 5735SOL    HW228839   2.882   1.621   5.864 -0.2662  0.0600 -2.1938
 5736SOL     OW28840   2.028   2.195  10.587 -0.0390  0.0089 -0.2081
 5736SOL    HW128841   1.952   2.151  10.550 -1.1678  3.2875 -1.8008
 5736SOL    HW228842   1.987   2.215  10.671  0.6336  0.9678 -0.0980
 5737SOL     OW28843   0.462   3.194   4.233 -0.3035 -0.1412 -0.1035
 5737SOL    HW128844   0.470   3.283   4.198  1.7764 -0.1924  0.2439
 5737SOL    HW228845   0.421   3.214   4.317 -0.3984 -0.8403  0.0128
 5738SOL     OW28846   2.966   1.108  16.039  0.0657 -0.2262 -0.0466
 5738SOL    HW128847   2.894   1.156  16.080  1.0072  0.8682  0.3524
 5738SOL    HW228848   3.017   1.178  15.997  0.3742  0.0541  0.7885
 5739SOL     OW28849   2.914   1.452   8.166  0.2199 -0.0387 -0.5220
 5739SOL    HW128850   2.827   1.413   8.178  0.4547 -0.7680 -1.1538
 5739SOL    HW228851   2.918   1.455   8.071 -1.7069 -0.6456 -0.6278
 5740SOL     OW28852   4.656   3.931   3.278  1.4595  0.1141 -0.4193
 5740SOL    HW128853   4.566   3.962   3.287  1.9538  1.0114  1.3148
 5740SOL    HW228854   4.655   3.857   3.338 -0.6548 -0.5954 -1.3214
 5741SOL     OW28855   2.063   1.093   2.421 -0.6310  0.1035 -0.2674
 5741SOL    HW128856   1.975   1.127   2.403 -0.9836 -1.4221 -1.4086
 5741SOL    HW228857   2.086   1.134   2.505 -2.8871  0.5074  0.1489
 5742SOL     OW28858   1.779   0.772   2.435 -0.1224 -0.6233  0.2110
 5742SOL    HW128859   1.802   0.679   2.441  1.4788 -0.1299  1.9279
 5742SOL    HW228860   1.761   0.778   2.341 -1.3947 -0.4260  0.4759
 5743SOL     OW28861   3.233   0.212  12.309  0.4442  0.4073 -0.1949
 5743SOL    HW128862   3.165   0.272  12.279 -0.7118 -0.6859  0.2185
 5743SOL    HW228863   3.224   0.144  12.242  0.3377 -0.0259  0.2628
 5744SOL     OW28864   2.015   4.090   8.390 -0.6022 -0.0276  0.4373
 5744SOL    HW128865   1.980   4.001   8.388 -0.6680 -0.0330  1.7945
 5744SOL    HW228866   2.096   4.076   8.439  0.3405  2.6471 -0.3556
 5745SOL     OW28867   4.275   1.713  11.191 -0.0190  0.0634  0.0708
 5745SOL    HW128868   4.304   1.740  11.279 -0.9168  0.5067  0.2277
 5745SOL    HW228869   4.180   1.703  11.197 -0.2547  1.6461 -1.1924
 5746SOL     OW28870   0.652   3.951   9.908  0.0970  0.7621  0.8069
 5746SOL    HW128871   0.647   3.997   9.824 -0.1922 -0.4014  0.2007
 5746SOL    HW228872   0.747   3.948   9.921 -0.0428 -0.5679  1.4923
 5747SOL     OW28873   4.613   2.685   6.604  0.3219  0.5243 -0.2006
 5747SOL    HW128874   4.694   2.634   6.598 -0.3028 -0.4424 -0.3848
 5747SOL    HW228875   4.634   2.762   6.552 -1.2762  1.6276  0.8004
 5748SOL     OW28876   1.736   1.805   6.890 -0.3318 -0.7012  0.0166
 5748SOL    HW128877   1.668   1.843   6.834 -0.7465 -0.0547  0.9786
 5748SOL    HW228878   1.754   1.718   6.855 -1.3820 -0.8596 -0.1383
 5749SOL     OW28879   3.156   2.656   0.287  0.4470 -0.2845 -0.2736
 5749SOL    HW128880   3.167   2.568   0.324 -0.7751 -0.4008 -0.1842
 5749SOL    HW228881   3.249   2.676   0.276  0.9679 -0.3786  3.9674
 5750SOL     OW28882   3.640   1.866   8.131  0.2763  0.1741  0.1963
 5750SOL    HW128883   3.636   1.947   8.080 -0.5592  0.8756  1.3892
 5750SOL    HW228884   3.572   1.816   8.087  1.2472 -0.9988  0.0193
 5751SOL     OW28885   0.013   4.592   8.253  0.2706 -0.0709  0.3140
 5751SOL    HW128886   4.681   4.577   8.319 -1.1240 -1.6995 -1.4932
 5751SOL    HW228887   0.017   4.501   8.223  0.4320 -0.2489  0.8619
 5752SOL     OW28888   2.196   1.547   9.205 -0.4932  0.4252 -0.0651
 5752SOL    HW128889   2.182   1.565   9.298 -3.5226 -1.4377 -0.1608
 5752SOL    HW228890   2.267   1.608   9.182 -0.7338  1.0001  0.7240
 5753SOL     OW28891   3.460   2.506   8.995 -0.1659 -0.2853 -0.3427
 5753SOL    HW128892   3.460   2.560   9.073 -0.5218  0.0035 -0.5398
 5753SOL    HW228893   3.553   2.493   8.978 -0.4443 -1.2841 -1.1438
 5754SOL     OW28894   4.262   4.230   3.745 -0.2522 -0.4949  0.2512
 5754SOL    HW128895   4.173   4.265   3.732 -0.3576 -0.6193  0.6267
 5754SOL    HW228896   4.307   4.297   3.695  0.2508 -1.8617 -1.1116
 5755SOL     OW28897   0.839   3.089  10.957  0.0325 -0.2308 -0.2079
 5755SOL    HW128898   0.875   3.114  10.872  0.0130 -1.3007 -0.5316
 5755SOL    HW228899   0.807   3.000  10.944  1.5616 -1.0402  1.5096
 5756SOL     OW28900   1.334   3.853   7.872  0.3156 -0.2545 -0.0159
 5756SOL    HW128901   1.307   3.774   7.826 -1.8477  0.3327  0.2359
 5756SOL    HW228902   1.379   3.815   7.947 -2.9868 -2.6600  0.7365
 5757SOL     OW28903   1.273   0.306  11.739  0.3525  0.7037 -0.0905
 5757SOL    HW128904   1.198   0.344  11.693 -1.6293 -0.8243  1.8638
 5757SOL    HW228905   1.236   0.249  11.807 -0.8372  0.7009 -0.7402
 5758SOL     OW28906   1.944   1.019   3.637  0.3430 -0.0775 -0.2946
 5758SOL    HW128907   1.923   1.106   3.670 -0.3956 -0.2844 -0.2274
 5758SOL    HW228908   1.877   0.962   3.676 -1.6694  0.3030 -3.1983
 5759SOL     OW28909   1.075   0.355  10.460 -0.2135  0.4145  0.6577
 5759SOL    HW128910   1.137   0.302  10.510  0.9485 -0.7047 -2.0022
 5759SOL    HW228911   1.123   0.431  10.426  1.1838 -1.7893 -2.2520
 5760SOL     OW28912   1.461   2.050   2.949 -0.2350  0.3886  0.0351
 5760SOL    HW128913   1.458   2.107   3.026  2.2650  0.6440 -0.0716
 5760SOL    HW228914   1.490   2.105   2.877  0.5224  0.4804  0.4099
 5761SOL     OW28915   0.536   2.856  10.718  0.5960  0.2577 -0.4174
 5761SOL    HW128916   0.582   2.925  10.670  2.0884  0.3997  1.1911
 5761SOL    HW228917   0.604   2.825  10.779 -1.9272  0.5469  2.5534
 5762SOL     OW28918   3.413   1.928  14.010 -0.5294  0.3949 -0.0732
 5762SOL    HW128919   3.375   1.974  14.085 -1.8144 -1.3164  0.3302
 5762SOL    HW228920   3.490   1.892  14.055  0.4484 -0.2566 -2.2485
 5763SOL     OW28921   3.091   4.712  10.435  0.2902 -0.3833 -0.4749
 5763SOL    HW128922   3.130   4.713  10.522 -2.1545  1.3237  0.5912
 5763SOL    HW228923   3.083   0.069  10.418  0.6613  0.0288  1.5712
 5764SOL     OW28924   3.267   2.929   5.813 -0.1951 -0.6980  0.4905
 5764SOL    HW128925   3.245   3.007   5.762  1.7711 -0.8557 -0.5733
 5764SOL    HW228926   3.341   2.890   5.767 -1.5210 -1.6501 -0.8268
 5765SOL     OW28927   3.812   3.880   6.400  0.4694 -0.0730  0.6709
 5765SOL    HW128928   3.867   3.822   6.452  1.2134 -1.1079 -1.2718
 5765SOL    HW228929   3.867   3.930   6.338  1.5138 -0.1571  1.5365
 5766SOL     OW28930   1.060   1.191   0.189 -0.5440  0.1556  0.5584
 5766SOL    HW128931   1.110   1.123   0.234 -0.6991 -0.0743  0.3816
 5766SOL    HW228932   1.099   1.265   0.236 -0.2707 -0.3668  1.1506
 5767SOL     OW28933   2.074   3.528   3.100 -0.2460 -0.0432  0.3211
 5767SOL    HW128934   2.162   3.546   3.069 -0.2300 -1.6886 -0.5968
 5767SOL    HW228935   2.076   3.566   3.188 -2.7816  1.1006 -0.1157
 5768SOL     OW28936   2.401   3.960  12.952  0.1052 -0.4680  0.3984
 5768SOL    HW128937   2.495   3.953  12.970  0.8334 -0.4021 -3.3563
 5768SOL    HW228938   2.404   4.012  12.872 -1.3245 -0.2010  0.5296
 5769SOL     OW28939   2.281   0.655   3.999  0.1461  0.4809  0.2824
 5769SOL    HW128940   2.372   0.639   3.974  1.1492  1.8299  3.0748
 5769SOL    HW228941   2.264   0.572   4.042 -3.3048  1.4459  0.7370
 5770SOL     OW28942   3.580   0.606  11.919 -0.1955  0.2339 -0.1097
 5770SOL    HW128943   3.531   0.686  11.902 -2.3390 -1.4484 -1.8878
 5770SOL    HW228944   3.649   0.640  11.976 -0.8664 -0.2957  0.9955
 5771SOL     OW28945   0.637   2.596   4.853 -0.5213  0.4684  0.5984
 5771SOL    HW128946   0.570   2.582   4.787  1.2250 -1.4339 -0.7883
 5771SOL    HW228947   0.589   2.653   4.913 -0.3730  0.4249  0.7576
 5772SOL     OW28948   3.363   1.941   8.699  0.2127  0.2677 -0.0016
 5772SOL    HW128949   3.282   1.904   8.733  0.4584 -0.8713 -0.6425
 5772SOL    HW228950   3.359   2.033   8.726  1.2270  0.2679  0.1301
 5773SOL     OW28951   0.122   1.497   6.170  0.1602  0.1701  0.2022
 5773SOL    HW128952   0.084   1.412   6.147  3.7300 -1.6179  0.8148
 5773SOL    HW228953   0.191   1.459   6.226  1.4468 -0.0712 -1.5613
 5774SOL     OW28954   2.495   3.961   9.250  0.0303 -0.0386  0.0491
 5774SOL    HW128955   2.422   3.924   9.201  0.7259  1.5072 -2.1758
 5774SOL    HW228956   2.536   3.883   9.289 -0.4744  0.3783  1.3923
 5775SOL     OW28957   3.302   1.179   8.367 -0.1775  0.9290 -0.2584
 5775SOL    HW128958   3.243   1.253   8.355 -2.5386 -1.0446 -0.7768
 5775SOL    HW228959   3.232   1.117   8.383 -0.7892  1.2545 -1.6315
 5776SOL     OW28960   3.626   4.207   7.477 -0.2829  0.0816  0.1248
 5776SOL    HW128961   3.721   4.206   7.469 -0.3211 -0.2655 -0.2649
 5776SOL    HW228962   3.617   4.300   7.456  1.2482  0.0444 -0.6571
 5777SOL     OW28963   2.065   3.107   3.084  0.1537  0.0761  0.0551
 5777SOL    HW128964   1.975   3.098   3.114 -0.4136  3.1529 -0.7811
 5777SOL    HW228965   2.106   3.080   3.166 -0.1842 -1.1304 -0.1761
 5778SOL     OW28966   3.481   3.175   5.328 -0.6056 -0.3170 -0.5390
 5778SOL    HW128967   3.548   3.161   5.262  0.9573  3.0862  0.3459
 5778SOL    HW228968   3.530   3.229   5.390 -0.9537 -1.0258  0.3614
 5779SOL     OW28969   0.729   3.381  16.218  0.2061  0.3624 -0.4466
 5779SOL    HW128970   0.704   3.461  16.173  0.0357 -0.6052 -2.0783
 5779SOL    HW228971   0.740   3.322  16.143 -1.0079  0.0326 -0.3592
 5780SOL     OW28972   4.074   2.427   4.141  0.0146 -0.0377 -0.6716
 5780SOL    HW128973   4.022   2.377   4.204  0.8299 -0.8248 -0.6235
 5780SOL    HW228974   4.034   2.512   4.158  1.5790  0.1726  1.8357
 5781SOL     OW28975   0.772   0.686   4.995  0.2742  0.2855  0.1842
 5781SOL    HW128976   0.863   0.713   5.008  0.3240 -0.4331  1.2400
 5781SOL    HW228977   0.772   0.593   5.014 -3.4791  0.7569  2.5324
 5782SOL     OW28978   3.915   0.738   6.562  0.0460 -0.7923 -0.4608
 5782SOL    HW128979   3.932   0.786   6.480 -0.6416  2.2467  1.1936
 5782SOL    HW228980   3.950   0.650   6.547 -0.1709 -0.7029 -1.5223
 5783SOL     OW28981   1.928   3.220   5.740 -0.7498 -0.0377  0.2577
 5783SOL    HW128982   1.949   3.310   5.712  0.5609  0.4028  2.6410
 5783SOL    HW228983   1.950   3.226   5.833  0.9931  0.6327 -0.2070
 5784SOL     OW28984   1.830   3.004   3.101  0.2753  0.3678 -0.4465
 5784SOL    HW128985   1.794   2.938   3.161  0.3413  1.1996  0.4885
 5784SOL    HW228986   1.808   2.972   3.013 -0.8829 -0.5114  0.1630
 5785SOL     OW28987   1.393   4.262  14.318  0.4317 -0.0110  0.1225
 5785SOL    HW128988   1.389   4.327  14.387 -0.7564 -0.7044  0.7110
 5785SOL    HW228989   1.310   4.216  14.332 -0.1584  0.8070 -0.6593
 5786SOL     OW28990   4.039   1.885   2.589 -0.4425  0.0109 -1.1393
 5786SOL    HW128991   3.973   1.814   2.588  0.5822 -0.9741  0.6537
 5786SOL    HW228992   3.981   1.945   2.636 -1.6998 -1.6694 -0.5434
 5787SOL     OW28993   2.316   1.166  13.864  0.0783 -0.1830  0.0393
 5787SOL    HW128994   2.336   1.179  13.957 -1.3345 -2.6632  0.7205
 5787SOL    HW228995   2.273   1.080  13.872 -0.6264  0.0904 -0.8189
 5788SOL     OW28996   0.917   2.902  13.327 -0.3381 -0.2113 -0.4120
 5788SOL    HW128997   0.967   2.824  13.304  0.0058 -0.6120  1.7833
 5788SOL    HW228998   0.829   2.877  13.299 -1.2285  1.0433  1.2865
 5789SOL     OW28999   4.197   0.046   7.191 -0.3063 -0.3235  0.3430
 5789SOL    HW129000   4.244   0.127   7.171 -1.1016  0.1105  0.2375
 5789SOL    HW229001   4.158   0.065   7.277 -0.2201  3.4132 -0.4607
 5790SOL     OW29002   0.136   2.996  16.528  0.1851 -0.4530 -0.0784
 5790SOL    HW129003   0.130   2.930  16.597 -4.5608  0.0440  0.0197
 5790SOL    HW229004   0.138   3.073  16.584  1.1254 -1.2203  0.9319
 5791SOL     OW29005   4.721   2.808   3.547  0.3742 -0.3878  0.4546
 5791SOL    HW129006   0.071   2.843   3.569  1.9387 -3.4699 -0.8000
 5791SOL    HW229007   0.017   2.761   3.470  0.1614  0.3257 -0.0740
 5792SOL     OW29008   2.722   1.441   8.672  0.1803 -0.1639 -0.1351
 5792SOL    HW129009   2.748   1.403   8.588  3.9419  2.3030 -0.1273
 5792SOL    HW229010   2.798   1.417   8.725 -0.2508 -0.1573  0.4843
 5793SOL     OW29011   1.501   4.600   1.744 -0.0937  0.6510  0.0498
 5793SOL    HW129012   1.452   4.676   1.773 -2.1355 -0.9088  0.6880
 5793SOL    HW229013   1.441   4.532   1.776 -0.4710 -0.4909 -3.1561
 5794SOL     OW29014   3.476   0.926   8.328 -0.0045  0.4797 -0.2283
 5794SOL    HW129015   3.550   0.984   8.310  1.1712 -0.7669  0.5922
 5794SOL    HW229016   3.418   0.992   8.367 -0.4759  0.0338 -0.1652
 5795SOL     OW29017   2.648   4.454   2.656 -0.1667  0.5181  0.1982
 5795SOL    HW129018   2.580   4.464   2.721 -2.2462 -1.1649 -1.7191
 5795SOL    HW229019   2.613   4.510   2.587  4.4930  0.4235 -2.2844
 5796SOL     OW29020   2.800   4.538   3.547  0.1938  0.1326  0.0380
 5796SOL    HW129021   2.849   4.476   3.493  0.8356  0.6321  0.0626
 5796SOL    HW229022   2.729   4.478   3.573 -0.7684  0.0737 -2.7620
 5797SOL     OW29023   3.546   3.866   5.300  0.0280  0.1144 -0.3611
 5797SOL    HW129024   3.456   3.873   5.332 -0.1675  0.5816 -1.0035
 5797SOL    HW229025   3.522   3.928   5.231  2.1404  0.8426 -0.4356
 5798SOL     OW29026   2.283   2.903  11.798 -0.4520 -0.6918 -0.4975
 5798SOL    HW129027   2.199   2.944  11.779  0.7607  2.5827  1.1783
 5798SOL    HW229028   2.272   2.825  11.745  2.0317 -2.2783  1.3212
 5799SOL     OW29029   4.259   1.931   3.397  0.5169 -0.0744 -0.1327
 5799SOL    HW129030   4.176   1.972   3.421 -0.5667 -1.0837 -2.1582
 5799SOL    HW229031   4.247   1.838   3.412 -0.2862  0.4586  2.4754
 5800SOL     OW29032   3.366   1.772   5.513  0.3452 -0.0456 -0.3351
 5800SOL    HW129033   3.405   1.728   5.588  0.3828  0.9887  0.2465
 5800SOL    HW229034   3.313   1.839   5.555 -0.0919  1.2217 -2.8823
 5801SOL     OW29035   1.568   3.888   1.924  0.2384 -0.7006 -0.6701
 5801SOL    HW129036   1.627   3.961   1.905  0.5608 -1.1927 -1.5728
 5801SOL    HW229037   1.632   3.827   1.962 -0.9162 -2.2129 -1.1645
 5802SOL     OW29038   2.496   4.718  10.135 -0.6208  0.0453  0.1247
 5802SOL    HW129039   2.469   0.037  10.208 -1.3477  1.0510 -0.9179
 5802SOL    HW229040   2.545   4.658  10.192  1.2136  1.7173  0.3110
 5803SOL     OW29041   0.905   1.228  10.977  0.2707  0.0934 -0.5813
 5803SOL    HW129042   0.991   1.235  11.018  0.3642  0.6527 -0.8723
 5803SOL    HW229043   0.903   1.132  10.972  2.3218 -0.1387  3.0291
 5804SOL     OW29044   3.547   4.238  17.361  0.1523  0.0488  1.0908
 5804SOL    HW129045   3.514   4.277  17.280  1.1408 -2.8237 -0.7265
 5804SOL    HW229046   3.630   4.191  17.346  1.9191  2.9086  1.9723
 5805SOL     OW29047   0.818   0.779   8.960 -0.6112  0.3530 -0.3945
 5805SOL    HW129048   0.756   0.723   9.005  1.6708  0.9320  3.5513
 5805SOL    HW229049   0.889   0.787   9.024  1.4329 -0.2844 -2.5660
 5806SOL     OW29050   0.900   1.883   4.193 -0.0950 -0.1498 -0.6798
 5806SOL    HW129051   0.853   1.849   4.117 -3.4592  0.6754  1.0405
 5806SOL    HW229052   0.974   1.822   4.197 -0.2216 -0.4276 -2.6458
 5807SOL     OW29053   1.532   0.990   8.006 -0.4109  0.0732  0.6110
 5807SOL    HW129054   1.593   1.062   7.990 -0.9333  0.0302 -1.4993
 5807SOL    HW229055   1.581   0.926   8.057  1.8814  1.6404  0.3925
 5808SOL     OW29056   3.294   4.587   4.818 -0.1934  0.1390  0.1646
 5808SOL    HW129057   3.314   4.631   4.901  3.2363 -0.1984 -0.5085
 5808SOL    HW229058   3.351   4.511   4.807  0.9349  1.0325 -0.1936
 5809SOL     OW29059   2.845   2.271   5.748  0.2835 -0.5985  0.9733
 5809SOL    HW129060   2.811   2.343   5.801  0.2496  0.6887 -0.7959
 5809SOL    HW229061   2.939   2.273   5.764  0.4593  0.7547 -0.1660
 5810SOL     OW29062   2.913   2.167   4.934 -0.1848 -0.5442  0.3553
 5810SOL    HW129063   2.866   2.231   4.987  2.3598  1.3268  0.3427
 5810SOL    HW229064   2.932   2.220   4.857 -0.6821  0.8739  1.1993
 5811SOL     OW29065   2.839   2.354  15.610  0.3176 -0.4896 -0.1026
 5811SOL    HW129066   2.756   2.402  15.608  0.7734  0.4086  2.3431
 5811SOL    HW229067   2.839   2.323  15.519 -3.6538 -2.1695  0.4547
 5812SOL     OW29068   1.666   2.974   4.540 -0.5387 -0.2138 -0.6972
 5812SOL    HW129069   1.708   2.892   4.565 -1.8992 -0.7965 -0.2764
 5812SOL    HW229070   1.646   3.009   4.627  1.4854 -0.4727 -0.1386
 5813SOL     OW29071   4.555   2.911   9.627 -0.4273  0.3319  0.0695
 5813SOL    HW129072   4.490   2.842   9.641 -0.5354  0.2014 -1.1283
 5813SOL    HW229073   4.595   2.918   9.714  0.6025 -0.1053 -0.3692
 5814SOL     OW29074   3.872   2.147   3.956 -0.8970  0.5783  0.2359
 5814SOL    HW129075   3.914   2.168   3.872 -2.0372 -0.9813 -0.7190
 5814SOL    HW229076   3.781   2.146   3.929 -0.2253 -0.0395 -2.0704
 5815SOL     OW29077   4.363   4.581   2.284  0.7595 -1.0975  0.5393
 5815SOL    HW129078   4.304   4.530   2.340 -0.2919 -0.6812 -0.1798
 5815SOL    HW229079   4.310   4.591   2.205  1.4199 -0.1163  0.2264
 5816SOL     OW29080   2.237   4.470   2.570 -0.2460 -0.0529  0.1252
 5816SOL    HW129081   2.223   4.379   2.546 -0.5384 -0.1832  0.7952
 5816SOL    HW229082   2.151   4.504   2.545  0.4459 -1.6808 -4.5236
 5817SOL     OW29083   4.583   1.562   9.276  0.0230  0.3893 -0.4695
 5817SOL    HW129084   4.643   1.491   9.250  0.8465  0.4752  1.2269
 5817SOL    HW229085   4.642   1.611   9.333 -1.1602 -0.5072  1.4919
 5818SOL     OW29086   2.500   1.270   7.921 -0.2047  0.3683  0.0022
 5818SOL    HW129087   2.428   1.312   7.874  1.1400  0.8927 -1.6092
 5818SOL    HW229088   2.566   1.264   7.852 -0.1889 -2.0198  0.2305
 5819SOL     OW29089   1.046   0.967   7.197  0.4311  0.5411  0.0849
 5819SOL    HW129090   1.065   1.009   7.281 -0.5304  1.1741 -0.0225
 5819SOL    HW229091   1.021   1.047   7.152 -0.4202  0.3338  0.1873
 5820SOL     OW29092   1.789   2.379  13.458 -0.0750 -0.0216 -0.4809
 5820SOL    HW129093   1.802   2.304  13.399  1.9323  0.5954 -0.8290
 5820SOL    HW229094   1.700   2.358  13.486  0.4298  0.8912  1.7850
 5821SOL     OW29095   4.296   1.646   3.887  0.6980  0.3829 -0.4587
 5821SOL    HW129096   4.276   1.588   3.813  0.5817  1.5477 -1.3434
 5821SOL    HW229097   4.282   1.591   3.964  1.1257 -1.7481 -1.9040
 5822SOL     OW29098   1.405   1.555   9.154  0.7935 -0.6983 -0.1484
 5822SOL    HW129099   1.388   1.645   9.126  2.5248 -0.5088 -0.5967
 5822SOL    HW229100   1.384   1.499   9.079  1.4068  0.2532 -1.0241
 5823SOL     OW29101   2.611   1.180   5.572  0.0495 -0.6446  0.4487
 5823SOL    HW129102   2.543   1.134   5.622 -0.5488  0.3826  0.5814
 5823SOL    HW229103   2.637   1.251   5.631 -2.2003 -0.9571  1.8208
 5824SOL     OW29104   1.721   1.425   8.780 -0.4508  0.0546  0.1789
 5824SOL    HW129105   1.699   1.486   8.851 -3.4893 -1.9341  0.9689
 5824SOL    HW229106   1.638   1.428   8.732  0.5337 -0.4283 -1.5274
 5825SOL     OW29107   1.545   3.938   6.013 -0.0430  0.2582  0.0715
 5825SOL    HW129108   1.571   3.947   6.105 -0.9459  2.1606  0.1504
 5825SOL    HW229109   1.451   3.926   6.028  0.2586  0.0854  1.8495
 5826SOL     OW29110   4.604   2.088   5.623 -0.2016 -0.2652 -0.2636
 5826SOL    HW129111   4.696   2.113   5.614 -0.1113 -0.9863 -1.4088
 5826SOL    HW229112   4.603   1.994   5.641 -4.0557 -0.2043 -0.0404
 5827SOL     OW29113   3.020   4.356   6.285  0.3452 -0.3137  0.5679
 5827SOL    HW129114   3.045   4.402   6.365 -0.4604  0.8436  0.1566
 5827SOL    HW229115   3.105   4.338   6.246  0.4098  1.0857  0.0552
 5828SOL     OW29116   0.391   4.385   4.013  0.3077  0.0674 -0.5736
 5828SOL    HW129117   0.387   4.294   4.040 -0.6644  0.3927  0.3869
 5828SOL    HW229118   0.456   4.420   4.075 -0.1691 -0.8774  0.4694
 5829SOL     OW29119   2.388   4.442   3.052 -0.2001  0.1131 -0.3085
 5829SOL    HW129120   2.379   4.357   3.094  0.8157  1.0654  1.8116
 5829SOL    HW229121   2.327   4.493   3.107 -0.0833 -1.4472  1.2473
 5830SOL     OW29122   0.960   0.342   8.551  0.3992  0.0241 -0.4987
 5830SOL    HW129123   0.898   0.372   8.617  2.1223  0.8842  0.7289
 5830SOL    HW229124   0.906   0.295   8.488  2.0102  0.1854 -1.9921
 5831SOL     OW29125   4.591   2.489   9.502 -0.1866 -0.3561  0.1148
 5831SOL    HW129126   4.616   2.515   9.413  0.3417  3.4915  1.3606
 5831SOL    HW229127   4.680   2.490   9.538 -1.0239  1.4120  2.1051
 5832SOL     OW29128   3.669   0.720   7.794 -0.4449  0.0489  0.0875
 5832SOL    HW129129   3.616   0.641   7.800  0.6363 -0.5135  2.1555
 5832SOL    HW229130   3.728   0.702   7.867 -0.7337 -0.2599  0.2411
 5833SOL     OW29131   2.684   1.372   6.542  0.2114 -0.7768 -0.6368
 5833SOL    HW129132   2.670   1.332   6.628 -0.6189  0.2231 -0.2975
 5833SOL    HW229133   2.779   1.379   6.537  0.3309 -2.7208 -0.9035
 5834SOL     OW29134   4.488   3.050   2.439 -0.3652 -0.0376 -0.2444
 5834SOL    HW129135   4.510   3.017   2.352 -2.3581 -1.0057 -0.3724
 5834SOL    HW229136   4.393   3.060   2.430 -0.3727  1.1798  1.2536
 5835SOL     OW29137   3.378   4.542   6.944  0.2967 -1.0316  0.3842
 5835SOL    HW129138   3.303   4.486   6.966 -0.0747 -0.3512  0.8499
 5835SOL    HW229139   3.386   4.593   7.025  0.2493 -1.8538  0.9070
 5836SOL     OW29140   3.099   0.892   3.105 -0.5183  0.1321  0.0509
 5836SOL    HW129141   3.080   0.835   3.031  0.3911  0.4120 -0.3918
 5836SOL    HW229142   3.016   0.929   3.137 -0.3439  0.0411  0.6117
 5837SOL     OW29143   1.537   2.950  15.502 -0.5399  0.2733 -0.2240
 5837SOL    HW129144   1.490   3.034  15.496  1.3415  1.4850  1.8447
 5837SOL    HW229145   1.625   2.975  15.531  0.8545 -0.1981 -4.0624
 5838SOL     OW29146   0.269   2.190   2.002 -0.4920 -0.4025 -0.2027
 5838SOL    HW129147   0.325   2.268   2.003  1.2219 -1.6402 -0.5261
 5838SOL    HW229148   0.331   2.121   1.979 -0.7222 -0.3217 -1.0924
 5839SOL     OW29149   0.511   4.129   5.717  0.2833  0.7393  0.1855
 5839SOL    HW129150   0.526   4.035   5.719  0.9228  0.8752  1.2270
 5839SOL    HW229151   0.577   4.155   5.652 -0.9441 -0.6617 -1.6434
 5840SOL     OW29152   2.046   0.553   2.261 -0.2750  0.2857 -0.2963
 5840SOL    HW129153   2.112   0.544   2.193 -1.6613 -1.4049 -1.4116
 5840SOL    HW229154   2.064   0.641   2.293  3.3032 -1.2905  2.0485
 5841SOL     OW29155   0.393   4.281   8.017 -0.1078 -0.2537  0.1222
 5841SOL    HW129156   0.467   4.341   8.018 -1.3500  1.2572  0.3056
 5841SOL    HW229157   0.330   4.348   7.992 -2.3425 -2.7875 -1.1094
 5842SOL     OW29158   2.807   0.944   4.325  0.2957 -0.0242  0.0646
 5842SOL    HW129159   2.822   1.017   4.265  1.5843 -1.9113 -1.9266
 5842SOL    HW229160   2.733   0.969   4.380 -0.1873 -1.1544 -0.0807
 5843SOL     OW29161   2.415   3.001   0.935 -0.2609  0.7030  0.3932
 5843SOL    HW129162   2.383   2.954   1.012  1.1230  0.9777  1.1345
 5843SOL    HW229163   2.500   3.030   0.966  0.0827  0.7647 -0.5904
 5844SOL     OW29164   2.994   3.345   2.168  0.4354  0.2226 -0.3999
 5844SOL    HW129165   3.021   3.395   2.092  0.5838 -0.3202 -0.7050
 5844SOL    HW229166   2.955   3.266   2.130  2.0169  0.1400 -1.8413
 5845SOL     OW29167   1.010   1.858   0.841 -0.1117  0.5640  0.0179
 5845SOL    HW129168   1.104   1.850   0.823 -0.8098 -2.0053 -2.5223
 5845SOL    HW229169   0.994   1.899   0.755 -1.3466  1.0512  0.4822
 5846SOL     OW29170   4.539   1.335   6.869  0.0596 -0.5755  0.5223
 5846SOL    HW129171   4.621   1.294   6.839 -0.5197  0.0059 -1.8232
 5846SOL    HW229172   4.488   1.260   6.901  0.2969 -1.4525 -1.1548
 5847SOL     OW29173   4.432   3.700   2.759  0.3846 -0.4278 -0.3396
 5847SOL    HW129174   4.338   3.718   2.753  0.2195 -0.5883  1.9898
 5847SOL    HW229175   4.463   3.761   2.826  1.2945 -2.2594  0.8907
 5848SOL     OW29176   0.222   0.346   4.957  0.2583  0.0432  0.1523
 5848SOL    HW129177   0.312   0.375   4.971  1.3036 -3.1682  0.0883
 5848SOL    HW229178   0.222   0.255   4.987 -2.6556  0.2382  0.6904
 5849SOL     OW29179   0.040   3.951   5.225 -0.5099  0.5850  0.5179
 5849SOL    HW129180   0.070   3.959   5.315  0.8527  2.3643 -0.0997
 5849SOL    HW229181   0.011   3.860   5.218 -0.8641  0.8272 -1.1356
 5850SOL     OW29182   2.237   3.384  10.696 -0.3887 -0.1620  0.5188
 5850SOL    HW129183   2.246   3.392  10.601 -2.8692  1.1887  0.3982
 5850SOL    HW229184   2.142   3.383  10.689 -0.3227 -1.4851 -0.1464
 5851SOL     OW29185   0.766   2.724  14.261  0.7031 -0.3076  0.5869
 5851SOL    HW129186   0.785   2.689  14.348  2.0711 -1.7542 -0.2934
 5851SOL    HW229187   0.816   2.805  14.249 -0.0699 -0.0081 -0.6850
 5852SOL     OW29188   3.307   4.705   2.447  0.6354  0.1227 -0.0290
 5852SOL    HW129189   3.376   4.722   2.383  0.8612  2.2657  0.8006
 5852SOL    HW229190   3.257   0.049   2.437  0.5730  0.1323  0.3726
 5853SOL     OW29191   3.475   3.024   6.223  0.0937  0.0262 -0.2146
 5853SOL    HW129192   3.515   3.087   6.162  0.8209 -1.1205 -0.9227
 5853SOL    HW229193   3.555   2.988   6.262  1.3153  1.2860 -1.5061
 5854SOL     OW29194   4.724   3.701   6.164  0.1824 -0.3386  0.0445
 5854SOL    HW129195   4.714   3.620   6.214  0.5788 -1.7293 -2.1535
 5854SOL    HW229196   4.723   3.762   6.238 -0.6326 -0.3028  0.0046
 5855SOL     OW29197   3.925   1.512   4.502 -0.0764  0.9287 -0.3941
 5855SOL    HW129198   3.961   1.546   4.584  0.4985  0.6315 -0.5202
 5855SOL    HW229199   3.875   1.435   4.530  1.9045  0.8008  2.7484
 5856SOL     OW29200   0.550   2.447   6.587 -0.7908  0.0749  0.1151
 5856SOL    HW129201   0.546   2.534   6.629  0.8604  0.1535  0.1125
 5856SOL    HW229202   0.468   2.432   6.541  1.1906 -0.1454 -3.2879
 5857SOL     OW29203   1.682   2.929   5.326  0.1902  0.4006  1.0533
 5857SOL    HW129204   1.672   2.847   5.374 -3.2182  0.2721  0.1313
 5857SOL    HW229205   1.650   2.983   5.398  0.5159  1.1011  0.6739
 5858SOL     OW29206   1.386   2.964   6.757 -0.2361  0.0226 -0.5351
 5858SOL    HW129207   1.393   2.953   6.852  0.2962  1.2678 -0.4251
 5858SOL    HW229208   1.336   2.885   6.739 -0.0188 -0.5738  1.4856
 5859SOL     OW29209   2.236   0.849   8.837 -0.0273 -0.3355 -0.0689
 5859SOL    HW129210   2.293   0.842   8.914  1.5239  0.6307 -1.1102
 5859SOL    HW229211   2.272   0.773   8.791 -0.9689 -0.6198 -0.3237
 5860SOL     OW29212   2.821   1.300   8.444  0.1470  0.7230  0.0509
 5860SOL    HW129213   2.773   1.218   8.433  0.3467  0.5940  0.1378
 5860SOL    HW229214   2.779   1.355   8.378  1.7211  3.2755  1.1473
 5861SOL     OW29215   1.354   0.606   2.001  0.6143  0.1868  0.1963
 5861SOL    HW129216   1.271   0.571   2.032  1.4271 -1.1559  0.8402
 5861SOL    HW229217   1.358   0.685   2.054  2.8318 -0.6096  1.2282
 5862SOL     OW29218   1.212   4.570   8.436 -0.2039 -0.6323 -0.4872
 5862SOL    HW129219   1.187   4.611   8.353  2.3423 -0.4953 -1.1796
 5862SOL    HW229220   1.300   4.609   8.436  0.2790 -1.7327 -0.6697
 5863SOL     OW29221   3.668   0.126  14.393  0.0269 -0.0118  0.0311
 5863SOL    HW129222   3.586   0.175  14.387  1.1133  1.6922 -0.9331
 5863SOL    HW229223   3.659   0.061  14.324  1.9602 -0.9429  0.6625
 5864SOL     OW29224   4.711   3.112   4.936 -0.4910 -0.0862 -0.1548
 5864SOL    HW129225   4.622   3.115   4.900 -0.5490 -2.8254 -0.2372
 5864SOL    HW229226   4.731   3.205   4.931 -1.7711  0.2254  0.4684
 5865SOL     OW29227   3.948   3.353   2.739 -0.1346  0.7453  0.5669
 5865SOL    HW129228   3.918   3.320   2.654  0.5550 -1.1183  1.0509
 5865SOL    HW229229   4.017   3.408   2.702  0.0329  2.8555  4.0910
 5866SOL     OW29230   0.430   3.855   0.798 -0.4122  0.1300  0.2087
 5866SOL    HW129231   0.358   3.864   0.735 -0.4810 -1.2700  0.0888
 5866SOL    HW229232   0.508   3.891   0.754 -1.1027 -0.6417 -1.6558
 5867SOL     OW29233   3.688   2.138   8.018 -0.0608  0.3177  0.3380
 5867SOL    HW129234   3.696   2.229   8.046 -0.7631  0.6124 -0.4248
 5867SOL    HW229235   3.768   2.136   7.965 -0.8636 -0.8393 -0.8459
 5868SOL     OW29236   1.338   1.985   5.172 -0.4572 -0.0257 -0.3867
 5868SOL    HW129237   1.430   1.968   5.192 -0.8497 -1.7510 -0.0955
 5868SOL    HW229238   1.333   1.994   5.077  0.9542 -2.0514 -0.6503
 5869SOL     OW29239   4.048   3.729   1.654  0.8621  0.4491  0.8448
 5869SOL    HW129240   4.065   3.636   1.636 -2.5101 -0.0299  0.2514
 5869SOL    HW229241   3.975   3.715   1.714 -0.8515 -1.9261 -1.7850
 5870SOL     OW29242   1.414   0.993  12.009 -0.3212  0.2307 -0.1758
 5870SOL    HW129243   1.399   0.921  12.071  0.5440  0.0320 -0.2050
 5870SOL    HW229244   1.400   0.958  11.921 -1.8679  0.2682  0.0506
 5871SOL     OW29245   0.906   2.668   2.927  0.2616 -0.2611  0.1261
 5871SOL    HW129246   0.848   2.634   2.859  0.8047 -1.6979  0.3770
 5871SOL    HW229247   0.988   2.682   2.879  0.2455  0.7597  0.4067
 5872SOL     OW29248   2.160   4.365   3.481  0.2464 -0.1021  0.2785
 5872SOL    HW129249   2.224   4.372   3.551  1.3587 -0.5367 -0.6845
 5872SOL    HW229250   2.181   4.426   3.410  0.0886  1.9905  2.0249
 5873SOL     OW29251   1.884   0.064   8.476 -0.3897  0.2440  0.0603
 5873SOL    HW129252   1.808   0.052   8.532 -1.2797  0.9767 -1.0047
 5873SOL    HW229253   1.847   0.048   8.390  1.8013  0.1013 -0.8738
 5874SOL     OW29254   4.040   1.887  16.830  0.4174 -0.1179 -0.5412
 5874SOL    HW129255   3.973   1.926  16.774  1.4636 -0.9980 -2.3917
 5874SOL    HW229256   4.023   1.943  16.907  0.2352 -2.1444  0.8918
 5875SOL     OW29257   1.482   2.049   1.800  0.0619  0.1184 -0.6177
 5875SOL    HW129258   1.390   2.070   1.779 -0.5144 -0.4589  1.4014
 5875SOL    HW229259   1.465   1.992   1.875  2.7168  1.9070  1.3332
 5876SOL     OW29260   2.959   4.083   2.776  0.2056  0.3501 -0.0295
 5876SOL    HW129261   2.936   4.175   2.774 -0.2023  0.2183 -1.1470
 5876SOL    HW229262   2.873   4.044   2.789 -0.0768  0.7191 -0.8255
 5877SOL     OW29263   1.762   1.631   1.791  0.5105  0.1394 -0.0292
 5877SOL    HW129264   1.825   1.702   1.800  1.0379 -0.0803 -1.9028
 5877SOL    HW229265   1.783   1.582   1.711 -1.9825  0.0364 -0.6310
 5878SOL     OW29266   2.359   3.536  12.881  0.3493  0.2873  0.1904
 5878SOL    HW129267   2.427   3.586  12.835  0.7217 -0.6213 -0.2316
 5878SOL    HW229268   2.375   3.577  12.966 -0.5534 -1.8424  1.3853
 5879SOL     OW29269   0.372   3.941   5.490  0.1804 -0.0450 -0.5459
 5879SOL    HW129270   0.359   3.908   5.579 -1.4720 -0.7198 -1.0240
 5879SOL    HW229271   0.441   3.880   5.465 -0.3599 -0.6697 -0.5265
 5880SOL     OW29272   0.761   1.676  10.730  0.3954 -0.3279  0.0030
 5880SOL    HW129273   0.779   1.612  10.800 -0.8968  0.2597  0.8730
 5880SOL    HW229274   0.851   1.689  10.700  0.4222  0.0118  0.2383
 5881SOL     OW29275   0.730   1.850   9.420  0.4042 -0.1291 -0.3836
 5881SOL    HW129276   0.697   1.842   9.509  1.8319 -1.7531 -0.0031
 5881SOL    HW229277   0.650   1.874   9.372 -0.5054  1.3009  1.8297
 5882SOL     OW29278   0.107   3.248  10.056 -0.3587  0.0334 -0.4443
 5882SOL    HW129279   0.060   3.177  10.013  0.1740 -1.4052  1.3393
 5882SOL    HW229280   0.189   3.227  10.011 -1.3720 -0.1087 -2.2178
 5883SOL     OW29281   1.054   4.398   5.302 -0.3149 -0.0656 -0.1833
 5883SOL    HW129282   1.111   4.454   5.355  0.4439 -1.4638  0.4953
 5883SOL    HW229283   0.970   4.437   5.325 -0.1276  0.3771 -0.2527
 5884SOL     OW29284   2.974   1.498  11.618  0.3992 -0.6909  0.4400
 5884SOL    HW129285   3.046   1.448  11.657  1.0447 -1.4776 -1.7518
 5884SOL    HW229286   2.909   1.507  11.688  0.7272  0.2654  0.6257
 5885SOL     OW29287   0.459   1.867  10.152 -0.0043  0.0654 -0.4024
 5885SOL    HW129288   0.485   1.807  10.222 -0.4045 -0.5428 -0.7806
 5885SOL    HW229289   0.492   1.829  10.070  0.6296 -0.6270  0.1722
 5886SOL     OW29290   2.667   2.514   8.045  0.3637  0.0523  0.0664
 5886SOL    HW129291   2.631   2.425   8.049  1.4048 -0.4162 -1.0584
 5886SOL    HW229292   2.737   2.504   8.110 -1.1550 -2.6395  1.3260
 5887SOL     OW29293   2.779   1.894   8.232  0.0477  0.2031 -0.4806
 5887SOL    HW129294   2.829   1.845   8.167  0.7635 -1.5371  1.3720
 5887SOL    HW229295   2.748   1.821   8.286  2.4805 -1.0712 -0.8354
 5888SOL     OW29296   3.844   3.509   8.212 -0.5119  0.5575  0.2237
 5888SOL    HW129297   3.919   3.550   8.170 -0.3408 -2.0497 -2.0364
 5888SOL    HW229298   3.821   3.572   8.281  0.2236 -0.3355  1.2731
 5889SOL     OW29299   3.436   3.645   0.429  0.1427 -0.7380  0.4520
 5889SOL    HW129300   3.397   3.581   0.370 -2.3651  1.1972  0.0122
 5889SOL    HW229301   3.359   3.702   0.437  0.9240  0.4948 -1.0463
 5890SOL     OW29302   3.392   2.500   4.570 -0.0728 -0.1756  0.1949
 5890SOL    HW129303   3.485   2.491   4.553  0.0258  0.6347  0.3211
 5890SOL    HW229304   3.369   2.411   4.597 -0.4551 -0.4815 -1.1643
 5891SOL     OW29305   3.571   0.393   4.968 -0.0542  0.1065  0.2782
 5891SOL    HW129306   3.532   0.480   4.976 -0.0373  0.1571 -0.1427
 5891SOL    HW229307   3.588   0.393   4.873 -0.4247 -0.2239  0.2138
 5892SOL     OW29308   3.229   4.684  11.406 -1.1158  0.3439 -0.0496
 5892SOL    HW129309   3.200   4.683  11.498 -0.8002  2.4628  0.0845
 5892SOL    HW229310   3.145   4.703  11.365 -1.5603  0.9875  1.1630
 5893SOL     OW29311   1.695   3.006  14.423  0.3973 -0.4957  0.6308
 5893SOL    HW129312   1.602   2.995  14.403  0.3017 -0.5988  1.1164
 5893SOL    HW229313   1.717   3.087  14.378 -0.9483 -1.3537 -1.5254
 5894SOL     OW29314   3.534   1.319   1.901 -0.6860  0.5790  0.7218
 5894SOL    HW129315   3.538   1.230   1.936 -2.1718 -0.8418 -2.7360
 5894SOL    HW229316   3.622   1.338   1.868  0.4827 -2.9572  1.7768
 5895SOL     OW29317   2.311   0.396   5.051 -0.4765 -0.2933  0.3341
 5895SOL    HW129318   2.377   0.460   5.022  2.4337 -3.7332 -0.6244
 5895SOL    HW229319   2.371   0.321   5.046  0.5536  0.5030  0.7540
 5896SOL     OW29320   2.069   4.286  13.865 -0.4362 -0.4947 -0.5461
 5896SOL    HW129321   2.102   4.364  13.911 -0.9190 -0.0531 -0.9635
 5896SOL    HW229322   2.142   4.225  13.855  0.6088  0.6448  0.0922
 5897SOL     OW29323   2.108   4.623   2.235  0.2062 -0.1699  0.5810
 5897SOL    HW129324   2.129   4.651   2.146 -0.9382  3.1460  1.3527
 5897SOL    HW229325   2.018   4.590   2.229 -0.6052  2.3194 -1.0700
 5898SOL     OW29326   2.284   0.864   8.090  0.4109  0.0368 -0.3304
 5898SOL    HW129327   2.378   0.867   8.105  0.3153 -1.1347  0.5008
 5898SOL    HW229328   2.251   0.796   8.149 -2.4771  1.0582 -0.7232
 5899SOL     OW29329   0.630   1.013   7.627 -0.4006 -0.8960  0.2388
 5899SOL    HW129330   0.658   1.046   7.712 -1.6185 -0.3571  0.4288
 5899SOL    HW229331   0.544   0.974   7.646 -0.9496  0.0867 -0.2024
 5900SOL     OW29332   0.278   3.835   5.001 -0.0868  0.0106 -0.0415
 5900SOL    HW129333   0.228   3.823   4.921  2.2324 -0.4195 -1.4048
 5900SOL    HW229334   0.214   3.800   5.063  0.0573 -3.0800 -1.6447
 5901SOL     OW29335   0.457   2.185  17.415 -0.1257  0.3358  0.0741
 5901SOL    HW129336   0.498   2.261  17.373 -0.2666 -0.4624 -1.5074
 5901SOL    HW229337   0.463   2.208  17.508 -0.1924 -0.5415  0.2960
 5902SOL     OW29338   2.729   3.303   0.689  0.0142  0.2514 -0.0466
 5902SOL    HW129339   2.708   3.334   0.601  1.3906  2.0536  0.2523
 5902SOL    HW229340   2.711   3.210   0.679 -1.2754  0.5144 -0.1806
 5903SOL     OW29341   1.335   2.583   3.747 -0.1047 -0.2962  0.4940
 5903SOL    HW129342   1.399   2.647   3.778 -0.3695  0.5928 -0.7933
 5903SOL    HW229343   1.356   2.581   3.653  0.1030 -1.6621  0.5626
 5904SOL     OW29344   2.149   3.361   6.765  0.2711 -0.7233  0.0655
 5904SOL    HW129345   2.203   3.282   6.777 -0.1750 -0.9287  0.6903
 5904SOL    HW229346   2.211   3.425   6.729 -1.0862  0.1033 -0.7786
 5905SOL     OW29347   0.093   0.325  17.673  0.0199  0.8125  0.1311
 5905SOL    HW129348   0.184   0.353  17.661 -0.3933  1.8659 -0.5716
 5905SOL    HW229349   0.094   0.252  17.611  1.9031 -0.0887  1.2362
 5906SOL     OW29350   1.296   2.451   2.441 -0.7126  0.2586  0.3058
 5906SOL    HW129351   1.202   2.447   2.461 -0.4026 -0.0965  1.7374
 5906SOL    HW229352   1.312   2.359   2.425 -1.4006  0.2628 -0.4118
 5907SOL     OW29353   4.525   2.315   7.677 -0.2424  0.0264  0.0773
 5907SOL    HW129354   4.514   2.406   7.650 -1.2040 -0.1225 -0.0055
 5907SOL    HW229355   4.586   2.284   7.611 -1.0888 -0.7251 -0.3362
 5908SOL     OW29356   1.781   1.761   2.521 -0.2732  0.2037 -0.0380
 5908SOL    HW129357   1.841   1.703   2.569  1.0162  1.4474 -0.1455
 5908SOL    HW229358   1.827   1.793   2.444  0.4442 -0.2594  0.1914
 5909SOL     OW29359   3.213   1.459   8.592 -0.6467  0.1810  0.2746
 5909SOL    HW129360   3.308   1.444   8.596 -0.8631 -0.8901  1.5135
 5909SOL    HW229361   3.199   1.439   8.500 -0.7725  2.5442 -0.2196
 5910SOL     OW29362   2.335   1.220   2.386 -0.2833  0.1068 -0.2478
 5910SOL    HW129363   2.247   1.191   2.409 -0.7610  1.3047 -0.5643
 5910SOL    HW229364   2.391   1.161   2.437 -0.7019 -1.1769 -1.2832
 5911SOL     OW29365   1.031   1.396  10.297  0.3982  0.1773 -0.2855
 5911SOL    HW129366   0.999   1.345  10.223  1.2516  0.4092 -0.8079
 5911SOL    HW229367   1.125   1.389  10.283  0.3305 -1.0391 -0.1560
 5912SOL     OW29368   2.170   2.557   9.142 -0.5565  0.7507  0.6140
 5912SOL    HW129369   2.167   2.461   9.138 -1.6078  0.7565  1.2636
 5912SOL    HW229370   2.156   2.566   9.236 -4.0188 -0.4705  0.1989
 5913SOL     OW29371   0.350   3.415  17.385 -0.3847 -0.0523  0.8205
 5913SOL    HW129372   0.286   3.364  17.435  0.3279  0.1588  1.9696
 5913SOL    HW229373   0.426   3.396  17.441  0.3287  0.8649  0.1543
 5914SOL     OW29374   0.823   4.099  15.667 -0.4513  0.3748  0.1150
 5914SOL    HW129375   0.734   4.088  15.634  0.8596 -1.3129 -2.8515
 5914SOL    HW229376   0.871   4.116  15.586 -1.5994  0.2216 -0.6002
 5915SOL     OW29377   4.136   4.017   2.678  0.5315  0.3111 -0.0596
 5915SOL    HW129378   4.230   4.024   2.694  0.5788  3.0586 -1.6466
 5915SOL    HW229379   4.138   3.921   2.683  1.1473  0.2625 -1.2127
 5916SOL     OW29380   4.114   2.595   6.939 -0.2317 -0.1294  0.0999
 5916SOL    HW129381   4.209   2.586   6.952 -0.0219  2.0561  0.1273
 5916SOL    HW229382   4.072   2.525   6.988  0.3930 -0.8174 -0.3480
 5917SOL     OW29383   0.663   0.498   5.553 -0.0658  0.2140  0.0444
 5917SOL    HW129384   0.670   0.424   5.492  0.1592 -0.4146  0.8385
 5917SOL    HW229385   0.696   0.450   5.628  0.4816  0.9044  0.2453
 5918SOL     OW29386   1.598   2.594   4.261  0.3390 -0.6551  0.3153
 5918SOL    HW129387   1.617   2.517   4.315  1.2180 -1.6885 -1.4713
 5918SOL    HW229388   1.600   2.664   4.326  2.0607  0.1797 -0.6415
 5919SOL     OW29389   1.075   0.750  16.718 -0.0044  0.5431 -0.0669
 5919SOL    HW129390   1.101   0.679  16.777 -0.6911 -1.4376 -2.1383
 5919SOL    HW229391   1.142   0.812  16.748  0.7824 -0.0355 -0.6162
 5920SOL     OW29392   1.354   0.279   8.252  0.1658 -0.1479  0.1754
 5920SOL    HW129393   1.268   0.291   8.211  0.9493 -0.3939 -1.5280
 5920SOL    HW229394   1.318   0.249   8.336  1.7295 -0.7910  0.6097
 5921SOL     OW29395   0.692   4.100   4.337  0.3469  0.1388  0.3428
 5921SOL    HW129396   0.597   4.108   4.336  0.4830  1.9218  1.7720
 5921SOL    HW229397   0.715   4.034   4.403  0.9674  1.2030  1.2031
 5922SOL     OW29398   3.551   4.469   7.421 -0.7233 -0.0960  0.3204
 5922SOL    HW129399   3.468   4.422   7.418 -0.8845  0.2205 -0.3810
 5922SOL    HW229400   3.542   4.532   7.492 -1.7989  0.7874 -0.6018
 5923SOL     OW29401   3.823   1.137   5.123  0.4778  0.3602  0.7870
 5923SOL    HW129402   3.759   1.086   5.173  1.6709 -1.7876  0.1210
 5923SOL    HW229403   3.837   1.077   5.050 -1.6556  1.5021 -0.5536
 5924SOL     OW29404   0.266   3.668   3.519  0.4534  0.2887  0.6736
 5924SOL    HW129405   0.330   3.695   3.453 -1.1772  1.1600 -0.5681
 5924SOL    HW229406   0.214   3.748   3.523 -0.4458 -0.3370  1.3727
 5925SOL     OW29407   4.149   0.707   4.248  0.4578  0.6757 -0.3048
 5925SOL    HW129408   4.079   0.648   4.221  2.9438 -2.1666 -0.5595
 5925SOL    HW229409   4.200   0.708   4.166 -0.3847  1.5420 -0.8222
 5926SOL     OW29410   1.178   0.129   2.440 -0.0783  0.2579 -0.0139
 5926SOL    HW129411   1.204   0.043   2.472  0.3878 -0.4949 -2.3873
 5926SOL    HW229412   1.241   0.184   2.487 -0.1102 -0.5950  1.0152
 5927SOL     OW29413   1.840   1.769   8.747  0.6699 -0.0649  0.2570
 5927SOL    HW129414   1.829   1.681   8.713  0.3359  0.0769 -0.0085
 5927SOL    HW229415   1.917   1.794   8.697  0.0161 -0.2051 -0.8291
 5928SOL     OW29416   1.126   0.480   9.750 -0.1997 -0.2754 -0.3502
 5928SOL    HW129417   1.124   0.421   9.826 -0.5403 -0.1032 -0.2256
 5928SOL    HW229418   1.092   0.559   9.790 -1.2941  0.7731 -3.3528
 5929SOL     OW29419   2.489   1.069   4.246  0.3907 -0.0214 -0.7229
 5929SOL    HW129420   2.403   1.077   4.287 -0.2701 -1.4331 -1.8131
 5929SOL    HW229421   2.550   1.076   4.320 -1.9980  1.3383  1.1267
 5930SOL     OW29422   2.737   1.714   6.521  0.2051 -0.5064 -0.4581
 5930SOL    HW129423   2.650   1.677   6.507 -0.6411  1.1524  0.3527
 5930SOL    HW229424   2.722   1.801   6.484 -0.1693 -0.2187  0.3567
 5931SOL     OW29425   3.829   3.487  10.216 -0.1527 -0.0706  0.0567
 5931SOL    HW129426   3.764   3.452  10.154  0.0687 -0.2048 -0.1001
 5931SOL    HW229427   3.771   3.545  10.265 -0.5366 -1.7748  1.6248
 5932SOL     OW29428   2.508   0.580   8.231 -0.3029 -0.3974  0.3292
 5932SOL    HW129429   2.525   0.499   8.281 -0.1788 -1.7661 -1.9368
 5932SOL    HW229430   2.453   0.628   8.293  0.7219 -2.6150  2.9967
 5933SOL     OW29431   1.904   4.469   2.830  0.5746 -0.7430  0.6687
 5933SOL    HW129432   1.923   4.551   2.783 -1.6975 -1.1877 -0.9670
 5933SOL    HW229433   1.818   4.482   2.869  0.8142  0.4239  0.8019
 5934SOL     OW29434   4.127   1.077   4.033  0.8674  0.3133 -0.7611
 5934SOL    HW129435   4.152   1.163   3.999  0.3351  1.9000  2.8497
 5934SOL    HW229436   4.210   1.051   4.073 -0.0507  2.5706  2.6936
 5935SOL     OW29437   3.322   4.553   7.707 -0.1096 -0.1029 -0.3894
 5935SOL    HW129438   3.390   4.614   7.679  0.3317 -0.1769  0.5209
 5935SOL    HW229439   3.364   4.510   7.781 -1.2243 -0.5918 -0.0379
 5936SOL     OW29440   4.271   3.375  15.206  0.2213 -0.1727  0.1238
 5936SOL    HW129441   4.183   3.372  15.168 -0.0706  1.4219  0.6742
 5936SOL    HW229442   4.241   3.321  15.280  1.1284 -0.1952  0.4665
 5937SOL     OW29443   0.083   0.496  17.379 -0.2597  0.0272  0.1593
 5937SOL    HW129444   0.058   0.416  17.334  1.5219 -0.6120  0.3270
 5937SOL    HW229445   0.067   0.554  17.304 -0.9259 -0.2189  0.1151
 5938SOL     OW29446   1.463   0.586   6.118  0.0001 -0.4194 -0.3678
 5938SOL    HW129447   1.514   0.637   6.181  0.9099 -0.0588 -1.3990
 5938SOL    HW229448   1.455   0.504   6.165 -0.6475  0.3134  0.7947
 5939SOL     OW29449   4.516   4.590   4.194 -0.0612  0.0114 -0.2893
 5939SOL    HW129450   4.449   4.618   4.257  1.1611  0.4180  0.8334
 5939SOL    HW229451   4.466   4.528   4.141 -1.9773  2.6378 -1.5188
 5940SOL     OW29452   0.994   0.353   2.675  0.6748  0.3443  0.0918
 5940SOL    HW129453   1.065   0.394   2.724 -0.0707  0.5682  0.9983
 5940SOL    HW229454   1.024   0.262   2.678 -1.8051 -0.4454  0.8077
 5941SOL     OW29455   1.444   1.296   0.274 -0.3231 -0.6257  0.1467
 5941SOL    HW129456   1.489   1.328   0.197 -1.7685  1.8014  0.3101
 5941SOL    HW229457   1.510   1.284   0.342 -0.2849  1.0867  0.3871
 5942SOL     OW29458   3.399   4.190   0.264  0.0162  0.6279 -0.2373
 5942SOL    HW129459   3.415   4.282   0.285 -0.0088 -0.0121  2.6336
 5942SOL    HW229460   3.347   4.200   0.185  0.0542 -0.2209 -0.3748
 5943SOL     OW29461   3.768   0.917   4.935 -0.3337  0.2705  0.2824
 5943SOL    HW129462   3.681   0.885   4.957 -0.3712 -0.0418 -0.3048
 5943SOL    HW229463   3.823   0.839   4.946  1.9574  1.5952 -1.6884
 5944SOL     OW29464   2.186   1.026   6.099 -0.2566  0.0539  0.5956
 5944SOL    HW129465   2.137   0.967   6.042 -1.6043  2.3386 -0.6001
 5944SOL    HW229466   2.254   1.064   6.043 -0.5506  1.0644  0.9106
 5945SOL     OW29467   3.142   3.617   4.384  0.6555 -0.1096  0.2937
 5945SOL    HW129468   3.164   3.555   4.454 -1.8949 -1.5607 -0.1817
 5945SOL    HW229469   3.047   3.616   4.385  0.6865  0.0188  2.8475
 5946SOL     OW29470   0.164   4.654  13.168  0.5891  0.0219  0.4036
 5946SOL    HW129471   0.143   0.010  13.186  2.3866  0.5048  0.0233
 5946SOL    HW229472   0.094   4.629  13.108  0.8890  0.9669 -0.3310
 5947SOL     OW29473   1.882   1.155  15.788  0.1252  0.2748 -0.3407
 5947SOL    HW129474   1.829   1.218  15.739 -2.3875 -0.0044  2.0189
 5947SOL    HW229475   1.905   1.207  15.864  1.2071 -0.4090 -0.2008
 5948SOL     OW29476   3.692   3.127   1.479  0.2901  0.2206  0.2737
 5948SOL    HW129477   3.610   3.094   1.445  0.9271 -0.0428 -1.0005
 5948SOL    HW229478   3.720   3.053   1.533 -0.8264  0.6371  1.4219
 5949SOL     OW29479   1.374   4.011   8.469 -0.1893  0.3009 -0.1837
 5949SOL    HW129480   1.345   3.988   8.381 -0.1063 -1.7416  0.3196
 5949SOL    HW229481   1.395   3.926   8.508  3.2071  0.2111 -2.2423
 5950SOL     OW29482   0.838   0.423   2.467 -0.1862 -0.3657  0.1140
 5950SOL    HW129483   0.775   0.362   2.429  0.6103 -0.8666 -0.4211
 5950SOL    HW229484   0.871   0.374   2.542  1.1572 -0.3697 -0.4611
 5951SOL     OW29485   0.723   4.546   9.470 -0.4020 -0.5208 -0.0756
 5951SOL    HW129486   0.681   4.616   9.421 -2.2308  0.8864  3.5492
 5951SOL    HW229487   0.817   4.563   9.457 -0.5983  1.6589  1.3993
 5952SOL     OW29488   4.109   1.722   2.124 -0.0721 -0.1203 -0.0855
 5952SOL    HW129489   4.169   1.704   2.051 -0.0350 -1.6887  0.3266
 5952SOL    HW229490   4.147   1.670   2.195  2.7091 -0.9229 -2.1603
 5953SOL     OW29491   4.442   3.657   5.602 -0.1012  0.0456  0.1861
 5953SOL    HW129492   4.464   3.605   5.679 -2.7662 -0.5728  0.5184
 5953SOL    HW229493   4.394   3.736   5.626  0.9705  1.0528 -0.9117
 5954SOL     OW29494   1.390   1.938   1.536 -0.1537  0.2828  0.0056
 5954SOL    HW129495   1.385   1.932   1.631 -0.6193 -0.6675 -0.0807
 5954SOL    HW229496   1.372   1.847   1.516  1.3329  0.6077 -2.8168
 5955SOL     OW29497   2.755   3.051   1.591  0.0059  0.6013 -0.1134
 5955SOL    HW129498   2.851   3.056   1.586  0.2158 -1.9777  1.4960
 5955SOL    HW229499   2.734   3.145   1.597 -0.7581  0.3948  0.4820
 5956SOL     OW29500   2.708   0.745  16.406 -0.3741  0.2353 -0.6139
 5956SOL    HW129501   2.645   0.766  16.475  0.8569  1.1989  0.2203
 5956SOL    HW229502   2.692   0.654  16.378  0.1288  0.6516 -2.2511
 5957SOL     OW29503   2.377   2.123  11.017 -0.0880 -0.3772 -0.0717
 5957SOL    HW129504   2.464   2.130  10.980 -0.4112  0.1050 -0.7372
 5957SOL    HW229505   2.337   2.161  10.939  0.4932  0.4209  0.0219
 5958SOL     OW29506   3.515   1.016   3.675 -0.3408  0.1357 -0.3440
 5958SOL    HW129507   3.589   0.975   3.629 -0.8720 -0.5374 -0.6091
 5958SOL    HW229508   3.563   1.024   3.757 -1.4928  0.3470  0.3049
 5959SOL     OW29509   1.123   0.581   5.319  0.3347  0.0241 -0.4093
 5959SOL    HW129510   1.096   0.592   5.410  1.9399 -2.3081  0.3403
 5959SOL    HW229511   1.108   0.488   5.302 -0.1056 -0.6116  3.6080
 5960SOL     OW29512   2.839   2.051   3.591 -0.7941  0.3416 -0.0820
 5960SOL    HW129513   2.758   2.085   3.629 -0.2779  1.6268 -0.1161
 5960SOL    HW229514   2.803   1.980   3.538  1.2222  1.0588 -2.4279
 5961SOL     OW29515   0.784   4.442   2.205  0.2810  0.2723  0.3786
 5961SOL    HW129516   0.822   4.355   2.209 -0.5582 -0.1727 -1.0755
 5961SOL    HW229517   0.734   4.442   2.286  0.4309  1.6396  0.4802
 5962SOL     OW29518   0.511   1.115  11.463 -1.0207  0.1772 -0.0207
 5962SOL    HW129519   0.455   1.136  11.389  0.7614  1.3239 -1.0545
 5962SOL    HW229520   0.448   1.055  11.502  2.2975 -3.2680 -0.0061
 5963SOL     OW29521   0.375   1.112   5.718  0.0709 -0.1689  0.0616
 5963SOL    HW129522   0.372   1.192   5.770  1.5089 -1.1156  1.6163
 5963SOL    HW229523   0.461   1.081   5.748  1.1419 -0.7204 -3.5661
 5964SOL     OW29524   2.363   2.759   8.976 -0.1535  0.5487  0.3238
 5964SOL    HW129525   2.284   2.722   9.016 -2.3713  1.4445 -3.1852
 5964SOL    HW229526   2.431   2.696   9.000  0.8092  0.0865 -3.5084
 5965SOL     OW29527   1.319   3.853   2.244  0.2060  0.1063 -0.1810
 5965SOL    HW129528   1.270   3.912   2.186 -0.2899 -0.2540 -0.1259
 5965SOL    HW229529   1.370   3.911   2.301  1.5132  0.1904 -1.4347
 5966SOL     OW29530   2.942   0.838   2.674  0.1626 -0.0688 -0.2014
 5966SOL    HW129531   2.850   0.861   2.661  0.6569  2.4662  0.7819
 5966SOL    HW229532   2.976   0.919   2.711  1.4454  0.7145 -3.0769
 5967SOL     OW29533   2.155   1.940   4.536  0.2760 -0.5816  0.2815
 5967SOL    HW129534   2.122   2.003   4.472  2.0208  0.0310 -0.0218
 5967SOL    HW229535   2.239   1.973   4.568 -0.1415  0.4114  0.3593
 5968SOL     OW29536   1.235   2.227   8.917  0.0291 -0.0380 -0.3469
 5968SOL    HW129537   1.236   2.295   8.849  1.5109  1.5198  1.2313
 5968SOL    HW229538   1.199   2.151   8.871 -2.0104  0.2300  0.7942
 5969SOL     OW29539   4.144   2.698   1.907  0.1066 -0.0173 -0.1702
 5969SOL    HW129540   4.055   2.719   1.878 -0.1114  2.2215  2.0268
 5969SOL    HW229541   4.195   2.731   1.833  0.7501  0.0491  0.2934
 5970SOL     OW29542   4.098   1.731   9.420 -0.7874 -0.3146 -0.5096
 5970SOL    HW129543   4.106   1.640   9.393  0.1636 -0.9036  1.7921
 5970SOL    HW229544   4.010   1.753   9.388 -1.2707  0.4836  1.3377
 5971SOL     OW29545   3.693   3.225   5.810  0.2169  0.4466  0.1771
 5971SOL    HW129546   3.763   3.165   5.781 -0.0794  0.2693 -0.1687
 5971SOL    HW229547   3.736   3.308   5.830  1.9563 -0.5913  0.8361
 5972SOL     OW29548   3.899   4.121  10.611 -0.4086 -0.4905  0.3903
 5972SOL    HW129549   3.906   4.106  10.705  0.3206  1.4962  0.6408
 5972SOL    HW229550   3.804   4.121  10.599 -0.6608  2.6386  2.3797
 5973SOL     OW29551   4.578   3.750   3.803  0.0278 -0.0420 -0.1598
 5973SOL    HW129552   4.597   3.809   3.875  0.8001 -0.4838 -0.0045
 5973SOL    HW229553   4.495   3.777   3.763 -0.1413  0.1175  0.2999
 5974SOL     OW29554   2.078   3.838   9.905 -0.2382 -0.0907 -0.1943
 5974SOL    HW129555   2.072   3.933   9.891  0.0864  0.0889  0.8295
 5974SOL    HW229556   2.034   3.821   9.988 -1.6380  2.5397 -0.4063
 5975SOL     OW29557   2.410   3.266   6.026 -0.0662 -0.0411  0.6838
 5975SOL    HW129558   2.432   3.177   6.053 -1.4572 -0.7165 -0.4429
 5975SOL    HW229559   2.466   3.289   5.952  1.7642 -1.5642  1.5841
 5976SOL     OW29560   4.079   0.385   3.341 -0.1851  0.1495 -0.1214
 5976SOL    HW129561   3.988   0.412   3.339  0.6677  2.6895 -4.4355
 5976SOL    HW229562   4.094   0.369   3.248  1.0157 -0.1841  0.1198
 5977SOL     OW29563   2.147   2.338   6.652  0.2089  0.4057  0.2216
 5977SOL    HW129564   2.119   2.425   6.682 -2.4704  0.1010 -1.4930
 5977SOL    HW229565   2.096   2.282   6.710 -0.4659  0.5925 -0.1982
 5978SOL     OW29566   3.622   2.944   6.566 -0.0952 -0.1306 -0.1349
 5978SOL    HW129567   3.597   2.865   6.519 -0.3342 -0.5843  0.7708
 5978SOL    HW229568   3.682   2.980   6.501  1.3793 -1.5045  0.4490
 5979SOL     OW29569   1.774   4.363   8.326  0.2121  0.6285  0.5526
 5979SOL    HW129570   1.680   4.363   8.345 -0.2321  0.4478 -1.5678
 5979SOL    HW229571   1.812   4.329   8.407  0.6105  0.7215  0.4066
 5980SOL     OW29572   3.645   0.837   6.559  0.2621 -0.0143 -0.2832
 5980SOL    HW129573   3.736   0.813   6.576  0.6274  2.6113  1.4185
 5980SOL    HW229574   3.605   0.791   6.632  1.1747 -2.0352 -1.0469
 5981SOL     OW29575   0.878   4.036   9.071  0.1745  1.1003  0.2326
 5981SOL    HW129576   0.816   4.092   9.025  0.5866  1.3416 -0.0355
 5981SOL    HW229577   0.922   3.982   9.005  2.3849  1.2585  1.5519
 5982SOL     OW29578   2.274   1.950  15.748 -0.2323  0.2607 -0.3685
 5982SOL    HW129579   2.292   1.919  15.660  1.2758  0.4268 -0.1086
 5982SOL    HW229580   2.330   2.027  15.759 -2.3164  1.6060  1.1376
 5983SOL     OW29581   2.419   1.718  16.437  1.1664 -0.1771  0.2841
 5983SOL    HW129582   2.423   1.645  16.499 -2.5899  0.4277  1.2788
 5983SOL    HW229583   2.475   1.786  16.475 -3.0584  2.7961  1.2888
 5984SOL     OW29584   1.124   3.239   4.516 -0.3883  0.0200 -0.2289
 5984SOL    HW129585   1.034   3.252   4.548 -1.4707  0.0627 -3.3388
 5984SOL    HW229586   1.148   3.332   4.513 -1.0469  0.2070  0.2124
 5985SOL     OW29587   0.001   0.077   7.848  0.3695  0.2929  0.4494
 5985SOL    HW129588   0.022   0.097   7.757 -1.1430 -0.6154 -0.0780
 5985SOL    HW229589   0.088   0.071   7.887  0.8785  0.8607 -0.5896
 5986SOL     OW29590   4.261   4.182   4.387 -0.0286  1.1156 -0.3194
 5986SOL    HW129591   4.165   4.191   4.390 -0.2819 -1.5639  0.3771
 5986SOL    HW229592   4.297   4.262   4.424  1.0133  0.8187 -0.6966
 5987SOL     OW29593   4.559   4.506   9.182  0.3769 -0.1227  0.2028
 5987SOL    HW129594   4.477   4.474   9.218  0.0033 -0.0190 -0.5548
 5987SOL    HW229595   4.615   4.431   9.166 -2.3955 -2.9932  4.0329
 5988SOL     OW29596   3.185   3.091   4.740  0.4680  0.6463 -0.2436
 5988SOL    HW129597   3.276   3.110   4.714  0.3235  2.2172  0.3971
 5988SOL    HW229598   3.183   3.117   4.832  0.1333  0.3584 -0.1716
 5989SOL     OW29599   1.514   4.537   8.486  0.6488 -0.4270  0.1734
 5989SOL    HW129600   1.468   4.462   8.524 -1.2324  0.0170 -1.2034
 5989SOL    HW229601   1.531   4.576   8.572 -1.8226  1.0009 -0.0061
 5990SOL     OW29602   4.720   3.908  17.576 -0.4940  0.4033  0.1135
 5990SOL    HW129603   4.643   3.851  17.585 -1.0942  1.0065 -1.2808
 5990SOL    HW229604   4.685   3.989  17.540  1.5093  0.7549 -0.9993
 5991SOL     OW29605   1.713   3.125   6.104  0.5259  0.1214  0.2074
 5991SOL    HW129606   1.708   3.163   6.192 -2.6175  2.3810 -0.9378
 5991SOL    HW229607   1.794   3.074   6.108 -0.4312 -1.4077  0.0759
 5992SOL     OW29608   3.045   2.966   5.034 -0.8150  0.2735 -0.2942
 5992SOL    HW129609   3.126   2.938   4.992  0.5833  1.5220  1.5602
 5992SOL    HW229610   3.070   2.981   5.125  1.1782  1.6869 -1.0799
 5993SOL     OW29611   1.845   2.534   9.786 -0.6115  0.3754  0.0138
 5993SOL    HW129612   1.826   2.526   9.692 -2.6201  0.7935  0.3715
 5993SOL    HW229613   1.782   2.604   9.801  1.1925  2.0120 -0.1758
 5994SOL     OW29614   0.298   0.003  12.576  0.2936  0.3631 -0.1058
 5994SOL    HW129615   0.334   0.075  12.628  0.1891  1.4290 -1.5008
 5994SOL    HW229616   0.289   0.027  12.484 -1.0715  2.5979  0.6368
 5995SOL     OW29617   0.281   3.468   5.431  0.5998  0.6571  0.0870
 5995SOL    HW129618   0.191   3.486   5.457 -0.3643 -1.6974 -1.6828
 5995SOL    HW229619   0.272   3.412   5.354  1.2677 -2.1363  2.0179
 5996SOL     OW29620   0.576   4.173  15.281 -1.1855 -0.9582 -0.9884
 5996SOL    HW129621   0.646   4.218  15.235 -2.2047  1.5030 -0.1305
 5996SOL    HW229622   0.500   4.230  15.276  0.2083  0.6808 -2.9302
 5997SOL     OW29623   0.038   1.149   9.024 -0.8527 -0.2025  0.6518
 5997SOL    HW129624   0.046   1.123   8.932  2.6414  0.8750  0.6588
 5997SOL    HW229625   0.087   1.082   9.071  1.0137  0.0812 -0.9249
 5998SOL     OW29626   2.305   0.680   4.598 -0.4851  0.4208 -0.1128
 5998SOL    HW129627   2.386   0.638   4.626 -0.0077  0.4104 -1.4700
 5998SOL    HW229628   2.228   0.639   4.637  0.8054 -0.3750  1.5754
 5999SOL     OW29629   3.677   2.034   5.011  0.7091 -0.5434  0.3348
 5999SOL    HW129630   3.709   2.124   5.005 -0.8894 -0.0367 -0.7334
 5999SOL    HW229631   3.631   2.026   5.095  1.9891  1.8274  1.2588
 6000SOL     OW29632   4.354   0.450   4.616 -0.0112  0.0085  0.1405
 6000SOL    HW129633   4.332   0.528   4.564  0.8932  1.1347  1.4364
 6000SOL    HW229634   4.422   0.485   4.675 -2.0191  1.7099  1.4368
 6001SOL     OW29635   3.280   1.023   8.680 -0.7177  0.3324 -0.5789
 6001SOL    HW129636   3.248   1.099   8.632 -1.8672  0.6782  0.7132
 6001SOL    HW229637   3.374   1.027   8.666 -0.4046  0.0603  1.3645
 6002SOL     OW29638   0.735   0.543   7.574 -0.1481  0.1323  0.5402
 6002SOL    HW129639   0.658   0.601   7.567 -0.0050  0.0696 -1.5230
 6002SOL    HW229640   0.738   0.541   7.670 -3.1601 -2.8114  0.5708
 6003SOL     OW29641   4.282   3.920   1.996 -0.1304 -0.0658  0.8343
 6003SOL    HW129642   4.370   3.957   1.994 -0.0838 -0.2108  0.2535
 6003SOL    HW229643   4.227   3.993   2.024  0.5660  0.7368  0.1121
 6004SOL     OW29644   3.733   0.573   8.329  0.5203  0.1815 -0.4161
 6004SOL    HW129645   3.699   0.566   8.240 -0.5024 -0.0219 -0.0139
 6004SOL    HW229646   3.654   0.556   8.379  1.3636  0.8820  1.1524
 6005SOL     OW29647   1.069   1.319   2.697  0.2069  0.5368 -0.1383
 6005SOL    HW129648   1.053   1.230   2.729  0.4542  0.0259 -1.4493
 6005SOL    HW229649   1.035   1.373   2.769 -1.4345 -1.8721  0.8840
 6006SOL     OW29650   4.710   4.388  11.934  0.3983 -0.0251 -0.1735
 6006SOL    HW129651   0.043   4.348  11.882  0.4038 -2.7662  1.9254
 6006SOL    HW229652   0.020   4.414  12.014  1.1071  0.3583 -0.7105
 6007SOL     OW29653   4.348   2.473   6.974  0.2042 -0.6303  0.6057
 6007SOL    HW129654   4.398   2.469   6.892  0.0533 -0.1927  0.4942
 6007SOL    HW229655   4.373   2.388   7.011 -2.2901 -1.4819  0.3877
 6008SOL     OW29656   2.612   3.397  13.154  0.0142 -0.3385 -0.3280
 6008SOL    HW129657   2.687   3.356  13.196 -0.0596  1.4232  1.4854
 6008SOL    HW229658   2.649   3.434  13.074  0.5953  1.2989  0.7005
 6009SOL     OW29659   0.807   3.226  12.334 -0.0116 -0.0766 -0.6364
 6009SOL    HW129660   0.832   3.162  12.401 -2.0742 -0.0395  0.1634
 6009SOL    HW229661   0.783   3.304  12.384  1.1372 -1.8590  2.7483
 6010SOL     OW29662   1.124   1.988   0.295  0.2278 -0.0546  0.7236
 6010SOL    HW129663   1.120   1.976   0.200 -1.6828 -0.3500  0.8529
 6010SOL    HW229664   1.036   1.954   0.309  0.1656 -0.8437 -1.6118
 6011SOL     OW29665   1.771   2.917   2.857  0.1360 -0.7715 -0.2435
 6011SOL    HW129666   1.805   2.832   2.827 -0.5106 -0.7543 -1.0521
 6011SOL    HW229667   1.821   2.975   2.799  0.1829 -0.9701 -0.4042
 6012SOL     OW29668   4.719   0.268   3.832  0.0233  0.4282  0.1284
 6012SOL    HW129669   4.629   0.284   3.860 -1.3544 -2.4078 -2.6511
 6012SOL    HW229670   4.732   0.328   3.758 -0.0172  0.3924  0.0925
 6013SOL     OW29671   1.963   4.569   2.503  0.1062  0.6503 -0.5012
 6013SOL    HW129672   1.939   4.520   2.425  0.8497 -0.9743  0.2890
 6013SOL    HW229673   1.915   4.650   2.484  0.5308  1.2361  0.8816
 6014SOL     OW29674   3.830   2.992   4.366  0.3188  0.1866 -0.4633
 6014SOL    HW129675   3.908   2.959   4.322  0.5850  0.5096 -0.2271
 6014SOL    HW229676   3.798   2.909   4.401 -0.1623  0.6645  0.2301
 6015SOL     OW29677   3.527   1.263  16.772 -0.4052  0.2388 -0.1690
 6015SOL    HW129678   3.431   1.259  16.773 -0.4610  1.2701 -0.9801
 6015SOL    HW229679   3.537   1.203  16.699 -0.8981 -0.2857  0.1939
 6016SOL     OW29680   0.165   0.829   9.505 -0.2770  0.0678 -0.4806
 6016SOL    HW129681   0.152   0.806   9.597  0.1110 -1.3727 -0.7786
 6016SOL    HW229682   0.088   0.882   9.485 -0.7465 -0.8069 -1.0219
 6017SOL     OW29683   1.591   0.013  10.129  0.1052 -0.3164  1.0792
 6017SOL    HW129684   1.677   0.022  10.170  0.0888  1.7050  0.6923
 6017SOL    HW229685   1.603   4.700  10.047  2.3536  2.1457 -0.0889
 6018SOL     OW29686   3.906   1.014   2.547 -0.1260  0.0726  0.2590
 6018SOL    HW129687   3.996   1.036   2.572 -0.4812  1.9042 -0.0187
 6018SOL    HW229688   3.907   1.051   2.458 -1.4177  1.7558  0.9327
 6019SOL     OW29689   0.388   0.298   6.487 -0.6218 -0.1030 -0.2014
 6019SOL    HW129690   0.442   0.220   6.498 -0.8965 -0.2023  0.4373
 6019SOL    HW229691   0.426   0.356   6.553  2.5614 -0.0760 -2.0939
 6020SOL     OW29692   4.139   0.434   2.636 -0.0231  0.5069 -0.0530
 6020SOL    HW129693   4.088   0.371   2.688  0.3095 -0.0981 -0.4603
 6020SOL    HW229694   4.120   0.513   2.685  0.3939  0.2461  0.5367
 6021SOL     OW29695   0.956   0.375   7.453 -0.3339 -1.0179 -0.5466
 6021SOL    HW129696   0.891   0.410   7.513  1.0636 -1.3487  1.1564
 6021SOL    HW229697   0.987   0.290   7.484 -0.1012 -0.3737  0.9660
 6022SOL     OW29698   0.839   0.621   1.836 -0.0745  0.5655  0.3060
 6022SOL    HW129699   0.821   0.532   1.864  0.3004  1.0520  2.1205
 6022SOL    HW229700   0.820   0.617   1.742 -1.2288 -1.3734  0.6294
 6023SOL     OW29701   4.576   0.190   2.957  0.0794 -0.2668  0.3335
 6023SOL    HW129702   4.507   0.181   2.891  0.2408  1.8533 -0.1190
 6023SOL    HW229703   4.653   0.191   2.899  0.3878 -0.3029  0.7443
 6024SOL     OW29704   0.611   1.948   7.295  0.0673 -0.2368 -0.4278
 6024SOL    HW129705   0.669   1.873   7.280 -1.4336 -1.7203  1.1574
 6024SOL    HW229706   0.673   2.015   7.323  1.4439 -2.1715  1.1745
 6025SOL     OW29707   2.155   4.562   7.955 -0.0501 -0.3225 -0.1238
 6025SOL    HW129708   2.090   4.493   7.940 -1.9404  1.1415  1.2811
 6025SOL    HW229709   2.111   4.648   7.958 -0.0934 -0.3683  0.4828
 6026SOL     OW29710   1.228   2.297   4.446  0.3452 -0.0232 -0.6537
 6026SOL    HW129711   1.133   2.291   4.440  0.2544  1.3559 -0.5494
 6026SOL    HW229712   1.243   2.321   4.355 -0.0913  2.4895 -0.0791
 6027SOL     OW29713   1.692   0.616   6.556  0.1701  0.4268 -0.3613
 6027SOL    HW129714   1.765   0.572   6.514  0.5205  3.4326 -2.8814
 6027SOL    HW229715   1.722   0.647   6.642 -1.1972  1.9553 -0.4176
 6028SOL     OW29716   2.005   3.145  15.549  0.7733  0.2318 -0.2697
 6028SOL    HW129717   1.940   3.215  15.541 -0.7610 -0.9431  2.1557
 6028SOL    HW229718   2.088   3.193  15.543  0.9414  0.1399  1.3198
 6029SOL     OW29719   0.898   3.120   7.433  0.2433  0.1655  0.0991
 6029SOL    HW129720   0.885   3.029   7.460 -0.3459  0.4017  0.6170
 6029SOL    HW229721   0.844   3.171   7.493  1.3770  1.6805 -0.1823
 6030SOL     OW29722   0.795   2.856   9.467  0.4673  0.0611  0.1149
 6030SOL    HW129723   0.864   2.910   9.506  1.1045 -1.5876  1.2639
 6030SOL    HW229724   0.852   2.814   9.403 -0.0097 -0.2059 -0.1364
 6031SOL     OW29725   1.535   4.149   3.990 -0.1164 -0.2881 -0.3841
 6031SOL    HW129726   1.582   4.225   4.026 -2.4574  1.9270 -1.9853
 6031SOL    HW229727   1.516   4.105   4.073 -0.8566 -0.2149 -0.5178
 6032SOL     OW29728   2.455   0.231  16.279  0.1873  0.4776 -0.0049
 6032SOL    HW129729   2.495   0.150  16.311  2.0417  1.5699  0.3687
 6032SOL    HW229730   2.365   0.200  16.291  0.4178  0.4430  1.6457
 6033SOL     OW29731   3.967   1.633   2.974  0.0644 -0.9179 -0.3343
 6033SOL    HW129732   4.029   1.656   2.905  1.0869 -1.4580  0.3935
 6033SOL    HW229733   4.007   1.549   2.998 -0.4037 -1.2098 -0.5582
 6034SOL     OW29734   2.897   4.369   8.410  0.4659  0.3433  0.5670
 6034SOL    HW129735   2.908   4.284   8.367 -0.8600  1.1132 -1.3000
 6034SOL    HW229736   2.970   4.364   8.471 -0.3729  1.5561  1.6594
 6035SOL     OW29737   2.016   3.910   0.666 -0.2742  0.4565 -0.4562
 6035SOL    HW129738   2.027   3.818   0.692  1.0696  0.7074 -0.0937
 6035SOL    HW229739   1.946   3.894   0.603  0.3459 -1.0633 -0.7790
 6036SOL     OW29740   3.473   0.504   0.497 -0.0834  0.0548  0.0360
 6036SOL    HW129741   3.382   0.533   0.490 -0.7682 -1.8233  1.0339
 6036SOL    HW229742   3.516   0.537   0.418 -1.4880  1.1406 -0.2831
 6037SOL     OW29743   1.773   4.557   6.614 -0.5185  0.1297  0.4398
 6037SOL    HW129744   1.830   4.485   6.638  0.9676  0.0783 -3.1455
 6037SOL    HW229745   1.723   4.519   6.541  0.5778  1.2546 -0.8968
 6038SOL     OW29746   3.978   3.000  17.206 -0.3153  0.6048  0.2290
 6038SOL    HW129747   3.950   3.047  17.128  3.0700  2.5885  0.2299
 6038SOL    HW229748   3.954   3.063  17.275  2.2892  2.0821 -0.2150
 6039SOL     OW29749   0.822   1.975   6.504 -0.0258  0.2855 -0.9050
 6039SOL    HW129750   0.760   2.045   6.480 -0.5219 -0.0504 -0.6109
 6039SOL    HW229751   0.879   1.982   6.427  1.7244  2.7010  0.6085
 6040SOL     OW29752   2.422   3.794  17.492  0.6003 -0.2851 -0.3835
 6040SOL    HW129753   2.513   3.790  17.463  1.1348 -0.6215  1.3186
 6040SOL    HW229754   2.398   3.701  17.490 -1.3405  0.2354 -1.2660
 6041SOL     OW29755   3.606   4.391   2.179  0.1762  0.0381 -0.0134
 6041SOL    HW129756   3.514   4.379   2.201 -0.0919  2.9924  0.5807
 6041SOL    HW229757   3.642   4.414   2.265  1.1096 -3.8389  0.5959
 6042SOL     OW29758   0.358   3.193   9.299  0.1658  0.5777  0.9220
 6042SOL    HW129759   0.426   3.129   9.277 -1.9909 -1.0602 -1.0180
 6042SOL    HW229760   0.283   3.148   9.259 -0.6906  1.7684  1.1795
 6043SOL     OW29761   0.957   2.154  13.209 -0.2708 -0.5385 -0.3213
 6043SOL    HW129762   0.905   2.198  13.277  1.7703  2.4159 -0.6475
 6043SOL    HW229763   1.023   2.222  13.198 -1.8957  1.0694 -0.2357
 6044SOL     OW29764   0.536   1.217  10.081  0.3784  0.1592 -0.4776
 6044SOL    HW129765   0.520   1.128  10.112  0.3956  0.0162 -0.8756
 6044SOL    HW229766   0.541   1.263  10.164  0.1318 -2.5677  1.0464
 6045SOL     OW29767   3.171   2.553   2.615  0.2178 -0.6042 -0.2247
 6045SOL    HW129768   3.138   2.638   2.585  0.7897 -1.3384 -2.9622
 6045SOL    HW229769   3.156   2.565   2.709  0.2545 -0.2114 -0.2659
 6046SOL     OW29770   1.278   0.881   3.155 -0.6444 -0.3048 -1.2041
 6046SOL    HW129771   1.272   0.975   3.174  0.6392 -0.3540 -0.5560
 6046SOL    HW229772   1.349   0.887   3.091 -0.8498 -1.3498 -1.5309
 6047SOL     OW29773   2.582   2.525   7.765  0.4419  0.0828  0.0801
 6047SOL    HW129774   2.576   2.436   7.729 -0.7747 -0.1476  0.8613
 6047SOL    HW229775   2.626   2.508   7.848  0.4280 -0.9742 -0.1263
 6048SOL     OW29776   0.949   1.934  16.924 -0.2998  0.5199 -0.1191
 6048SOL    HW129777   1.028   1.881  16.938 -0.4037  0.8087  1.5773
 6048SOL    HW229778   0.886   1.881  16.974  0.8115  0.2755  1.0445
 6049SOL     OW29779   2.064   1.711   7.997 -0.3736 -0.2767  0.0152
 6049SOL    HW129780   1.982   1.749   7.966 -1.1584 -2.8273 -1.0270
 6049SOL    HW229781   2.062   1.730   8.091 -0.8593 -2.5832  0.4853
 6050SOL     OW29782   3.285   1.333   3.175 -0.3348 -0.6517  0.2232
 6050SOL    HW129783   3.272   1.262   3.112  0.0649  0.9799 -1.7151
 6050SOL    HW229784   3.329   1.278   3.240 -0.1601 -0.4199  0.3047
 6051SOL     OW29785   0.556   2.321   4.245 -0.1298  0.6801 -0.4575
 6051SOL    HW129786   0.493   2.250   4.235  2.5801 -1.8735  0.7369
 6051SOL    HW229787   0.634   2.270   4.222  0.9821  1.8070  0.7862
 6052SOL     OW29788   1.859   2.258   4.686 -0.2461 -0.1595 -0.7571
 6052SOL    HW129789   1.910   2.327   4.729 -0.3431 -0.2792 -0.4536
 6052SOL    HW229790   1.785   2.313   4.663 -1.3392 -1.8407 -1.2262
 6053SOL     OW29791   0.246   4.572  14.535  0.2173 -0.6886 -0.2609
 6053SOL    HW129792   0.156   4.574  14.568  0.6557  2.1568  0.7488
 6053SOL    HW229793   0.284   4.576  14.623  0.0086 -3.1318 -0.0609
 6054SOL     OW29794   2.728   3.783   2.251 -0.1070  0.0566  0.2499
 6054SOL    HW129795   2.688   3.867   2.273  0.9896  1.2724 -2.3955
 6054SOL    HW229796   2.743   3.731   2.330  0.7684  0.1489  0.1425
 6055SOL     OW29797   0.221   3.183   7.929 -0.2891  0.7948 -0.1743
 6055SOL    HW129798   0.231   3.094   7.963 -2.6225 -0.0545 -1.6995
 6055SOL    HW229799   0.278   3.244   7.978  0.3893  1.3042 -1.6005
 6056SOL     OW29800   4.709   0.707   3.314  0.4120  0.0438  0.1841
 6056SOL    HW129801   4.705   0.778   3.250 -1.8652  1.0444  1.4173
 6056SOL    HW229802   4.620   0.704   3.349  0.6934 -3.4962  0.5717
 6057SOL     OW29803   1.732   3.154   0.062  0.0916  0.3892  0.3355
 6057SOL    HW129804   1.763   3.244   0.076 -1.4641  0.9092  0.5161
 6057SOL    HW229805   1.713   3.122   0.150 -1.3000  0.0162 -0.1058
 6058SOL     OW29806   1.927   2.020  14.036 -0.1597 -0.2929 -0.4700
 6058SOL    HW129807   1.921   1.929  14.009 -3.0645  0.0682 -1.0006
 6058SOL    HW229808   1.918   2.026  14.131  0.3570  2.4216 -0.5743
 6059SOL     OW29809   1.691   1.639   8.965  0.6362 -0.1286 -0.5791
 6059SOL    HW129810   1.712   1.675   9.051 -1.9040  2.8144 -1.2024
 6059SOL    HW229811   1.715   1.714   8.910 -2.1393  1.4561  0.4016
 6060SOL     OW29812   1.555   1.648   2.568  0.5097  0.6763 -0.6913
 6060SOL    HW129813   1.624   1.710   2.547  1.3663 -0.6345 -1.7570
 6060SOL    HW229814   1.532   1.670   2.658  0.1524  0.0414 -0.6258
 6061SOL     OW29815   2.212   0.507   1.500  0.1907 -0.1051 -0.2852
 6061SOL    HW129816   2.288   0.487   1.445 -0.1792 -1.8937 -0.1227
 6061SOL    HW229817   2.140   0.518   1.438  0.2787 -1.2185 -0.5777
 6062SOL     OW29818   1.122   4.344  17.605  0.5153 -0.8630  0.1725
 6062SOL    HW129819   1.200   4.385  17.568  0.7502 -1.8829 -0.4770
 6062SOL    HW229820   1.078   4.294  17.536 -2.9954  1.8797  0.4481
 6063SOL     OW29821   4.276   0.336   3.062 -0.2800 -0.1889  0.2371
 6063SOL    HW129822   4.345   0.402   3.054  0.0858 -0.4622  1.1415
 6063SOL    HW229823   4.194   0.380   3.041  0.2708  1.0790  0.7206
 6064SOL     OW29824   3.200   3.813  13.558  0.0722  0.0550 -0.3223
 6064SOL    HW129825   3.242   3.867  13.624 -0.2603  0.6862 -0.6285
 6064SOL    HW229826   3.211   3.726  13.596 -4.4683  0.1572  1.1990
 6065SOL     OW29827   4.674   4.603  13.034 -0.1177  0.1945  0.2439
 6065SOL    HW129828   4.630   4.648  13.106 -1.0678 -0.3875  0.0166
 6065SOL    HW229829   4.635   4.649  12.959  0.4560  2.4052  1.2999
 6066SOL     OW29830   3.752   1.059  11.371 -0.0106  0.7316  0.2568
 6066SOL    HW129831   3.756   0.994  11.441 -1.4017 -0.2170 -0.5608
 6066SOL    HW229832   3.762   1.139  11.422 -0.1163  0.0638  1.3168
 6067SOL     OW29833   0.416   3.752   6.829 -0.1698 -0.1439 -0.3531
 6067SOL    HW129834   0.475   3.718   6.762  0.3518 -0.0533  0.0562
 6067SOL    HW229835   0.442   3.707   6.910  1.1601  0.8139 -0.2478
 6068SOL     OW29836   0.445   0.849   5.208 -0.3601 -0.0206 -0.0756
 6068SOL    HW129837   0.524   0.840   5.261  0.2939 -1.6056 -1.3069
 6068SOL    HW229838   0.374   0.822   5.266  0.8178 -0.5341  1.1331
 6069SOL     OW29839   1.265   0.994   8.071 -0.0129 -0.4702 -0.1116
 6069SOL    HW129840   1.347   0.978   8.024  0.1466  0.4794 -0.1470
 6069SOL    HW229841   1.257   1.088   8.086 -3.4466 -0.5793 -1.3755
 6070SOL     OW29842   3.872   4.646   5.524  0.5044 -0.5511 -0.4410
 6070SOL    HW129843   3.921   4.706   5.581 -0.3886  0.9283 -1.2288
 6070SOL    HW229844   3.797   4.620   5.578  1.5709  0.8148  1.7354
 6071SOL     OW29845   3.429   0.356   3.764 -0.0595  0.6424 -0.4349
 6071SOL    HW129846   3.438   0.282   3.704 -0.0913  0.5468 -0.3211
 6071SOL    HW229847   3.345   0.393   3.738  0.4707  2.2845  0.1743
 6072SOL     OW29848   4.643   4.240  16.646 -0.4475 -0.5448  0.1356
 6072SOL    HW129849   4.642   4.144  16.643 -1.1208 -0.4909 -1.1579
 6072SOL    HW229850   4.618   4.252  16.555  0.1921 -3.8321 -0.4789
 6073SOL     OW29851   2.583   3.320   8.874 -0.6115  0.6191 -0.0448
 6073SOL    HW129852   2.571   3.415   8.869 -2.2525  0.3757 -0.9651
 6073SOL    HW229853   2.502   3.289   8.833 -0.1799  0.8324 -1.0479
 6074SOL     OW29854   3.647   3.537   2.360 -0.0664 -0.3169  0.1464
 6074SOL    HW129855   3.631   3.458   2.412  2.6354 -1.1704 -0.3569
 6074SOL    HW229856   3.735   3.566   2.382 -0.2150  2.1218 -2.4766
 6075SOL     OW29857   4.446   4.139  17.152  0.0329 -0.1706 -0.3102
 6075SOL    HW129858   4.399   4.217  17.123  2.0074  1.4480  0.8355
 6075SOL    HW229859   4.462   4.090  17.071  0.5705  0.9411 -0.8780
 6076SOL     OW29860   4.459   2.030   5.114  0.4712  0.0607 -0.0268
 6076SOL    HW129861   4.551   2.003   5.111  0.9275  1.7279 -0.9557
 6076SOL    HW229862   4.477   2.124   5.111  0.8313  0.0307  1.1972
 6077SOL     OW29863   2.906   3.160   5.234 -0.4914  0.2853 -0.4200
 6077SOL    HW129864   2.876   3.084   5.284 -0.3636  0.1095 -0.6049
 6077SOL    HW229865   2.873   3.142   5.146  0.3105 -2.2949 -0.2152
 6078SOL     OW29866   0.630   4.562   3.581 -0.6585  0.3460  0.1217
 6078SOL    HW129867   0.561   4.532   3.522  1.6104 -0.6370 -2.0096
 6078SOL    HW229868   0.667   4.481   3.615 -0.8019  1.6210  3.3256
 6079SOL     OW29869   0.273   0.834   0.423  0.2795  0.0758  0.7967
 6079SOL    HW129870   0.314   0.754   0.455  5.2355  2.6420  0.9226
 6079SOL    HW229871   0.251   0.811   0.333 -3.4401 -1.1415  1.9879
 6080SOL     OW29872   0.606   3.836  12.590 -0.4050  0.1253  0.6947
 6080SOL    HW129873   0.537   3.857  12.652 -1.4877 -0.6858 -0.2579
 6080SOL    HW229874   0.637   3.925  12.571  1.4509 -0.4572  0.9548
 6081SOL     OW29875   0.188   3.589  15.932  0.1703 -0.1405  0.1215
 6081SOL    HW129876   0.178   3.557  15.842  1.7053 -2.2986  0.7280
 6081SOL    HW229877   0.269   3.543  15.952 -1.4961 -1.7535  3.0428
 6082SOL     OW29878   3.133   4.435  10.666  0.2427 -0.3392  0.2533
 6082SOL    HW129879   3.088   4.427  10.582  0.2058  1.4633  0.0911
 6082SOL    HW229880   3.197   4.364  10.661 -1.7851 -1.9757 -2.7776
 6083SOL     OW29881   0.594   3.448   6.015  0.3013 -0.1543 -0.1069
 6083SOL    HW129882   0.517   3.477   6.065  0.9236  1.8344 -0.2791
 6083SOL    HW229883   0.611   3.513   5.947  0.7749 -0.9954 -0.7836
 6084SOL     OW29884   4.473   0.911   2.516 -0.1834 -0.3331 -0.0786
 6084SOL    HW129885   4.514   0.848   2.575  1.4467  2.1411  1.4326
 6084SOL    HW229886   4.449   0.986   2.570  0.0621  0.4490 -1.0528
 6085SOL     OW29887   0.122   4.041   9.276  0.1949  0.7085 -0.6326
 6085SOL    HW129888   0.209   4.064   9.309 -0.3553  1.9858 -0.1216
 6085SOL    HW229889   0.151   3.988   9.201  0.8796 -1.1795  0.9795
 6086SOL     OW29890   0.885   0.873  11.559  0.7357 -0.0338 -0.4794
 6086SOL    HW129891   0.980   0.888  11.557  1.0800 -2.2301  0.3376
 6086SOL    HW229892   0.882   0.778  11.558 -2.2440  0.0402  1.8004
 6087SOL     OW29893   0.265   1.776   3.228  0.4172 -0.5504  0.7541
 6087SOL    HW129894   0.246   1.846   3.166  0.7792 -2.5953 -1.6490
 6087SOL    HW229895   0.195   1.792   3.292 -0.9586 -0.0201 -0.8856
 6088SOL     OW29896   0.237   1.529  12.897  0.2509 -0.4049 -0.5301
 6088SOL    HW129897   0.243   1.542  12.803 -0.8206  2.1151 -0.2493
 6088SOL    HW229898   0.322   1.493  12.920 -1.1004 -1.6124  2.6339
 6089SOL     OW29899   0.278   0.822   4.451 -0.0052  0.4556 -0.2626
 6089SOL    HW129900   0.261   0.775   4.532 -1.7188 -0.8019 -1.3602
 6089SOL    HW229901   0.366   0.861   4.450  0.0503  0.3537  0.9066
 6090SOL     OW29902   4.120   3.800   8.819  0.7412 -0.0619  0.2375
 6090SOL    HW129903   4.039   3.757   8.789  1.2275 -2.3758  2.2501
 6090SOL    HW229904   4.140   3.743   8.893  1.7701 -0.7896 -0.6170
 6091SOL     OW29905   1.507   4.478   8.085 -0.0783  0.0035  0.3306
 6091SOL    HW129906   1.460   4.545   8.133 -1.6870 -1.7981  1.2485
 6091SOL    HW229907   1.521   4.417   8.157 -1.9992  1.9291  2.3175
 6092SOL     OW29908   3.965   3.538  12.299 -0.0157  0.1065  0.0244
 6092SOL    HW129909   3.991   3.478  12.229 -2.9491  1.4320 -2.1957
 6092SOL    HW229910   3.879   3.562  12.264  1.5116  2.3971 -2.1000
 6093SOL     OW29911   1.426   0.065   7.909 -0.5723  0.0053 -0.5428
 6093SOL    HW129912   1.349   0.021   7.872 -0.4612 -2.0554  1.7299
 6093SOL    HW229913   1.485   4.727   7.911  0.1262  0.5692 -0.1120
 6094SOL     OW29914   2.301   3.768  12.084 -0.6173  0.1944 -0.0769
 6094SOL    HW129915   2.299   3.792  12.177 -0.0574  1.7921 -0.4878
 6094SOL    HW229916   2.353   3.688  12.090 -3.8743 -1.8213  1.4332
 6095SOL     OW29917   0.478   2.452  13.322 -0.1418 -0.0330 -0.3896
 6095SOL    HW129918   0.571   2.472  13.317  0.4965 -2.7395  0.6711
 6095SOL    HW229919   0.460   2.479  13.412 -0.0842 -0.6717 -0.1830
 6096SOL     OW29920   0.937   1.666   9.258 -0.2392  0.2836 -0.0671
 6096SOL    HW129921   0.891   1.750   9.261  0.2661  0.5166  1.5152
 6096SOL    HW229922   0.867   1.613   9.220 -0.5592  0.0493  0.8328
 6097SOL     OW29923   4.598   0.930   3.978  0.6828  0.0882  0.4110
 6097SOL    HW129924   4.688   0.945   4.005  1.2625 -1.7610 -0.5507
 6097SOL    HW229925   4.602   0.972   3.892 -0.8954 -0.9253 -0.1592
 6098SOL     OW29926   0.694   1.448   8.907  0.6249  0.3225  0.3174
 6098SOL    HW129927   0.631   1.492   8.850  0.2962  3.4031  3.0851
 6098SOL    HW229928   0.694   1.361   8.867  2.8307  0.5236 -0.1101
 6099SOL     OW29929   2.907   2.868  17.518  0.0571 -0.4129 -0.4524
 6099SOL    HW129930   2.997   2.882  17.491 -0.5026  1.1774 -1.4866
 6099SOL    HW229931   2.859   2.907  17.445  0.0006  2.3298  1.0791
 6100SOL     OW29932   3.281   4.273   6.162  0.2992 -0.4795  0.0532
 6100SOL    HW129933   3.374   4.283   6.180 -0.5921  2.4172  3.0823
 6100SOL    HW229934   3.280   4.187   6.120 -0.7153 -0.4618  0.0277
 6101SOL     OW29935   3.785   0.677   3.709 -0.2727  0.1732 -0.2243
 6101SOL    HW129936   3.752   0.709   3.625 -0.0657 -0.0384 -0.3876
 6101SOL    HW229937   3.823   0.760   3.739  2.9197 -0.7024 -1.7191
 6102SOL     OW29938   4.341   1.904   1.558 -0.3798  0.4032 -0.2322
 6102SOL    HW129939   4.298   1.894   1.643  0.8275 -0.9125  0.2353
 6102SOL    HW229940   4.274   1.932   1.495 -1.8321  0.0124  1.1204
 6103SOL     OW29941   4.039   0.725   4.606 -0.1401 -0.0578 -0.2072
 6103SOL    HW129942   4.026   0.777   4.527 -1.1662  0.3636  0.2347
 6103SOL    HW229943   3.951   0.688   4.601  0.7786 -1.9228 -2.1803
 6104SOL     OW29944   0.591   2.496  16.596  0.0398 -0.3611 -0.4662
 6104SOL    HW129945   0.583   2.562  16.664  2.2307  2.6094 -3.0845
 6104SOL    HW229946   0.622   2.419  16.642  0.2402 -0.7422 -1.2309
 6105SOL     OW29947   3.725   4.557   2.610 -0.4175  0.8657 -0.0614
 6105SOL    HW129948   3.757   4.645   2.590  2.9488  0.2180  2.6522
 6105SOL    HW229949   3.802   4.502   2.600  0.1468  1.6264  0.1389
 6106SOL     OW29950   0.316   3.870   5.751  0.3389  0.3168 -0.2824
 6106SOL    HW129951   0.267   3.891   5.830  0.6884  0.9933 -0.2453
 6106SOL    HW229952   0.398   3.860   5.799  1.3542 -0.3802 -2.1390
 6107SOL     OW29953   1.325   0.847  11.320 -0.3751 -0.3640 -0.3075
 6107SOL    HW129954   1.289   0.782  11.381  1.2158 -1.3316 -0.4180
 6107SOL    HW229955   1.349   0.908  11.390 -0.6610  1.8507 -2.1238
 6108SOL     OW29956   3.918   4.012   4.596  0.1017 -0.1814 -0.7914
 6108SOL    HW129957   3.829   4.027   4.562 -0.0712 -3.0620 -1.5599
 6108SOL    HW229958   3.949   4.103   4.600  0.0900 -0.2452  0.9433
 6109SOL     OW29959   3.038   4.456   5.924 -0.1383 -0.3210  0.1151
 6109SOL    HW129960   3.081   4.376   5.895 -1.0208  0.0249 -2.1489
 6109SOL    HW229961   2.962   4.422   5.972 -1.0096 -0.5287 -1.3982
 6110SOL     OW29962   2.234   0.119   2.788  0.0819 -0.4211 -0.1973
 6110SOL    HW129963   2.213   0.195   2.842  2.6901 -1.1530  1.8546
 6110SOL    HW229964   2.209   0.042   2.840  0.7957 -0.5908 -0.1092
 6111SOL     OW29965   2.395   2.754   5.815 -0.5777  0.3144  0.5028
 6111SOL    HW129966   2.469   2.790   5.765 -0.1785 -1.2143 -0.0105
 6111SOL    HW229967   2.431   2.667   5.834  1.1666  0.8063 -0.5248
 6112SOL     OW29968   2.389   2.023   6.372  0.3916 -0.7799 -0.1118
 6112SOL    HW129969   2.373   2.064   6.456 -0.2571 -0.2930 -0.4750
 6112SOL    HW229970   2.403   2.104   6.322  2.7470 -1.6381 -0.8731
 6113SOL     OW29971   0.731   3.213   7.044  0.0651 -0.0666 -0.7317
 6113SOL    HW129972   0.816   3.252   7.026  1.0661 -1.1928  1.5108
 6113SOL    HW229973   0.702   3.165   6.966  1.9086 -0.0581 -1.4137
 6114SOL     OW29974   3.591   1.486   8.471  0.5082 -0.0051 -0.3083
 6114SOL    HW129975   3.527   1.552   8.500  0.9040  0.8709 -1.4202
 6114SOL    HW229976   3.596   1.510   8.378  1.2074 -0.8964 -0.5001
 6115SOL     OW29977   2.291   1.377   9.506  0.1635 -0.1176  0.2114
 6115SOL    HW129978   2.238   1.451   9.476  0.9700 -0.8031 -2.8941
 6115SOL    HW229979   2.363   1.366   9.443  0.5972 -2.1716  1.0624
 6116SOL     OW29980   1.364   0.634  15.214 -0.2669 -0.1865 -0.2580
 6116SOL    HW129981   1.292   0.671  15.265 -0.6665 -0.8422 -0.3353
 6116SOL    HW229982   1.440   0.657  15.268  0.0688  0.2099 -0.9107
 6117SOL     OW29983   3.377   3.208   3.907  0.2560  0.2678 -0.3748
 6117SOL    HW129984   3.438   3.237   3.839  2.2318 -0.4470  1.1003
 6117SOL    HW229985   3.394   3.114   3.913 -0.3551  0.1691 -0.1385
 6118SOL     OW29986   0.114   2.178   5.634 -0.0321  0.0465 -0.4607
 6118SOL    HW129987   0.195   2.214   5.598  1.2044 -1.1238  1.1690
 6118SOL    HW229988   0.158   2.143   5.711  0.0306  1.5567  0.2079
 6119SOL     OW29989   3.160   1.289   2.342 -0.4127 -0.0103  0.0172
 6119SOL    HW129990   3.197   1.223   2.400 -1.8870  0.2925  1.2985
 6119SOL    HW229991   3.229   1.304   2.276  0.0109 -1.6671  0.0832
 6120SOL     OW29992   3.802   4.472   5.322  0.0610 -0.3796 -0.5140
 6120SOL    HW129993   3.856   4.418   5.263  0.4809 -0.7100  0.1703
 6120SOL    HW229994   3.876   4.509   5.370 -0.1839  1.4410 -1.5051
 6121SOL     OW29995   2.763   2.021   9.774  0.3828  0.2715  0.4149
 6121SOL    HW129996   2.727   1.933   9.772  2.3435 -0.5428  0.8141
 6121SOL    HW229997   2.857   2.006   9.785  0.0901 -2.0757 -0.3011
 6122SOL     OW29998   4.253   0.109   6.673 -0.5238 -0.1311 -0.0527
 6122SOL    HW129999   4.189   0.175   6.647  0.6526  0.3072 -1.8320
 6122SOL    HW230000   4.251   0.050   6.597 -1.5696  0.0964 -0.2057
 6123SOL     OW30001   0.602   4.487   5.461 -0.0030 -0.7098 -0.4579
 6123SOL    HW130002   0.546   4.467   5.386 -2.0959  4.2957 -0.2538
 6123SOL    HW230003   0.549   4.558   5.497 -1.4198 -1.9428 -0.1082
 6124SOL     OW30004   0.043   2.009   9.621  0.2073  0.0430 -0.0855
 6124SOL    HW130005   0.137   2.021   9.630  0.0341 -0.7821  2.7714
 6124SOL    HW230006   0.023   1.977   9.709 -2.4725  0.0683 -0.6807
 6125SOL     OW30007   3.442   4.695  14.174  0.0648  0.3939  0.1626
 6125SOL    HW130008   3.524   0.001  14.151  0.8536  0.1492  2.5732
 6125SOL    HW230009   3.378   0.015  14.129 -2.1820 -2.0083  0.3276
 6126SOL     OW30010   1.768   4.292   6.320  0.1802  0.4642 -0.0631
 6126SOL    HW130011   1.780   4.350   6.245  0.0397  1.6366  0.8207
 6126SOL    HW230012   1.685   4.248   6.304  0.5429  0.5431 -2.1291
 6127SOL     OW30013   2.735   0.912   5.294 -0.8615  0.3716 -0.5868
 6127SOL    HW130014   2.743   0.919   5.389 -2.0439 -0.8121 -0.3982
 6127SOL    HW230015   2.795   0.841   5.271 -1.3863 -0.0642 -0.5969
 6128SOL     OW30016   2.996   3.369   3.013 -0.4452  0.4801  0.3576
 6128SOL    HW130017   3.075   3.316   3.015 -0.5014  0.3302 -1.7923
 6128SOL    HW230018   2.993   3.426   3.091 -0.1433  2.7453 -1.2820
 6129SOL     OW30019   4.115   1.703   7.725 -0.0387  0.1209 -0.2752
 6129SOL    HW130020   4.041   1.654   7.762  0.1501  0.4067  0.4908
 6129SOL    HW230021   4.066   1.747   7.656  1.3867 -3.1005 -3.3240
 6130SOL     OW30022   0.077   1.539   7.473  0.1522 -0.3850 -0.2182
 6130SOL    HW130023   4.726   1.548   7.512  0.4882 -0.5488  0.5916
 6130SOL    HW230024   0.078   1.601   7.401  2.0368 -0.3339 -0.1437
 6131SOL     OW30025   3.352   3.897   7.704 -0.4316 -0.1460  0.4319
 6131SOL    HW130026   3.341   3.961   7.634  1.9093  3.0884  3.0417
 6131SOL    HW230027   3.413   3.929   7.770 -0.1553 -1.2107  0.6925
 6132SOL     OW30028   0.000   3.256  16.184  0.2321 -0.0084 -0.0642
 6132SOL    HW130029   4.733   3.285  16.275 -1.4630 -0.2100 -0.0636
 6132SOL    HW230030   0.081   3.294  16.151 -0.7990  0.3546 -2.1402
 6133SOL     OW30031   0.210   3.169   6.284 -0.3730 -0.9360 -0.0252
 6133SOL    HW130032   0.259   3.247   6.257 -1.4332 -0.6029 -0.9668
 6133SOL    HW230033   0.278   3.109   6.253  1.2525  1.6272 -1.4725
 6134SOL     OW30034   0.424   0.300   5.664 -0.0485  0.1445  0.4022
 6134SOL    HW130035   0.466   0.356   5.730  1.6389 -1.0711  0.3633
 6134SOL    HW230036   0.461   0.212   5.659 -0.5340 -0.1412  1.8638
 6135SOL     OW30037   1.879   0.797   9.279 -0.4138 -0.4519 -0.4748
 6135SOL    HW130038   1.880   0.794   9.375  0.0487  0.2682 -0.4530
 6135SOL    HW230039   1.913   0.709   9.263  0.4731  0.1138 -1.7564
 6136SOL     OW30040   3.075   0.804   8.714 -0.2585  0.1017 -0.0414
 6136SOL    HW130041   3.116   0.880   8.671  1.0122 -0.2185  0.6260
 6136SOL    HW230042   2.996   0.798   8.659 -0.5074 -2.0673  0.5851
 6137SOL     OW30043   3.092   4.243   3.181 -0.5500  0.3699  0.0693
 6137SOL    HW130044   3.185   4.250   3.202 -0.1052 -1.1104 -1.3514
 6137SOL    HW230045   3.098   4.233   3.086 -0.6088  2.7438 -0.1919
 6138SOL     OW30046   1.106   0.947  10.431 -0.0525  0.3475 -0.5764
 6138SOL    HW130047   1.163   0.974  10.502 -0.7881  1.4713 -0.4221
 6138SOL    HW230048   1.070   1.033  10.412 -1.2146 -0.1788 -0.7658
 6139SOL     OW30049   1.635   0.735  11.613 -0.0456 -0.3746 -0.2236
 6139SOL    HW130050   1.575   0.661  11.605  0.0315 -0.4398 -0.1932
 6139SOL    HW230051   1.688   0.701  11.685 -0.2465 -0.2522 -0.0161
 6140SOL     OW30052   2.539   4.297   2.189 -0.0611  0.4959  0.1448
 6140SOL    HW130053   2.476   4.334   2.126  1.1941 -0.0554 -1.4427
 6140SOL    HW230054   2.552   4.368   2.251  0.9535 -0.7537  1.3664
 6141SOL     OW30055   4.064   1.200   6.356 -0.4877 -0.5003 -0.7512
 6141SOL    HW130056   3.975   1.179   6.326 -1.2996  1.6986  0.1079
 6141SOL    HW230057   4.085   1.278   6.304 -0.1987 -0.1279 -0.0740
 6142SOL     OW30058   2.354   2.891   1.605  0.0968 -0.1022 -0.1592
 6142SOL    HW130059   2.434   2.842   1.584 -0.4242 -1.8054  1.8568
 6142SOL    HW230060   2.391   2.979   1.606  0.0497 -0.0593 -1.2122
 6143SOL     OW30061   1.242   0.615   1.259  0.7990  0.6949 -0.3215
 6143SOL    HW130062   1.234   0.542   1.321  0.0908  0.9119 -0.1623
 6143SOL    HW230063   1.151   0.643   1.261  0.2372 -1.1978  1.0449
 6144SOL     OW30064   0.770   2.416   7.060  0.0883  0.1134  0.3267
 6144SOL    HW130065   0.801   2.328   7.082 -1.3372 -0.6795 -0.8401
 6144SOL    HW230066   0.686   2.394   7.020 -0.6052 -1.1639  2.4638
 6145SOL     OW30067   1.672   1.643   7.687 -0.7250 -0.4490  0.3932
 6145SOL    HW130068   1.587   1.605   7.709  0.0568 -2.1925  0.4380
 6145SOL    HW230069   1.732   1.581   7.727 -1.5217 -2.2272 -1.1972
 6146SOL     OW30070   3.371   2.887   3.558 -0.3792  0.3355 -1.1090
 6146SOL    HW130071   3.425   2.953   3.514  0.5796 -0.8236 -1.6797
 6146SOL    HW230072   3.294   2.877   3.502 -1.2759 -1.6193  0.4700
 6147SOL     OW30073   4.155   1.578  14.228 -0.2431  0.2122 -0.1429
 6147SOL    HW130074   4.102   1.591  14.307  1.7327 -0.8985  1.3737
 6147SOL    HW230075   4.197   1.497  14.258 -0.4030  0.1337 -0.1298
 6148SOL     OW30076   2.857   2.993   5.920  0.0624 -0.3648  0.0245
 6148SOL    HW130077   2.888   3.063   5.978  0.0202 -0.2132 -0.1379
 6148SOL    HW230078   2.925   2.929   5.940 -1.8358 -1.8566  1.6837
 6149SOL     OW30079   3.218   0.495   5.794  0.5169 -0.3142 -0.3271
 6149SOL    HW130080   3.201   0.414   5.843  0.8522 -0.8201 -1.0434
 6149SOL    HW230081   3.294   0.523   5.843 -0.6116  0.1427  1.1655
 6150SOL     OW30082   2.372   0.431   3.451 -0.0381  0.2622  0.0449
 6150SOL    HW130083   2.292   0.483   3.440  0.0404  0.0653 -1.4552
 6150SOL    HW230084   2.344   0.357   3.504 -1.1009 -0.7779 -1.9476
 6151SOL     OW30085   2.839   3.780   5.212 -1.1537 -0.0437 -0.0797
 6151SOL    HW130086   2.878   3.867   5.209 -0.1114 -0.4911  0.5536
 6151SOL    HW230087   2.889   3.733   5.145  0.6213 -0.6662  1.6686
 6152SOL     OW30088   1.418   0.533  10.504  0.2972 -0.0292 -0.4095
 6152SOL    HW130089   1.492   0.590  10.522  0.1026  0.0248  0.2133
 6152SOL    HW230090   1.345   0.591  10.525 -1.0734 -1.9382  0.0938
 6153SOL     OW30091   0.840   0.500   3.117 -0.2896  0.6171 -0.1946
 6153SOL    HW130092   0.890   0.580   3.100 -3.0945  2.1510 -1.3911
 6153SOL    HW230093   0.868   0.439   3.049 -0.6482 -0.7499  0.8813
 6154SOL     OW30094   2.046   0.816   2.333 -0.7996 -0.5048  0.0645
 6154SOL    HW130095   2.116   0.832   2.396 -1.2552 -0.3915  0.5457
 6154SOL    HW230096   1.973   0.862   2.374 -1.3801  0.1930 -1.7491
 6155SOL     OW30097   2.189   2.772   5.994  0.1626 -0.5174 -0.2904
 6155SOL    HW130098   2.129   2.703   5.966 -2.4233  1.0570  1.3414
 6155SOL    HW230099   2.270   2.762   5.945 -0.1398 -1.9743 -0.5008
 6156SOL     OW30100   4.653   1.921   3.828 -0.4769 -0.2338 -0.2611
 6156SOL    HW130101   4.576   1.972   3.854 -0.5815 -0.5220 -0.0052
 6156SOL    HW230102   4.665   1.861   3.901  1.8398  0.5851  0.0406
 6157SOL     OW30103   0.957   3.002  10.679  0.1769  0.0964  0.1203
 6157SOL    HW130104   0.889   2.974  10.618 -1.6119  2.7790  0.8640
 6157SOL    HW230105   0.948   3.097  10.685  1.0633  0.0419  2.3530
 6158SOL     OW30106   4.444   1.127   8.949 -0.4157 -0.4367  0.4067
 6158SOL    HW130107   4.522   1.183   8.945  1.3081 -2.7990  1.1881
 6158SOL    HW230108   4.420   1.131   9.041 -0.9616  1.6021  0.1928
 6159SOL     OW30109   2.684   3.116   7.736 -0.2385 -0.2937  0.2919
 6159SOL    HW130110   2.642   3.153   7.658 -2.3452  1.5090  2.2790
 6159SOL    HW230111   2.622   3.082   7.800 -1.3475  0.0031 -0.6264
 6160SOL     OW30112   2.438   4.043   2.315 -0.4107  0.2224  0.1895
 6160SOL    HW130113   2.506   4.108   2.297 -1.1101  0.8657 -0.1191
 6160SOL    HW230114   2.357   4.092   2.312  1.2077  2.9066  0.7429
 6161SOL     OW30115   4.411   1.240  16.913  0.1325  0.1890 -0.0567
 6161SOL    HW130116   4.450   1.171  16.966  0.3155  0.5385  0.2640
 6161SOL    HW230117   4.469   1.259  16.840 -0.8227  3.0929 -0.0683
 6162SOL     OW30118   2.266   2.391   4.587 -0.0846  0.1496  0.1564
 6162SOL    HW130119   2.188   2.440   4.613 -0.9856 -1.6194  0.7662
 6162SOL    HW230120   2.339   2.434   4.631 -2.5054  2.3323  2.0226
 6163SOL     OW30121   1.154   4.454  17.315 -0.1993  0.2067  0.1442
 6163SOL    HW130122   1.227   4.479  17.371 -1.9008 -1.8417  3.2841
 6163SOL    HW230123   1.108   4.390  17.370 -0.4420 -1.6559 -2.1992
 6164SOL     OW30124   2.390   3.484   6.659 -0.1590 -0.1445 -0.2515
 6164SOL    HW130125   2.458   3.527   6.712 -1.0308  2.0022 -0.8853
 6164SOL    HW230126   2.450   3.446   6.595 -0.1518  1.3215 -1.1111
 6165SOL     OW30127   0.345   1.827   7.284  0.1232  0.2318 -0.4566
 6165SOL    HW130128   0.411   1.788   7.342  1.0526  0.3067 -1.4667
 6165SOL    HW230129   0.389   1.834   7.199  1.4131 -0.1818  0.1646
 6166SOL     OW30130   0.203   1.001   9.968 -0.5505 -0.2001  0.9192
 6166SOL    HW130131   0.258   0.923   9.975  0.0415  0.2885  1.6286
 6166SOL    HW230132   0.218   1.046  10.051  2.5977  1.3083 -0.4537
 6167SOL     OW30133   1.510   2.956   2.696  0.1618  0.1486 -0.7671
 6167SOL    HW130134   1.604   2.950   2.716 -0.4769 -1.4078  1.7830
 6167SOL    HW230135   1.481   2.902   2.770  0.0827  0.8755 -0.2632
 6168SOL     OW30136   2.591   0.450   5.211 -0.7962 -0.4133  0.2893
 6168SOL    HW130137   2.527   0.476   5.278 -1.1454  1.5453 -0.8249
 6168SOL    HW230138   2.637   0.383   5.262 -1.0106 -1.4836 -0.9102
 6169SOL     OW30139   3.851   3.610   8.462  0.2200  0.7772 -0.1071
 6169SOL    HW130140   3.915   3.677   8.486  1.8353 -0.6746 -0.2980
 6169SOL    HW230141   3.810   3.585   8.545 -1.0231 -0.6099 -1.1291
 6170SOL     OW30142   2.578   0.519  14.169  0.1483  0.3174  0.4513
 6170SOL    HW130143   2.521   0.596  14.163 -0.6595 -0.2890  0.3776
 6170SOL    HW230144   2.635   0.543  14.242  1.9004 -2.5883  0.0389
 6171SOL     OW30145   3.416   3.792   2.712  0.3013  0.2404  0.0058
 6171SOL    HW130146   3.379   3.796   2.800 -2.9240  0.8237 -1.3870
 6171SOL    HW230147   3.370   3.866   2.672 -1.0208 -1.2907 -1.2730
 6172SOL     OW30148   2.704   4.305   2.407 -0.1721 -0.2681 -0.3180
 6172SOL    HW130149   2.709   4.311   2.503  0.1843 -2.5078 -0.2019
 6172SOL    HW230150   2.779   4.362   2.390  0.6081 -0.3633  2.8338
 6173SOL     OW30151   3.594   0.765   5.526 -0.3968 -0.0982  0.0063
 6173SOL    HW130152   3.601   0.683   5.478  1.4273  0.2678 -0.3678
 6173SOL    HW230153   3.501   0.782   5.513 -0.3751  0.9461  1.1718
 6174SOL     OW30154   2.091   1.594  16.041 -0.5106 -0.0265 -0.2394
 6174SOL    HW130155   2.142   1.640  16.108  0.2802 -2.5369  0.8463
 6174SOL    HW230156   2.010   1.644  16.047 -0.4829 -0.1468  1.2891
 6175SOL     OW30157   0.063   2.475   5.320  0.3807 -0.4206  0.5968
 6175SOL    HW130158   0.152   2.507   5.303 -0.4820  1.9871  0.6120
 6175SOL    HW230159   0.071   2.388   5.281  2.7546  0.4984 -0.9681
 6176SOL     OW30160   2.929   3.708   6.268 -0.4358  0.8465 -0.6652
 6176SOL    HW130161   2.967   3.621   6.267  1.1587  1.5513 -1.9157
 6176SOL    HW230162   2.999   3.754   6.314  0.0595  0.8001 -1.3719
 6177SOL     OW30163   1.981   2.655   6.455  0.5699  0.1075 -0.0246
 6177SOL    HW130164   1.936   2.668   6.372 -0.5034  0.7238  0.6518
 6177SOL    HW230165   1.928   2.589   6.500  2.5230 -1.3884  0.0931
 6178SOL     OW30166   4.027   1.061   9.386  0.0574  0.2110 -0.6731
 6178SOL    HW130167   4.086   1.135   9.394  0.0914  0.1239 -0.1542
 6178SOL    HW230168   3.944   1.107   9.376  1.3617  2.7209  0.1490
 6179SOL     OW30169   0.992   1.309   8.469  0.4054 -0.4016 -0.0910
 6179SOL    HW130170   1.025   1.220   8.468  4.1889  1.0120 -0.8126
 6179SOL    HW230171   0.923   1.297   8.404  0.2785  1.5460 -0.3136
 6180SOL     OW30172   1.850   1.938   1.367 -0.3191  0.2895  0.5490
 6180SOL    HW130173   1.855   1.846   1.340  0.5546 -0.2683  2.6235
 6180SOL    HW230174   1.778   1.941   1.431  0.2363 -1.0084  1.2594
 6181SOL     OW30175   4.637   3.409  12.660  0.3521 -0.3586 -0.3523
 6181SOL    HW130176   4.660   3.498  12.687  0.1239  0.2525 -2.1734
 6181SOL    HW230177   4.574   3.428  12.590  0.8484  0.6474 -0.5434
 6182SOL     OW30178   2.349   2.257   3.173 -0.1211 -0.0417  0.3908
 6182SOL    HW130179   2.284   2.289   3.235 -0.2610 -0.7605  0.6145
 6182SOL    HW230180   2.326   2.311   3.097 -3.3906  0.3751  1.6820
 6183SOL     OW30181   0.682   2.225   6.448 -0.3709 -0.0224 -0.5128
 6183SOL    HW130182   0.751   2.287   6.472 -0.7350  0.2078 -0.0654
 6183SOL    HW230183   0.609   2.251   6.505 -1.5062 -0.6526 -1.6861
 6184SOL     OW30184   1.490   0.461   9.837  0.1474 -0.0334 -0.4860
 6184SOL    HW130185   1.556   0.457   9.907  1.8357 -1.0944 -2.1503
 6184SOL    HW230186   1.427   0.507   9.892  0.8840  0.3480  0.0474
 6185SOL     OW30187   0.464   0.908   9.224  0.2443  0.0247 -0.3138
 6185SOL    HW130188   0.456   0.866   9.310 -0.8051 -0.3616 -0.6100
 6185SOL    HW230189   0.528   0.979   9.235  1.0644 -0.7765  0.0980
 6186SOL     OW30190   1.717   3.141   7.734 -0.1144  0.2011 -0.0643
 6186SOL    HW130191   1.706   3.061   7.682  0.1576  1.7169 -2.4338
 6186SOL    HW230192   1.734   3.096   7.817  2.4827 -0.3199 -0.8709
 6187SOL     OW30193   3.589   2.950   7.208 -0.0976  0.1103 -0.4647
 6187SOL    HW130194   3.572   2.925   7.299  0.6335  1.8555  0.1401
 6187SOL    HW230195   3.650   3.023   7.217  0.2360 -0.1757 -0.4309
 6188SOL     OW30196   1.715   1.121  17.327  0.0063  0.1196 -0.2423
 6188SOL    HW130197   1.689   1.186  17.392 -2.4647 -1.2728  0.1742
 6188SOL    HW230198   1.755   1.174  17.258  1.7712 -0.8420  0.0518
 6189SOL     OW30199   3.683   0.931   2.205  0.0242  0.3677  0.0904
 6189SOL    HW130200   3.736   0.851   2.199 -0.9446 -0.2630  0.0524
 6189SOL    HW230201   3.740   0.993   2.251 -1.1171  1.0693  0.5585
 6190SOL     OW30202   0.451   4.340   4.942 -0.2368  0.1647  0.3348
 6190SOL    HW130203   0.387   4.269   4.945 -1.2381  1.1122  1.4100
 6190SOL    HW230204   0.400   4.410   4.981 -1.5792 -0.9086  0.5029
 6191SOL     OW30205   4.247   1.046   8.169  0.6016  0.2842  0.1139
 6191SOL    HW130206   4.320   1.048   8.231  2.3983  1.8287 -2.1132
 6191SOL    HW230207   4.261   0.967   8.117  1.3905  0.4548  0.0798
 6192SOL     OW30208   1.190   0.903   8.961 -0.0956 -0.1899  0.6969
 6192SOL    HW130209   1.153   0.904   9.049  0.6593 -1.3622  1.0243
 6192SOL    HW230210   1.262   0.960   8.989  0.0961  0.7438 -1.6316
 6193SOL     OW30211   3.423   3.593   4.093 -0.2002 -0.2202  0.5115
 6193SOL    HW130212   3.419   3.499   4.114 -2.0577 -0.2406  0.0484
 6193SOL    HW230213   3.339   3.607   4.049 -0.2676  1.4347  1.1637
 6194SOL     OW30214   1.733   0.051   0.959  0.6543 -0.1695  0.5684
 6194SOL    HW130215   1.780   4.705   0.951  0.0545 -0.4496 -0.0914
 6194SOL    HW230216   1.736   0.082   1.049 -1.3607  0.9148  0.2662
 6195SOL     OW30217   2.179   2.217   5.492  0.5255  0.4036  0.4003
 6195SOL    HW130218   2.219   2.134   5.518 -0.9053 -0.1485  0.8089
 6195SOL    HW230219   2.215   2.266   5.566  0.3668  1.7827 -0.4396
 6196SOL     OW30220   0.100   1.675  16.865  0.1362  0.2480  0.2471
 6196SOL    HW130221   0.012   1.668  16.901 -0.4217  1.5433 -0.8600
 6196SOL    HW230222   0.159   1.701  16.937 -0.5359 -1.2653  1.3379
 6197SOL     OW30223   0.539   4.696   2.569 -1.1963 -0.5979 -0.5622
 6197SOL    HW130224   0.545   4.720   2.662 -0.8947 -0.9889 -0.4789
 6197SOL    HW230225   0.619   4.644   2.560  0.6015  1.9512  0.8066
 6198SOL     OW30226   2.063   0.449  11.570 -0.3333  0.1112 -0.2914
 6198SOL    HW130227   2.001   0.386  11.607 -0.7600  0.8801  0.3306
 6198SOL    HW230228   2.112   0.395  11.509 -1.7861 -1.3975 -0.1374
 6199SOL     OW30229   1.485   1.421   8.553  0.5427 -0.3193 -0.2336
 6199SOL    HW130230   1.538   1.342   8.559  1.0196 -0.0795 -1.2780
 6199SOL    HW230231   1.400   1.378   8.548  0.8387 -1.3398  3.1428
 6200SOL     OW30232   0.506   0.617  14.090  0.1099 -0.1306 -0.2969
 6200SOL    HW130233   0.416   0.583  14.093 -0.9837  2.5068 -2.5844
 6200SOL    HW230234   0.526   0.641  14.180 -1.3435 -0.0985  0.0266
 6201SOL     OW30235   3.125   3.086   4.039  0.1134 -0.4625  0.0094
 6201SOL    HW130236   3.126   3.182   4.036  2.3498 -0.3257  3.8181
 6201SOL    HW230237   3.146   3.049   3.954 -0.7927 -0.8288 -0.0476
 6202SOL     OW30238   0.823   1.239   5.253  0.2535 -0.2197 -0.0290
 6202SOL    HW130239   0.812   1.170   5.318 -0.4796 -0.9269 -0.9077
 6202SOL    HW230240   0.897   1.204   5.204 -0.5572 -2.4000  0.3204
 6203SOL     OW30241   4.690   0.662  15.926 -0.0368  0.2350  0.2214
 6203SOL    HW130242   4.606   0.635  15.888  0.2994  1.1553 -1.1936
 6203SOL    HW230243   4.677   0.756  15.929  0.2356  0.2582  0.7705
 6204SOL     OW30244   4.673   2.667   4.155 -0.1698 -0.6102  0.1594
 6204SOL    HW130245   4.661   2.658   4.250  1.3011 -1.7658  0.2314
 6204SOL    HW230246   4.668   2.762   4.149 -3.5459 -0.9471 -2.3654
 6205SOL     OW30247   0.373   2.462   2.396  0.1134 -0.1841 -0.2814
 6205SOL    HW130248   0.466   2.470   2.421 -0.2223  0.9003  0.6279
 6205SOL    HW230249   0.375   2.517   2.318  3.9802 -1.4814 -1.1147
 6206SOL     OW30250   1.004   0.086   9.988 -0.3870 -0.0435  1.2383
 6206SOL    HW130251   1.027   0.051  10.074  0.1619 -2.0394  0.2832
 6206SOL    HW230252   1.060   0.163   9.992 -1.3313  0.6480  1.0179
 6207SOL     OW30253   1.742   4.104   3.701  0.4902  0.2691 -0.1005
 6207SOL    HW130254   1.740   4.070   3.611  1.2441  0.0528 -0.0338
 6207SOL    HW230255   1.783   4.190   3.691 -0.4132  0.8688  1.5050
 6208SOL     OW30256   4.264   0.910  10.984 -0.3652 -0.2260  0.0522
 6208SOL    HW130257   4.261   0.874  11.072  1.2266 -1.1847 -0.2746
 6208SOL    HW230258   4.201   0.982  10.985 -0.3335 -0.2325  1.6769
 6209SOL     OW30259   3.193   1.622  12.984 -0.1555 -0.7960  0.1969
 6209SOL    HW130260   3.205   1.669  12.901 -3.6869  3.8206  2.3220
 6209SOL    HW230261   3.128   1.665  13.039 -0.2463 -1.5463  0.6875
 6210SOL     OW30262   1.373   1.295   8.989 -0.0005  0.1226 -0.6638
 6210SOL    HW130263   1.362   1.286   8.894  1.8981  0.0661 -0.8680
 6210SOL    HW230264   1.461   1.259   8.993  0.4438  0.9897 -2.5046
 6211SOL     OW30265   1.656   0.983  11.348  0.0736 -0.0864 -0.2392
 6211SOL    HW130266   1.616   0.968  11.262 -0.2959  3.6942 -0.7391
 6211SOL    HW230267   1.715   1.055  11.325 -1.0941  0.6855 -0.8183
 6212SOL     OW30268   0.208   3.604   8.579  0.6770  0.7485  0.1296
 6212SOL    HW130269   0.215   3.695   8.551 -1.4227  0.8802 -0.0263
 6212SOL    HW230270   0.298   3.571   8.580  0.3528 -0.1514 -0.1176
 6213SOL     OW30271   2.414   1.871   8.357  0.2270 -0.6253 -0.3979
 6213SOL    HW130272   2.480   1.802   8.348 -0.5688 -1.3451 -0.6897
 6213SOL    HW230273   2.377   1.855   8.444 -1.1294 -0.6244 -0.9806
 6214SOL     OW30274   2.490   1.421   8.449  0.3518  0.0416 -0.1120
 6214SOL    HW130275   2.399   1.442   8.428 -0.2276 -3.4262 -0.9664
 6214SOL    HW230276   2.483   1.357   8.520 -2.5818  1.3611  0.8076
 6215SOL     OW30277   0.992   3.961  15.820 -0.2533 -0.1364  0.4646
 6215SOL    HW130278   0.932   3.985  15.750  2.9037  0.7201 -1.9557
 6215SOL    HW230279   1.051   4.037  15.828 -0.9739  0.1632  2.9447
 6216SOL     OW30280   0.417   0.902  16.667 -0.6038 -0.0599  0.2618
 6216SOL    HW130281   0.507   0.912  16.700 -0.4178 -2.8345  0.6299
 6216SOL    HW230282   0.433   0.826  16.610  1.0310  0.5082 -0.0601
 6217SOL     OW30283   2.251   1.297  16.677  0.0970 -0.2216  0.0676
 6217SOL    HW130284   2.238   1.243  16.755 -0.4453  0.2223  0.2870
 6217SOL    HW230285   2.303   1.369  16.712  1.4483 -1.2253  0.0987
 6218SOL     OW30286   1.626   1.559   0.491  0.1782  0.1542  0.3192
 6218SOL    HW130287   1.625   1.526   0.581 -0.1555  0.6594  0.5035
 6218SOL    HW230288   1.594   1.482   0.444  0.1405 -0.0732  0.7239
 6219SOL     OW30289   1.230   3.884   0.806 -0.2197  0.4673 -0.0228
 6219SOL    HW130290   1.286   3.856   0.878 -0.6204 -2.2123 -0.7303
 6219SOL    HW230291   1.157   3.824   0.823 -1.0049  1.9983  2.0191
 6220SOL     OW30292   4.329   3.792  17.238  0.2764  0.2878  0.1747
 6220SOL    HW130293   4.285   3.728  17.182  1.8191  0.6205 -1.4424
 6220SOL    HW230294   4.269   3.866  17.241  0.6227  0.4446  3.5464
 6221SOL     OW30295   1.848   0.170   7.827 -0.0268 -0.1158 -0.0134
 6221SOL    HW130296   1.766   0.207   7.859  0.3307 -0.1195  0.9095
 6221SOL    HW230297   1.823   0.102   7.764 -2.4975 -0.2261  1.0469
 6222SOL     OW30298   3.049   4.318   0.621  0.0226 -0.2698  0.5870
 6222SOL    HW130299   2.985   4.331   0.690  3.2073 -0.4778  3.5985
 6222SOL    HW230300   3.048   4.399   0.569  0.2347 -0.3534  0.4515
 6223SOL     OW30301   1.628   0.259   8.196  0.0457  0.4525  0.5045
 6223SOL    HW130302   1.638   0.247   8.101 -0.2385 -0.2930  0.5737
 6223SOL    HW230303   1.535   0.279   8.210 -0.0545 -1.4935  2.6142
 6224SOL     OW30304   2.405   4.553   1.121 -0.0149 -0.3610 -0.4373
 6224SOL    HW130305   2.402   4.640   1.160  2.6523  0.1797 -1.3688
 6224SOL    HW230306   2.387   4.574   1.030  1.2952 -1.6704 -1.0133
 6225SOL     OW30307   2.299   2.395   7.981 -0.0210  0.1378  0.1775
 6225SOL    HW130308   2.256   2.373   7.899 -0.7331  0.3826  0.4843
 6225SOL    HW230309   2.387   2.359   7.971 -0.6178 -0.8712 -1.3337
 6226SOL     OW30310   4.069   2.929   7.482 -0.2281  0.2111  0.3016
 6226SOL    HW130311   4.027   3.011   7.456  1.1963  0.6285 -0.7028
 6226SOL    HW230312   4.152   2.945   7.437 -0.6447  0.3351 -0.4223
 6227SOL     OW30313   0.146   1.362   5.639  0.0937  0.1244  0.4415
 6227SOL    HW130314   0.199   1.441   5.629  2.1817 -1.4576 -0.8896
 6227SOL    HW230315   0.190   1.309   5.706  2.8872  2.4975  0.4696
 6228SOL     OW30316   2.592   0.446  17.304 -0.8448  0.4565  0.5401
 6228SOL    HW130317   2.561   0.531  17.274 -2.9148 -0.1208  1.0842
 6228SOL    HW230318   2.512   0.396  17.289  0.9964 -2.7169  1.2422
 6229SOL     OW30319   1.737   2.707   8.030  0.2698 -0.1959  0.3243
 6229SOL    HW130320   1.643   2.691   8.043  0.0433 -0.1370 -1.2576
 6229SOL    HW230321   1.755   2.624   7.985 -0.6291 -1.2469  1.9041
 6230SOL     OW30322   1.613   0.258  15.244 -0.1012  0.0179  0.4870
 6230SOL    HW130323   1.631   0.170  15.278  2.3933  0.4412  0.3099
 6230SOL    HW230324   1.585   0.228  15.158  0.1295  0.7182  0.1724
 6231SOL     OW30325   3.868   2.766  12.752  0.6126  0.1050  0.3930
 6231SOL    HW130326   3.922   2.815  12.814 -0.7255  0.6058  1.1431
 6231SOL    HW230327   3.781   2.806  12.759  0.2762 -0.3405 -1.3139
 6232SOL     OW30328   0.651   4.269   4.780 -0.3422 -0.1432  0.2718
 6232SOL    HW130329   0.589   4.300   4.846 -0.1129 -0.1299  0.4853
 6232SOL    HW230330   0.601   4.200   4.737  0.6871 -1.0299  0.5014
 6233SOL     OW30331   2.387   0.305   2.129  0.5483 -0.1356  0.3130
 6233SOL    HW130332   2.399   0.390   2.087  1.1387  0.3063  1.3794
 6233SOL    HW230333   2.298   0.289   2.099 -0.2589  0.5691  2.3600
 6234SOL     OW30334   1.052   2.394  11.680 -0.3224 -0.3468  0.0096
 6234SOL    HW130335   1.038   2.406  11.586 -0.2425 -0.9431 -0.0777
 6234SOL    HW230336   1.089   2.481  11.694 -0.1211  0.0621 -3.0257
 6235SOL     OW30337   2.421   0.176  10.330  0.9146  0.5132 -0.2929
 6235SOL    HW130338   2.458   0.264  10.332 -0.0597  0.8958  0.9052
 6235SOL    HW230339   2.373   0.185  10.412 -2.2724 -1.4497 -1.9638
 6236SOL     OW30340   3.723   1.350   3.391 -0.9478 -0.5104  0.0685
 6236SOL    HW130341   3.760   1.406   3.322 -0.5317 -1.0311 -0.1332
 6236SOL    HW230342   3.802   1.325   3.438 -0.7314  2.0684  1.0480
 6237SOL     OW30343   3.241   0.601  15.568 -0.3123  0.2965 -0.3790
 6237SOL    HW130344   3.204   0.620  15.654  0.6888  1.1707 -0.1310
 6237SOL    HW230345   3.170   0.627  15.510  0.8772  0.0446 -1.9400
 6238SOL     OW30346   1.992   1.084   6.928 -0.1810  0.2597 -0.5612
 6238SOL    HW130347   1.919   1.111   6.872  0.3428  0.0168 -1.3679
 6238SOL    HW230348   2.067   1.126   6.887 -0.2283  0.6346 -0.2631
 6239SOL     OW30349   2.096   3.083   9.020 -0.3478  0.6130  0.5087
 6239SOL    HW130350   2.113   3.015   9.085  0.3058  0.3326  0.0502
 6239SOL    HW230351   2.005   3.057   9.009 -0.5327  0.9172  1.3894
 6240SOL     OW30352   1.526   0.604   1.339  0.4222 -0.3725 -0.7899
 6240SOL    HW130353   1.432   0.611   1.321  0.4358  0.9110 -0.3701
 6240SOL    HW230354   1.531   0.615   1.434 -0.2411 -0.6820 -0.7208
 6241SOL     OW30355   1.055   2.616  10.078  0.2012 -0.3824 -0.3642
 6241SOL    HW130356   1.037   2.552  10.009  3.0961  0.2403 -1.7198
 6241SOL    HW230357   1.013   2.582  10.157  1.1418 -1.5647 -0.3628
 6242SOL     OW30358   2.820   0.733   4.940  0.4779 -0.6719 -0.6465
 6242SOL    HW130359   2.849   0.798   5.004 -2.0278 -0.3717  0.1635
 6242SOL    HW230360   2.751   0.768   4.884  0.1199  2.8835  2.0492
 6243SOL     OW30361   3.960   0.470   4.278  0.5317  0.4218 -0.6339
 6243SOL    HW130362   3.926   0.455   4.189 -1.3011 -1.3478  0.3821
 6243SOL    HW230363   3.884   0.517   4.311  0.9147  1.4884 -1.2747
 6244SOL     OW30364   0.266   2.116  12.259  0.1426  0.1658  0.4856
 6244SOL    HW130365   0.291   2.200  12.220 -0.6605  0.3736  0.4182
 6244SOL    HW230366   0.177   2.134  12.288  0.7431 -0.1635  2.4875
 6245SOL     OW30367   4.112   1.955   6.340  0.4291 -0.0653  0.2329
 6245SOL    HW130368   4.135   2.044   6.313  1.7323 -0.8298 -1.1977
 6245SOL    HW230369   4.190   1.901   6.324  0.7591  0.8548 -1.3034
 6246SOL     OW30370   3.010   4.373   5.377  0.2708  0.5457 -0.3241
 6246SOL    HW130371   3.093   4.332   5.353 -0.8152 -0.9038 -1.6428
 6246SOL    HW230372   2.973   4.302   5.430  1.1575 -0.4354 -1.0422
 6247SOL     OW30373   2.959   1.784  11.993  0.6081  0.7153  0.0680
 6247SOL    HW130374   2.908   1.864  11.983  0.4271  0.8646  2.2017
 6247SOL    HW230375   2.966   1.774  12.087  0.5867 -2.0739 -0.2302
 6248SOL     OW30376   0.782   1.988   2.923 -0.4219  0.3787  0.3186
 6248SOL    HW130377   0.817   2.053   2.863  0.3596  3.0971  3.7332
 6248SOL    HW230378   0.858   1.971   2.980 -0.5285 -0.8635  0.0993
 6249SOL     OW30379   0.180   0.506   9.497 -0.5240 -0.1270 -0.3522
 6249SOL    HW130380   0.216   0.585   9.457 -0.2046  0.2830  0.7488
 6249SOL    HW230381   0.114   0.528   9.563  0.0506 -1.2396  0.6055
 6250SOL     OW30382   0.262   3.084   5.826  0.0017 -0.3449  0.2361
 6250SOL    HW130383   0.316   3.023   5.877 -1.1818  0.3051  2.2816
 6250SOL    HW230384   0.270   3.047   5.739 -1.2236 -1.8401  0.7687
 6251SOL     OW30385   3.523   3.229  11.123 -0.2512  0.4832 -0.1594
 6251SOL    HW130386   3.593   3.247  11.186  0.7286  1.0757 -1.4034
 6251SOL    HW230387   3.542   3.294  11.054  0.8243  0.2827 -0.0604
 6252SOL     OW30388   2.942   0.281   3.016  0.0004 -0.0247  0.2054
 6252SOL    HW130389   3.025   0.241   3.040 -0.2647 -1.4937 -1.3466
 6252SOL    HW230390   2.925   0.231   2.936  0.8392 -0.1558  0.1078
 6253SOL     OW30391   4.274   4.234   7.946  0.1306  0.0212  0.2416
 6253SOL    HW130392   4.235   4.321   7.945 -1.9560 -0.9102  0.1902
 6253SOL    HW230393   4.301   4.239   7.854  3.4718 -1.0571  1.2017
 6254SOL     OW30394   1.924   4.262  11.121 -0.2625 -0.2770  0.1402
 6254SOL    HW130395   1.979   4.335  11.091  2.0296 -1.4518  1.5282
 6254SOL    HW230396   1.998   4.232  11.174 -0.0791 -0.6299 -0.3235
 6255SOL     OW30397   4.440   1.622   2.088  0.1314  0.2913  0.0425
 6255SOL    HW130398   4.377   1.648   2.022 -0.2250  1.7866  0.9832
 6255SOL    HW230399   4.490   1.702   2.106  1.2553 -0.4283  0.1105
 6256SOL     OW30400   4.500   1.462  10.065  0.2367 -0.0713  0.3242
 6256SOL    HW130401   4.552   1.454   9.985 -1.8181  0.2000 -1.0390
 6256SOL    HW230402   4.558   1.445  10.140  1.6267 -2.1731 -1.1978
 6257SOL     OW30403   3.454   3.369   8.575  0.3687  0.0757  0.0297
 6257SOL    HW130404   3.394   3.443   8.572  0.2052 -0.0715 -0.4151
 6257SOL    HW230405   3.418   3.319   8.501  0.0264 -0.1904  0.3796
 6258SOL     OW30406   0.833   2.418   3.535  0.6887 -0.2083 -0.1161
 6258SOL    HW130407   0.915   2.458   3.565  0.5220 -1.3402  1.8622
 6258SOL    HW230408   0.871   2.336   3.502  0.5770 -0.2411 -0.1608
 6259SOL     OW30409   4.546   3.757   9.031 -0.2450 -0.2231  0.2806
 6259SOL    HW130410   4.629   3.803   9.034  0.0868 -0.9447  1.8890
 6259SOL    HW230411   4.548   3.728   8.939  1.5271 -0.5975  0.4406
 6260SOL     OW30412   3.480   1.508   4.290 -0.1012  0.4733  0.5889
 6260SOL    HW130413   3.526   1.549   4.363  0.1541  0.3495  0.4986
 6260SOL    HW230414   3.536   1.518   4.213 -1.1783  0.3633 -0.2116
 6261SOL     OW30415   3.680   4.130  14.587 -0.2702 -0.0017 -0.3234
 6261SOL    HW130416   3.633   4.055  14.623  0.6274 -0.1352  0.5692
 6261SOL    HW230417   3.763   4.086  14.568  0.4665  2.4308 -2.6320
 6262SOL     OW30418   2.518   0.799   0.940 -0.3241  0.3547  0.4969
 6262SOL    HW130419   2.464   0.719   0.936 -0.3532  0.3583  0.8335
 6262SOL    HW230420   2.445   0.861   0.931 -2.2005 -1.8686  0.2650
 6263SOL     OW30421   2.774   2.714   9.205  0.3818 -0.3288 -0.6378
 6263SOL    HW130422   2.758   2.646   9.271  0.0034 -1.1459 -1.5631
 6263SOL    HW230423   2.700   2.699   9.147 -0.1584  0.0461 -0.0384
 6264SOL     OW30424   1.985   0.250   1.497 -0.3936 -0.2040  0.0140
 6264SOL    HW130425   1.904   0.295   1.521 -0.7711 -0.5745 -0.5672
 6264SOL    HW230426   1.956   0.161   1.515 -1.9543  0.1440 -0.7712
 6265SOL     OW30427   1.931   0.810   5.424  0.1468 -0.0825  0.3690
 6265SOL    HW130428   1.994   0.876   5.396 -1.2849  0.5441 -1.4127
 6265SOL    HW230429   1.926   0.822   5.518  2.2717  0.9184  0.3470
 6266SOL     OW30430   0.150   4.127  16.733 -0.2298  0.1364 -0.1482
 6266SOL    HW130431   0.135   4.141  16.827 -0.6614 -0.3798 -0.1428
 6266SOL    HW230432   0.079   4.180  16.697 -1.9349 -1.2157  1.2200
 6267SOL     OW30433   3.189   4.606   6.635 -0.1491  0.4050  0.1042
 6267SOL    HW130434   3.163   4.618   6.726  2.2073 -0.3862  0.8858
 6267SOL    HW230435   3.221   4.692   6.609 -0.4351  0.4774  0.0022
 6268SOL     OW30436   2.254   4.341  12.083  0.1912 -0.3016  0.5677
 6268SOL    HW130437   2.169   4.334  12.041  1.6724  1.5757 -2.6701
 6268SOL    HW230438   2.250   4.264  12.140  0.4327 -0.7124  0.0317
 6269SOL     OW30439   1.980   1.893   6.678  0.1458 -0.4710  0.5587
 6269SOL    HW130440   2.042   1.826   6.706  0.8674 -0.6629 -1.4799
 6269SOL    HW230441   1.901   1.873   6.727  0.0328 -1.6018 -0.0714
 6270SOL     OW30442   2.375   2.682   8.040  0.0183  0.5088 -0.3541
 6270SOL    HW130443   2.390   2.592   8.011  1.3918  0.6693 -0.1253
 6270SOL    HW230444   2.402   2.731   7.962  2.7483  0.4311  0.5563
 6271SOL     OW30445   2.462   0.485   7.485  0.2719 -0.5946 -0.3560
 6271SOL    HW130446   2.457   0.497   7.580 -1.8548  1.3691 -0.7175
 6271SOL    HW230447   2.381   0.532   7.466  0.3302 -0.4665 -0.2854
 6272SOL     OW30448   1.740   3.696   9.881 -0.6711 -0.2471  0.3395
 6272SOL    HW130449   1.701   3.781   9.861  0.1688 -0.5102 -2.4205
 6272SOL    HW230450   1.710   3.671   9.969 -0.4484 -0.5738  0.3196
 6273SOL     OW30451   3.726   2.742  15.479 -0.9148  0.2268 -0.2262
 6273SOL    HW130452   3.739   2.826  15.435  0.2541 -0.3709 -1.0380
 6273SOL    HW230453   3.657   2.754  15.544 -1.7947  1.0987 -1.3184
 6274SOL     OW30454   4.111   2.566  10.836  0.2186  0.2561  0.4189
 6274SOL    HW130455   4.152   2.651  10.817 -2.6770  2.0941  2.3912
 6274SOL    HW230456   4.184   2.505  10.838  0.5758  0.6692  0.1736
 6275SOL     OW30457   3.989   2.006  16.018 -0.7771  0.0968 -0.5246
 6275SOL    HW130458   4.059   1.994  16.082  1.3496  2.2781 -2.4584
 6275SOL    HW230459   4.039   2.038  15.943 -0.0651 -0.5848 -0.3433
 6276SOL     OW30460   3.568   1.193  13.935 -0.1158 -0.2716 -0.1897
 6276SOL    HW130461   3.487   1.225  13.974 -0.8855 -0.3251 -1.7201
 6276SOL    HW230462   3.546   1.208  13.843 -2.1583  0.5220  0.4226
 6277SOL     OW30463   0.464   3.165   6.148  0.3765 -0.0274 -0.4199
 6277SOL    HW130464   0.486   3.215   6.070  1.5616 -0.2621 -0.2397
 6277SOL    HW230465   0.467   3.075   6.115 -0.8505  0.5698 -2.1045
 6278SOL     OW30466   1.414   3.890   5.148  0.2548  0.0124  0.0335
 6278SOL    HW130467   1.365   3.843   5.215  0.9495  0.6793  1.0188
 6278SOL    HW230468   1.381   3.979   5.162  1.1064  0.7842 -2.8221
 6279SOL     OW30469   1.277   2.167   7.776  0.1837  0.5132  0.2202
 6279SOL    HW130470   1.328   2.179   7.856 -0.2573 -1.3862  0.7716
 6279SOL    HW230471   1.340   2.202   7.713  1.2337  0.4460  1.2210
 6280SOL     OW30472   2.021   4.325   6.368 -0.3114  0.6383 -0.0090
 6280SOL    HW130473   2.040   4.378   6.290 -0.6079  0.0193 -0.4967
 6280SOL    HW230474   1.928   4.304   6.360 -0.0761 -0.0117 -1.1304
 6281SOL     OW30475   2.329   3.606   1.526 -0.9106  0.1944  0.4579
 6281SOL    HW130476   2.388   3.570   1.593 -0.5013  1.3287  0.7040
 6281SOL    HW230477   2.332   3.698   1.551 -1.9097  0.0762  1.0144
 6282SOL     OW30478   3.277   0.969   3.575 -0.1612 -0.6385  0.4615
 6282SOL    HW130479   3.365   0.986   3.608 -0.0997  1.3260 -0.6990
 6282SOL    HW230480   3.227   0.990   3.654  1.2688 -1.7998  1.6647
 6283SOL     OW30481   2.005   2.470   1.653  0.5633 -0.1922 -0.0512
 6283SOL    HW130482   2.001   2.445   1.745  0.5061 -0.6793 -0.1857
 6283SOL    HW230483   2.050   2.555   1.661  1.9290 -0.8673 -0.4632
 6284SOL     OW30484   3.066   3.715   8.144  0.0491 -0.3128  0.0710
 6284SOL    HW130485   3.018   3.634   8.156  0.2742 -0.4032  0.3777
 6284SOL    HW230486   3.119   3.694   8.068 -1.7783 -1.2478 -0.9469
 6285SOL     OW30487   3.530   4.451   3.234 -0.4231  0.0762 -0.4837
 6285SOL    HW130488   3.458   4.389   3.247  0.9125 -1.1072  1.2790
 6285SOL    HW230489   3.512   4.479   3.145  0.7508  0.6132 -0.5470
 6286SOL     OW30490   0.763   3.907   7.826 -0.2610  0.0474 -0.0873
 6286SOL    HW130491   0.696   3.968   7.795 -0.6504  0.1999  1.0555
 6286SOL    HW230492   0.835   3.966   7.850  0.2834  0.0954 -1.7841
 6287SOL     OW30493   0.197   3.958  16.351 -0.1358 -0.0382 -0.0111
 6287SOL    HW130494   0.289   3.951  16.328 -0.2917  0.1923 -0.7176
 6287SOL    HW230495   0.171   3.872  16.382  0.7979  1.3486  4.6128
 6288SOL     OW30496   1.043   3.326   5.346 -0.0625 -0.4979  0.1036
 6288SOL    HW130497   0.948   3.316   5.348  0.2154 -2.6199  2.0660
 6288SOL    HW230498   1.064   3.292   5.259  2.9717  1.2356  0.1606
 6289SOL     OW30499   3.670   3.156   0.197 -0.1959 -0.2373 -0.6483
 6289SOL    HW130500   3.626   3.227   0.150 -1.6743 -0.9877 -0.3913
 6289SOL    HW230501   3.646   3.072   0.156  0.5062 -0.5919 -0.3174
 6290SOL     OW30502   2.143   2.673   7.843  0.2188  0.6156 -0.1914
 6290SOL    HW130503   2.213   2.642   7.901  0.9519  2.4570 -0.1083
 6290SOL    HW230504   2.150   2.768   7.847  0.6768  0.4924  1.7914
 6291SOL     OW30505   3.820   4.188   2.471 -0.3130  0.7204  0.0716
 6291SOL    HW130506   3.862   4.179   2.385  0.4354 -1.1087  0.6285
 6291SOL    HW230507   3.871   4.258   2.513  2.1302 -1.5405  0.8956
 6292SOL     OW30508   4.371   0.685   4.435 -0.9158 -0.1527 -0.1652
 6292SOL    HW130509   4.442   0.694   4.372 -1.4396 -0.0203 -0.7269
 6292SOL    HW230510   4.284   0.685   4.396 -0.9677  0.3291 -0.0467
 6293SOL     OW30511   0.541   1.791   4.110 -0.0801 -0.0369 -0.0739
 6293SOL    HW130512   0.634   1.807   4.092 -0.2427 -1.9742 -2.5848
 6293SOL    HW230513   0.549   1.700   4.137  1.5085 -0.2177 -1.1468
 6294SOL     OW30514   3.613   3.962   0.208  0.6124  0.4053  0.2687
 6294SOL    HW130515   3.593   3.924   0.294  0.6598  2.1040  1.0339
 6294SOL    HW230516   3.626   3.887   0.151 -0.0419  0.4100  0.1136
 6295SOL     OW30517   0.402   1.049   6.852 -0.4005  0.2971  0.3862
 6295SOL    HW130518   0.422   1.041   6.759 -0.9399  0.7176  0.2342
 6295SOL    HW230519   0.489   1.038   6.891 -0.1775  0.9064  0.0639
 6296SOL     OW30520   1.683   3.103  17.544  0.0775  0.1544  0.3281
 6296SOL    HW130521   1.646   3.016  17.562  0.5080  0.0228  0.5741
 6296SOL    HW230522   1.701   3.129  17.634  0.8845 -2.1569  0.8227
 6297SOL     OW30523   3.131   0.690   2.254 -0.1880  0.1039 -0.1224
 6297SOL    HW130524   3.048   0.733   2.235 -0.6997 -1.3139 -1.0812
 6297SOL    HW230525   3.101   0.632   2.324 -0.7797 -0.8454 -1.1496
 6298SOL     OW30526   1.494   1.916   4.378 -0.5992  0.5378  0.0656
 6298SOL    HW130527   1.507   1.844   4.317 -0.4232  0.5975  0.0330
 6298SOL    HW230528   1.528   1.873   4.456 -1.0212  1.0229  0.5208
 6299SOL     OW30529   2.410   2.367  17.640 -0.1116  0.0127  0.6753
 6299SOL    HW130530   2.344   2.414  17.590  0.2861 -0.8564 -0.6652
 6299SOL    HW230531   2.488   2.420  17.621 -1.0043  0.5122 -1.5448
 6300SOL     OW30532   3.815   0.143   8.029 -0.0173 -0.0617 -0.4837
 6300SOL    HW130533   3.910   0.135   8.042 -0.5556 -3.0237  1.7475
 6300SOL    HW230534   3.770   0.135   8.113  1.6637  0.4267  0.4752
 6301SOL     OW30535   0.577   2.496   8.450  0.0509 -0.2765  0.4366
 6301SOL    HW130536   0.635   2.496   8.526 -0.9213  0.6064  1.1817
 6301SOL    HW230537   0.552   2.404   8.457  1.5194 -0.8045 -1.3963
 6302SOL     OW30538   1.731   3.005  14.057  0.3142 -0.1530  0.2822
 6302SOL    HW130539   1.744   2.912  14.077  0.6908 -0.2168 -0.2409
 6302SOL    HW230540   1.783   3.053  14.121  0.0660 -0.9008  1.0544
 6303SOL     OW30541   1.296   4.229  13.719  0.1044 -0.7205 -0.1944
 6303SOL    HW130542   1.359   4.238  13.648  1.2210  2.5587  1.1767
 6303SOL    HW230543   1.233   4.301  13.721 -1.3449 -2.0600  2.2939
 6304SOL     OW30544   0.828   2.931   9.832  0.7287 -0.0603 -0.6372
 6304SOL    HW130545   0.785   3.011   9.861  1.3208  0.3573 -0.8904
 6304SOL    HW230546   0.754   2.892   9.786  2.4265 -2.4501 -1.3472
 6305SOL     OW30547   0.256   4.314  16.094  0.0052  0.5927  0.2569
 6305SOL    HW130548   0.259   4.264  16.175 -0.0529 -2.4064 -1.5869
 6305SOL    HW230549   0.332   4.370  16.111 -0.5081  1.9064 -1.7271
 6306SOL     OW30550   4.479   3.721  12.337 -0.1968  0.3496  0.2059
 6306SOL    HW130551   4.488   3.632  12.371  1.4228  0.5857  0.3899
 6306SOL    HW230552   4.385   3.737  12.339 -0.4684 -0.9845 -2.0951
 6307SOL     OW30553   4.615   1.173  13.624 -0.1994 -0.1533  0.0749
 6307SOL    HW130554   4.586   1.247  13.571  1.2819  1.2336  1.2155
 6307SOL    HW230555   4.560   1.108  13.580  1.6592 -1.0481 -0.9625
 6308SOL     OW30556   2.017   1.782   8.269  0.0868 -0.3422 -0.0415
 6308SOL    HW130557   1.975   1.857   8.227 -2.1291 -2.0249 -0.8416
 6308SOL    HW230558   1.938   1.735   8.295 -0.8452 -0.6868 -3.4630
 6309SOL     OW30559   4.234   2.822   6.547  0.1119  0.2229 -0.1045
 6309SOL    HW130560   4.139   2.824   6.543  0.0942  0.3449  0.3670
 6309SOL    HW230561   4.247   2.744   6.601  2.5219 -2.1267 -4.1023
 6310SOL     OW30562   3.116   1.617  14.300  0.2413 -0.3179  0.7171
 6310SOL    HW130563   3.074   1.535  14.324 -0.4644  0.3823  1.8501
 6310SOL    HW230564   3.208   1.597  14.320 -0.2015 -1.0946  1.9324
 6311SOL     OW30565   4.465   3.711   0.407  0.7130 -0.1317 -0.2418
 6311SOL    HW130566   4.432   3.673   0.489 -0.8378  1.5647 -0.0865
 6311SOL    HW230567   4.555   3.734   0.429 -0.0769  1.7235  1.0596
 6312SOL     OW30568   3.224   3.999   6.827  0.0835  0.1848  0.2839
 6312SOL    HW130569   3.139   3.954   6.827  0.3250 -0.2990 -1.2273
 6312SOL    HW230570   3.284   3.931   6.795  0.1078  0.4954 -0.3446
 6313SOL     OW30571   0.911   2.803   0.910  0.0643  0.2544  0.1525
 6313SOL    HW130572   0.993   2.809   0.959 -0.4782  1.6662  0.9106
 6313SOL    HW230573   0.860   2.866   0.962 -1.2823  0.8220 -1.8889
 6314SOL     OW30574   4.115   1.253  13.030 -0.4142 -0.0716  0.2507
 6314SOL    HW130575   4.052   1.275  13.099  2.0522 -1.2127  2.8425
 6314SOL    HW230576   4.106   1.324  12.966 -1.6654 -0.3625  0.0880
 6315SOL     OW30577   2.513   1.001   5.788 -0.8011  0.0304  0.2887
 6315SOL    HW130578   2.549   0.913   5.793 -2.7603 -0.7873 -0.3355
 6315SOL    HW230579   2.459   0.994   5.710 -0.0814 -1.7202 -0.0532
 6316SOL     OW30580   1.437   2.143   4.163 -0.3046  0.3304 -0.7225
 6316SOL    HW130581   1.468   2.060   4.202 -0.9614 -0.3272 -1.6114
 6316SOL    HW230582   1.516   2.194   4.142  0.5893 -0.2241  1.2731
 6317SOL     OW30583   2.840   1.162   1.918 -0.7157 -0.5960 -0.7441
 6317SOL    HW130584   2.898   1.205   1.855 -1.4080  2.7220  0.8744
 6317SOL    HW230585   2.879   1.186   2.002 -0.7717 -0.2518 -0.8170
 6318SOL     OW30586   1.082   3.622   8.877 -0.3235 -0.2337 -0.1338
 6318SOL    HW130587   1.150   3.575   8.927 -1.3788 -0.6730  0.8904
 6318SOL    HW230588   1.005   3.591   8.924  1.6391 -3.6659  0.8340
 6319SOL     OW30589   3.013   1.502   2.493  0.0025 -0.2279  0.1260
 6319SOL    HW130590   2.934   1.476   2.446 -0.7328  1.1315  0.5836
 6319SOL    HW230591   3.082   1.462   2.442 -0.2367 -0.5488  0.0548
 6320SOL     OW30592   0.973   0.977   2.941  0.3332 -0.1139  0.0250
 6320SOL    HW130593   0.929   0.997   3.024 -0.7063  0.2677 -0.6237
 6320SOL    HW230594   0.902   0.994   2.880 -0.5821 -0.4049  1.0106
 6321SOL     OW30595   0.849   4.669  17.043  1.0079 -0.3495  0.2304
 6321SOL    HW130596   0.935   4.677  17.083  1.2969  1.0032 -0.6330
 6321SOL    HW230597   0.841   4.574  17.050 -0.4966 -0.2557 -0.0952
 6322SOL     OW30598   0.309   1.901   4.022 -0.7139 -0.0133 -0.8261
 6322SOL    HW130599   0.395   1.874   4.053 -1.2832 -0.1401  0.6094
 6322SOL    HW230600   0.319   1.886   3.928 -1.5295 -0.7404 -0.7924
 6323SOL     OW30601   1.249   2.409   4.195  0.1882 -0.5114  0.0475
 6323SOL    HW130602   1.284   2.395   4.107  0.7042 -2.7284  0.6302
 6323SOL    HW230603   1.218   2.499   4.184 -1.3615 -0.9259  0.9858
 6324SOL     OW30604   0.343   2.383   6.446 -0.2420  0.3023  0.0294
 6324SOL    HW130605   0.311   2.309   6.395  0.5267  0.9389 -1.3734
 6324SOL    HW230606   0.305   2.455   6.396  2.3694  1.6546 -0.0213
 6325SOL     OW30607   4.255   3.973  14.504 -0.3637  0.2941 -0.1168
 6325SOL    HW130608   4.257   3.878  14.508  0.8381  0.3842  1.5273
 6325SOL    HW230609   4.172   3.996  14.546  0.2828  1.5257  0.5048
 6326SOL     OW30610   1.580   3.111   4.155 -0.2254  0.3513  0.3823
 6326SOL    HW130611   1.515   3.164   4.202 -0.6006  0.8494 -0.6873
 6326SOL    HW230612   1.530   3.030   4.166  0.1079  0.1015  0.0291
 6327SOL     OW30613   3.438   1.087   6.598 -0.0643 -0.7274  0.3504
 6327SOL    HW130614   3.376   1.023   6.563 -0.6255 -0.5328  0.9953
 6327SOL    HW230615   3.421   1.157   6.536  1.7212 -1.6963 -1.2628
 6328SOL     OW30616   2.604   3.615   5.650  0.2340 -0.5236  0.5250
 6328SOL    HW130617   2.542   3.577   5.587 -1.3665  2.8663  0.0299
 6328SOL    HW230618   2.615   3.697   5.602  2.1643 -0.5155  0.9693
 6329SOL     OW30619   3.813   2.265   8.381 -0.5398 -0.1660  0.0136
 6329SOL    HW130620   3.719   2.279   8.383 -0.6832 -1.3464  1.2701
 6329SOL    HW230621   3.841   2.349   8.344  2.5717 -1.1506  0.0901
 6330SOL     OW30622   0.112   4.628   7.470 -0.0858  0.3270 -0.0629
 6330SOL    HW130623   0.039   4.689   7.475 -1.8666 -1.9505  1.9844
 6330SOL    HW230624   0.086   4.571   7.398  0.3089 -0.0407  0.0841
 6331SOL     OW30625   4.707   3.116   6.766 -0.2298  0.0084 -0.6931
 6331SOL    HW130626   0.056   3.100   6.726 -0.4716 -0.6042 -0.9542
 6331SOL    HW230627   4.714   3.058   6.842 -0.2676  1.4031  0.3905
 6332SOL     OW30628   4.204   0.580   7.554 -0.7624  0.2743  0.2867
 6332SOL    HW130629   4.197   0.655   7.613 -1.4160  1.6037 -1.4613
 6332SOL    HW230630   4.263   0.520   7.599 -1.0422 -1.8919 -2.2456
 6333SOL     OW30631   3.485   1.483   2.449  0.0700 -0.0049 -0.1475
 6333SOL    HW130632   3.460   1.403   2.403 -0.7433  0.1598  0.0152
 6333SOL    HW230633   3.495   1.454   2.539 -0.6270 -3.2090 -1.1021
 6334SOL     OW30634   4.337   2.610   4.875 -0.1943 -0.1775 -0.2275
 6334SOL    HW130635   4.291   2.532   4.847  0.0136 -0.7343  0.9797
 6334SOL    HW230636   4.286   2.673   4.824  1.6169 -0.1878 -2.0707
 6335SOL     OW30637   0.279   0.582   2.774 -0.1091  0.5179 -0.2835
 6335SOL    HW130638   0.360   0.546   2.739  0.7543  0.2668  1.9769
 6335SOL    HW230639   0.280   0.540   2.860  1.8208 -0.5919 -0.8688
 6336SOL     OW30640   2.280   1.101   3.881  0.2466  0.0396 -0.0774
 6336SOL    HW130641   2.360   1.066   3.920  1.1586  1.1834 -0.8931
 6336SOL    HW230642   2.267   1.025   3.825 -1.5208 -0.6389  1.2593
 6337SOL     OW30643   1.750   1.373  15.655  0.5135  0.4184  0.4746
 6337SOL    HW130644   1.731   1.300  15.596 -0.4173  0.7252  0.3975
 6337SOL    HW230645   1.674   1.429  15.638 -0.8895 -1.7737 -0.5556
 6338SOL     OW30646   1.867   1.965   0.131 -0.0191  0.7751 -0.6563
 6338SOL    HW130647   1.856   1.895   0.196 -0.2921  0.1903 -1.3348
 6338SOL    HW230648   1.961   1.951   0.118  0.2066 -0.6994  2.4924
 6339SOL     OW30649   0.639   4.608   9.082  0.2651 -0.2402 -0.3951
 6339SOL    HW130650   0.697   4.684   9.088 -3.2214  2.4947 -0.7567
 6339SOL    HW230651   0.653   4.581   8.991 -0.3345  2.2843 -1.2516
 6340SOL     OW30652   4.495   2.331   4.441 -0.1768  0.1560 -0.3017
 6340SOL    HW130653   4.403   2.329   4.414 -0.0051 -1.5967 -0.7712
 6340SOL    HW230654   4.493   2.394   4.513  0.5340 -1.0447  0.7763
 6341SOL     OW30655   4.688   3.803   1.295  0.0321  0.7572  0.2061
 6341SOL    HW130656   4.722   3.793   1.206 -2.7635  0.0867 -0.8098
 6341SOL    HW230657   4.611   3.745   1.290  0.4679  0.2289 -0.4113
 6342SOL     OW30658   0.460   0.695   3.972  0.9462  0.1785  0.0600
 6342SOL    HW130659   0.386   0.693   4.032  0.9070 -2.8994 -0.0936
 6342SOL    HW230660   0.533   0.679   4.031 -0.2736 -3.5653  0.5834
 6343SOL     OW30661   1.226   3.676   2.952  0.6168 -0.0737  0.3346
 6343SOL    HW130662   1.171   3.602   2.926  0.4491  0.7622 -1.6688
 6343SOL    HW230663   1.158   3.732   2.988  0.0552  0.3406 -1.3785
 6344SOL     OW30664   0.449   2.351   8.087  0.0447  0.2537  0.4346
 6344SOL    HW130665   0.429   2.270   8.133 -0.9319 -0.5869 -1.4521
 6344SOL    HW230666   0.421   2.342   7.996 -2.6160 -3.8646  1.6678
 6345SOL     OW30667   0.848   3.093   4.067  0.2226 -0.4512  0.4247
 6345SOL    HW130668   0.775   3.050   4.111  0.7030  1.4135  3.0575
 6345SOL    HW230669   0.881   3.140   4.144 -0.1736 -1.1574  1.0207
 6346SOL     OW30670   2.762   3.818   2.805  0.1131  0.1745 -0.5405
 6346SOL    HW130671   2.721   3.904   2.791 -1.3805 -0.6676 -1.3528
 6346SOL    HW230672   2.790   3.818   2.896 -1.7822 -0.0206  0.0484
 6347SOL     OW30673   0.986   3.987   4.906 -0.5530  0.4926  0.2642
 6347SOL    HW130674   0.966   3.909   4.853 -0.5293  0.9818 -0.4619
 6347SOL    HW230675   0.985   3.943   4.991  1.0746 -0.2588 -0.1074
 6348SOL     OW30676   1.335   3.381  13.456 -0.0184 -0.2462 -0.7699
 6348SOL    HW130677   1.395   3.454  13.443 -1.6334  1.5225  1.7376
 6348SOL    HW230678   1.263   3.403  13.396  1.0663  1.1094 -1.5714
 6349SOL     OW30679   1.105   3.555   8.000 -0.1942  0.4066 -0.6546
 6349SOL    HW130680   1.139   3.465   7.998  0.6884  0.7131  0.7146
 6349SOL    HW230681   1.108   3.584   7.909  2.7164  2.4618  0.0902
 6350SOL     OW30682   3.200   3.814   0.417  0.2727 -0.0567  0.4491
 6350SOL    HW130683   3.182   3.896   0.464 -1.3694  0.6332 -1.4014
 6350SOL    HW230684   3.204   3.841   0.326 -1.1858  1.5339  0.8586
 6351SOL     OW30685   0.916   0.652  11.993  0.0851  0.2985 -0.3518
 6351SOL    HW130686   0.856   0.660  12.066 -0.0567 -0.5858 -0.3725
 6351SOL    HW230687   0.997   0.686  12.033 -0.3807 -0.0291  0.8626
 6352SOL     OW30688   1.552   2.942   0.590 -0.3516  0.3986 -0.0108
 6352SOL    HW130689   1.477   2.989   0.627 -2.7822 -2.3309 -1.5278
 6352SOL    HW230690   1.615   2.996   0.638 -0.2938 -0.3105  0.6966
 6353SOL     OW30691   0.956   3.857  13.857  0.7861  0.2607 -0.3749
 6353SOL    HW130692   0.928   3.942  13.891 -0.1852  0.0903 -0.7433
 6353SOL    HW230693   1.031   3.847  13.915  0.5323  1.3900  0.1493
 6354SOL     OW30694   0.376   3.860   7.305  0.4065  0.2658  0.2189
 6354SOL    HW130695   0.450   3.831   7.253 -0.5967 -3.7342  0.9637
 6354SOL    HW230696   0.309   3.798   7.275  0.0195  0.4611  0.6698
 6355SOL     OW30697   2.611   2.168   0.015 -0.1775  0.3301  0.1467
 6355SOL    HW130698   2.526   2.196   0.050 -1.3329 -2.7204 -0.2271
 6355SOL    HW230699   2.652   2.254   0.002 -0.2887  0.7609  2.5559
 6356SOL     OW30700   0.262   1.505   6.434 -0.1429 -0.1322  0.1952
 6356SOL    HW130701   0.320   1.438   6.471  1.4341  0.2533 -1.5546
 6356SOL    HW230702   0.318   1.582   6.434 -0.5559  0.1698 -1.8916
 6357SOL     OW30703   1.784   1.416   7.156  0.1685 -0.1170  0.2181
 6357SOL    HW130704   1.771   1.479   7.227 -1.4068 -0.5206  0.2932
 6357SOL    HW230705   1.693   1.387   7.147  0.1620 -0.0156 -0.0391
 6358SOL     OW30706   2.957   3.551   3.575 -0.2620 -0.1989  0.2351
 6358SOL    HW130707   2.939   3.460   3.551 -1.9334  0.8497 -2.3749
 6358SOL    HW230708   2.977   3.548   3.669  2.9255  2.0084 -0.3579
 6359SOL     OW30709   1.123   1.817   6.218 -0.5572 -0.0732  0.0826
 6359SOL    HW130710   1.029   1.810   6.239 -0.4518  1.2333  1.0013
 6359SOL    HW230711   1.125   1.781   6.130  1.5813 -0.6716  0.3964
 6360SOL     OW30712   1.101   4.165  12.071 -0.2110 -0.4778  0.8445
 6360SOL    HW130713   1.090   4.171  11.976  0.9965 -0.2315  0.7227
 6360SOL    HW230714   1.162   4.092  12.066 -0.0783 -0.2974 -0.2337
 6361SOL     OW30715   0.207   4.293   6.451 -0.1200  0.1487  0.7931
 6361SOL    HW130716   0.139   4.289   6.518 -1.1739  0.2896 -0.2532
 6361SOL    HW230717   0.276   4.244   6.495 -2.0077 -0.5436  2.9620
 6362SOL     OW30718   1.757   0.287   0.830  0.2756 -0.2803  0.3234
 6362SOL    HW130719   1.669   0.305   0.862  0.9381 -0.3130  2.1588
 6362SOL    HW230720   1.770   0.195   0.854  3.1711  0.1839  0.5543
 6363SOL     OW30721   2.749   4.350  12.444 -0.0193 -0.8465 -0.0549
 6363SOL    HW130722   2.712   4.426  12.399  0.0559  0.0390  1.3534
 6363SOL    HW230723   2.677   4.341  12.507  0.0725  0.8035  0.2809
 6364SOL     OW30724   3.929   3.278   3.124  0.6185 -0.0015 -0.2423
 6364SOL    HW130725   3.834   3.292   3.129  0.7060  0.1565  0.9206
 6364SOL    HW230726   3.968   3.365   3.129  0.6629 -0.1299  1.7430
 6365SOL     OW30727   2.013   1.714   4.705 -0.0383  0.1476 -0.9212
 6365SOL    HW130728   1.979   1.795   4.743 -0.1498  0.4948 -1.7440
 6365SOL    HW230729   2.083   1.751   4.652  0.5324 -1.1801 -1.0953
 6366SOL     OW30730   3.062   2.059   1.606  0.1338  0.3223  0.0364
 6366SOL    HW130731   3.089   2.118   1.536  1.3528  0.7140  0.8395
 6366SOL    HW230732   3.145   2.011   1.615 -0.0157  0.4132  1.9155
 6367SOL     OW30733   2.851   4.289  16.766  0.3221  0.3479  0.1416
 6367SOL    HW130734   2.784   4.352  16.791  0.5000  1.0005 -1.0436
 6367SOL    HW230735   2.797   4.220  16.727  0.2315  1.3430 -1.5013
 6368SOL     OW30736   0.305   0.987  12.662  0.0245  0.2390  0.0896
 6368SOL    HW130737   0.383   0.956  12.616 -0.2583  0.4086 -0.5115
 6368SOL    HW230738   0.338   1.055  12.721  0.6429  0.4318 -0.4800
 6369SOL     OW30739   3.166   2.883   5.328  0.0040 -0.3659  0.1748
 6369SOL    HW130740   3.172   2.974   5.297  4.2881 -0.5652  0.3669
 6369SOL    HW230741   3.212   2.839   5.256 -2.6424  0.1462 -1.8050
 6370SOL     OW30742   4.325   2.407   4.129  0.4876  0.2120  0.4078
 6370SOL    HW130743   4.337   2.475   4.062 -1.4830  1.2300  1.1060
 6370SOL    HW230744   4.230   2.407   4.137  0.5453 -1.5291  1.0926
 6371SOL     OW30745   3.085   3.275   8.879 -0.2972  0.1565  0.0254
 6371SOL    HW130746   3.131   3.261   8.962  0.9892 -0.2863 -0.7677
 6371SOL    HW230747   3.137   3.338   8.830  1.5940 -2.4500 -1.2881
 6372SOL     OW30748   1.017   1.680   8.282  0.3213  0.5164  0.3850
 6372SOL    HW130749   1.068   1.733   8.221  1.9690 -0.1294  1.1856
 6372SOL    HW230750   0.956   1.745   8.319  1.2264  1.9799 -0.7051
 6373SOL     OW30751   4.700   2.463   8.004 -0.0163  0.5053  0.3744
 6373SOL    HW130752   4.674   2.378   7.968 -0.1693  1.2127 -1.1835
 6373SOL    HW230753   4.647   2.531   7.962  0.6605  1.1159  0.5076
 6374SOL     OW30754   1.922   3.452   9.342 -0.0717  0.0983 -0.4107
 6374SOL    HW130755   1.968   3.515   9.287  1.2344  0.3634  0.9719
 6374SOL    HW230756   1.840   3.500   9.356 -0.3201  0.0089 -1.5656
 6375SOL     OW30757   3.779   0.224  14.638  0.0878  0.2388  0.7495
 6375SOL    HW130758   3.696   0.268  14.654  0.1697 -0.2947  2.7206
 6375SOL    HW230759   3.771   0.204  14.545 -3.4398 -0.3379  1.1955
 6376SOL     OW30760   1.224   0.960   3.577  0.6881  0.3478 -0.0058
 6376SOL    HW130761   1.145   0.990   3.622 -1.2840 -1.1032 -2.5558
 6376SOL    HW230762   1.258   0.906   3.649 -1.2795 -1.6539 -0.5817
 6377SOL     OW30763   1.264   2.996   4.863  0.0641  0.4460 -0.9535
 6377SOL    HW130764   1.193   2.945   4.903  0.9343  1.1851  1.5455
 6377SOL    HW230765   1.319   3.023   4.936  0.1993  1.3615 -1.4014
 6378SOL     OW30766   4.587   2.613   9.979  0.2972 -0.2199 -0.5451
 6378SOL    HW130767   4.672   2.570   9.969  0.5214 -0.1304  0.9977
 6378SOL    HW230768   4.561   2.606  10.071  0.7954 -2.2130 -0.5568
 6379SOL     OW30769   2.784   1.930   6.924 -0.1700  1.0706  0.1380
 6379SOL    HW130770   2.812   1.985   6.851  0.8940  0.0717 -0.2004
 6379SOL    HW230771   2.757   1.851   6.877  1.7658  0.3454  0.2639
 6380SOL     OW30772   0.093   4.682   0.833  0.1087 -0.2636 -0.4962
 6380SOL    HW130773   0.172   4.631   0.852 -0.2935 -1.3259 -1.6155
 6380SOL    HW230774   0.022   4.630   0.870  1.0157 -0.7920  0.4778
 6381SOL     OW30775   0.954   1.112  13.817  0.3572  0.3731 -0.2590
 6381SOL    HW130776   1.027   1.174  13.823  1.6718 -1.1789 -0.0103
 6381SOL    HW230777   0.899   1.136  13.891 -0.3358  2.4579 -1.4508
 6382SOL     OW30778   3.335   3.019   6.584  0.2429  0.2447 -0.1054
 6382SOL    HW130779   3.428   2.998   6.577  0.5092  1.7874 -1.3026
 6382SOL    HW230780   3.294   2.941   6.548 -2.9170  1.2886  1.2425
 6383SOL     OW30781   0.399   0.323   0.042  0.4671  0.3540 -0.2517
 6383SOL    HW130782   0.385   0.366  17.702  1.4966 -1.5745 -1.3836
 6383SOL    HW230783   0.471   0.270   0.009 -0.6983 -0.5421 -1.3461
 6384SOL     OW30784   3.993   4.026   6.259 -0.2275  0.3079  0.6428
 6384SOL    HW130785   4.044   3.978   6.193 -0.5723 -1.6557  1.8205
 6384SOL    HW230786   4.055   4.049   6.329  0.4518  0.1122  0.1079
 6385SOL     OW30787   2.821   2.925   7.151 -0.8933  0.5178  0.1583
 6385SOL    HW130788   2.738   2.888   7.182 -0.1674 -2.1454 -1.0436
 6385SOL    HW230789   2.849   2.972   7.230  0.9664  0.8227 -0.6776
 6386SOL     OW30790   3.259   2.082   3.620 -0.2020  0.4673  0.5236
 6386SOL    HW130791   3.245   1.994   3.587  0.4668  1.4709 -2.4400
 6386SOL    HW230792   3.176   2.108   3.660 -0.7292  1.7330 -1.4296
 6387SOL     OW30793   2.709   0.972   8.697 -0.6325 -0.1541  0.3091
 6387SOL    HW130794   2.680   0.888   8.663 -2.1953  0.3489  0.3824
 6387SOL    HW230795   2.633   1.031   8.692 -0.2527  0.2090 -1.1614
 6388SOL     OW30796   0.474   1.565  14.231 -0.0729 -0.1820 -0.1100
 6388SOL    HW130797   0.393   1.612  14.209 -0.4283 -0.9309 -0.3995
 6388SOL    HW230798   0.455   1.519  14.312  2.0921 -0.6888  0.0936
 6389SOL     OW30799   1.442   0.025   6.834 -0.0275 -0.3755  0.3906
 6389SOL    HW130800   1.395   4.706   6.896 -2.2627 -0.6262 -1.5066
 6389SOL    HW230801   1.526   0.035   6.878 -0.3393  0.5369  0.7633
 6390SOL     OW30802   2.528   4.150   6.407 -0.4787  0.6265  0.1254
 6390SOL    HW130803   2.489   4.067   6.436 -1.9621  0.7508 -1.5780
 6390SOL    HW230804   2.464   4.171   6.340  0.9809  0.4961 -1.3182
 6391SOL     OW30805   0.439   2.692   4.467  0.3076  0.0797 -0.2517
 6391SOL    HW130806   0.489   2.772   4.452  0.0624  0.0577 -1.2074
 6391SOL    HW230807   0.503   2.625   4.443  0.8966  1.0367 -1.3611
 6392SOL     OW30808   2.093   0.013   1.991  0.2053 -1.0277 -0.4467
 6392SOL    HW130809   2.100   0.107   2.010  0.8920 -1.2224  0.2410
 6392SOL    HW230810   2.021   0.011   1.927  0.8464 -2.4596 -1.1119
 6393SOL     OW30811   1.637   0.773   8.173  0.3900  0.0931  1.0262
 6393SOL    HW130812   1.635   0.826   8.253  1.1573  0.2965  0.9080
 6393SOL    HW230813   1.709   0.711   8.178  2.4822  2.3617 -0.6105
 6394SOL     OW30814   2.104   2.979   7.348 -0.9017  0.2898 -0.2389
 6394SOL    HW130815   2.171   2.982   7.415  0.8679 -2.2021 -1.9272
 6394SOL    HW230816   2.034   3.032   7.387  0.0582  0.0677  1.7746
 6395SOL     OW30817   0.629   2.097   9.812  0.2441  0.1966  0.3563
 6395SOL    HW130818   0.559   2.049   9.856 -0.3661  0.5101 -0.2627
 6395SOL    HW230819   0.699   2.093   9.877 -0.2643  0.6875  0.9291
 6396SOL     OW30820   3.369   2.686  17.548 -0.0160  0.0918 -0.1351
 6396SOL    HW130821   3.302   2.622  17.572 -0.7804  0.3091 -1.6974
 6396SOL    HW230822   3.441   2.647  17.597  1.1776  0.6777 -1.4195
 6397SOL     OW30823   1.951   1.734  10.767 -0.3061 -0.0468 -0.0122
 6397SOL    HW130824   2.037   1.764  10.796 -0.6243  2.0029 -1.1445
 6397SOL    HW230825   1.893   1.807  10.793 -0.3739 -0.0397 -0.1825
 6398SOL     OW30826   2.223   4.709   6.842 -0.6841 -0.6101  0.1398
 6398SOL    HW130827   2.228   4.619   6.811 -0.9236 -1.0400  1.3358
 6398SOL    HW230828   2.159   4.702   6.913 -0.7301  0.5769  0.2177
 6399SOL     OW30829   3.963   4.335   5.643 -0.2505  0.3258  0.3103
 6399SOL    HW130830   4.040   4.304   5.595 -0.6601  1.6170 -1.1783
 6399SOL    HW230831   3.888   4.277   5.628 -0.4238  0.4928  0.5137
 6400SOL     OW30832   0.752   0.961  10.325  0.1887  0.0710  0.4077
 6400SOL    HW130833   0.777   0.875  10.359  0.6198  0.3517  0.8085
 6400SOL    HW230834   0.822   1.018  10.358 -0.5821 -0.6944  3.3653
 6401SOL     OW30835   4.156   1.879  12.235 -0.2388  0.5035  0.4978
 6401SOL    HW130836   4.196   1.823  12.301  1.3573  0.3121 -0.6245
 6401SOL    HW230837   4.230   1.929  12.201  0.7895  0.8309  3.2549
 6402SOL     OW30838   3.387   3.508  11.990  0.1850 -0.3008 -0.3396
 6402SOL    HW130839   3.445   3.574  12.027 -0.9062  3.0458 -4.5651
 6402SOL    HW230840   3.304   3.519  12.037  0.4993 -0.4508  0.2455
 6403SOL     OW30841   2.644   4.423   6.358  0.2000 -0.6372  0.4350
 6403SOL    HW130842   2.649   4.387   6.270  1.4479  1.4609 -0.3696
 6403SOL    HW230843   2.650   4.346   6.414 -2.3981  0.3897  2.1042
 6404SOL     OW30844   2.468   2.352   2.338  0.6268  0.2394  0.1942
 6404SOL    HW130845   2.485   2.386   2.426 -0.6036 -1.0583  0.9262
 6404SOL    HW230846   2.418   2.278   2.371  4.0312 -2.1878 -0.1514
 6405SOL     OW30847   0.807   4.662   7.931  0.8525 -0.2496  0.6064
 6405SOL    HW130848   0.893   4.620   7.943 -0.2494 -1.7140  3.1991
 6405SOL    HW230849   0.828   4.726   7.863  0.3206  0.2839  0.9508
 6406SOL     OW30850   4.536   2.245   2.896  0.1387  0.0614  0.3190
 6406SOL    HW130851   4.624   2.256   2.931 -0.5328 -1.5398  2.5235
 6406SOL    HW230852   4.543   2.154   2.869 -1.0718 -0.3337  1.3373
 6407SOL     OW30853   1.873   1.014   6.618 -0.0052  0.0125  0.3065
 6407SOL    HW130854   1.964   0.988   6.602 -0.2211 -0.8077  0.3724
 6407SOL    HW230855   1.849   1.062   6.538 -0.2174 -0.3785  0.1339
 6408SOL     OW30856   0.477   1.701  10.382 -0.3766 -0.2553  0.0173
 6408SOL    HW130857   0.476   1.710  10.478  0.6686 -0.2131  0.0196
 6408SOL    HW230858   0.567   1.674  10.363 -0.5606  0.8771 -2.4672
 6409SOL     OW30859   1.605   3.439   6.677  0.1056 -0.9907 -0.0834
 6409SOL    HW130860   1.677   3.502   6.683 -0.9084  0.1202  0.4554
 6409SOL    HW230861   1.619   3.376   6.748 -1.7228 -1.2965  0.0074
 6410SOL     OW30862   1.963   2.360   4.387 -0.5627  0.1409  0.5561
 6410SOL    HW130863   1.917   2.294   4.438  0.0157 -0.5301  0.2145
 6410SOL    HW230864   1.920   2.437   4.424  1.1790  0.7820  1.2473
 6411SOL     OW30865   0.685   0.419   4.484  0.5071 -0.2655 -0.0228
 6411SOL    HW130866   0.689   0.377   4.570  1.0781  0.2372  0.1924
 6411SOL    HW230867   0.600   0.388   4.450 -0.6574  1.7742  1.0273
 6412SOL     OW30868   4.054   4.346   6.572 -0.4039 -0.4775 -0.1178
 6412SOL    HW130869   4.007   4.420   6.533 -1.0193 -1.4519 -1.2303
 6412SOL    HW230870   4.106   4.315   6.497 -0.2128 -0.4865  0.0176
 6413SOL     OW30871   2.237   2.328   7.710 -0.9850  1.0180  0.4487
 6413SOL    HW130872   2.190   2.301   7.631 -0.0133  0.0563  0.1986
 6413SOL    HW230873   2.313   2.270   7.717 -0.6543  1.5403  1.1594
 6414SOL     OW30874   4.296   2.222   7.266  0.1800  0.1017  0.6349
 6414SOL    HW130875   4.302   2.318   7.273 -2.3548  0.5110 -2.7398
 6414SOL    HW230876   4.271   2.200   7.355 -0.1347 -0.1945  0.4728
 6415SOL     OW30877   1.214   3.675  10.506 -0.4674  0.0547 -0.6738
 6415SOL    HW130878   1.256   3.758  10.482  1.9850 -0.9721  0.1215
 6415SOL    HW230879   1.144   3.704  10.564  0.1983 -0.2270  0.2693
 6416SOL     OW30880   0.317   0.632   4.677  0.4151  0.1183  0.2032
 6416SOL    HW130881   0.227   0.600   4.664  1.0537 -0.2649 -3.1411
 6416SOL    HW230882   0.331   0.640   4.771  0.4878 -0.4155  0.2349
 6417SOL     OW30883   0.844   0.665   6.420 -0.0637 -0.0625  0.0755
 6417SOL    HW130884   0.923   0.720   6.415 -0.2293 -0.0189 -1.9488
 6417SOL    HW230885   0.772   0.726   6.407 -1.0868 -1.3477 -0.2207
 6418SOL     OW30886   4.693   1.416   5.793 -0.8309 -0.0700 -0.5825
 6418SOL    HW130887   0.022   1.384   5.730 -0.7113 -0.3744 -0.3097
 6418SOL    HW230888   4.720   1.507   5.800  1.4546 -0.8817  1.3972
 6419SOL     OW30889   4.419   4.500  13.789 -0.2299 -0.6729 -0.0028
 6419SOL    HW130890   4.454   4.449  13.862 -1.0002 -0.3304  0.6008
 6419SOL    HW230891   4.424   4.426  13.727  0.6220 -1.0791  0.5432
 6420SOL     OW30892   2.794   3.660  15.906  0.2843 -0.7832  0.5694
 6420SOL    HW130893   2.846   3.580  15.918 -1.0121 -1.7745 -0.4866
 6420SOL    HW230894   2.709   3.624  15.879 -0.0794 -0.0421  0.7515
 6421SOL     OW30895   0.580   3.599   1.179  0.9388 -0.3458 -0.7335
 6421SOL    HW130896   0.592   3.504   1.182  0.8098 -0.3493 -0.3376
 6421SOL    HW230897   0.569   3.624   1.088 -0.0097 -1.9686 -1.0700
 6422SOL     OW30898   4.060   0.608   2.814  0.2858  0.2990  0.4462
 6422SOL    HW130899   3.973   0.645   2.799  0.7187  0.0635 -2.7046
 6422SOL    HW230900   4.114   0.680   2.781  1.3290 -1.8067 -2.4100
 6423SOL     OW30901   1.575   0.773   3.208  0.1001 -0.5737  0.4016
 6423SOL    HW130902   1.646   0.821   3.251 -1.4881  1.6099  0.5733
 6423SOL    HW230903   1.535   0.844   3.158 -0.5655 -0.5073  1.0264
 6424SOL     OW30904   0.122   1.775   4.180 -0.5525  0.0245 -0.1995
 6424SOL    HW130905   0.183   1.798   4.109  1.4905  2.4462  2.3103
 6424SOL    HW230906   0.180   1.746   4.250  0.2386 -1.3094 -1.3873
 6425SOL     OW30907   0.129   3.009   0.264 -0.2443  0.1595  0.1122
 6425SOL    HW130908   0.112   3.046   0.178 -2.6157 -3.3207 -0.8993
 6425SOL    HW230909   0.215   2.969   0.256 -1.3794 -2.2534 -0.1794
 6426SOL     OW30910   0.222   0.395  15.290 -0.1018 -0.4134  0.2672
 6426SOL    HW130911   0.231   0.473  15.346 -1.1561  0.5272 -0.8703
 6426SOL    HW230912   0.189   0.333  15.355  0.2043  1.0773  1.8498
 6427SOL     OW30913   4.354   1.584  17.105  0.4324  0.3291  0.3609
 6427SOL    HW130914   4.419   1.619  17.043  1.9588 -2.1657  0.5501
 6427SOL    HW230915   4.279   1.574  17.046  0.5831 -0.8571  0.3654
 6428SOL     OW30916   2.737   2.944   8.648 -0.4056  0.4938  0.8993
 6428SOL    HW130917   2.783   3.008   8.701 -2.7446  0.5879  2.8407
 6428SOL    HW230918   2.661   2.931   8.705 -0.6817  0.6652  0.5721
 6429SOL     OW30919   4.599   4.057   9.332  0.2479 -0.1767  0.9121
 6429SOL    HW130920   4.674   4.042   9.274  1.2810  2.5286  1.5660
 6429SOL    HW230921   4.636   4.082   9.417  0.6585  0.8806  0.4244
 6430SOL     OW30922   1.070   2.962   7.980  0.0311  0.1078  0.3512
 6430SOL    HW130923   1.032   2.927   7.899 -1.2745  3.0183 -0.3006
 6430SOL    HW230924   0.989   2.995   8.018  1.3973  1.8604  1.7019
 6431SOL     OW30925   1.989   4.192   4.134  0.0777  0.6368 -0.8400
 6431SOL    HW130926   2.038   4.144   4.067  1.6751  0.3793  0.5180
 6431SOL    HW230927   2.042   4.178   4.212  0.0478  1.2174 -0.7173
 6432SOL     OW30928   4.047   0.870   7.508 -0.4586  0.5326 -0.3094
 6432SOL    HW130929   3.974   0.839   7.454 -1.7393 -5.1774  4.5627
 6432SOL    HW230930   4.004   0.891   7.591 -0.0742 -0.0850  0.0514
 6433SOL     OW30931   4.428   4.631  17.507  0.1037  0.1869  0.4662
 6433SOL    HW130932   4.474   4.612  17.425 -0.4842 -0.0152  0.1882
 6433SOL    HW230933   4.343   4.658  17.474 -0.1948  1.3794  2.1970
 6434SOL     OW30934   2.392   1.086   8.300  0.6385 -0.5874 -0.1490
 6434SOL    HW130935   2.312   1.062   8.347  1.9485 -2.3981  1.1758
 6434SOL    HW230936   2.353   1.094   8.213  2.0351 -0.0824 -0.7354
 6435SOL     OW30937   2.242   1.185   6.831 -0.0598  0.3124 -0.7444
 6435SOL    HW130938   2.283   1.199   6.917 -2.8405 -1.5024  0.8855
 6435SOL    HW230939   2.272   1.257   6.776  0.1463  1.7159  1.1855
 6436SOL     OW30940   1.176   0.122   4.968  0.0512 -0.7036  0.5097
 6436SOL    HW130941   1.114   0.064   4.923  1.1805 -0.4260 -1.3850
 6436SOL    HW230942   1.219   0.054   5.021  0.5016 -1.8260 -1.3133
 6437SOL     OW30943   2.983   3.446   6.319  0.0327 -0.4542 -0.4140
 6437SOL    HW130944   3.031   3.383   6.266  0.0955 -0.8890  0.1545
 6437SOL    HW230945   3.031   3.437   6.402 -0.1051  0.3614 -0.2506
 6438SOL     OW30946   3.072   2.653  11.259  0.1832 -0.4025  0.2857
 6438SOL    HW130947   3.144   2.701  11.219 -1.8428  1.3817 -1.1650
 6438SOL    HW230948   3.032   2.596  11.193 -2.3660 -0.9814  2.3180
 6439SOL     OW30949   4.112   3.031  16.084  0.6516  0.3975  0.6221
 6439SOL    HW130950   4.200   3.024  16.046  0.9525  0.1296  1.3776
 6439SOL    HW230951   4.095   2.940  16.110 -2.4297  0.3196 -1.7224
 6440SOL     OW30952   2.087   2.078   6.499 -0.1324 -0.0628  0.3857
 6440SOL    HW130953   2.152   2.112   6.561  0.0399  0.1109  0.1076
 6440SOL    HW230954   2.048   2.009   6.553  2.8534 -0.8710  1.5115
 6441SOL     OW30955   0.927   4.167   5.329  0.3079 -0.8638 -0.2035
 6441SOL    HW130956   0.971   4.249   5.308 -0.0960  0.2307  3.3372
 6441SOL    HW230957   0.854   4.169   5.268 -1.3044  0.3726  1.7849
 6442SOL     OW30958   2.632   2.534  15.128  0.1878 -0.3608  0.5176
 6442SOL    HW130959   2.556   2.483  15.101 -1.2738  0.7085  2.5783
 6442SOL    HW230960   2.662   2.466  15.187  1.5957 -0.4629 -0.3262
 6443SOL     OW30961   4.408   3.976  10.633 -0.1682 -0.1002  0.6494
 6443SOL    HW130962   4.386   3.971  10.726 -2.8497  0.6646  0.0715
 6443SOL    HW230963   4.320   3.967  10.595  1.0815  0.8968 -2.4984
 6444SOL     OW30964   2.861   3.917   1.919 -0.0872  0.4040 -0.5808
 6444SOL    HW130965   2.806   3.857   1.968  0.1963  0.2224 -0.4834
 6444SOL    HW230966   2.827   4.005   1.935 -0.1007  0.3790 -0.4719
 6445SOL     OW30967   1.959   3.943   5.898 -0.7353 -0.1640  0.8127
 6445SOL    HW130968   1.980   4.023   5.947  0.0535  0.3342 -0.3450
 6445SOL    HW230969   2.038   3.891   5.913 -1.0909 -0.7375  0.7101
 6446SOL     OW30970   3.641   2.335   9.352 -0.3173  0.3569  0.5509
 6446SOL    HW130971   3.678   2.379   9.428  1.5210  1.2951 -0.8945
 6446SOL    HW230972   3.548   2.355   9.362 -0.3712  0.7384 -0.7158
 6447SOL     OW30973   4.061   1.354   9.097 -0.2882  0.1670  0.2246
 6447SOL    HW130974   3.982   1.321   9.055  1.3533 -2.3283 -0.9049
 6447SOL    HW230975   4.044   1.448   9.091  2.9448  0.6532 -1.4731
 6448SOL     OW30976   2.141   0.570   6.656 -0.3973 -0.5584  0.0774
 6448SOL    HW130977   2.209   0.523   6.705  0.9794  2.2492  0.8587
 6448SOL    HW230978   2.162   0.662   6.668 -2.3571 -0.4453  2.6973
 6449SOL     OW30979   2.284   0.323  10.096 -0.0560 -0.2781  0.0561
 6449SOL    HW130980   2.264   0.274  10.016  1.1463 -1.4759  0.5004
 6449SOL    HW230981   2.378   0.310  10.107  0.1407  0.5340 -0.6483
 6450SOL     OW30982   2.839   0.653   5.458  0.1378  0.4735  0.0745
 6450SOL    HW130983   2.879   0.591   5.518  0.3761  1.1929  0.6569
 6450SOL    HW230984   2.900   0.684   5.391  1.4197 -0.6791  0.7281
 6451SOL     OW30985   1.519   2.558   3.052  0.1991  0.0021 -0.1682
 6451SOL    HW130986   1.496   2.646   3.023  0.6043 -0.1849 -1.0667
 6451SOL    HW230987   1.612   2.559   3.027  0.3088 -0.7295  0.2167
 6452SOL     OW30988   0.959   1.962   4.562 -0.0949 -0.7070  0.5934
 6452SOL    HW130989   0.994   1.895   4.503  1.0886  0.5311 -0.0987
 6452SOL    HW230990   0.960   1.920   4.649 -3.1314 -0.7799  0.5958
 6453SOL     OW30991   0.829   0.592   2.712 -0.6033  0.0183 -0.6707
 6453SOL    HW130992   0.852   0.528   2.645  0.3437  0.4053 -0.7177
 6453SOL    HW230993   0.907   0.596   2.767 -1.4401 -0.3178  0.5438
 6454SOL     OW30994   4.511   4.491   2.857  0.2095 -0.3070 -0.1922
 6454SOL    HW130995   4.544   4.512   2.769  0.1414  1.6823  0.2466
 6454SOL    HW230996   4.440   4.428   2.842  0.8239 -0.9197 -0.5276
 6455SOL     OW30997   2.481   3.030   6.099 -0.0479  0.1441 -0.6014
 6455SOL    HW130998   2.427   2.962   6.137 -2.4010  1.6969 -1.1876
 6455SOL    HW230999   2.515   2.974   6.030  0.3812  0.9396 -1.0388
 6456SOL     OW31000   3.498   4.535   6.479  0.0077  0.1560  0.2923
 6456SOL    HW131001   3.462   4.446   6.469  0.6869  0.0936 -1.5717
 6456SOL    HW231002   3.423   4.590   6.459  0.6460  1.8231  2.4936
 6457SOL     OW31003   1.423   3.844  15.900 -0.0378 -0.0681 -0.7221
 6457SOL    HW131004   1.437   3.795  15.819  0.6258 -0.6059 -0.2804
 6457SOL    HW231005   1.430   3.770  15.960  0.3266  0.5301 -0.0177
 6458SOL     OW31006   0.475   2.962  15.252  0.1964 -0.2076  0.0271
 6458SOL    HW131007   0.442   3.051  15.258 -0.0565  0.0229 -4.8450
 6458SOL    HW231008   0.456   2.954  15.158  1.9566 -1.2621 -0.2569
 6459SOL     OW31009   4.057   3.028   8.439 -0.1384 -0.3324 -0.4052
 6459SOL    HW131010   3.996   3.099   8.415  0.2319 -0.2683 -1.1506
 6459SOL    HW231011   4.142   3.071   8.429  0.5912 -1.3150  1.6472
 6460SOL     OW31012   1.053   0.592  17.393 -0.2196 -0.3561 -0.4983
 6460SOL    HW131013   0.989   0.588  17.464  1.1568  2.2952  0.8843
 6460SOL    HW231014   1.131   0.636  17.426  0.4948 -0.5521 -1.9324
 6461SOL     OW31015   4.377   2.054   4.794 -0.0032 -0.2612 -0.2208
 6461SOL    HW131016   4.392   2.118   4.725 -0.1952  0.1408  0.1080
 6461SOL    HW231017   4.466   2.027   4.812 -0.3289 -0.1515  1.5779
 6462SOL     OW31018   0.398   2.003   6.522  0.2917  0.4288  0.2968
 6462SOL    HW131019   0.402   2.006   6.426  1.8458 -0.2331  0.3444
 6462SOL    HW231020   0.459   1.937   6.553  0.7766  0.0593 -1.4301
 6463SOL     OW31021   4.596   0.667   9.127 -0.0279  0.0573  0.4205
 6463SOL    HW131022   4.555   0.712   9.201 -1.7356 -0.0942 -0.4456
 6463SOL    HW231023   4.675   0.720   9.111  0.3347 -1.0515 -1.4820
 6464SOL     OW31024   0.673   0.228   8.401  0.2595  0.4627  0.6742
 6464SOL    HW131025   0.655   0.134   8.393  1.4949  0.2842 -0.1104
 6464SOL    HW231026   0.610   0.251   8.470  1.1004  0.7891  1.3352
 6465SOL     OW31027   3.523   2.957   0.001  0.3056  0.4256 -0.3333
 6465SOL    HW131028   3.445   2.970   0.056 -0.7347 -0.6019 -1.5652
 6465SOL    HW231029   3.543   2.866   0.024 -0.5213  0.4534  0.5032
 6466SOL     OW31030   2.977   0.764   8.421 -0.0978  0.0980 -0.1342
 6466SOL    HW131031   3.032   0.838   8.398  0.3040  0.1814  1.0744
 6466SOL    HW231032   2.895   0.784   8.376 -0.5907 -2.0644 -0.2120
 6467SOL     OW31033   4.033   3.486   5.414 -0.4732 -0.1397  0.0427
 6467SOL    HW131034   4.073   3.462   5.497 -4.2614 -3.1940  0.9970
 6467SOL    HW231035   3.998   3.573   5.433 -1.7620 -0.7362  0.3627
 6468SOL     OW31036   3.136   3.860   3.263 -0.3551 -0.2577  0.7210
 6468SOL    HW131037   3.112   3.867   3.171 -1.0572  0.1017  0.9332
 6468SOL    HW231038   3.090   3.778   3.276  0.0409 -0.8216 -1.3897
 6469SOL     OW31039   1.775   4.204   7.789  0.7924  0.0373 -0.1006
 6469SOL    HW131040   1.765   4.259   7.867 -1.4372  2.0942 -1.8119
 6469SOL    HW231041   1.683   4.185   7.770  0.8743  0.9597 -1.3987
 6470SOL     OW31042   1.814   0.957   3.005 -0.0941  0.3827  0.0426
 6470SOL    HW131043   1.853   0.896   2.942 -0.1109 -1.2646  1.6163
 6470SOL    HW231044   1.727   0.961   2.965  0.7626 -1.9243 -2.0363
 6471SOL     OW31045   3.941   2.187   6.371  0.3916 -0.7582  0.8358
 6471SOL    HW131046   3.958   2.159   6.281  2.2217  2.6386  0.1183
 6471SOL    HW231047   3.891   2.114   6.406 -0.4982 -1.0494 -1.0363
 6472SOL     OW31048   3.200   0.211   9.549 -0.7913  0.3625  0.3579
 6472SOL    HW131049   3.257   0.143   9.511 -1.5299  1.3056 -2.4198
 6472SOL    HW231050   3.137   0.151   9.590  0.6597 -1.9289 -0.7537
 6473SOL     OW31051   4.594   2.615   6.183 -0.3365  0.2720  0.5019
 6473SOL    HW131052   4.544   2.652   6.256 -3.5351  1.3372 -2.2388
 6473SOL    HW231053   4.524   2.588   6.123  0.3765 -2.7992  1.0308
 6474SOL     OW31054   0.441   1.038   9.625  0.0638  0.3833  0.0086
 6474SOL    HW131055   0.500   1.099   9.669 -0.0124  1.0272 -0.7897
 6474SOL    HW231056   0.359   1.047   9.674  0.2359 -2.8579  0.8835
 6475SOL     OW31057   1.786   0.257   3.049  0.2371 -0.1402  0.2764
 6475SOL    HW131058   1.801   0.164   3.066 -1.0591 -0.7096 -1.7677
 6475SOL    HW231059   1.873   0.283   3.019  0.6891  1.2894  2.8130
 6476SOL     OW31060   2.149   1.050  16.024 -0.1589 -0.3318  0.3904
 6476SOL    HW131061   2.230   1.003  16.043  0.3818 -0.1925 -1.4986
 6476SOL    HW231062   2.107   0.996  15.957 -1.0026  2.5530 -1.4334
 6477SOL     OW31063   0.201   1.050   7.157 -0.2854 -0.1026 -0.7999
 6477SOL    HW131064   0.111   1.083   7.157 -0.8481 -1.6581 -2.5102
 6477SOL    HW231065   0.249   1.126   7.124 -0.2559  0.7528  1.2205
 6478SOL     OW31066   3.082   1.047   8.385 -0.4760 -0.0559 -0.5590
 6478SOL    HW131067   3.028   1.085   8.454  1.4044 -0.5873  1.1953
 6478SOL    HW231068   3.028   1.059   8.307  0.7058  0.6993 -1.2596
 6479SOL     OW31069   1.495   4.264   8.292  0.4741 -0.2725  0.8858
 6479SOL    HW131070   1.527   4.173   8.296 -0.8277 -0.7707  0.0021
 6479SOL    HW231071   1.429   4.255   8.361 -0.3808  0.7466  0.1957
 6480SOL     OW31072   2.246   2.812   6.839 -0.1959  0.1970 -1.1260
 6480SOL    HW131073   2.187   2.850   6.904  0.9772  1.0888 -0.5696
 6480SOL    HW231074   2.331   2.853   6.859  1.6052 -2.9930 -2.3736
 6481SOL     OW31075   3.496   4.665  17.167 -0.3858 -0.2924  0.1361
 6481SOL    HW131076   3.570   4.694  17.113  2.3717 -3.0030  2.4868
 6481SOL    HW231077   3.530   4.667  17.256  0.9439  1.9091 -0.4219
 6482SOL     OW31078   0.698   0.039   5.597 -0.0944  0.0568 -0.2121
 6482SOL    HW131079   0.639   0.031   5.672  1.1330 -0.0038  0.7580
 6482SOL    HW231080   0.779   0.061   5.643 -0.2517  2.6195 -1.1710
 6483SOL     OW31081   4.596   1.080   0.013  0.0353 -0.2259  0.3849
 6483SOL    HW131082   4.580   1.010  17.694 -1.8645  0.4354  0.1407
 6483SOL    HW231083   4.546   1.145  17.708 -2.1454 -1.4197  1.0118
 6484SOL     OW31084   0.263   1.246   4.473  0.0488  0.4354  0.3735
 6484SOL    HW131085   0.286   1.283   4.558 -0.3063  1.6685 -0.0673
 6484SOL    HW231086   0.300   1.159   4.487 -0.6437  0.0641 -0.1198
 6485SOL     OW31087   2.641   4.153   8.212  0.2928 -0.0272  0.1216
 6485SOL    HW131088   2.636   4.243   8.242  1.7202 -0.0493  0.3957
 6485SOL    HW231089   2.733   4.130   8.222 -0.4619 -2.5560  1.3339
 6486SOL     OW31090   2.904   1.289   3.844  0.1874  0.0907  0.2359
 6486SOL    HW131091   2.884   1.255   3.932  1.1609 -0.1596  0.3612
 6486SOL    HW231092   2.984   1.330   3.877  0.3706  1.2864 -1.7581
 6487SOL     OW31093   1.467   1.267   7.831 -0.9276  0.0734  0.2987
 6487SOL    HW131094   1.452   1.270   7.736  1.7303 -0.2490 -0.1276
 6487SOL    HW231095   1.379   1.251   7.863  0.0018 -2.3711  1.6186
 6488SOL     OW31096   3.727   2.521  11.054  0.0491  0.4771 -0.7147
 6488SOL    HW131097   3.754   2.593  11.111  1.5987 -0.6601 -0.0054
 6488SOL    HW231098   3.674   2.466  11.112  0.7978 -0.4029 -0.8654
 6489SOL     OW31099   1.707   2.916   6.793  0.1102 -0.5083 -0.1188
 6489SOL    HW131100   1.664   2.977   6.733  2.7139 -1.0534 -2.5550
 6489SOL    HW231101   1.778   2.960   6.839 -0.5788 -0.3027  0.7386
 6490SOL     OW31102   2.168   3.493   5.456  0.2629 -0.5506  0.0965
 6490SOL    HW131103   2.168   3.435   5.380 -0.6113  0.8386 -0.9635
 6490SOL    HW231104   2.104   3.551   5.415 -1.5577 -1.2511  1.9498
 6491SOL     OW31105   3.587   2.974   2.051  0.7397  0.3257 -0.0755
 6491SOL    HW131106   3.588   2.880   2.066  0.4181  0.4745  0.9127
 6491SOL    HW231107   3.597   3.015   2.137  0.5138  2.4630 -1.0595
 6492SOL     OW31108   2.293   0.805   1.903  0.1304 -0.4514 -0.2762
 6492SOL    HW131109   2.307   0.791   1.809  1.1333  1.0588 -0.3466
 6492SOL    HW231110   2.249   0.890   1.895  3.1376  1.2309  0.8531
 6493SOL     OW31111   3.027   4.733   5.870  0.0047  0.2962  0.5079
 6493SOL    HW131112   2.993   0.033   5.952 -0.1519  0.3418  0.4214
 6493SOL    HW231113   3.045   4.641   5.893 -1.8884 -0.1359  0.1982
 6494SOL     OW31114   4.097   1.448   5.901  0.1546  0.0468 -0.0186
 6494SOL    HW131115   4.007   1.477   5.913  0.5447  1.3037 -0.0413
 6494SOL    HW231116   4.136   1.442   5.988  0.8480 -0.3000 -0.3520
 6495SOL     OW31117   2.049   4.545   3.245 -0.2454  0.4299 -0.3524
 6495SOL    HW131118   2.019   4.635   3.262  3.2369  1.5549 -0.1187
 6495SOL    HW231119   2.144   4.561   3.244 -0.5817  2.4410 -0.2301
 6496SOL     OW31120   1.521   0.234  12.056  0.6153 -0.6071  0.0717
 6496SOL    HW131121   1.609   0.266  12.036  0.9803 -1.1531  0.7767
 6496SOL    HW231122   1.535   0.139  12.047  0.7788 -0.4038 -1.7472
 6497SOL     OW31123   1.060   2.319   5.129  0.0711  0.2565 -0.0883
 6497SOL    HW131124   1.152   2.300   5.150 -0.1901 -0.7206  0.1766
 6497SOL    HW231125   1.072   2.343   5.037 -0.3776  0.3478 -0.1188
 6498SOL     OW31126   1.486   4.391   3.048 -0.5123  0.3420  0.1020
 6498SOL    HW131127   1.473   4.486   3.056 -0.8621  0.2156  0.9614
 6498SOL    HW231128   1.551   4.375   3.116 -0.2899  2.5733  0.4095
 6499SOL     OW31129   1.904   0.358   7.147  0.5708 -0.1119  0.0140
 6499SOL    HW131130   1.949   0.425   7.095  2.7018  0.6927  2.8642
 6499SOL    HW231131   1.820   0.358   7.102  1.0833 -1.2145 -0.9413
 6500SOL     OW31132   0.379   1.229  16.347 -0.1177 -0.3478 -0.3467
 6500SOL    HW131133   0.378   1.319  16.315 -1.1023 -0.1236  0.3324
 6500SOL    HW231134   0.411   1.244  16.436  1.6605  1.1975 -1.2472
 6501SOL     OW31135   4.477   2.869   4.944  0.1890 -0.3309 -0.1542
 6501SOL    HW131136   4.419   2.793   4.952 -0.5812  0.4434  1.6413
 6501SOL    HW231137   4.419   2.944   4.929 -0.6649 -0.6800  1.4666
 6502SOL     OW31138   3.089   3.366   6.583 -0.7291 -0.8315  0.2880
 6502SOL    HW131139   3.022   3.378   6.650  1.2621 -1.3270  2.3757
 6502SOL    HW231140   3.145   3.303   6.628  0.2198 -0.5750 -0.5276
 6503SOL     OW31141   2.504   1.326   6.176 -0.3917 -0.0722 -0.1381
 6503SOL    HW131142   2.440   1.306   6.108 -1.0943 -1.4697  0.9216
 6503SOL    HW231143   2.581   1.344   6.124 -0.0586  0.4683  0.5446
 6504SOL     OW31144   1.401   0.254   3.248 -0.2900  0.5042  0.6885
 6504SOL    HW131145   1.329   0.313   3.226 -0.0305 -0.4622 -2.6680
 6504SOL    HW231146   1.468   0.319   3.272 -0.3626  1.1308 -0.8276
 6505SOL     OW31147   4.246   1.430   4.795 -0.4265 -0.0221 -0.2414
 6505SOL    HW131148   4.279   1.384   4.872  1.0058  0.0974 -0.7844
 6505SOL    HW231149   4.311   1.417   4.725  1.0032 -0.7553  1.2374
 6506SOL     OW31150   2.449   4.637   8.315 -0.0960 -0.2189  0.0845
 6506SOL    HW131151   2.399   4.718   8.327 -1.0254 -0.5116 -1.7517
 6506SOL    HW231152   2.387   4.586   8.263 -0.8566 -0.0970  0.8759
 6507SOL     OW31153   3.231   3.510   9.111  0.2682 -0.2015  0.3932
 6507SOL    HW131154   3.142   3.543   9.123  1.5231  3.0740  0.7304
 6507SOL    HW231155   3.228   3.429   9.162 -1.2637 -0.7381 -0.5278
 6508SOL     OW31156   2.526   4.502   3.696 -0.2200 -0.0129  0.2279
 6508SOL    HW131157   2.540   4.461   3.781 -2.2640  1.3926  1.2658
 6508SOL    HW231158   2.437   4.471   3.677 -0.5721  2.6258 -2.3843
 6509SOL     OW31159   0.517   4.205  16.246  0.2169 -0.6996  0.1595
 6509SOL    HW131160   0.511   4.299  16.262  1.7251 -0.7025  0.7214
 6509SOL    HW231161   0.603   4.193  16.207 -0.8353 -0.3088 -2.3207
 6510SOL     OW31162   2.049   0.401   5.006  0.3361 -0.5478  0.4243
 6510SOL    HW131163   2.143   0.400   5.025  0.5122 -0.6353 -0.4529
 6510SOL    HW231164   2.009   0.417   5.092  2.2375 -2.7537  1.7286
 6511SOL     OW31165   0.466   1.071   3.099 -0.0439 -0.1199  0.2761
 6511SOL    HW131166   0.556   1.037   3.102 -0.6726 -1.8082 -0.0281
 6511SOL    HW231167   0.473   1.135   3.028 -0.1458 -0.2759  0.1255
 6512SOL     OW31168   4.212   4.321   1.995  0.3107 -0.2467 -0.0894
 6512SOL    HW131169   4.170   4.249   2.043 -2.7881  1.1546 -0.7047
 6512SOL    HW231170   4.297   4.289   1.965  0.3156  0.9253 -1.3246
 6513SOL     OW31171   2.153   1.736   1.656  0.0683 -0.1518 -0.2440
 6513SOL    HW131172   2.208   1.701   1.726  1.5597  4.3211  0.8391
 6513SOL    HW231173   2.083   1.774   1.709  0.6837  0.7312 -0.0557
 6514SOL     OW31174   1.477   2.970   7.408  0.4043  0.1239  0.2665
 6514SOL    HW131175   1.493   3.006   7.495 -1.4274  0.4477  0.4592
 6514SOL    HW231176   1.559   2.926   7.383  0.0917 -0.1839 -0.2224
 6515SOL     OW31177   0.104   4.010   2.322 -0.3926  0.8934 -0.3663
 6515SOL    HW131178   0.190   4.035   2.287 -0.1444  0.2121 -0.2402
 6515SOL    HW231179   0.085   3.944   2.254 -1.2448  0.8602 -0.0891
 6516SOL     OW31180   0.128   1.584  17.719 -0.2146 -0.2632  0.0531
 6516SOL    HW131181   0.130   1.668  17.674 -0.9366 -0.5450 -0.4900
 6516SOL    HW231182   0.054   1.530  17.691  0.4908 -0.6173 -1.1502
 6517SOL     OW31183   4.725   1.019   8.764  0.4409  0.3412  0.0330
 6517SOL    HW131184   4.673   0.954   8.812 -1.3552  2.0913  0.4551
 6517SOL    HW231185   0.032   0.966   8.698 -0.1607 -1.2407  0.9104
 6518SOL     OW31186   3.337   3.773   4.335 -0.1058  0.1167 -0.6054
 6518SOL    HW131187   3.388   3.727   4.269  1.5587  2.1636 -0.7562
 6518SOL    HW231188   3.260   3.716   4.339 -0.0983  0.0530 -1.5393
 6519SOL     OW31189   3.589   4.567   5.669 -0.3983  0.0603  0.6572
 6519SOL    HW131190   3.542   4.556   5.586 -1.3223 -2.0940  1.4749
 6519SOL    HW231191   3.531   4.513   5.722  0.1582 -0.2486  0.9466
 6520SOL     OW31192   2.304   1.717   2.430  0.3791 -0.5116  0.0921
 6520SOL    HW131193   2.315   1.785   2.363  2.5094 -0.5904  0.3444
 6520SOL    HW231194   2.247   1.656   2.382  1.1922 -0.5902 -0.7892
 6521SOL     OW31195   4.195   3.976  13.243 -0.2065 -0.0527 -0.0591
 6521SOL    HW131196   4.175   3.933  13.326  0.3388 -1.3549 -0.6032
 6521SOL    HW231197   4.223   3.897  13.196  0.2848 -1.1641  2.1349
 6522SOL     OW31198   0.221   3.340   5.894  1.1243 -0.9497 -0.4603
 6522SOL    HW131199   0.315   3.332   5.913  0.8523  0.9252  1.7121
 6522SOL    HW231200   0.204   3.248   5.875  1.3297 -1.3806  1.4207
 6523SOL     OW31201   2.155   2.721   1.722 -0.2215 -0.0558 -0.3827
 6523SOL    HW131202   2.211   2.785   1.678  0.3670 -0.8103 -0.7456
 6523SOL    HW231203   2.228   2.673   1.763 -0.9382 -2.2711 -1.6932
 6524SOL     OW31204   2.172   2.870   4.884  0.9666  0.3293 -0.1134
 6524SOL    HW131205   2.259   2.879   4.845  0.4264 -0.1116 -1.4428
 6524SOL    HW231206   2.188   2.804   4.951  2.0499 -1.1946 -1.8581
 6525SOL     OW31207   2.600   4.283   0.519 -0.1334 -0.5628 -0.0164
 6525SOL    HW131208   2.622   4.370   0.488 -0.0133 -1.1915 -1.7389
 6525SOL    HW231209   2.675   4.236   0.482  0.8390  2.2273 -1.5377
 6526SOL     OW31210   1.087   2.122   2.432  0.3210 -0.3800  0.2390
 6526SOL    HW131211   1.167   2.169   2.453 -0.5679  1.1348  0.2993
 6526SOL    HW231212   1.112   2.038   2.469 -1.5021 -0.7387  0.6686
 6527SOL     OW31213   0.063   4.163   5.066  0.3603 -0.0330 -0.3741
 6527SOL    HW131214   4.708   4.156   5.037  0.6394  0.4418 -1.3762
 6527SOL    HW231215   0.065   4.106   5.143  0.7341  1.0880  0.4631
 6528SOL     OW31216   1.585   0.155   5.404 -0.3645  0.3956 -0.0446
 6528SOL    HW131217   1.585   0.146   5.309  2.1874  2.1574 -0.1966
 6528SOL    HW231218   1.558   0.246   5.418 -1.1519  0.1856 -0.1808
 6529SOL     OW31219   2.698   2.544   1.971 -0.8848  0.0668  0.4726
 6529SOL    HW131220   2.635   2.615   1.958  0.2531  1.0996  0.6105
 6529SOL    HW231221   2.689   2.489   1.894 -0.0302 -2.1795  1.9896
 6530SOL     OW31222   3.951   3.311   8.439  0.5976  0.2914 -0.2499
 6530SOL    HW131223   3.942   3.399   8.403 -1.0401 -0.9047 -2.8358
 6530SOL    HW231224   3.884   3.303   8.507  0.5556  0.3897 -0.2798
 6531SOL     OW31225   3.522   0.107   4.971  0.3533  0.1904 -0.1281
 6531SOL    HW131226   3.542   0.198   4.948  0.7002  0.3686  0.8795
 6531SOL    HW231227   3.563   0.095   5.057 -0.8336  1.1535  0.5845
 6532SOL     OW31228   3.743   3.334   8.634 -0.2227  0.0876  0.4928
 6532SOL    HW131229   3.722   3.357   8.724 -1.1710 -0.4317  0.4035
 6532SOL    HW231230   3.657   3.331   8.591 -0.5364  0.5031  1.0991
 6533SOL     OW31231   0.289   2.920   1.652  0.4966 -0.5539  0.5373
 6533SOL    HW131232   0.211   2.913   1.707  1.0037  1.4135  1.4987
 6533SOL    HW231233   0.363   2.904   1.711 -0.8334 -3.1104  1.5144
 6534SOL     OW31234   0.739   4.492   0.789  0.2865  0.2885 -0.0917
 6534SOL    HW131235   0.811   4.431   0.808 -0.5212 -0.5694  0.1830
 6534SOL    HW231236   0.779   4.576   0.765 -1.0836  0.6283 -1.2024
 6535SOL     OW31237   3.840   0.918   6.011 -0.0285 -0.3837 -0.5619
 6535SOL    HW131238   3.874   1.004   6.037  2.2468 -0.4945 -3.2083
 6535SOL    HW231239   3.746   0.937   6.012 -0.6724 -3.5792  1.1439
 6536SOL     OW31240   1.909   0.759  12.764 -0.0887  0.5174  0.4254
 6536SOL    HW131241   1.853   0.714  12.701  1.3746 -2.1306  1.0167
 6536SOL    HW231242   1.859   0.819  12.820 -0.5795  0.6437 -0.1514
 6537SOL     OW31243   4.373   2.126   9.119 -0.0570  0.5509 -0.0641
 6537SOL    HW131244   4.445   2.189   9.110 -0.3378  0.5258 -2.5563
 6537SOL    HW231245   4.296   2.178   9.142 -0.1634 -0.0793  0.9567
 6538SOL     OW31246   1.761   0.006   3.927 -0.3355 -0.3036 -0.3128
 6538SOL    HW131247   1.702   0.002   3.852  0.6537  0.7627 -1.1564
 6538SOL    HW231248   1.738   0.084   3.978 -0.8172  0.3313 -1.4950
 6539SOL     OW31249   0.088   2.587   9.595 -0.3529  0.0187 -0.1130
 6539SOL    HW131250   0.055   2.653   9.535 -0.6216 -0.8574 -0.9265
 6539SOL    HW231251   0.161   2.628   9.643  0.4192  1.5694 -2.6200
 6540SOL     OW31252   2.902   0.938   3.725 -0.5451 -0.1396  0.5317
 6540SOL    HW131253   2.948   0.974   3.800  1.7671  0.0589 -0.9645
 6540SOL    HW231254   2.893   0.846   3.752 -1.2876  1.0470  4.3173
 6541SOL     OW31255   3.972   2.540   4.527  0.6094 -0.0811 -0.2218
 6541SOL    HW131256   3.990   2.447   4.512  0.3153 -0.4022  1.4271
 6541SOL    HW231257   3.951   2.562   4.436  3.0385 -0.2789 -0.8273
 6542SOL     OW31258   0.645   1.587   3.180 -0.4102  0.2832 -0.2203
 6542SOL    HW131259   0.679   1.671   3.209  0.6919 -0.4118  0.5200
 6542SOL    HW231260   0.680   1.579   3.091 -3.4845 -0.1062 -1.3985
 6543SOL     OW31261   2.953   4.692   6.812 -0.1405  0.7002 -0.2101
 6543SOL    HW131262   2.909   0.001   6.740 -1.8190  0.2452  0.5346
 6543SOL    HW231263   2.961   0.032   6.869  1.5684  1.5950 -1.6219
 6544SOL     OW31264   2.436   3.488   6.165 -0.1710 -0.2844 -0.7251
 6544SOL    HW131265   2.528   3.474   6.187 -0.6956 -1.4352  0.6931
 6544SOL    HW231266   2.415   3.404   6.125  1.0261 -0.6659 -0.5540
 6545SOL     OW31267   0.330   2.862   9.485  0.2189 -0.3762 -0.1237
 6545SOL    HW131268   0.264   2.879   9.418  0.7528 -0.3444 -0.6453
 6545SOL    HW231269   0.334   2.766   9.488  1.7358 -0.3114  0.2440
 6546SOL     OW31270   2.877   1.491   5.270 -0.3577  0.5116 -0.5236
 6546SOL    HW131271   2.885   1.544   5.191  0.2234  0.0763 -0.7562
 6546SOL    HW231272   2.859   1.557   5.338 -0.9834  0.7770 -0.9438
 6547SOL     OW31273   0.955   3.590  11.773 -0.6685 -0.5308 -0.3408
 6547SOL    HW131274   0.990   3.552  11.693 -0.8723 -0.9379 -0.2375
 6547SOL    HW231275   0.865   3.600  11.741 -0.3274  0.4594 -0.9976
 6548SOL     OW31276   1.826   2.149   1.082 -0.1547  0.4780 -0.6370
 6548SOL    HW131277   1.821   2.233   1.035 -3.7594  0.8082  0.3768
 6548SOL    HW231278   1.916   2.152   1.117 -0.8969  3.7630  1.0181
 6549SOL     OW31279   2.540   3.086   8.206  0.1024 -0.4021 -0.0042
 6549SOL    HW131280   2.582   3.009   8.246  0.8566 -0.7563 -1.5016
 6549SOL    HW231281   2.449   3.057   8.207 -0.0306  0.0509  0.9736
 6550SOL     OW31282   1.280   2.210  13.073  0.3519  0.2456  0.0746
 6550SOL    HW131283   1.235   2.235  12.992  0.4984  0.6256  0.1115
 6550SOL    HW231284   1.357   2.169  13.035  0.7469  1.0511  0.0015
 6551SOL     OW31285   1.856   1.261   5.841 -0.0766  0.5830 -0.7299
 6551SOL    HW131286   1.791   1.192   5.831 -0.1259  0.6650 -0.9701
 6551SOL    HW231287   1.915   1.220   5.904  0.1735  1.8467 -0.1423
 6552SOL     OW31288   2.578   1.242  16.657  0.4136  0.8477  0.0548
 6552SOL    HW131289   2.541   1.155  16.637  1.4130  0.6382 -0.8913
 6552SOL    HW231290   2.555   1.239  16.749 -0.5828  0.6109 -0.2035
 6553SOL     OW31291   0.704   4.432  16.446 -0.3800 -0.0637 -0.0574
 6553SOL    HW131292   0.636   4.500  16.453 -1.1181 -0.8313  0.2033
 6553SOL    HW231293   0.729   4.448  16.355 -0.3865 -0.7447 -0.1769
 6554SOL     OW31294   1.876   3.710   6.242  0.1549 -0.1159  0.3426
 6554SOL    HW131295   1.841   3.795   6.270 -0.4086 -0.7203  1.5207
 6554SOL    HW231296   1.941   3.684   6.307  0.3071 -1.0987 -0.2025
 6555SOL     OW31297   1.803   3.211  14.280  0.2340  0.7008  0.2831
 6555SOL    HW131298   1.892   3.247  14.284  0.5290 -0.1335  1.3625
 6555SOL    HW231299   1.754   3.293  14.283  1.5156  1.5110 -0.4359
 6556SOL     OW31300   4.548   0.405   8.497  0.2357  0.2177  0.2676
 6556SOL    HW131301   4.562   0.472   8.564 -1.6215  1.4953 -0.6458
 6556SOL    HW231302   4.580   0.448   8.418 -2.2335  0.0198 -0.8307
 6557SOL     OW31303   1.482   0.530  11.563 -0.3762 -0.1374 -0.1198
 6557SOL    HW131304   1.502   0.460  11.626  0.8022  0.7987  0.5282
 6557SOL    HW231305   1.473   0.482  11.480 -1.5060  3.2268 -1.9197
 6558SOL     OW31306   3.601   1.574   4.042  0.5081  0.1938 -0.3327
 6558SOL    HW131307   3.576   1.630   3.969  1.4359 -0.0337 -0.8252
 6558SOL    HW231308   3.612   1.490   3.996 -1.5170  1.5346 -3.2794
 6559SOL     OW31309   2.110   0.281  16.469 -0.5709  0.2349 -0.5492
 6559SOL    HW131310   2.172   0.347  16.499 -1.3172  1.0006 -0.6901
 6559SOL    HW231311   2.040   0.346  16.466 -1.6777 -0.8744  0.7362
 6560SOL     OW31312   2.414   2.592   3.479 -0.1062  0.1549 -0.5294
 6560SOL    HW131313   2.474   2.612   3.407 -0.4696 -0.6173 -1.0533
 6560SOL    HW231314   2.425   2.662   3.543 -0.9228 -0.5321  0.3718
 6561SOL     OW31315   2.217   3.377   4.031 -0.2224 -0.1669 -0.0334
 6561SOL    HW131316   2.253   3.359   3.945 -1.2015  1.2096 -0.7461
 6561SOL    HW231317   2.275   3.446   4.063  0.5472 -1.1732  0.7294
 6562SOL     OW31318   0.372   3.629  16.315 -0.2773  0.3633 -0.3003
 6562SOL    HW131319   0.345   3.644  16.405 -0.9153 -1.2811 -0.2165
 6562SOL    HW231320   0.429   3.705  16.307  0.2989 -0.0527 -0.1067
 6563SOL     OW31321   4.452   4.270  11.966 -0.1422  0.3749  0.2395
 6563SOL    HW131322   4.447   4.220  12.048 -3.8909  1.4524  0.6816
 6563SOL    HW231323   4.538   4.310  11.959 -0.1068  0.4010  0.8101
 6564SOL     OW31324   0.600   1.495   4.200  0.3902 -0.0126  0.3607
 6564SOL    HW131325   0.515   1.471   4.238  1.7363  0.8666  3.9143
 6564SOL    HW231326   0.658   1.430   4.239  1.0285  0.1188 -0.3788
 6565SOL     OW31327   0.925   2.577   8.027  0.4659 -0.0697 -0.5045
 6565SOL    HW131328   0.841   2.570   8.072  1.6202 -1.9541  1.3727
 6565SOL    HW231329   0.898   2.598   7.938 -0.4073 -0.7376 -0.3950
 6566SOL     OW31330   4.351   1.334   8.464  0.0858  0.0781 -0.1183
 6566SOL    HW131331   4.366   1.428   8.449  0.9583 -0.3609 -1.9699
 6566SOL    HW231332   4.430   1.314   8.514 -2.1024 -0.4203  3.1045
 6567SOL     OW31333   2.310   0.849   1.282 -0.2868 -0.2047  0.2442
 6567SOL    HW131334   2.254   0.853   1.204 -0.3874  0.6252  0.3500
 6567SOL    HW231335   2.251   0.881   1.351  2.5740  1.1840  2.0278
 6568SOL     OW31336   1.581   0.202   1.760 -0.1173  0.0060  0.3931
 6568SOL    HW131337   1.628   0.141   1.817  0.4624  1.0995  1.0857
 6568SOL    HW231338   1.502   0.209   1.814 -0.1546  2.4543 -0.0113
 6569SOL     OW31339   0.881   3.511   5.536  0.1783  0.0162  0.4488
 6569SOL    HW131340   0.829   3.447   5.584 -0.1373  0.3418  0.5486
 6569SOL    HW231341   0.876   3.477   5.446 -1.4825  0.4143  0.3818
 6570SOL     OW31342   3.996   4.608   6.545  0.1844  0.1878 -0.2037
 6570SOL    HW131343   3.959   4.648   6.623 -3.5256  0.0800 -1.8762
 6570SOL    HW231344   3.949   4.662   6.481 -1.2020 -0.7103  0.0658
 6571SOL     OW31345   1.087   2.884   4.112  0.5577  0.9063 -0.4324
 6571SOL    HW131346   1.142   2.807   4.127 -0.7062  0.3171  1.1855
 6571SOL    HW231347   1.011   2.870   4.169  0.3075  1.0846 -0.7232
 6572SOL     OW31348   3.807   2.855   5.789 -0.2705 -0.0273  0.2373
 6572SOL    HW131349   3.775   2.875   5.701  0.5625  0.5728  0.0621
 6572SOL    HW231350   3.739   2.794   5.817  1.4134 -2.2880 -0.5425
 6573SOL     OW31351   4.150   2.573   5.623  0.0064  0.6724 -0.5122
 6573SOL    HW131352   4.223   2.611   5.672 -1.4307  1.8748  0.7102
 6573SOL    HW231353   4.087   2.567   5.694 -0.3010  0.7783 -0.7741
 6574SOL     OW31354   4.090   1.165   2.091  0.4849 -0.5070  0.2603
 6574SOL    HW131355   4.158   1.226   2.121 -0.1223  0.2982 -0.0048
 6574SOL    HW231356   4.129   1.086   2.127  2.1173  0.7344  1.2606
 6575SOL     OW31357   3.727   1.503   5.201  1.2797  0.1234 -0.3824
 6575SOL    HW131358   3.716   1.588   5.159  1.0318  0.8884  1.2099
 6575SOL    HW231359   3.760   1.448   5.130  4.1298  0.1149  0.9823
 6576SOL     OW31360   2.160   4.652  12.631  0.4186 -0.5850  0.5362
 6576SOL    HW131361   2.145   4.723  12.692 -1.8975  0.6983 -1.5287
 6576SOL    HW231362   2.080   4.600  12.639  0.4207 -1.0536 -2.3144
 6577SOL     OW31363   3.019   3.443  15.920  0.3169 -0.5601 -1.0535
 6577SOL    HW131364   3.017   3.413  15.829 -0.5386 -2.0588 -0.5562
 6577SOL    HW231365   2.997   3.356  15.955  2.9932 -0.1308  1.7309
 6578SOL     OW31366   1.124   0.503   7.124  0.1118  0.0668  0.2467
 6578SOL    HW131367   1.046   0.548   7.156 -0.4102  0.3835 -1.4667
 6578SOL    HW231368   1.118   0.527   7.031  1.6331 -0.0171  0.1340
 6579SOL     OW31369   1.871   4.262   8.562  0.0570  0.2712  1.1868
 6579SOL    HW131370   1.802   4.199   8.584  0.5761  0.8586  4.4340
 6579SOL    HW231371   1.949   4.209   8.548  0.0579  0.5732  0.0427
 6580SOL     OW31372   1.967   0.178   3.619  0.1971 -0.1156  0.0339
 6580SOL    HW131373   1.906   0.162   3.691 -1.4388 -0.9343 -1.5354
 6580SOL    HW231374   1.943   0.267   3.592 -2.0805 -1.2052 -1.4819
 6581SOL     OW31375   3.051   3.474   5.645  0.1264 -0.2916 -0.7297
 6581SOL    HW131376   2.984   3.501   5.582 -0.0973 -0.6246 -0.6359
 6581SOL    HW231377   3.000   3.463   5.725 -0.0548  2.4319 -0.4974
 6582SOL     OW31378   2.839   2.696  14.539 -0.5027 -0.1987  0.2824
 6582SOL    HW131379   2.894   2.721  14.464  1.7246  0.3056  2.0999
 6582SOL    HW231380   2.765   2.756  14.541 -2.0008 -2.0579  1.0523
 6583SOL     OW31381   4.067   1.385   3.005  0.4409  0.0145 -0.5225
 6583SOL    HW131382   4.159   1.369   2.985  1.1659  2.1775  1.1319
 6583SOL    HW231383   4.028   1.364   2.920 -0.2265 -1.2466  0.0883
 6584SOL     OW31384   3.416   2.079   4.201 -0.1679 -0.1545 -0.0715
 6584SOL    HW131385   3.398   2.090   4.108 -2.3072  3.1208  0.7217
 6584SOL    HW231386   3.398   1.986   4.212 -1.4386  0.2548  1.3855
 6585SOL     OW31387   1.457   3.743   3.445 -0.1593  0.0563  0.7299
 6585SOL    HW131388   1.505   3.825   3.457  1.5336 -1.1479  2.2648
 6585SOL    HW231389   1.376   3.772   3.404 -0.3746  0.3043  1.3425
 6586SOL     OW31390   0.918   3.433   4.872 -0.2444  0.2379  0.0780
 6586SOL    HW131391   1.007   3.403   4.888 -0.1395 -0.1282 -1.2286
 6586SOL    HW231392   0.901   3.382   4.793 -1.4462  0.5481  0.1235
 6587SOL     OW31393   2.478   3.491   0.976  0.3875 -0.5211  1.1662
 6587SOL    HW131394   2.404   3.490   1.036 -1.4596 -1.3163 -1.1072
 6587SOL    HW231395   2.456   3.551   0.904  2.3779  0.2186  1.1751
 6588SOL     OW31396   2.336   2.179  10.760 -0.1754  0.0731 -0.3774
 6588SOL    HW131397   2.411   2.133  10.722  1.4479  1.4818  1.1425
 6588SOL    HW231398   2.284   2.208  10.685 -2.0139 -2.8581 -0.2712
 6589SOL     OW31399   4.328   2.918   3.878  0.1731  0.8406 -0.0540
 6589SOL    HW131400   4.407   2.920   3.825 -0.6721  1.0152 -1.2928
 6589SOL    HW231401   4.367   2.952   3.958  1.4348  2.5447 -1.4165
 6590SOL     OW31402   3.722   0.117   8.273 -0.3690 -0.0500  0.6462
 6590SOL    HW131403   3.662   0.084   8.339  0.1676  0.0339  1.1787
 6590SOL    HW231404   3.802   0.112   8.326 -0.6954  0.8012  1.2166
 6591SOL     OW31405   2.493   3.985  17.659 -0.1398  0.0152 -0.2777
 6591SOL    HW131406   2.577   4.031  17.662  0.8707 -1.8994  0.3889
 6591SOL    HW231407   2.489   3.934  17.578  0.1704  0.3211 -0.4866
 6592SOL     OW31408   4.181   2.424   6.273  0.0576 -0.0494 -0.0949
 6592SOL    HW131409   4.212   2.341   6.239  0.9201  0.2603 -0.0676
 6592SOL    HW231410   4.259   2.448   6.324 -0.3875 -1.8826  1.4545
 6593SOL     OW31411   0.597   4.334  15.597 -0.0438 -0.7465 -0.0648
 6593SOL    HW131412   0.524   4.374  15.550  0.5177  0.3072 -0.0449
 6593SOL    HW231413   0.635   4.411  15.639  2.2576 -1.2994 -1.1352
 6594SOL     OW31414   3.807   0.143   1.928  0.0543  0.0567 -0.3966
 6594SOL    HW131415   3.726   0.162   1.976 -0.1217  0.0179 -0.6742
 6594SOL    HW231416   3.772   0.139   1.839 -0.7990  0.8328 -0.0999
 6595SOL     OW31417   3.917   3.666  15.219  0.4780 -0.0374 -0.0296
 6595SOL    HW131418   3.873   3.617  15.150 -0.3861  1.8350 -0.7976
 6595SOL    HW231419   3.855   3.738  15.232 -0.4221 -0.3734 -2.4839
 6596SOL     OW31420   1.938   1.556   6.088  0.3746 -0.6207  0.1684
 6596SOL    HW131421   1.871   1.525   6.026  0.1310  0.6624 -0.2004
 6596SOL    HW231422   1.925   1.650   6.091 -1.6284 -0.8364 -1.8562
 6597SOL     OW31423   3.145   2.847   1.997 -0.4179  0.2152  0.0576
 6597SOL    HW131424   3.190   2.797   2.065 -0.6938  2.4777  1.8883
 6597SOL    HW231425   3.214   2.872   1.936  0.3008  0.4273  0.9537
 6598SOL     OW31426   0.838   2.441   3.868 -0.0856 -0.1303  0.4274
 6598SOL    HW131427   0.882   2.451   3.783  0.6983 -0.0644  0.8465
 6598SOL    HW231428   0.899   2.387   3.917  1.7114  0.4578 -1.1580
 6599SOL     OW31429   0.149   4.457   8.776  0.5736 -0.2691  0.0628
 6599SOL    HW131430   0.054   4.468   8.787  0.4002 -0.6280 -1.0590
 6599SOL    HW231431   0.166   4.369   8.811 -2.8091  0.0046  2.4495
 6600SOL     OW31432   0.639   2.566   5.805 -0.6577  0.2773 -0.4736
 6600SOL    HW131433   0.625   2.549   5.898 -3.2556 -1.9890 -1.2929
 6600SOL    HW231434   0.553   2.548   5.767 -0.0333 -1.4503 -1.0503
 6601SOL     OW31435   3.878   3.272  14.850  0.2213  0.0670  0.1355
 6601SOL    HW131436   3.788   3.243  14.865  0.6062 -0.6393  1.0762
 6601SOL    HW231437   3.923   3.199  14.806 -0.4857  0.1359 -0.7012
 6602SOL     OW31438   2.177   0.168   4.847 -0.2765  0.2897 -0.0123
 6602SOL    HW131439   2.102   0.219   4.876  0.0865 -0.2887  1.9461
 6602SOL    HW231440   2.177   0.182   4.752 -1.4461  0.1646 -0.0290
 6603SOL     OW31441   1.180   2.055   8.421 -0.4863  0.3352 -0.2720
 6603SOL    HW131442   1.232   2.046   8.341 -2.1832 -1.8931 -1.1308
 6603SOL    HW231443   1.223   1.998   8.484  0.1116 -1.3345 -2.1854
 6604SOL     OW31444   3.062   2.506   7.252  0.1238  0.5449  0.4105
 6604SOL    HW131445   3.032   2.506   7.161 -2.8238 -1.0891  1.3939
 6604SOL    HW231446   3.134   2.568   7.260  1.0104 -0.5003  0.6742
 6605SOL     OW31447   0.757   0.298   6.455 -0.1690 -0.1503 -0.7182
 6605SOL    HW131448   0.676   0.247   6.462  0.3390 -0.5985  1.9389
 6605SOL    HW231449   0.831   0.244   6.484  1.2519  2.3775  0.3281
 6606SOL     OW31450   3.621   4.420  14.040  0.3118 -0.0040 -0.0411
 6606SOL    HW131451   3.586   4.505  14.014 -0.9946 -0.2845  0.8279
 6606SOL    HW231452   3.543   4.367  14.022  1.7077 -2.5051  1.2822
 6607SOL     OW31453   3.644   3.318   5.501 -0.1700  0.2837  0.0966
 6607SOL    HW131454   3.721   3.317   5.444 -0.9856 -0.0393 -1.0074
 6607SOL    HW231455   3.681   3.274   5.577  1.8097  2.2495  0.2671
 6608SOL     OW31456   0.244   1.398   2.409 -0.1185  0.5285  0.1342
 6608SOL    HW131457   0.163   1.348   2.419  1.2610 -1.7516 -0.1955
 6608SOL    HW231458   0.214   1.469   2.465 -0.4894 -0.7479  1.5502
 6609SOL     OW31459   2.632   1.869   4.190 -1.1581  0.3876  0.1223
 6609SOL    HW131460   2.706   1.868   4.251 -0.5755  0.2686 -0.5890
 6609SOL    HW231461   2.566   1.915   4.242 -0.7809  2.1881 -0.9739
 6610SOL     OW31462   2.449   2.257   6.232 -0.2352 -0.1484  0.1354
 6610SOL    HW131463   2.534   2.295   6.253  0.4039 -1.0266 -0.9064
 6610SOL    HW231464   2.460   2.229   6.142 -2.6367 -0.5841 -0.0248
 6611SOL     OW31465   2.822   1.635   8.868  0.0870  0.1049 -0.3588
 6611SOL    HW131466   2.772   1.585   8.804 -1.8612 -0.4076  1.5751
 6611SOL    HW231467   2.897   1.644   8.809 -0.6440 -3.2663 -1.8234
 6612SOL     OW31468   0.568   3.179   9.606  0.2455 -0.0924 -0.0940
 6612SOL    HW131469   0.616   3.161   9.687 -0.2934 -0.5908  0.1139
 6612SOL    HW231470   0.535   3.264   9.633  0.9825  0.6178 -1.4343
 6613SOL     OW31471   0.070   2.154   6.620 -0.2782 -0.1049 -0.4889
 6613SOL    HW131472   0.097   2.193   6.537  0.3005 -1.4893 -0.9605
 6613SOL    HW231473   0.157   2.134   6.655 -0.5162  0.0336  0.1823
 6614SOL     OW31474   4.192   2.892   8.633  0.0310  0.1182 -0.2422
 6614SOL    HW131475   4.214   2.894   8.726  1.0148 -0.8800 -0.4551
 6614SOL    HW231476   4.186   2.986   8.617 -2.8940  0.1687  1.2657
 6615SOL     OW31477   0.761   4.593   6.209 -0.0798  0.2418  0.0883
 6615SOL    HW131478   0.770   4.516   6.265  1.7875  1.1136  0.9429
 6615SOL    HW231479   0.853   4.610   6.193  0.6032 -0.9300  2.8030
 6616SOL     OW31480   4.041   1.536  12.947 -0.1637  0.6323  0.6378
 6616SOL    HW131481   3.974   1.565  13.009 -1.1079  1.2442 -0.6684
 6616SOL    HW231482   4.071   1.607  12.890  0.4073  0.4570  0.7162
 6617SOL     OW31483   4.640   4.422   8.911  0.5728 -0.6265 -0.5095
 6617SOL    HW131484   4.568   4.359   8.900  1.4632 -1.4539 -1.5748
 6617SOL    HW231485   4.584   4.474   8.968  0.1793 -2.9761  1.2662
 6618SOL     OW31486   4.552   1.257  16.678  0.4119 -0.3421  0.3450
 6618SOL    HW131487   4.536   1.188  16.613 -0.2692  0.9366 -0.8254
 6618SOL    HW231488   4.643   1.280  16.664  0.4096 -0.2055  0.5698
 6619SOL     OW31489   3.642   0.750   9.386  0.2732  0.7826 -0.0482
 6619SOL    HW131490   3.719   0.697   9.406  0.0297 -0.1270 -1.5132
 6619SOL    HW231491   3.599   0.711   9.310  1.6494 -0.7423 -0.0352
 6620SOL     OW31492   1.067   4.401   5.908 -0.6230  0.2265  0.3612
 6620SOL    HW131493   1.044   4.379   5.818 -0.5378  0.1343  0.3625
 6620SOL    HW231494   0.993   4.379   5.965 -0.5077  2.8464  1.5350
 6621SOL     OW31495   3.402   1.339   0.227  0.2933 -0.3086  0.1831
 6621SOL    HW131496   3.428   1.247   0.224 -0.1000 -0.4130 -0.0231
 6621SOL    HW231497   3.475   1.377   0.276  0.8502 -0.5295 -0.4578
 6622SOL     OW31498   0.046   0.708  15.662 -0.5880  0.1993  0.0346
 6622SOL    HW131499   0.068   0.666  15.745 -1.0889  0.9661  0.5636
 6622SOL    HW231500   4.713   0.772  15.680 -0.0199  0.7735  0.1821
 6623SOL     OW31501   3.838   1.406   5.545  0.0368 -0.6194  0.0597
 6623SOL    HW131502   3.890   1.486   5.550 -0.0741 -0.5601  0.2179
 6623SOL    HW231503   3.764   1.445   5.499  1.1895 -0.9171 -2.0480
 6624SOL     OW31504   2.700   4.246   4.998  0.7946 -0.2165 -0.5808
 6624SOL    HW131505   2.738   4.213   5.078  0.3314 -2.1878 -1.1830
 6624SOL    HW231506   2.730   4.337   4.996 -0.3947  0.1747 -1.2458
 6625SOL     OW31507   1.496   2.640   7.504 -0.9589  0.4471  0.0657
 6625SOL    HW131508   1.561   2.639   7.434 -0.4677 -1.6898  0.5490
 6625SOL    HW231509   1.418   2.604   7.462 -0.7885 -2.1038  1.9362
 6626SOL     OW31510   0.605   2.994   4.207  0.1576  0.4957 -0.3121
 6626SOL    HW131511   0.551   3.073   4.204 -1.8103 -0.7831  1.7364
 6626SOL    HW231512   0.533   2.932   4.191 -1.3877  1.6846  2.0299
 6627SOL     OW31513   4.169   0.967   2.243 -0.0397  0.0313 -0.2664
 6627SOL    HW131514   4.215   1.003   2.319 -1.0358 -0.3247  0.5031
 6627SOL    HW231515   4.197   0.876   2.253  1.9343  0.6420 -0.3074
 6628SOL     OW31516   4.038   3.740   2.149  0.5277 -0.3207  0.1073
 6628SOL    HW131517   4.021   3.798   2.075  1.6697 -0.9115 -0.6057
 6628SOL    HW231518   4.131   3.740   2.171  0.4780  0.4693  0.3407
 6629SOL     OW31519   1.790   1.380   5.597 -0.3556  0.0456 -0.2490
 6629SOL    HW131520   1.821   1.327   5.670 -2.4780 -0.3931  0.3352
 6629SOL    HW231521   1.818   1.468   5.621 -0.1429 -1.0535  3.5849
 6630SOL     OW31522   0.090   2.828  16.298 -0.0184 -0.0984  0.1197
 6630SOL    HW131523   0.174   2.809  16.256  0.4363  1.1586  0.4569
 6630SOL    HW231524   0.094   2.920  16.324  2.5166  0.5135 -2.4337
 6631SOL     OW31525   3.952   1.159   6.030 -0.5500  0.1468  0.3626
 6631SOL    HW131526   4.045   1.180   6.040 -0.4062 -0.5060  0.3982
 6631SOL    HW231527   3.921   1.201   6.110 -0.9287 -0.1898  0.3949
 6632SOL     OW31528   4.271   0.989   5.511  0.1887  0.2009 -0.2774
 6632SOL    HW131529   4.274   1.000   5.416  0.5619  1.4142 -0.1286
 6632SOL    HW231530   4.363   0.981   5.538 -0.1337  0.7110  0.9792
 6633SOL     OW31531   0.925   1.614   6.492  0.4861 -0.0009  0.1474
 6633SOL    HW131532   0.905   1.687   6.433 -1.3064  0.5864  1.4767
 6633SOL    HW231533   0.990   1.662   6.544 -0.8605 -0.6118  2.3843
 6634SOL     OW31534   0.080   1.111   9.443  0.1303 -0.1380 -0.5411
 6634SOL    HW131535   0.095   1.105   9.537  2.3000  1.4332 -0.7781
 6634SOL    HW231536   0.033   1.194   9.445  0.4316  0.0452 -0.9164
 6635SOL     OW31537   1.733   3.403  10.573 -0.4820 -0.7099  0.0405
 6635SOL    HW131538   1.761   3.455  10.498 -1.1836 -0.7782 -0.2749
 6635SOL    HW231539   1.816   3.384  10.616 -0.9775 -2.6293  0.1463
 6636SOL     OW31540   2.061   0.730   6.314  0.4257 -0.1012  0.2137
 6636SOL    HW131541   2.155   0.715   6.313  0.5738  1.4440 -5.3170
 6636SOL    HW231542   2.058   0.812   6.363  0.7341  0.6861 -1.0956
 6637SOL     OW31543   3.174   0.024   2.761  0.3826  0.3357 -0.1325
 6637SOL    HW131544   3.263   4.733   2.741  0.3654  0.2672 -0.1139
 6637SOL    HW231545   3.186   0.115   2.789 -2.2363  0.8863 -0.7494
 6638SOL     OW31546   2.010   3.622   7.441 -0.1623 -0.0766 -0.4649
 6638SOL    HW131547   2.000   3.658   7.529  0.3986 -2.2074  0.4790
 6638SOL    HW231548   1.917   3.617   7.416 -0.2523 -2.7676  0.3463
 6639SOL     OW31549   0.076   1.776   3.433 -0.1584 -0.3943 -0.2780
 6639SOL    HW131550   0.118   1.849   3.480 -0.9085 -0.6951  0.8791
 6639SOL    HW231551   0.098   1.703   3.492 -0.7318  0.2195  0.6921
 6640SOL     OW31552   0.817   4.610  14.895 -0.3637 -0.1015 -0.7609
 6640SOL    HW131553   0.764   4.530  14.891  0.7151 -0.8153 -0.9216
 6640SOL    HW231554   0.802   4.651  14.810  0.9475 -2.2998 -2.0766
 6641SOL     OW31555   4.719   2.480   0.863 -0.0257 -0.2481 -0.3808
 6641SOL    HW131556   0.011   2.557   0.913 -0.3644  1.2533 -2.4859
 6641SOL    HW231557   0.065   2.462   0.817  0.0888 -0.6775 -0.0082
 6642SOL     OW31558   3.944   4.432   3.174  0.4301  0.0175 -0.1589
 6642SOL    HW131559   4.036   4.421   3.198  0.7621 -1.1321 -1.9055
 6642SOL    HW231560   3.906   4.409   3.258  2.2507  1.1631  0.9804
 6643SOL     OW31561   1.450   0.544   0.940  0.3639 -0.4104  0.5075
 6643SOL    HW131562   1.402   0.541   1.023  1.0018 -0.0343  0.8868
 6643SOL    HW231563   1.485   0.456   0.927 -0.8911 -0.8172 -0.1264
 6644SOL     OW31564   1.871   0.444  15.026  0.2955  0.2383  0.0220
 6644SOL    HW131565   1.822   0.493  14.961  1.6177 -2.0272 -2.6937
 6644SOL    HW231566   1.814   0.428  15.101  0.0004 -4.3082 -1.1348
 6645SOL     OW31567   4.129   1.575   3.639 -0.4010  0.2983 -0.3903
 6645SOL    HW131568   4.080   1.593   3.559 -2.0979  0.1175  0.6081
 6645SOL    HW231569   4.061   1.593   3.703 -0.3581  2.7890 -1.0545
 6646SOL     OW31570   0.318   1.922   7.004  0.2983  0.0365 -0.1124
 6646SOL    HW131571   0.289   1.874   6.927  0.7124 -0.2326 -0.0972
 6646SOL    HW231572   0.281   2.008   6.985 -2.8449 -1.7903 -2.3265
 6647SOL     OW31573   1.750   3.658   7.393  0.0080  0.4061  0.3910
 6647SOL    HW131574   1.711   3.678   7.308  0.6190  0.8436  0.2147
 6647SOL    HW231575   1.707   3.716   7.455  1.8527  3.2616 -1.0292
 6648SOL     OW31576   3.778   3.548   4.703  0.2210 -0.4661 -0.1073
 6648SOL    HW131577   3.808   3.634   4.674 -0.8994 -0.9147 -2.6508
 6648SOL    HW231578   3.785   3.492   4.625  2.0654 -1.0785  0.5028
 6649SOL     OW31579   0.120   3.444   4.034 -0.2567 -0.3142  0.0092
 6649SOL    HW131580   0.213   3.430   4.020  0.2093  2.9424 -0.2690
 6649SOL    HW231581   0.071   3.433   3.952 -0.6477 -1.5680  0.4211
 6650SOL     OW31582   3.730   4.308   4.451 -0.1325 -0.1904 -0.4994
 6650SOL    HW131583   3.692   4.253   4.520 -0.1257  1.4241  0.8048
 6650SOL    HW231584   3.719   4.398   4.483  0.4095 -0.6719  1.0423
 6651SOL     OW31585   2.578   4.138   6.907 -0.1486  0.1763  0.2298
 6651SOL    HW131586   2.573   4.216   6.963 -1.2997 -0.7577  1.4251
 6651SOL    HW231587   2.650   4.157   6.846 -1.4025  0.5489 -1.1278
 6652SOL     OW31588   1.850   3.392  15.530 -0.6808  0.0623 -0.0436
 6652SOL    HW131589   1.786   3.367  15.596  1.5101 -2.2180  1.1926
 6652SOL    HW231590   1.923   3.430  15.577  0.8185 -2.2158 -0.5146
 6653SOL     OW31591   3.146   1.672   7.698  0.3663 -0.2401  0.3051
 6653SOL    HW131592   3.081   1.706   7.637  0.5111 -0.4027  0.0607
 6653SOL    HW231593   3.170   1.754   7.740 -1.6394  1.3622 -1.7102
 6654SOL     OW31594   4.179   3.685   0.693  0.4245 -0.1712 -0.0322
 6654SOL    HW131595   4.122   3.740   0.640 -0.7683 -0.9747  0.4203
 6654SOL    HW231596   4.200   3.610   0.637  0.0994  0.9705 -1.6600
 6655SOL     OW31597   3.355   3.893   0.686 -0.2120 -0.6338 -0.0388
 6655SOL    HW131598   3.328   3.970   0.636  0.1388 -1.8254 -2.0444
 6655SOL    HW231599   3.440   3.883   0.643  0.2090 -1.0506  0.8793
 6656SOL     OW31600   0.005   0.448   9.856  0.0069 -0.5169  0.8621
 6656SOL    HW131601   4.727   0.442   9.762 -2.0389 -0.0327  1.1416
 6656SOL    HW231602   0.096   0.472   9.875 -0.3543 -0.1478  2.1734
 6657SOL     OW31603   2.219   3.392   7.942 -0.3700  0.4310  0.1641
 6657SOL    HW131604   2.170   3.428   8.016 -0.2698  1.5929 -0.3437
 6657SOL    HW231605   2.283   3.334   7.982 -1.5806 -0.9393  0.1226
 6658SOL     OW31606   1.956   2.511   5.238  0.2026  0.0570 -0.4924
 6658SOL    HW131607   1.889   2.502   5.305  1.0271  0.6965  0.4190
 6658SOL    HW231608   1.964   2.606   5.231  4.5827 -0.2185  0.8904
 6659SOL     OW31609   4.533   3.717   1.779 -0.3302 -0.0600 -0.6862
 6659SOL    HW131610   4.454   3.736   1.729 -0.9518 -1.6837 -0.3011
 6659SOL    HW231611   4.553   3.808   1.802 -0.3601  0.0657 -1.1596
 6660SOL     OW31612   0.352   2.121   8.228  0.0336 -0.5929  0.5096
 6660SOL    HW131613   0.271   2.083   8.196  0.8782  0.3116 -2.6686
 6660SOL    HW231614   0.410   2.057   8.186  0.6249  0.1215  0.2495
 6661SOL     OW31615   4.377   0.616  14.147  0.1458  0.2689  0.3291
 6661SOL    HW131616   4.327   0.572  14.078  0.7666  2.1067 -1.3148
 6661SOL    HW231617   4.464   0.577  14.136 -0.7272 -0.9215 -2.2348
 6662SOL     OW31618   2.696   0.341  16.972 -0.5320 -0.4690  0.4893
 6662SOL    HW131619   2.740   0.256  16.970  1.4103  0.6055 -3.1090
 6662SOL    HW231620   2.766   0.401  16.945 -0.8979 -0.2754 -0.0209
 6663SOL     OW31621   3.849   3.178   2.518  0.5510  0.7048 -1.0496
 6663SOL    HW131622   3.868   3.185   2.425  0.8531 -0.6656 -1.0804
 6663SOL    HW231623   3.772   3.236   2.514  1.6251  2.3682  2.1349
 6664SOL     OW31624   1.270   2.725  15.322 -0.1419 -0.2688 -0.6067
 6664SOL    HW131625   1.223   2.702  15.242 -0.0161 -0.4435 -0.6275
 6664SOL    HW231626   1.232   2.659  15.380 -1.7387 -0.8877 -2.3295
 6665SOL     OW31627   4.155   1.164   1.530  0.3434  0.0122  0.2174
 6665SOL    HW131628   4.192   1.110   1.601 -0.5216  0.4467  1.0055
 6665SOL    HW231629   4.093   1.211   1.586 -0.8430  0.4230 -1.4561
 6666SOL     OW31630   1.919   0.202   1.780 -0.1399 -0.4581 -0.3029
 6666SOL    HW131631   2.012   0.221   1.765 -0.1316  0.1621  0.5250
 6666SOL    HW231632   1.882   0.270   1.723 -0.9343  1.0018  1.9520
 6667SOL     OW31633   4.006   3.191   6.856 -0.0281 -0.4211 -0.0462
 6667SOL    HW131634   3.957   3.146   6.924 -1.6582 -0.3001 -1.1256
 6667SOL    HW231635   4.004   3.282   6.887 -2.6319 -0.8435  1.0356
 6668SOL     OW31636   4.076   3.637  14.826 -0.0417 -0.4683 -0.4658
 6668SOL    HW131637   4.075   3.567  14.891 -0.6934  1.6697  1.7811
 6668SOL    HW231638   4.161   3.671  14.852 -0.1132 -0.6415 -0.0115
 6669SOL     OW31639   2.275   1.273  10.728 -0.4021  0.6321 -0.0288
 6669SOL    HW131640   2.268   1.214  10.653  0.3909  0.7260 -0.1761
 6669SOL    HW231641   2.181   1.276  10.744 -0.6105  1.5062 -1.4837
 6670SOL     OW31642   0.959   4.198  11.807 -0.2416 -0.0862 -0.7243
 6670SOL    HW131643   0.963   4.105  11.829 -0.3418  0.3194  0.9960
 6670SOL    HW231644   0.957   4.193  11.711  1.8284  1.2407 -0.8285
 6671SOL     OW31645   1.616   1.324  10.363  0.3443 -0.3399  0.5685
 6671SOL    HW131646   1.546   1.374  10.406  1.8631  2.5996 -0.4336
 6671SOL    HW231647   1.646   1.378  10.291 -1.8413  0.1256  0.0029
 6672SOL     OW31648   1.747   2.515   9.525 -0.1802  0.2619 -0.0851
 6672SOL    HW131649   1.696   2.435   9.536  0.6891 -0.2931 -0.0716
 6672SOL    HW231650   1.684   2.574   9.484 -1.0285 -1.2362 -0.9404
 6673SOL     OW31651   3.122   4.652  11.663 -0.4720  0.0249  0.2403
 6673SOL    HW131652   3.091   4.608  11.583 -1.5173 -0.9328  1.1888
 6673SOL    HW231653   3.089   0.005  11.651  2.3223  0.6515 -2.9401
 6674SOL     OW31654   1.248   0.540   0.716  0.4720 -0.2657  0.3272
 6674SOL    HW131655   1.234   0.526   0.810 -0.5620 -2.9582 -0.2249
 6674SOL    HW231656   1.336   0.571   0.736  0.9889 -1.2931 -0.3610
 6675SOL     OW31657   2.775   0.873  15.456 -0.2760 -0.1987 -0.2589
 6675SOL    HW131658   2.785   0.964  15.484  1.5671 -0.0284 -1.4648
 6675SOL    HW231659   2.859   0.830  15.469 -0.0232  0.5246  0.4415
 6676SOL     OW31660   1.104   1.068   8.426  0.3969  0.2012  0.1476
 6676SOL    HW131661   1.088   1.000   8.360  0.7684  0.7186 -0.4786
 6676SOL    HW231662   1.096   1.033   8.515 -0.2036  0.6377  0.2682
 6677SOL     OW31663   3.801   2.077  13.399  0.3051 -0.2085 -0.0247
 6677SOL    HW131664   3.884   2.082  13.352  1.1313 -0.2636  1.4322
 6677SOL    HW231665   3.824   2.118  13.483  0.5521 -0.7755  0.1798
 6678SOL     OW31666   0.020   0.442   4.069  0.7266 -0.1700  0.0721
 6678SOL    HW131667   0.070   0.403   3.997 -0.9442  2.2977 -2.4299
 6678SOL    HW231668   4.708   0.365   4.099 -1.5257  1.5247  0.8258
 6679SOL     OW31669   4.481   0.787   9.341 -0.3340  0.4174 -0.4007
 6679SOL    HW131670   4.475   0.733   9.419 -1.1285 -1.7330 -1.9653
 6679SOL    HW231671   4.391   0.806   9.315 -1.3262  0.3839  3.1098
 6680SOL     OW31672   3.199   2.276  15.033  0.6707  0.3960 -0.5771
 6680SOL    HW131673   3.203   2.308  15.123  0.5725 -0.4022 -0.2888
 6680SOL    HW231674   3.124   2.217  15.033 -0.1753  1.4811 -0.2298
 6681SOL     OW31675   2.061   4.241   0.320  0.2810 -0.4841 -0.4451
 6681SOL    HW131676   2.104   4.186   0.386  2.2023  2.0337  0.4226
 6681SOL    HW231677   2.133   4.295   0.287  0.8949 -0.1781  1.3996
 6682SOL     OW31678   3.866   1.565  13.246  0.4684  0.3930 -0.3029
 6682SOL    HW131679   3.904   1.478  13.255  0.8536  0.6428  0.4373
 6682SOL    HW231680   3.926   1.611  13.305 -0.5542 -0.2781  1.2563
 6683SOL     OW31681   0.655   2.657   2.115  0.5435 -0.4310 -0.1666
 6683SOL    HW131682   0.653   2.751   2.135 -0.6476 -0.4500 -0.1763
 6683SOL    HW231683   0.567   2.632   2.143  0.1705 -1.7924 -2.6055
 6684SOL     OW31684   4.273   2.795   6.089 -0.1336  0.3521 -0.5020
 6684SOL    HW131685   4.304   2.851   6.160 -1.5114 -1.7639  1.7863
 6684SOL    HW231686   4.178   2.788   6.105  0.3649  0.8925  2.8004
 6685SOL     OW31687   1.233   0.950   2.413 -0.1940  0.3795 -0.6427
 6685SOL    HW131688   1.309   1.006   2.428  1.8491 -2.2910 -0.9661
 6685SOL    HW231689   1.235   0.880   2.478  0.9230  0.1203 -0.9539
 6686SOL     OW31690   3.254   2.522   2.338  0.6019  0.8156 -0.3261
 6686SOL    HW131691   3.219   2.453   2.282  1.6545  0.0613 -0.0674
 6686SOL    HW231692   3.218   2.497   2.423  3.3527 -1.6101  0.1314
 6687SOL     OW31693   4.300   1.249   2.930 -0.1689  0.8388 -0.0426
 6687SOL    HW131694   4.336   1.259   2.842  0.5689  0.1175  0.1820
 6687SOL    HW231695   4.375   1.206   2.970 -1.0854 -0.5225  0.2369
 6688SOL     OW31696   3.860   0.311   2.275  0.6921  0.8003  0.1201
 6688SOL    HW131697   3.826   0.356   2.352  1.2694  0.1264  0.7690
 6688SOL    HW231698   3.786   0.305   2.215 -0.1141 -0.9243  1.2783
 6689SOL     OW31699   3.447   3.453   2.996  0.4225 -0.2570  0.5133
 6689SOL    HW131700   3.382   3.460   3.067  1.5070  0.2077  1.4651
 6689SOL    HW231701   3.468   3.546   3.001  0.6770 -0.4208  2.7031
 6690SOL     OW31702   3.860   1.742  14.196 -0.2360 -0.1475  0.1177
 6690SOL    HW131703   3.883   1.670  14.255  0.7094 -0.8972 -1.1539
 6690SOL    HW231704   3.850   1.700  14.110 -0.8742  1.7310 -0.7266
 6691SOL     OW31705   3.777   0.270  15.695  0.0770 -0.2063 -0.3655
 6691SOL    HW131706   3.684   0.247  15.701  0.2472 -1.1883 -1.5660
 6691SOL    HW231707   3.781   0.301  15.605  0.2345  1.4103  0.1977
 6692SOL     OW31708   1.421   1.987  12.998  0.2542  0.7795  0.4553
 6692SOL    HW131709   1.407   1.908  13.051  2.0868 -1.9392 -3.1105
 6692SOL    HW231710   1.387   1.962  12.912 -0.0492  1.3914  0.3959
 6693SOL     OW31711   4.490   3.110   9.465 -0.2681 -0.2203  0.4242
 6693SOL    HW131712   4.502   3.049   9.537  2.1954 -0.8051 -0.4629
 6693SOL    HW231713   4.581   3.130   9.441 -0.4605 -0.3725 -0.4444
 6694SOL     OW31714   1.236   1.788   4.576  0.1083  0.3243 -0.1177
 6694SOL    HW131715   1.228   1.733   4.653 -2.3603  0.7294 -0.0960
 6694SOL    HW231716   1.269   1.868   4.616  1.0451 -0.4174  0.5765
 6695SOL     OW31717   4.005   1.554  10.426 -0.5843 -0.2299  0.1970
 6695SOL    HW131718   3.963   1.634  10.457 -1.9055  0.3339 -3.0487
 6695SOL    HW231719   4.000   1.501  10.506 -1.0959 -0.3258  0.0963
 6696SOL     OW31720   2.043   2.948  15.720 -0.3706  0.2067  0.4384
 6696SOL    HW131721   2.047   3.013  15.650  3.1258  0.9248  1.2919
 6696SOL    HW231722   2.126   2.975  15.759 -1.7395  1.1499  2.7416
 6697SOL     OW31723   1.241   4.506   2.878  0.3815 -0.2681  0.4218
 6697SOL    HW131724   1.303   4.525   2.807  0.1924  0.0793  0.3497
 6697SOL    HW231725   1.197   4.590   2.892  1.2881  0.2487  0.1865
 6698SOL     OW31726   4.135   2.801  17.056  0.0882 -0.0704  0.7799
 6698SOL    HW131727   4.203   2.804  16.988 -2.3615  0.4896 -1.6487
 6698SOL    HW231728   4.115   2.893  17.077 -0.3968  0.5527 -2.3396
 6699SOL     OW31729   1.315   3.469  15.427  0.0932  0.5056  0.2079
 6699SOL    HW131730   1.235   3.417  15.420  1.3155 -1.4566  0.6781
 6699SOL    HW231731   1.280   3.557  15.420  0.2351  0.6439  1.2392
 6700SOL     OW31732   1.491   2.735  17.395 -0.3311 -0.7762 -0.2594
 6700SOL    HW131733   1.445   2.818  17.406 -1.4751 -1.3925 -0.3151
 6700SOL    HW231734   1.468   2.705  17.483  1.5349  0.1209  0.5315
 6701SOL     OW31735   3.614   1.521   8.988 -0.3705  0.2255  0.0316
 6701SOL    HW131736   3.561   1.537   8.910 -0.8250  2.5504  0.7931
 6701SOL    HW231737   3.542   1.506   9.049  0.5122  0.9691  1.2783
 6702SOL     OW31738   4.481   3.669   4.322  0.2134  0.7491 -0.3391
 6702SOL    HW131739   4.404   3.697   4.370 -0.1564 -1.1606  0.1947
 6702SOL    HW231740   4.545   3.725   4.367  1.4897 -0.6607 -0.3863
 6703SOL     OW31741   3.259   2.157   5.841 -0.5344 -0.2164  0.4522
 6703SOL    HW131742   3.254   2.091   5.772  3.3254  1.4719 -1.4234
 6703SOL    HW231743   3.352   2.166   5.859 -0.1910 -1.1951 -0.8519
 6704SOL     OW31744   1.440   3.968   1.344 -0.7016 -0.3951  0.3949
 6704SOL    HW131745   1.522   3.924   1.368 -0.2773  0.8917  1.3110
 6704SOL    HW231746   1.468   3.989   1.255  0.9557 -1.5048  0.6439
 6705SOL     OW31747   4.020   1.263   8.124  0.4195  0.8221  0.2129
 6705SOL    HW131748   3.925   1.252   8.130  0.1936  2.8516  0.2555
 6705SOL    HW231749   4.042   1.182   8.077 -2.0016  1.0408 -1.3392
 6706SOL     OW31750   4.296   2.802   2.864  0.1842 -0.1337 -0.5302
 6706SOL    HW131751   4.378   2.842   2.833  1.2704  0.5892  3.1635
 6706SOL    HW231752   4.218   2.834   2.819 -0.8557  0.5493  1.7544
 6707SOL     OW31753   4.206   1.776  16.069 -0.4030  0.2261  0.6640
 6707SOL    HW131754   4.170   1.835  16.135 -1.5120  1.9457 -1.4645
 6707SOL    HW231755   4.283   1.742  16.114 -0.5231 -1.8152 -0.6321
 6708SOL     OW31756   1.405   3.193   8.836 -0.2651  0.1863  0.5029
 6708SOL    HW131757   1.500   3.198   8.820 -0.1439 -2.5972  0.4262
 6708SOL    HW231758   1.392   3.105   8.802 -0.2686  0.3676  0.0304
 6709SOL     OW31759   0.888   4.723   4.660 -0.4167  0.4746 -0.7555
 6709SOL    HW131760   0.822   4.725   4.591 -0.1929  2.1872 -0.9053
 6709SOL    HW231761   0.835   4.689   4.733 -0.5928  1.4196 -0.4534
 6710SOL     OW31762   4.272   1.182  16.608 -0.4793 -0.7631 -0.0433
 6710SOL    HW131763   4.345   1.123  16.588 -0.0129 -0.2697  0.2099
 6710SOL    HW231764   4.309   1.231  16.681 -1.3019 -0.1245 -0.0654
 6711SOL     OW31765   4.211   4.464   4.665  0.7826  0.0669  0.4310
 6711SOL    HW131766   4.276   4.434   4.601  0.4374  0.0811  0.0765
 6711SOL    HW231767   4.265   4.495   4.738  0.9079 -0.9497  0.7707
 6712SOL     OW31768   2.102   3.988   3.370  0.8069  0.5264  0.4077
 6712SOL    HW131769   2.144   3.988   3.284 -0.4332 -1.4076 -0.1866
 6712SOL    HW231770   2.040   4.056   3.348 -1.2841 -1.4478  0.1999
 6713SOL     OW31771   2.945   3.676   1.477  0.2044  0.3346 -0.1824
 6713SOL    HW131772   2.860   3.702   1.512 -0.7249 -0.3347 -1.9198
 6713SOL    HW231773   2.961   3.605   1.540 -0.6871 -0.6539 -1.0709
 6714SOL     OW31774   1.103   4.048   7.649 -0.2900  0.1245  0.0156
 6714SOL    HW131775   1.035   4.064   7.714 -0.5447 -1.3347  0.1050
 6714SOL    HW231776   1.170   4.108   7.680 -0.8301 -0.8260  3.0332
 6715SOL     OW31777   2.729   3.328   2.988  0.1141 -0.8426 -0.4155
 6715SOL    HW131778   2.751   3.339   2.896  0.9956 -0.3635 -0.1495
 6715SOL    HW231779   2.809   3.353   3.034  0.7305 -1.6864 -1.0203
 6716SOL     OW31780   4.429   0.858   6.800  0.7034  0.2247 -0.1601
 6716SOL    HW131781   4.443   0.765   6.819  2.2875  0.5655  0.3446
 6716SOL    HW231782   4.341   0.859   6.763  0.7380 -2.0622 -0.3059
 6717SOL     OW31783   3.684   3.979   2.596  0.1213 -0.0877  0.0199
 6717SOL    HW131784   3.610   4.025   2.554  0.0380 -1.8418 -1.7425
 6717SOL    HW231785   3.749   4.040   2.563 -0.9217 -0.1836 -2.2264
 6718SOL     OW31786   1.283   1.566   3.179 -0.2306  0.4424 -1.1814
 6718SOL    HW131787   1.333   1.549   3.258 -0.1062  0.4846 -1.2516
 6718SOL    HW231788   1.330   1.644   3.150  1.2642  1.4539  3.9455
 6719SOL     OW31789   1.335   1.333  15.468 -0.1550  0.6775 -0.2757
 6719SOL    HW131790   1.308   1.243  15.488  0.7850  0.3802 -0.3672
 6719SOL    HW231791   1.259   1.383  15.496 -1.5126 -0.5569 -1.7511
 6720SOL     OW31792   4.581   2.102   9.465 -0.0756  0.0311 -0.5651
 6720SOL    HW131793   4.646   2.101   9.536 -3.0340 -1.4498  2.1065
 6720SOL    HW231794   4.639   2.094   9.389  1.0810  1.2818  0.1739
 6721SOL     OW31795   3.031   0.740   2.900 -0.6414 -0.3300 -0.0787
 6721SOL    HW131796   3.052   0.765   2.809 -0.6857 -0.3015 -0.0811
 6721SOL    HW231797   2.948   0.697   2.880  0.8094 -2.8873 -0.6622
 6722SOL     OW31798   4.159   4.125   5.916 -0.5502 -0.4057 -0.0680
 6722SOL    HW131799   4.168   4.198   5.977  1.4033  1.3742 -2.4758
 6722SOL    HW231800   4.235   4.125   5.859 -1.6639  0.3471 -1.5519
 6723SOL     OW31801   0.113   3.831   0.205 -0.3004  0.0150  0.0406
 6723SOL    HW131802   0.106   3.903   0.142 -0.6767 -0.5375 -0.5470
 6723SOL    HW231803   0.155   3.760   0.155  0.4850  1.1616 -0.9443
 6724SOL     OW31804   4.428   3.892  12.838  0.0971 -0.7004  0.1207
 6724SOL    HW131805   4.441   3.831  12.765 -0.8795 -0.8967  0.1105
 6724SOL    HW231806   4.488   3.962  12.814 -0.2261  0.1091  1.7286
 6725SOL     OW31807   0.850   2.075  12.986  0.1612 -0.2291 -0.6731
 6725SOL    HW131808   0.900   2.100  13.064  0.7610 -2.5010 -0.3548
 6725SOL    HW231809   0.789   2.006  13.009  0.4654 -0.2563  0.0423
 6726SOL     OW31810   0.643   1.868   8.936  0.2326  0.5609  0.1824
 6726SOL    HW131811   0.605   1.817   8.864  0.0911  0.5470  0.2658
 6726SOL    HW231812   0.661   1.947   8.885  1.1716  0.5544  0.5054
 6727SOL     OW31813   0.039   3.621   7.839  0.2724 -0.1783 -0.1898
 6727SOL    HW131814   4.703   3.585   7.788 -0.8311  1.2119  0.4277
 6727SOL    HW231815   0.112   3.621   7.776  0.1832  0.2155 -0.2889
 6728SOL     OW31816   4.731   3.431   9.268 -0.1902 -0.4689 -0.4426
 6728SOL    HW131817   0.029   3.350   9.306 -2.1906 -0.9985  0.2621
 6728SOL    HW231818   0.068   3.449   9.209  0.7930  0.6976  1.1745
 6729SOL     OW31819   2.760   3.417  11.829  0.2760  0.2247 -0.1766
 6729SOL    HW131820   2.723   3.332  11.852  1.0801 -0.8071 -2.6389
 6729SOL    HW231821   2.782   3.387  11.740  1.0078 -0.5038  0.2514
 6730SOL     OW31822   1.632   3.373   4.322 -0.3321  0.4788  0.0725
 6730SOL    HW131823   1.691   3.305   4.353 -2.5726  0.1486  3.6213
 6730SOL    HW231824   1.675   3.406   4.244  1.6978  2.6077  2.0838
 6731SOL     OW31825   0.687   3.969  10.971 -0.0214  0.0171  0.0519
 6731SOL    HW131826   0.596   3.946  10.987  0.4141 -1.4987  0.3852
 6731SOL    HW231827   0.689   4.058  11.006  0.7304 -0.2967  0.7923
 6732SOL     OW31828   0.251   2.222  11.967 -0.2048 -0.3207  0.3786
 6732SOL    HW131829   0.306   2.231  12.045 -0.8763  1.5403  0.6346
 6732SOL    HW231830   0.307   2.166  11.912  0.5074 -1.2014  1.9885
 6733SOL     OW31831   0.339   4.527   1.959  0.4207  0.4082 -0.3800
 6733SOL    HW131832   0.376   4.535   1.871  2.1667  2.2812  0.5389
 6733SOL    HW231833   0.245   4.523   1.940  0.4795 -2.8266  0.0544
 6734SOL     OW31834   1.047   1.044   2.698  0.2666 -0.5594 -0.2986
 6734SOL    HW131835   1.055   0.999   2.782 -1.1298  0.6467  0.4754
 6734SOL    HW231836   1.079   0.973   2.643  2.4463 -1.0330  1.5499
 6735SOL     OW31837   4.568   4.133  17.522 -0.5782  0.3935 -0.4241
 6735SOL    HW131838   4.474   4.131  17.503 -0.7816 -1.9687  0.9119
 6735SOL    HW231839   4.579   4.228  17.520  1.8862  0.1180  0.0749
 6736SOL     OW31840   3.042   0.853   0.486 -0.1143  0.3544  0.1351
 6736SOL    HW131841   3.022   0.816   0.400 -2.7944  2.9183 -0.3526
 6736SOL    HW231842   2.972   0.813   0.537  0.6582  0.2625  1.1318
 6737SOL     OW31843   4.572   0.353  17.737 -0.6390  0.0349 -0.4686
 6737SOL    HW131844   4.664   0.336  17.715 -0.6034 -2.5817  1.7296
 6737SOL    HW231845   4.521   0.352  17.656 -0.0015  1.6962 -0.9002
 6738SOL     OW31846   3.142   4.483   0.321 -0.3476 -0.0662  0.3882
 6738SOL    HW131847   3.232   4.456   0.302  0.2161  0.7341  1.9253
 6738SOL    HW231848   3.087   4.413   0.288  0.6933 -0.3916 -0.6566
 6739SOL     OW31849   2.951   2.268   4.656 -0.0653  0.0762  0.4780
 6739SOL    HW131850   3.003   2.347   4.642 -0.8384  1.0160  2.8561
 6739SOL    HW231851   2.864   2.306   4.660  0.0727  0.7374 -3.3139
 6740SOL     OW31852   3.886   2.739   5.095  0.1847  0.5587 -0.6432
 6740SOL    HW131853   3.853   2.664   5.046  0.9470  0.6376 -1.2621
 6740SOL    HW231854   3.982   2.738   5.095  0.1710 -1.2533 -0.7998
 6741SOL     OW31855   0.704   2.957   6.268  0.2659  0.1694  0.3788
 6741SOL    HW131856   0.790   2.916   6.259  0.6796  1.4317 -1.4650
 6741SOL    HW231857   0.657   2.877   6.244  0.8130 -0.3362  1.0072
 6742SOL     OW31858   0.874   0.598   3.443  0.0810  0.0003 -0.3394
 6742SOL    HW131859   0.844   0.687   3.459 -0.8450 -0.5978  1.3058
 6742SOL    HW231860   0.894   0.571   3.532 -1.0140  0.8643  0.1621
 6743SOL     OW31861   1.423   1.038   6.586 -0.5645  0.3805 -0.2246
 6743SOL    HW131862   1.334   1.006   6.601 -1.2049  1.0439 -2.6957
 6743SOL    HW231863   1.431   1.120   6.635  2.2407  1.3084 -2.2172
 6744SOL     OW31864   4.718   0.601  17.627 -0.4479 -0.8008 -0.0757
 6744SOL    HW131865   4.724   0.537  17.698 -0.5994  1.8286  2.2921
 6744SOL    HW231866   0.034   0.557  17.560 -0.1912 -1.0261  0.2755
 6745SOL     OW31867   2.842   1.736   8.023 -0.8800  0.4835  0.0661
 6745SOL    HW131868   2.854   1.644   8.000  0.2937  1.0184 -1.4902
 6745SOL    HW231869   2.922   1.771   7.984 -2.7574  2.9425 -1.6752
 6746SOL     OW31870   2.371   1.956  16.167 -0.3178 -0.0928 -0.1744
 6746SOL    HW131871   2.357   2.040  16.123  4.8001  0.1162 -1.3824
 6746SOL    HW231872   2.459   1.972  16.199 -0.5315  1.9654 -0.6378
 6747SOL     OW31873   3.031   3.391  14.147  0.0687  0.4278 -0.2673
 6747SOL    HW131874   2.949   3.358  14.184 -0.2120  1.4108 -0.0248
 6747SOL    HW231875   3.003   3.464  14.093 -0.1532  0.1247 -0.5652
 6748SOL     OW31876   2.573   3.855  11.292 -0.1285 -0.0416 -0.2913
 6748SOL    HW131877   2.541   3.777  11.336  0.9252 -0.2104  0.1780
 6748SOL    HW231878   2.628   3.808  11.229  0.1034  1.3873 -1.1643
 6749SOL     OW31879   3.727   1.886  13.619 -0.2409  0.1956  0.4171
 6749SOL    HW131880   3.647   1.911  13.666 -0.6638  1.4667 -1.0215
 6749SOL    HW231881   3.715   1.938  13.540  1.4274 -0.5181 -0.2888
 6750SOL     OW31882   0.336   3.319   2.039 -0.1156 -0.1929  0.4027
 6750SOL    HW131883   0.291   3.357   2.114 -0.8305  0.0285 -0.1441
 6750SOL    HW231884   0.357   3.231   2.071  0.2981 -0.7610 -1.4477
 6751SOL     OW31885   3.601   0.985   6.339 -0.2765  0.3099 -0.6501
 6751SOL    HW131886   3.607   0.904   6.389 -0.4473  0.0710 -1.0146
 6751SOL    HW231887   3.581   1.039   6.416  2.3212  1.5279 -0.8351
 6752SOL     OW31888   1.010   0.384   8.976 -0.5323  0.1603 -0.1748
 6752SOL    HW131889   1.004   0.426   9.062  0.3070 -2.2679  1.0530
 6752SOL    HW231890   0.916   0.391   8.957 -0.2313 -1.0176 -2.0984
 6753SOL     OW31891   0.857   1.244   6.481 -0.1460 -0.1999  0.3159
 6753SOL    HW131892   0.925   1.295   6.524 -0.3283 -0.2083  0.6183
 6753SOL    HW231893   0.799   1.222   6.554 -0.3041  0.4092  0.3725
 6754SOL     OW31894   0.578   0.452   2.189  0.2656  0.2091  0.2667
 6754SOL    HW131895   0.619   0.381   2.237  0.6106 -0.3305 -0.8230
 6754SOL    HW231896   0.570   0.412   2.102  0.8492  3.1861 -1.1815
 6755SOL     OW31897   4.059   0.075  16.931  0.2253 -0.0099  0.2302
 6755SOL    HW131898   4.004   0.149  16.955  0.3206  0.7829 -1.9617
 6755SOL    HW231899   4.036   0.071  16.838 -0.1550 -1.2946  0.3759
 6756SOL     OW31900   1.243   1.700   9.946 -0.4344 -0.2554  0.0016
 6756SOL    HW131901   1.317   1.683   9.888 -2.2851 -1.3756 -2.0437
 6756SOL    HW231902   1.270   1.657  10.027 -0.1468  0.6315  0.3680
 6757SOL     OW31903   2.931   1.480   7.524 -0.4470 -0.0154 -0.0424
 6757SOL    HW131904   2.889   1.469   7.439  1.3061 -1.2086 -0.7521
 6757SOL    HW231905   3.005   1.419   7.518  0.2312  0.8846 -0.6915
 6758SOL     OW31906   0.061   2.706   0.204 -0.1609 -0.1354  0.3271
 6758SOL    HW131907   0.042   2.696   0.111  0.9761 -2.0153  0.2920
 6758SOL    HW231908   0.024   2.791   0.226  1.8368  0.5123  1.1584
 6759SOL     OW31909   1.113   1.282  14.266 -0.1622 -0.6910 -1.3776
 6759SOL    HW131910   1.173   1.318  14.202  0.3377  1.8426  0.5280
 6759SOL    HW231911   1.051   1.354  14.262  0.6761 -0.0350 -2.1966
 6760SOL     OW31912   3.890   2.891   2.552 -0.2250  0.1324  0.3479
 6760SOL    HW131913   3.865   2.979   2.526 -2.8620 -1.6549 -3.0683
 6760SOL    HW231914   3.806   2.863   2.587 -1.2719  2.0277 -0.7086
 6761SOL     OW31915   0.978   0.572   4.039  0.5093  0.5271  1.0621
 6761SOL    HW131916   0.949   0.498   3.985 -3.2046  0.3182  3.3236
 6761SOL    HW231917   1.002   0.630   3.967 -0.9067 -1.1080 -0.7355
 6762SOL     OW31918   4.420   4.286   2.494 -0.2238  0.3645 -0.4886
 6762SOL    HW131919   4.441   4.225   2.423  1.0657 -0.5300  0.6731
 6762SOL    HW231920   4.491   4.348   2.482  0.6947 -0.3309  1.4699
 6763SOL     OW31921   0.197   4.626   5.416  0.3286 -0.0776 -0.0306
 6763SOL    HW131922   0.233   4.664   5.496  0.9273 -1.0048  0.1462
 6763SOL    HW231923   0.109   4.593   5.432  0.3900  0.1029  0.6695
 6764SOL     OW31924   2.286   0.759  11.916 -0.0939 -0.0298  0.2733
 6764SOL    HW131925   2.361   0.772  11.974 -1.4204 -0.4062  2.0728
 6764SOL    HW231926   2.224   0.807  11.971  0.0012  2.6445 -1.9415
 6765SOL     OW31927   1.701   2.524   3.849 -0.6368 -0.0047 -0.3480
 6765SOL    HW131928   1.698   2.433   3.819  0.8217  0.0605 -0.7120
 6765SOL    HW231929   1.631   2.563   3.796 -0.1060 -0.1558 -1.1534
 6766SOL     OW31930   1.054   0.720   9.863  0.1365  0.0330 -0.0409
 6766SOL    HW131931   1.120   0.788   9.852  0.4429 -0.1961  0.3882
 6766SOL    HW231932   0.995   0.752   9.931 -0.1291 -1.7221  0.5769
 6767SOL     OW31933   2.129   0.502   5.791  0.4560 -0.0111 -0.3709
 6767SOL    HW131934   2.119   0.536   5.880 -1.5087 -2.4863  0.3646
 6767SOL    HW231935   2.157   0.411   5.805 -3.0984 -1.3726 -1.9747
 6768SOL     OW31936   0.891   0.363   1.868 -1.0755 -0.2104 -0.1427
 6768SOL    HW131937   0.982   0.342   1.886 -1.1505 -1.5435 -1.3430
 6768SOL    HW231938   0.844   0.279   1.862  1.7629 -1.9541  2.2898
 6769SOL     OW31939   3.451   1.900  13.708  0.5397 -0.4224 -0.0938
 6769SOL    HW131940   3.429   1.908  13.801 -1.4666  0.9152 -0.6736
 6769SOL    HW231941   3.392   1.945  13.647 -0.5640 -0.7612  0.7275
 6770SOL     OW31942   1.160   1.250   7.693  0.2062 -0.4579 -0.1192
 6770SOL    HW131943   1.147   1.307   7.768  0.9817  1.4656 -1.4297
 6770SOL    HW231944   1.170   1.168   7.740 -2.2881  0.6175  2.2051
 6771SOL     OW31945   3.976   3.052   5.222  0.4342 -0.1850  0.0996
 6771SOL    HW131946   4.022   3.043   5.305  0.2586 -1.0436  0.1071
 6771SOL    HW231947   3.999   2.965   5.187 -0.3046 -0.0684 -0.6898
 6772SOL     OW31948   4.311   2.724   2.502  0.2726 -0.1725  0.1209
 6772SOL    HW131949   4.228   2.683   2.476  0.2991 -0.4172  0.4168
 6772SOL    HW231950   4.349   2.717   2.414 -5.0301 -0.2219 -2.1546
 6773SOL     OW31951   2.983   0.317   1.546 -0.1645  0.0231 -0.3301
 6773SOL    HW131952   3.074   0.308   1.516 -0.1040  1.4194 -0.5283
 6773SOL    HW231953   2.961   0.402   1.510  0.8447  0.2559 -0.4051
 6774SOL     OW31954   3.142   0.214   8.185  0.0203 -0.7800  0.5468
 6774SOL    HW131955   3.104   0.301   8.172  0.0874 -0.7969  0.2420
 6774SOL    HW231956   3.182   0.228   8.271  0.1883  0.2333  0.3037
 6775SOL     OW31957   3.532   2.816   8.905 -0.4366 -0.4676  0.0895
 6775SOL    HW131958   3.500   2.903   8.882 -0.6220 -0.1945  1.3725
 6775SOL    HW231959   3.460   2.773   8.951 -1.1744 -0.2671 -0.8937
 6776SOL     OW31960   1.458   3.574  15.921 -0.3617 -0.3536 -0.0391
 6776SOL    HW131961   1.369   3.543  15.940  0.0052 -0.3630  1.7074
 6776SOL    HW231962   1.482   3.529  15.840 -0.7001 -1.1956  0.3257
 6777SOL     OW31963   2.351   4.484   7.241  0.2973 -0.1986  0.4878
 6777SOL    HW131964   2.301   4.455   7.165 -3.0919  0.5499  2.4536
 6777SOL    HW231965   2.337   4.424   7.314 -0.0555 -0.8647 -0.1270
 6778SOL     OW31966   0.695   1.238   8.365  0.0443 -0.1762 -0.1258
 6778SOL    HW131967   0.670   1.175   8.297  0.7826 -1.5303  0.8790
 6778SOL    HW231968   0.647   1.205   8.441 -0.6083 -0.0018 -0.4593
 6779SOL     OW31969   1.728   2.862  15.232 -0.0530 -0.7137 -0.1821
 6779SOL    HW131970   1.782   2.795  15.190  0.8010  0.5697 -1.1080
 6779SOL    HW231971   1.793   2.913  15.280 -2.8061  1.0779  1.6760
 6780SOL     OW31972   1.987   2.541   5.627 -0.3979 -0.1013  0.2986
 6780SOL    HW131973   1.908   2.508   5.585  0.3689 -0.9909 -0.4392
 6780SOL    HW231974   2.010   2.607   5.561 -0.2501  0.3977  0.8601
 6781SOL     OW31975   4.594   1.533   2.671 -0.6050  0.5290  0.4317
 6781SOL    HW131976   4.535   1.510   2.600  0.3998 -0.4232 -0.1000
 6781SOL    HW231977   4.537   1.518   2.747  0.2151 -1.2746  0.6729
 6782SOL     OW31978   1.727   2.822   3.261 -0.4839 -0.2551 -0.5384
 6782SOL    HW131979   1.700   2.858   3.345 -2.3211  2.1761 -2.1936
 6782SOL    HW231980   1.709   2.730   3.283  1.7995 -0.1611  1.7004
 6783SOL     OW31981   4.457   4.250   1.859  0.1493 -0.3650  0.3382
 6783SOL    HW131982   4.526   4.303   1.898  0.1914 -0.2502  0.1041
 6783SOL    HW231983   4.447   4.277   1.768 -0.1840 -0.4379  0.3506
 6784SOL     OW31984   2.931   2.672   0.804  0.0647  0.3494  0.2422
 6784SOL    HW131985   2.954   2.687   0.713 -1.6210  1.3049 -0.0112
 6784SOL    HW231986   2.849   2.720   0.813 -0.5775 -0.9552  1.3591
 6785SOL     OW31987   2.673   3.107   6.296  0.0978  0.0426  0.2876
 6785SOL    HW131988   2.721   3.039   6.344  1.1507  0.1083 -0.6787
 6785SOL    HW231989   2.623   3.062   6.228 -0.8702  0.1209  0.9429
 6786SOL     OW31990   1.212   1.800  14.860  0.2418  0.0537 -0.2741
 6786SOL    HW131991   1.178   1.889  14.867 -1.3356 -0.2870 -3.6700
 6786SOL    HW231992   1.136   1.744  14.873 -0.5587  1.1778 -0.0984
 6787SOL     OW31993   4.180   4.119   8.945 -0.0855  0.1377  0.1613
 6787SOL    HW131994   4.115   4.115   9.016 -0.6044 -1.8335 -0.4141
 6787SOL    HW231995   4.234   4.042   8.963 -0.2724  0.2747  1.3113
 6788SOL     OW31996   3.646   3.859  17.079 -0.2664  0.1271 -0.5343
 6788SOL    HW131997   3.656   3.827  16.989  1.3251 -0.6044 -0.1080
 6788SOL    HW231998   3.669   3.952  17.069  3.5054 -0.7097  0.1082
 6789SOL     OW31999   4.114   2.192   8.457  0.5567  0.2017 -0.1211
 6789SOL    HW132000   4.070   2.222   8.537 -0.6092 -3.2917  0.5568
 6789SOL    HW232001   4.197   2.165   8.495  1.2838  1.8523 -0.5496
 6790SOL     OW32002   4.650   0.291   9.342  0.3830  0.1560  0.0670
 6790SOL    HW132003   4.573   0.337   9.308  1.6577  2.2104 -0.0460
 6790SOL    HW232004   4.656   0.210   9.291  1.7389  0.5020 -0.3298
 6791SOL     OW32005   3.863   3.589   7.489  0.4229  0.2900  0.5314
 6791SOL    HW132006   3.794   3.621   7.430  1.1470 -2.5243 -1.8076
 6791SOL    HW232007   3.816   3.507   7.504 -1.0119  1.5233  2.6797
 6792SOL     OW32008   1.310   3.376   2.673 -0.5925 -0.6612  0.2641
 6792SOL    HW132009   1.334   3.346   2.760 -0.8972 -1.2031  0.1589
 6792SOL    HW232010   1.217   3.353   2.680 -0.5096 -0.8998  0.5425
 6793SOL     OW32011   3.522   0.475   4.695 -0.3890  0.2934 -0.4604
 6793SOL    HW132012   3.458   0.478   4.624  1.8945  1.3133 -2.4460
 6793SOL    HW232013   3.493   0.544   4.756  2.2010 -0.1146  1.2200
 6794SOL     OW32014   2.726   2.366   1.763 -0.1496 -0.8183  0.0454
 6794SOL    HW132015   2.802   2.308   1.762  1.3403  1.1287  0.6502
 6794SOL    HW232016   2.701   2.357   1.671 -0.7039 -2.2210  0.3454
 6795SOL     OW32017   1.941   0.289   2.289  0.9466 -0.3523 -0.0605
 6795SOL    HW132018   2.018   0.271   2.236  2.1476 -0.5390  1.7588
 6795SOL    HW232019   1.942   0.385   2.289  0.2712 -0.3461  0.1442
 6796SOL     OW32020   1.497   1.343   2.593 -0.6844  0.6261  0.8088
 6796SOL    HW132021   1.434   1.362   2.662 -1.1607  1.5111  0.1246
 6796SOL    HW232022   1.534   1.429   2.573  1.8293 -0.7262 -0.4930
 6797SOL     OW32023   0.531   0.491  16.339  0.2322  0.4092 -0.3538
 6797SOL    HW132024   0.467   0.438  16.293  2.5359 -2.1511 -0.6045
 6797SOL    HW232025   0.612   0.476  16.290  0.5646 -0.2096  0.3803
 6798SOL     OW32026   3.875   4.000   8.305  0.1243  0.0224 -0.1656
 6798SOL    HW132027   3.804   4.042   8.353 -0.1355 -0.2874 -0.2760
 6798SOL    HW232028   3.813   3.942   8.260 -1.2644 -1.0080  3.0449
 6799SOL     OW32029   3.254   3.537   8.577  0.3361  0.5335  0.4158
 6799SOL    HW132030   3.184   3.480   8.544  1.0061 -0.3162  0.4581
 6799SOL    HW232031   3.238   3.614   8.522  1.2635 -0.8652 -1.7915
 6800SOL     OW32032   0.859   1.711   8.962  0.2186 -0.1133 -0.0193
 6800SOL    HW132033   0.805   1.634   8.942  0.7365  0.2111 -2.6821
 6800SOL    HW232034   0.791   1.779   8.959  1.8723  1.5377 -0.4958
 6801SOL     OW32035   2.148   3.632   3.336 -0.5069  0.1713 -0.2612
 6801SOL    HW132036   2.140   3.695   3.408  0.4272 -1.6755  1.4645
 6801SOL    HW232037   2.240   3.609   3.332 -0.9435 -1.8338  1.0474
 6802SOL     OW32038   4.366   0.881  14.267  0.0190  0.0848  0.3107
 6802SOL    HW132039   4.418   0.839  14.336 -1.7363 -2.4906  0.0815
 6802SOL    HW232040   4.338   0.800  14.224  1.2972 -2.1964  3.8150
 6803SOL     OW32041   4.191   1.979   9.319 -0.0928  0.1891  0.0085
 6803SOL    HW132042   4.164   1.894   9.353  1.0518  0.1466  0.8104
 6803SOL    HW232043   4.167   1.984   9.226  0.9299  0.8868 -0.2149
 6804SOL     OW32044   3.561   3.768   4.577  0.0830  0.4289  0.5210
 6804SOL    HW132045   3.483   3.824   4.575 -0.2359  0.0809  3.0297
 6804SOL    HW232046   3.595   3.776   4.488 -0.5138 -0.9717  0.1673
 6805SOL     OW32047   1.597   2.228   4.991  0.1990  0.3182  0.6035
 6805SOL    HW132048   1.680   2.192   4.961  0.9221  1.2407  1.5169
 6805SOL    HW232049   1.545   2.147   4.995 -2.6838  2.2015  1.4508
 6806SOL     OW32050   3.365   2.303  16.331 -0.2183  0.4503  0.1869
 6806SOL    HW132051   3.393   2.330  16.243 -0.0943  1.0009  0.3980
 6806SOL    HW232052   3.331   2.218  16.301 -0.9965  1.6425 -2.3264
 6807SOL     OW32053   0.101   4.303  11.511  0.0952 -0.3491 -0.7702
 6807SOL    HW132054   0.138   4.288  11.598  1.7299 -2.9451 -1.9202
 6807SOL    HW232055   0.028   4.359  11.538  0.2058 -1.0626  0.9907
 6808SOL     OW32056   1.680   2.398   4.484  0.2322 -0.1002  0.5094
 6808SOL    HW132057   1.622   2.432   4.553  1.8248  1.2321  1.1980
 6808SOL    HW232058   1.639   2.312   4.475  3.2899 -1.6053  1.1416
 6809SOL     OW32059   1.109   4.407  10.673 -0.4247 -0.2386 -0.2555
 6809SOL    HW132060   1.107   4.329  10.618 -1.6694 -0.6351  0.3509
 6809SOL    HW232061   1.149   4.370  10.752  1.5613  1.0741 -0.6467
 6810SOL     OW32062   3.914   2.609   4.278 -0.6363  0.4459  0.2913
 6810SOL    HW132063   3.821   2.612   4.253 -0.4844 -2.8004 -0.6896
 6810SOL    HW232064   3.954   2.694   4.261  0.4512  0.1333  1.3012
 6811SOL     OW32065   0.531   1.509   3.958 -0.3591  0.0229  0.5073
 6811SOL    HW132066   0.563   1.519   4.048  0.6491 -4.1166  0.5922
 6811SOL    HW232067   0.478   1.430   3.968 -0.7087  0.3170  1.0285
 6812SOL     OW32068   0.336   2.119   9.658 -0.0386 -0.6073 -0.5233
 6812SOL    HW132069   0.355   2.080   9.743 -1.4705  1.0887  0.5854
 6812SOL    HW232070   0.417   2.165   9.635  1.4041 -2.4961  0.8546
 6813SOL     OW32071   3.863   4.400  10.742 -0.0020  0.4347  0.6420
 6813SOL    HW132072   3.940   4.452  10.718  0.4762 -0.6137 -0.1189
 6813SOL    HW232073   3.891   4.309  10.726 -0.6170  0.3438  0.0835
 6814SOL     OW32074   2.065   3.223   7.069  0.3198 -0.2801  0.1401
 6814SOL    HW132075   2.156   3.193   7.076  0.1938 -0.9411 -1.0682
 6814SOL    HW232076   2.055   3.283   7.143  0.8493 -0.3613  0.2835
 6815SOL     OW32077   0.840   2.606   7.482  0.2585 -0.5766 -0.4620
 6815SOL    HW132078   0.812   2.629   7.394  0.7564  1.3486 -0.1201
 6815SOL    HW232079   0.869   2.517   7.461 -2.8566 -1.2450 -1.7865
 6816SOL     OW32080   1.467   3.745  15.643  0.6226  0.4716 -0.0462
 6816SOL    HW132081   1.515   3.672  15.606 -0.9182 -0.7884  0.4094
 6816SOL    HW232082   1.375   3.722  15.625  0.8221  0.4168 -0.9923
 6817SOL     OW32083   1.578   1.121   3.554  0.0073 -0.2378 -0.3393
 6817SOL    HW132084   1.646   1.165   3.503  0.8325 -3.5201 -2.0899
 6817SOL    HW232085   1.586   1.160   3.641  1.2429 -0.9702 -0.1284
 6818SOL     OW32086   3.796   2.825   8.887 -0.3462 -0.2311 -0.1150
 6818SOL    HW132087   3.820   2.903   8.836  0.0870  0.0555  0.5241
 6818SOL    HW232088   3.704   2.812   8.866 -0.8129  3.9477 -0.7877
 6819SOL     OW32089   0.553   1.422   2.726  0.1309  0.9752 -0.1033
 6819SOL    HW132090   0.463   1.452   2.709 -0.2489 -0.3568 -0.3944
 6819SOL    HW232091   0.576   1.400   2.636  1.0969 -0.6207  0.5367
 6820SOL     OW32092   1.939   3.654   9.701  0.0376  0.2402 -0.1428
 6820SOL    HW132093   1.879   3.687   9.768 -1.2593 -1.4194 -0.4981
 6820SOL    HW232094   2.024   3.650   9.744 -0.5271 -2.9378  0.6588
 6821SOL     OW32095   3.222   0.552   3.133 -0.2791  0.7966 -0.1492
 6821SOL    HW132096   3.281   0.484   3.163 -2.0271 -0.0100  1.4866
 6821SOL    HW232097   3.200   0.521   3.045  1.4981  0.2420 -0.3949
 6822SOL     OW32098   1.296   0.362  12.028 -0.3292 -0.4196  0.4950
 6822SOL    HW132099   1.233   0.290  12.033 -0.5756 -0.2437 -0.1856
 6822SOL    HW232100   1.378   0.313  12.018 -0.1313 -0.5947  2.9653
 6823SOL     OW32101   0.287   1.524   2.756  0.2704  0.3523  0.2536
 6823SOL    HW132102   0.252   1.556   2.839  1.8103 -0.6882  1.3083
 6823SOL    HW232103   0.265   1.599   2.700 -0.7011 -0.1793 -0.0787
 6824SOL     OW32104   2.196   2.446   7.219  0.3261 -0.1046  0.3904
 6824SOL    HW132105   2.287   2.444   7.249  0.1777  1.0371  0.9277
 6824SOL    HW232106   2.188   2.357   7.184  0.4063 -0.7111  1.9394
 6825SOL     OW32107   3.425   3.539   3.703 -0.2219  0.3007 -0.7001
 6825SOL    HW132108   3.497   3.489   3.743 -0.6619 -1.4979 -2.1920
 6825SOL    HW232109   3.377   3.472   3.654 -1.4007  1.8813 -1.6697
 6826SOL     OW32110   2.329   4.569   0.864 -0.0765 -0.5627 -0.3985
 6826SOL    HW132111   2.381   4.595   0.788  1.4256 -0.7807  0.5460
 6826SOL    HW232112   2.264   4.639   0.871 -1.7524 -2.0032 -1.5486
 6827SOL     OW32113   4.659   4.546   6.558 -0.4121 -0.4599  0.3460
 6827SOL    HW132114   4.594   4.516   6.495 -1.5285  3.7089 -0.4943
 6827SOL    HW232115   4.703   4.464   6.580 -1.7688 -1.7429 -1.7896
 6828SOL     OW32116   3.840   0.923   7.711  0.2596 -0.3258 -0.3731
 6828SOL    HW132117   3.784   0.999   7.724 -1.0386 -1.1730 -0.9580
 6828SOL    HW232118   3.779   0.856   7.741 -0.7184  0.2751 -1.0306
 6829SOL     OW32119   3.640   1.714  13.918  0.2199 -0.4585 -0.0309
 6829SOL    HW132120   3.707   1.772  13.882 -0.4572  0.7602  0.6975
 6829SOL    HW232121   3.587   1.699  13.840 -0.4231 -1.3534  0.5657
 6830SOL     OW32122   0.182   0.796   8.966  0.2515  0.0263  0.1438
 6830SOL    HW132123   0.223   0.877   8.937  1.3684 -0.4796  0.3163
 6830SOL    HW232124   0.249   0.757   9.022 -1.6157 -0.2988  2.1721
 6831SOL     OW32125   3.494   2.320   1.512  0.1353  1.0039  0.4758
 6831SOL    HW132126   3.437   2.298   1.585 -0.4805 -0.6522 -0.5128
 6831SOL    HW232127   3.569   2.264   1.529 -0.3093  0.0845 -0.6348
 6832SOL     OW32128   0.724   2.825   3.813  0.1530 -0.0873  0.2064
 6832SOL    HW132129   0.710   2.839   3.720 -1.6649  0.7590  0.6004
 6832SOL    HW232130   0.690   2.908   3.846  1.9810  0.0968  1.6468
 6833SOL     OW32131   1.973   0.140   9.090  0.3669 -0.2344 -0.4764
 6833SOL    HW132132   1.992   0.151   9.183 -0.5681 -3.1209  0.0514
 6833SOL    HW232133   2.054   0.101   9.057  3.4216  3.3059  2.9377
 6834SOL     OW32134   1.938   2.172  13.645  0.1955 -0.0704  0.0427
 6834SOL    HW132135   1.927   2.092  13.595  0.3473 -0.6270  0.9012
 6834SOL    HW232136   1.951   2.233  13.572 -0.5297  0.5952  0.4779
 6835SOL     OW32137   3.881   0.644   8.580  0.4364  0.1079 -0.2567
 6835SOL    HW132138   3.862   0.574   8.517  1.8234  1.5465 -2.2500
 6835SOL    HW232139   3.844   0.720   8.536 -1.7135  0.7556  2.6432
 6836SOL     OW32140   2.560   0.387  12.615 -0.4972  0.3992  0.5961
 6836SOL    HW132141   2.571   0.426  12.702 -0.9110  0.2934  0.7006
 6836SOL    HW232142   2.481   0.435  12.588  0.0197  0.5779 -0.5701
 6837SOL     OW32143   4.119   4.523   6.813  0.2751  0.2557 -0.0303
 6837SOL    HW132144   4.090   4.501   6.724  0.5746 -0.4090  0.0389
 6837SOL    HW232145   4.156   4.441   6.846  2.7031  0.7962 -1.4212
 6838SOL     OW32146   1.921   2.223   5.614 -0.5975 -0.1269  0.1469
 6838SOL    HW132147   1.923   2.131   5.587 -2.7920  0.0036 -0.4361
 6838SOL    HW232148   1.997   2.256   5.566 -1.1160 -0.8059 -1.1196
 6839SOL     OW32149   3.041   3.785  17.486 -0.5248 -0.0650  0.2954
 6839SOL    HW132150   2.980   3.856  17.465  0.1301  0.8852  1.6400
 6839SOL    HW232151   3.127   3.824  17.471 -0.2866  0.7055  3.8496
 6840SOL     OW32152   0.346   2.858   0.124 -0.4051  0.2870  0.3605
 6840SOL    HW132153   0.439   2.878   0.137 -0.6439  1.3536  0.4407
 6840SOL    HW232154   0.334   2.764   0.135 -1.6435  0.4384  0.2627
 6841SOL     OW32155   1.931   0.400   8.543  0.0672  0.0702  0.2644
 6841SOL    HW132156   1.969   0.424   8.627 -0.3393  1.3295  0.0957
 6841SOL    HW232157   1.851   0.363   8.579 -0.7757  1.2415 -0.3968
 6842SOL     OW32158   2.048   0.555   7.032  0.0422 -0.6422 -0.6828
 6842SOL    HW132159   2.039   0.612   6.956  2.1713  0.3236 -0.2101
 6842SOL    HW232160   2.080   0.614   7.099 -0.7207 -3.0604  1.7969
 6843SOL     OW32161   1.158   1.321   5.590  0.1793  0.3395  0.0390
 6843SOL    HW132162   1.103   1.271   5.531 -0.4638  0.4608  0.5425
 6843SOL    HW232163   1.234   1.348   5.537  2.2379 -1.2794  2.1442
 6844SOL     OW32164   3.519   2.213   6.249  0.0092  0.5999 -0.2937
 6844SOL    HW132165   3.530   2.169   6.165 -2.9822 -0.2577 -0.2106
 6844SOL    HW232166   3.583   2.156   6.292 -0.4136 -0.1609 -0.6879
 6845SOL     OW32167   0.519   0.922   6.088 -0.5913 -0.4933 -0.3404
 6845SOL    HW132168   0.460   0.866   6.138  0.7145 -0.8057  0.8357
 6845SOL    HW232169   0.481   0.910   6.001  0.5652 -2.1129 -0.6281
 6846SOL     OW32170   2.641   4.206  13.143 -0.2636 -0.0446  0.1903
 6846SOL    HW132171   2.671   4.128  13.095 -1.6948 -0.5431  0.0952
 6846SOL    HW232172   2.563   4.172  13.186  0.0705 -1.1828 -0.1004
 6847SOL     OW32173   0.121   1.810   6.780 -0.7652  0.2018 -0.0725
 6847SOL    HW132174   0.026   1.795   6.783 -0.4899 -1.8647 -1.6542
 6847SOL    HW232175   0.134   1.777   6.691  0.0288  1.3593 -0.3765
 6848SOL     OW32176   3.844   3.337  14.006 -0.3722  0.1840 -0.5824
 6848SOL    HW132177   3.905   3.411  14.007  0.3263 -0.4350  1.7798
 6848SOL    HW232178   3.835   3.324  14.100  0.3563  1.4064 -0.3331
 6849SOL     OW32179   2.546   0.111  12.628 -0.1919  0.1925 -0.1952
 6849SOL    HW132180   2.535   0.205  12.621  1.4243  0.1866 -3.1048
 6849SOL    HW232181   2.635   0.104  12.663  0.1522 -0.6567 -1.2301
 6850SOL     OW32182   2.706   0.923   1.857 -0.6592  0.2725 -0.6383
 6850SOL    HW132183   2.760   0.989   1.901 -0.0391 -0.4970 -0.2570
 6850SOL    HW232184   2.739   0.928   1.768  0.7577  0.0193 -0.1220
 6851SOL     OW32185   0.583   3.626  16.880 -0.0702  0.2256  0.0246
 6851SOL    HW132186   0.586   3.594  16.789  1.8498  0.9527 -0.1714
 6851SOL    HW232187   0.571   3.551  16.939  0.4295 -0.1471 -0.3492
 6852SOL     OW32188   0.833   2.559   9.033  0.0748  0.1167  0.2842
 6852SOL    HW132189   0.823   2.580   8.941 -0.0177 -0.3755  0.1862
 6852SOL    HW232190   0.743   2.580   9.058 -0.7321 -1.7100 -1.1738
 6853SOL     OW32191   1.577   3.447   0.568 -0.6855  0.4740  0.8209
 6853SOL    HW132192   1.513   3.505   0.609 -0.8579 -0.4625  1.8677
 6853SOL    HW232193   1.528   3.404   0.498  0.1037 -0.4059  0.8066
 6854SOL     OW32194   4.057   4.611   2.744  0.2698  0.4128 -0.3294
 6854SOL    HW132195   4.113   4.617   2.667  2.2377  1.3924  1.1764
 6854SOL    HW232196   4.111   4.589   2.820  1.5833 -2.2203 -2.0123
 6855SOL     OW32197   3.293   0.888   7.326  0.1766 -0.4139  0.7733
 6855SOL    HW132198   3.327   0.882   7.236  0.0240 -0.4479  0.7184
 6855SOL    HW232199   3.293   0.798   7.358  0.9533 -0.3727  0.8896
 6856SOL     OW32200   2.184   2.114   4.810 -0.6874  0.1153 -0.0344
 6856SOL    HW132201   2.129   2.078   4.879  0.6926 -1.1102  0.4254
 6856SOL    HW232202   2.161   2.206   4.818 -1.3096 -0.0417 -0.0115
 6857SOL     OW32203   4.721   1.126  16.039  0.4146 -0.1622  0.1556
 6857SOL    HW132204   0.076   1.128  16.065  0.4574  0.3371 -0.0327
 6857SOL    HW232205   4.725   1.202  15.981 -0.9192  0.8816  1.4547
 6858SOL     OW32206   1.448   3.480   2.991 -0.3681 -0.8041 -0.2426
 6858SOL    HW132207   1.409   3.394   3.006 -0.7491 -0.3045  1.6184
 6858SOL    HW232208   1.374   3.536   3.015  1.0104  0.9949 -0.1647
 6859SOL     OW32209   1.811   4.728   3.082 -0.2169  0.2982 -0.3378
 6859SOL    HW132210   1.762   4.664   3.134  0.2614 -0.6312 -1.0389
 6859SOL    HW232211   1.771   4.706   2.998  0.5586 -0.1975 -0.5722
 6860SOL     OW32212   3.312   1.138   4.931 -0.0966 -0.0839 -0.1220
 6860SOL    HW132213   3.277   1.208   4.988  0.7853  0.3802 -0.1560
 6860SOL    HW232214   3.253   1.069   4.962  2.4530 -2.1679  0.0697
 6861SOL     OW32215   0.401   1.122   7.979 -0.1478  0.2433 -0.2078
 6861SOL    HW132216   0.313   1.145   7.947 -0.5590 -0.6761  0.2628
 6861SOL    HW232217   0.446   1.142   7.897  2.6038  1.1294  1.5423
 6862SOL     OW32218   1.799   3.185   2.748  0.1214 -1.2594  0.1608
 6862SOL    HW132219   1.750   3.182   2.830 -0.3810  1.5352 -0.0294
 6862SOL    HW232220   1.885   3.212   2.779  0.1236 -0.0758 -0.8670
 6863SOL     OW32221   0.802   3.584   4.678  0.2915 -0.2882 -0.4471
 6863SOL    HW132222   0.835   3.593   4.768  0.9144 -3.1877 -0.3976
 6863SOL    HW232223   0.709   3.570   4.696 -0.5485  2.8717 -2.3351
 6864SOL     OW32224   2.332   3.087   7.201 -0.2759  0.0215 -0.2194
 6864SOL    HW132225   2.246   3.067   7.237 -0.6729 -0.8637 -1.6688
 6864SOL    HW232226   2.370   3.132   7.276 -2.6139 -0.2120  1.1033
 6865SOL     OW32227   3.709   2.434   8.933 -0.0023 -0.7248  0.2841
 6865SOL    HW132228   3.790   2.469   8.971  1.9176 -2.7959 -1.8097
 6865SOL    HW232229   3.714   2.471   8.845 -0.8663  0.6387  0.8158
 6866SOL     OW32230   1.438   0.060   6.530  0.1837 -0.6057 -0.7272
 6866SOL    HW132231   1.478   0.119   6.594  0.7666 -0.8776 -0.8398
 6866SOL    HW232232   1.369   0.013   6.576  1.5845  0.0483  2.0106
 6867SOL     OW32233   2.033   0.891   7.991  0.5769  0.2216  0.2129
 6867SOL    HW132234   2.127   0.900   8.007  0.9562 -0.6295 -1.5576
 6867SOL    HW232235   2.027   0.819   8.054 -2.2107  0.9219  0.7674
 6868SOL     OW32236   2.914   1.528   6.451  0.3236 -0.2023 -0.3671
 6868SOL    HW132237   2.869   1.598   6.497  0.7764 -0.3383  0.2835
 6868SOL    HW232238   2.919   1.554   6.359  1.4257  2.8568  0.5793
 6869SOL     OW32239   3.850   3.758   2.351 -0.2280 -0.7381 -0.1254
 6869SOL    HW132240   3.801   3.832   2.315 -0.4328 -1.3119 -1.0181
 6869SOL    HW232241   3.913   3.758   2.279 -2.1178 -3.0943 -1.7686
 6870SOL     OW32242   2.617   2.141  15.471  0.2796 -0.4299  0.0303
 6870SOL    HW132243   2.616   2.100  15.558 -0.4144  1.6777  1.0074
 6870SOL    HW232244   2.670   2.074  15.428  1.6881  0.6730  0.0429
 6871SOL     OW32245   1.704   2.156   5.831 -0.1023  0.4937  0.5010
 6871SOL    HW132246   1.770   2.148   5.901  2.0149  0.0974 -1.5253
 6871SOL    HW232247   1.762   2.162   5.755  2.0693 -2.0339  1.9301
 6872SOL     OW32248   4.642   0.629   3.896 -0.8235  0.8997 -0.0179
 6872SOL    HW132249   4.654   0.574   3.973 -0.3477  1.2155  0.1315
 6872SOL    HW232250   4.730   0.662   3.876 -1.1188  1.5370 -0.2671
 6873SOL     OW32251   3.144   1.561   0.046 -0.1944  0.0203  0.1146
 6873SOL    HW132252   3.170   1.641   0.091 -1.7615  0.6427 -0.0633
 6873SOL    HW232253   3.055   1.563   0.082 -0.5339  2.2998 -0.8564
 6874SOL     OW32254   2.768   1.917  14.622 -0.0310 -0.4543 -0.0213
 6874SOL    HW132255   2.780   1.854  14.551 -0.2297  0.3416 -0.7537
 6874SOL    HW232256   2.814   1.986  14.575 -2.4988  2.2471  1.5459
 6875SOL     OW32257   1.146   1.710   5.936 -0.5183  0.0550  0.2866
 6875SOL    HW132258   1.160   1.616   5.921  0.0886  0.1297  0.4031
 6875SOL    HW232259   1.165   1.743   5.849 -0.6471  0.5995  0.4664
 6876SOL     OW32260   0.404   4.515   6.464  0.7533  0.5053 -0.0856
 6876SOL    HW132261   0.329   4.457   6.473  0.8717  0.5423  1.1206
 6876SOL    HW232262   0.367   4.603   6.469  0.9551  0.7236 -2.4976
 6877SOL     OW32263   2.553   1.097   6.503  0.2856  0.4541  0.4880
 6877SOL    HW132264   2.563   1.193   6.498  0.6497  0.4864  1.7995
 6877SOL    HW232265   2.550   1.082   6.597  0.5143  2.7653  0.8868
 6878SOL     OW32266   4.607   2.116   8.367  0.2090 -0.4560 -0.9091
 6878SOL    HW132267   4.668   2.045   8.388 -1.2404 -1.3473  0.3514
 6878SOL    HW232268   4.528   2.062   8.357  0.6357 -0.7938 -2.4385
 6879SOL     OW32269   4.542   0.188   4.777 -0.4127 -0.3329  0.1179
 6879SOL    HW132270   4.620   0.241   4.794  0.1576 -0.6398 -1.5184
 6879SOL    HW232271   4.581   0.101   4.782  2.2205  0.9255  1.6758
 6880SOL     OW32272   2.079   3.752  11.906 -0.3931  0.0121 -0.4289
 6880SOL    HW132273   2.159   3.772  11.955 -0.8439 -0.4479  0.4958
 6880SOL    HW232274   2.111   3.699  11.833 -1.3392 -2.2641  0.8387
 6881SOL     OW32275   1.896   3.526  14.048 -0.1908 -0.5471  0.3130
 6881SOL    HW132276   1.843   3.587  14.099  1.2693 -0.4139  1.6656
 6881SOL    HW232277   1.933   3.477  14.121  1.8801 -2.2105 -1.8487
 6882SOL     OW32278   2.013   3.805  17.290 -0.5073 -0.7414  0.5538
 6882SOL    HW132279   2.005   3.728  17.346 -0.6377  0.0429  1.6331
 6882SOL    HW232280   1.942   3.859  17.325  0.1696  1.2592 -1.1266
 6883SOL     OW32281   1.484   4.579   2.649  0.2025  0.4250 -0.1131
 6883SOL    HW132282   1.532   4.569   2.566  0.6435 -0.2054  0.2131
 6883SOL    HW232283   1.496   4.673   2.659  1.9723 -0.0038  1.9450
 6884SOL     OW32284   3.302   3.911  17.399  0.4801  0.2643 -0.2999
 6884SOL    HW132285   3.376   3.958  17.438  0.0580  2.4442 -2.1377
 6884SOL    HW232286   3.300   3.936  17.307  0.3337 -3.7286 -1.3744
 6885SOL     OW32287   3.972   3.841   7.509 -0.3653 -0.3925  0.7896
 6885SOL    HW132288   3.907   3.774   7.530 -0.4582 -0.5386  0.0513
 6885SOL    HW232289   4.058   3.804   7.531 -0.2296  0.2142  1.2819
 6886SOL     OW32290   0.377   2.650  15.426  0.1727  0.0759 -0.0821
 6886SOL    HW132291   0.426   2.582  15.472  1.4795  1.0723 -0.0076
 6886SOL    HW232292   0.391   2.729  15.479  0.9230 -0.2008  0.1341
 6887SOL     OW32293   4.360   4.168  16.210 -0.0578  0.0759  0.0199
 6887SOL    HW132294   4.362   4.095  16.148  2.2567 -0.5145  0.7857
 6887SOL    HW232295   4.295   4.221  16.164  1.0187  0.8094 -0.6368
 6888SOL     OW32296   1.492   1.725   1.743  0.2810 -0.4824 -0.3126
 6888SOL    HW132297   1.497   1.649   1.685 -0.2031 -1.6568  1.2025
 6888SOL    HW232298   1.584   1.720   1.768  0.1776 -0.4163  0.0862
 6889SOL     OW32299   2.805   3.477   4.110  0.7803 -0.3230  0.2291
 6889SOL    HW132300   2.759   3.429   4.179  0.2655 -0.3609 -0.1408
 6889SOL    HW232301   2.775   3.568   4.112 -0.4459 -0.6981 -0.8868
 6890SOL     OW32302   1.512   1.410   2.279  0.2544 -0.3870 -0.0007
 6890SOL    HW132303   1.604   1.400   2.256  0.5619 -0.0231  1.0827
 6890SOL    HW232304   1.513   1.415   2.374  0.6226  0.3406 -0.0460
 6891SOL     OW32305   1.855   4.618   9.264  0.0775  0.3664  0.1484
 6891SOL    HW132306   1.940   4.575   9.274  0.1270  0.7480  1.3542
 6891SOL    HW232307   1.877   4.702   9.223 -1.5970  0.1311 -1.2251
 6892SOL     OW32308   0.581   4.201   6.368  0.3761 -0.0467  0.2149
 6892SOL    HW132309   0.652   4.170   6.425  0.8989 -0.7617 -0.8388
 6892SOL    HW232310   0.574   4.290   6.404  0.0001 -0.0667  0.1933
 6893SOL     OW32311   1.663   4.437   0.635 -0.3608  0.3311  0.0319
 6893SOL    HW132312   1.758   4.437   0.648 -0.2472  3.6257 -0.8311
 6893SOL    HW232313   1.646   4.344   0.617  0.1878  0.7251 -2.6139
 6894SOL     OW32314   4.154   4.530  10.917 -0.4621 -0.2522 -0.0737
 6894SOL    HW132315   4.125   4.569  10.835  0.1465 -0.0034 -0.1681
 6894SOL    HW232316   4.083   4.565  10.971 -0.9792  1.1538 -1.6689
 6895SOL     OW32317   3.794   4.175   2.048  0.4562 -0.2543  0.9642
 6895SOL    HW132318   3.862   4.242   2.052  1.2946 -1.1248  1.1881
 6895SOL    HW232319   3.722   4.238   2.050  1.5264  0.9674  1.2264
 6896SOL     OW32320   3.660   3.110   4.191 -0.1749  0.2113 -0.1678
 6896SOL    HW132321   3.682   3.051   4.119  0.3446 -0.2088  0.3298
 6896SOL    HW232322   3.716   3.075   4.261  1.3268  4.8990  0.9565
 6897SOL     OW32323   1.642   3.058   0.297  0.4955  0.1669 -0.3830
 6897SOL    HW132324   1.554   3.072   0.333  0.0835 -3.0785 -0.1220
 6897SOL    HW232325   1.629   2.964   0.286 -0.8533  0.4262 -0.9623
 6898SOL     OW32326   0.966   0.639   8.565  0.4585 -0.1218 -0.4034
 6898SOL    HW132327   1.018   0.642   8.645 -0.4504  0.2476  0.1643
 6898SOL    HW232328   0.985   0.548   8.542 -0.6003 -0.1911 -0.9900
 6899SOL     OW32329   4.379   1.040   4.094 -0.5089  0.0104  0.6249
 6899SOL    HW132330   4.423   1.075   4.172 -1.1866  0.1414  0.9496
 6899SOL    HW232331   4.456   0.993   4.061 -0.0417 -0.1223  1.8672
 6900SOL     OW32332   1.062   2.043   5.859 -0.0683 -0.2059  0.1147
 6900SOL    HW132333   1.120   1.984   5.811 -1.4364  1.2242 -3.2514
 6900SOL    HW232334   1.025   2.094   5.787 -0.3936 -1.7456 -0.8012
 6901SOL     OW32335   4.210   1.088  10.235 -0.2984  0.0150 -0.1780
 6901SOL    HW132336   4.157   1.131  10.302 -0.3933 -0.8005  0.2708
 6901SOL    HW232337   4.291   1.134  10.254  0.2282 -0.5439 -1.0462
 6902SOL     OW32338   0.218   3.166   8.901 -0.1843 -0.1995  0.5405
 6902SOL    HW132339   0.156   3.230   8.936  0.3352 -0.4317  1.9296
 6902SOL    HW232340   0.162   3.120   8.839  0.2965 -1.8779  1.3449
 6903SOL     OW32341   2.196   0.552   3.214  0.0921  0.5356  0.1708
 6903SOL    HW132342   2.252   0.475   3.201  0.7027  0.9489  0.3462
 6903SOL    HW232343   2.248   0.614   3.163  0.4809 -0.8943 -1.1764
 6904SOL     OW32344   1.810   0.493   2.439  0.2210 -0.0401 -0.4297
 6904SOL    HW132345   1.788   0.441   2.517  2.2313  2.1445  1.5805
 6904SOL    HW232346   1.766   0.449   2.366  1.3198 -0.9551 -0.5306
 6905SOL     OW32347   0.496   3.314   2.851 -0.1279 -0.2389  0.3179
 6905SOL    HW132348   0.552   3.375   2.899  0.6879  0.0005 -0.9462
 6905SOL    HW232349   0.508   3.240   2.911  4.3849  1.2650  1.3077
 6906SOL     OW32350   2.992   3.478   1.070  0.2800 -0.5775 -0.8169
 6906SOL    HW132351   2.943   3.402   1.038  0.1741 -0.7461 -0.2561
 6906SOL    HW232352   2.990   3.535   0.994 -0.8424 -0.2472 -0.5478
 6907SOL     OW32353   3.369   4.241   3.268  0.0182 -0.5610  0.0489
 6907SOL    HW132354   3.409   4.184   3.202 -1.6625 -0.0182 -1.4762
 6907SOL    HW232355   3.399   4.195   3.346 -2.2296  1.1026  1.9133
 6908SOL     OW32356   1.917   0.372   7.410  0.2263  0.1787 -0.0762
 6908SOL    HW132357   1.825   0.390   7.430  0.5072 -0.0213  1.4472
 6908SOL    HW232358   1.926   0.383   7.316 -1.5606 -1.0707 -0.3801
 6909SOL     OW32359   4.573   3.264   5.733 -0.4645 -0.3185  0.1640
 6909SOL    HW132360   4.530   3.226   5.657 -0.6452  1.7292 -0.7695
 6909SOL    HW232361   4.614   3.193   5.782  1.4906 -0.0200 -1.0700
 6910SOL     OW32362   4.448   3.033   8.192 -0.0076 -0.1493  0.6273
 6910SOL    HW132363   4.517   3.095   8.216  1.4974 -0.9224 -1.6010
 6910SOL    HW232364   4.422   3.004   8.279  2.0551 -1.7729  0.7200
 6911SOL     OW32365   3.731   3.222   7.225  0.0173 -0.1833 -0.0554
 6911SOL    HW132366   3.742   3.202   7.132  0.2532  2.4228 -0.5926
 6911SOL    HW232367   3.657   3.284   7.220 -0.0304 -0.4307 -2.3208
 6912SOL     OW32368   3.492   0.419  13.972 -0.4984  0.1027 -0.0839
 6912SOL    HW132369   3.397   0.426  13.969 -0.4545  1.2087  1.0134
 6912SOL    HW232370   3.506   0.386  13.884  0.0000 -1.0502  0.4248
 6913SOL     OW32371   0.444   1.360  11.769 -0.0689  0.1737  0.3601
 6913SOL    HW132372   0.405   1.384  11.853  0.5744  1.2916  0.3406
 6913SOL    HW232373   0.381   1.300  11.730 -1.0715  0.8030  0.9918
 6914SOL     OW32374   2.780   4.568  10.044 -0.8026 -0.3916 -0.1664
 6914SOL    HW132375   2.858   4.585  10.096 -0.9841  1.6291 -0.5476
 6914SOL    HW232376   2.723   4.537  10.114  0.1025 -2.0182 -0.1461
 6915SOL     OW32377   1.482   2.584   1.643  0.0630 -0.2535 -0.1962
 6915SOL    HW132378   1.467   2.649   1.712  0.5666 -0.5557  0.1912
 6915SOL    HW232379   1.414   2.524   1.675 -0.1445 -0.3298 -0.7869
 6916SOL     OW32380   3.948   3.952   7.026  0.1410 -0.1926 -0.1048
 6916SOL    HW132381   3.906   3.958   7.112 -1.6556  1.6038 -1.1178
 6916SOL    HW232382   4.001   4.032   7.023  1.0487 -0.7464  1.1778
 6917SOL     OW32383   0.766   3.452   7.821  0.0287  0.1129 -0.7605
 6917SOL    HW132384   0.783   3.517   7.753  1.2806  1.1369  0.5181
 6917SOL    HW232385   0.759   3.509   7.897 -1.7757  0.0377 -0.8701
 6918SOL     OW32386   1.844   0.972  16.886  0.1255  0.0172  0.4106
 6918SOL    HW132387   1.831   0.939  16.797 -2.8089  0.1280  0.7947
 6918SOL    HW232388   1.772   0.955  16.948 -0.8809  0.2923 -0.6748
 6919SOL     OW32389   3.723   2.010  12.708 -0.0504 -0.5049  0.3345
 6919SOL    HW132390   3.742   1.986  12.798 -2.0876 -0.2188  0.8533
 6919SOL    HW232391   3.633   1.977  12.709 -0.3266  0.2619  0.9010
 6920SOL     OW32392   4.057   2.141  13.295 -0.0186  0.5085  0.2835
 6920SOL    HW132393   4.130   2.180  13.343  0.1149  1.4243 -0.6727
 6920SOL    HW232394   4.092   2.155  13.207  0.4205  2.4358  0.7699
 6921SOL     OW32395   2.084   0.659   8.202  0.3095  0.0229 -0.0345
 6921SOL    HW132396   2.050   0.601   8.134  0.3107 -1.4540  1.2297
 6921SOL    HW232397   2.079   0.601   8.277  0.0250  2.1466  1.5923
 6922SOL     OW32398   2.361   2.538   2.113  0.5665  0.2759  0.0705
 6922SOL    HW132399   2.400   2.535   2.025 -1.8560  1.1887 -1.0451
 6922SOL    HW232400   2.359   2.448   2.145  0.1089  0.4050  0.3978
 6923SOL     OW32401   3.592   0.477  13.415 -0.7656 -0.1400 -0.0418
 6923SOL    HW132402   3.616   0.531  13.340 -0.2622 -1.7233 -1.0207
 6923SOL    HW232403   3.665   0.417  13.431 -0.4609  0.7828  2.0046
 6924SOL     OW32404   4.004   1.217   5.348  0.1198 -0.7629  0.4872
 6924SOL    HW132405   3.958   1.186   5.270 -1.3127  2.7294 -0.0689
 6924SOL    HW232406   4.062   1.279   5.303 -1.2308 -0.6891 -1.1803
 6925SOL     OW32407   3.521   0.120  15.717  0.3804 -0.3266 -0.1742
 6925SOL    HW132408   3.455   0.052  15.703 -0.7856  0.8534 -0.3786
 6925SOL    HW232409   3.479   0.182  15.776 -0.6570 -0.4174 -0.8089
 6926SOL     OW32410   0.304   3.049   9.957 -0.3868 -0.4994 -0.1121
 6926SOL    HW132411   0.301   3.032   9.863  2.2660 -1.3688 -0.0633
 6926SOL    HW232412   0.343   2.965   9.981  1.4395  0.4050  0.0953
 6927SOL     OW32413   1.332   1.217   8.712 -0.1436  0.0543 -0.6956
 6927SOL    HW132414   1.343   1.122   8.722 -0.1873  0.3033  1.6009
 6927SOL    HW232415   1.271   1.210   8.638 -2.0854  0.2183  0.8911
 6928SOL     OW32416   3.755   1.290   8.929 -0.1886 -0.3662  0.2151
 6928SOL    HW132417   3.700   1.350   8.979 -0.6229  1.6235 -2.6335
 6928SOL    HW232418   3.688   1.229   8.900  0.1439 -0.1606 -0.9922
 6929SOL     OW32419   0.315   3.396  15.666  0.4677  0.2979 -0.6474
 6929SOL    HW132420   0.389   3.444  15.629  1.7989  1.1554  3.0866
 6929SOL    HW232421   0.258   3.431  15.598 -1.2509 -0.4439  0.4016
 6930SOL     OW32422   2.537   3.972   5.774  0.4029 -0.5816 -0.6788
 6930SOL    HW132423   2.451   3.931   5.763  0.1441 -0.0031 -0.7832
 6930SOL    HW232424   2.516   4.034   5.704 -1.0991  1.8105  1.8738
 6931SOL     OW32425   1.646   3.618  14.536  0.2972 -0.4208  0.0831
 6931SOL    HW132426   1.580   3.686  14.546  1.7671  0.6487  2.5028
 6931SOL    HW232427   1.634   3.568  14.617 -0.6521 -0.8454 -0.3254
 6932SOL     OW32428   2.687   1.153  14.908  0.1174 -0.3177 -0.4555
 6932SOL    HW132429   2.628   1.091  14.864 -0.3640  0.1238 -0.4345
 6932SOL    HW232430   2.683   1.121  14.998 -0.0236 -0.1415 -0.3989
 6933SOL     OW32431   2.395   3.534   0.475 -0.6848 -0.1540 -0.5196
 6933SOL    HW132432   2.308   3.495   0.470 -1.7208  2.0784  0.3562
 6933SOL    HW232433   2.452   3.458   0.464  1.4363  1.1538  1.2869
 6934SOL     OW32434   2.484   3.157   3.228  0.0857 -0.1455 -0.1033
 6934SOL    HW132435   2.449   3.069   3.243 -0.1110 -0.1765 -0.7345
 6934SOL    HW232436   2.455   3.209   3.303  0.2078 -0.0141 -0.1499
 6935SOL     OW32437   0.380   3.529   7.403  0.7420  0.2807  0.6212
 6935SOL    HW132438   0.434   3.453   7.423  3.0668  1.9946  0.8096
 6935SOL    HW232439   0.450   3.594   7.408 -0.5940  1.5907  2.3618
 6936SOL     OW32440   0.846   2.873   7.536 -0.2053 -0.7072  0.1606
 6936SOL    HW132441   0.769   2.871   7.594 -1.7580  1.6866 -1.8047
 6936SOL    HW232442   0.837   2.794   7.484 -1.1079 -0.8238  0.4854
 6937SOL     OW32443   2.149   1.154  12.839 -0.3109  0.2466 -0.0804
 6937SOL    HW132444   2.117   1.097  12.909  0.7732 -2.2384 -1.6052
 6937SOL    HW232445   2.075   1.214  12.840 -2.2786 -2.1953  0.2191
 6938SOL     OW32446   4.295   2.513   7.971 -0.0187  0.1707  0.3299
 6938SOL    HW132447   4.282   2.545   8.060 -4.2524  2.3868 -1.0919
 6938SOL    HW232448   4.372   2.565   7.948  0.2327 -0.5739 -0.5352
 6939SOL     OW32449   1.057   4.546   8.001  0.1720 -0.0270  0.1306
 6939SOL    HW132450   1.074   4.469   8.055  1.4571 -0.1659 -0.4920
 6939SOL    HW232451   1.110   4.523   7.926 -0.1944  0.3711 -0.2534
 6940SOL     OW32452   3.458   3.868   8.759  0.2326  0.7031 -0.2513
 6940SOL    HW132453   3.471   3.808   8.832  1.2861  0.2053 -0.8555
 6940SOL    HW232454   3.439   3.800   8.695  2.3524 -0.2774  0.1853
 6941SOL     OW32455   2.521   0.231   5.678  0.5044  0.3374 -0.0482
 6941SOL    HW132456   2.593   0.170   5.697 -0.0197  0.2506  1.6680
 6941SOL    HW232457   2.493   0.201   5.592 -2.7109  0.6563  0.9119
 6942SOL     OW32458   1.918   3.515   4.643 -0.0940 -0.2852 -0.3516
 6942SOL    HW132459   1.911   3.437   4.698  0.5834 -1.0110 -1.2948
 6942SOL    HW232460   1.834   3.516   4.599  0.1247  0.7305 -0.7412
 6943SOL     OW32461   3.242   3.755   3.718 -0.3758  0.1516  0.0031
 6943SOL    HW132462   3.297   3.677   3.713  0.5402  0.8062 -0.1946
 6943SOL    HW232463   3.202   3.749   3.805  1.6661 -2.6028  0.7379
 6944SOL     OW32464   2.706   0.703  10.547  0.6265 -0.0180 -0.2106
 6944SOL    HW132465   2.644   0.682  10.617  0.8697  0.9423  0.3011
 6944SOL    HW232466   2.738   0.615  10.533  0.2522 -0.2942  0.6456
 6945SOL     OW32467   1.793   1.586   9.676 -0.4444 -0.2317 -0.3177
 6945SOL    HW132468   1.764   1.570   9.586 -1.5493 -1.9633  0.3433
 6945SOL    HW232469   1.797   1.494   9.702 -2.9866  0.1698  1.4797
 6946SOL     OW32470   3.812   3.662  14.958  0.0047  0.6950 -0.0188
 6946SOL    HW132471   3.880   3.678  14.892 -1.0659 -0.0498 -1.2876
 6946SOL    HW232472   3.767   3.585  14.924 -0.1734  0.3181  1.0860
 6947SOL     OW32473   1.514   3.985   7.324 -0.2542  0.6113  0.3125
 6947SOL    HW132474   1.557   4.011   7.406 -2.0312 -1.4798  1.8964
 6947SOL    HW232475   1.430   4.030   7.328  0.4446  1.9377  0.2600
 6948SOL     OW32476   1.452   3.748   8.529  0.2564  0.3156  0.2832
 6948SOL    HW132477   1.394   3.679   8.496 -0.0232  1.7237 -2.2342
 6948SOL    HW232478   1.439   3.737   8.623  1.8837  0.9135  0.5822
 6949SOL     OW32479   3.668   4.144   8.423  0.0715  0.0402  0.1913
 6949SOL    HW132480   3.588   4.111   8.382  0.3521 -0.1067 -0.2397
 6949SOL    HW232481   3.653   4.238   8.413 -1.9579 -0.3183 -0.0310
 6950SOL     OW32482   0.725   1.568   2.885 -0.1589  0.2474  0.0552
 6950SOL    HW132483   0.693   1.525   2.806  2.2459 -1.0420 -0.2230
 6950SOL    HW232484   0.668   1.644   2.886 -1.3908 -0.6825 -0.8958
 6951SOL     OW32485   2.275   1.484   3.455 -0.2020  0.1415 -0.2871
 6951SOL    HW132486   2.288   1.468   3.361 -0.1670 -2.9323  0.2216
 6951SOL    HW232487   2.225   1.409   3.487  2.5740 -2.4553 -1.9173
 6952SOL     OW32488   0.162   3.073   6.572 -0.1770 -0.2519  0.2499
 6952SOL    HW132489   0.104   3.010   6.529 -2.0016  1.2413  0.4902
 6952SOL    HW232490   0.187   3.132   6.501  1.6609  0.1391  1.2244
 6953SOL     OW32491   2.471   0.818   3.845  0.2274  0.5536  0.3780
 6953SOL    HW132492   2.421   0.811   3.763  1.6778 -2.8956 -0.2241
 6953SOL    HW232493   2.538   0.878   3.813 -0.2952 -0.4394 -2.6599
 6954SOL     OW32494   4.298   1.355   1.823 -0.4363  0.3338  0.3219
 6954SOL    HW132495   4.304   1.414   1.748 -0.8045 -0.4279 -0.3089
 6954SOL    HW232496   4.229   1.289   1.814  1.9603 -2.3130  1.1810
 6955SOL     OW32497   4.570   0.798   2.169 -0.0672  0.6413  0.0994
 6955SOL    HW132498   4.568   0.892   2.151 -0.6597  0.7292  0.6030
 6955SOL    HW232499   4.637   0.803   2.238 -1.4797 -0.0224  1.5025
 6956SOL     OW32500   0.309   0.739   5.457  0.2146 -0.1665  0.7185
 6956SOL    HW132501   0.239   0.799   5.428  1.6019  1.2180  0.2480
 6956SOL    HW232502   0.283   0.656   5.418 -0.2396  1.6417 -2.8371
 6957SOL     OW32503   0.959   3.551  13.014  0.2194 -0.0404 -1.2986
 6957SOL    HW132504   0.961   3.521  12.924 -3.3712 -3.0754 -0.3670
 6957SOL    HW232505   0.899   3.625  13.008 -1.4395 -1.1600  1.6514
 6958SOL     OW32506   0.645   2.566   4.263  0.2487 -0.1276 -0.4489
 6958SOL    HW132507   0.646   2.588   4.170 -0.3826  1.0163 -0.1872
 6958SOL    HW232508   0.593   2.487   4.252 -0.2030 -0.1812  1.9612
 6959SOL     OW32509   2.509   2.450   6.609  0.2424  0.1855 -0.6190
 6959SOL    HW132510   2.540   2.475   6.696  0.9111 -1.5436 -0.3616
 6959SOL    HW232511   2.449   2.522   6.591 -1.0784 -0.3543  1.4731
 6960SOL     OW32512   4.542   0.688   2.991  0.1687 -0.1278  0.3201
 6960SOL    HW132513   4.560   0.617   2.929 -1.5969 -1.2821  1.1426
 6960SOL    HW232514   4.632   0.721   2.994 -0.2125  0.7575  1.6315
 6961SOL     OW32515   3.428   1.142   1.087  0.4318  0.3109  0.4344
 6961SOL    HW132516   3.507   1.128   1.036  0.0899  1.0060 -0.2932
 6961SOL    HW232517   3.358   1.121   1.025  2.3051  0.8943 -1.8478
 6962SOL     OW32518   4.135   4.436  12.649  0.0480  0.2921 -0.2242
 6962SOL    HW132519   4.072   4.365  12.637 -1.0978  1.1582  0.8509
 6962SOL    HW232520   4.166   4.453  12.560  0.8981 -0.7208 -0.1299
 6963SOL     OW32521   4.430   1.716   1.175 -0.2169  0.5776 -0.3624
 6963SOL    HW132522   4.387   1.748   1.096 -1.1249 -0.0854 -0.1315
 6963SOL    HW232523   4.517   1.756   1.181 -0.5068  1.7167 -3.9851
 6964SOL     OW32524   3.530   1.255   8.211  0.5004 -0.5577  0.8127
 6964SOL    HW132525   3.453   1.235   8.263  0.2605  1.0816  1.0841
 6964SOL    HW232526   3.587   1.180   8.228 -0.5032 -1.7948 -1.1878
 6965SOL     OW32527   1.471   1.113   4.408  0.6404 -0.1135  0.3977
 6965SOL    HW132528   1.466   1.045   4.341 -0.8345 -0.9276  1.3342
 6965SOL    HW232529   1.444   1.072   4.490 -0.7620  3.5170  1.7466
 6966SOL     OW32530   1.164   3.014   1.738 -0.0196  0.1954  0.0321
 6966SOL    HW132531   1.140   2.933   1.693  1.5556 -0.9986  1.3585
 6966SOL    HW232532   1.257   3.014   1.762 -0.3763 -0.9444  1.4456
 6967SOL     OW32533   0.044   3.253   9.456 -0.4190 -0.3363  0.3631
 6967SOL    HW132534   0.031   3.209   9.540 -0.9596  1.6907  1.3378
 6967SOL    HW232535   0.109   3.319   9.482  0.6115 -1.2183 -0.0057
 6968SOL     OW32536   1.187   2.654   6.205  0.4292  0.3930  0.3648
 6968SOL    HW132537   1.096   2.638   6.231  0.0890  2.6187  0.5726
 6968SOL    HW232538   1.237   2.644   6.286  0.4816 -0.1072  0.2730
 6969SOL     OW32539   4.350   2.843   5.370 -0.2165 -0.1305  0.3813
 6969SOL    HW132540   4.371   2.807   5.457  0.3172  0.8530  0.6553
 6969SOL    HW232541   4.397   2.926   5.376  0.7805 -0.8599  2.6317
 6970SOL     OW32542   0.830   0.000  12.795 -0.0093 -0.0752 -0.3986
 6970SOL    HW132543   0.883   0.048  12.858  1.5251 -1.0138 -0.9923
 6970SOL    HW232544   0.893   4.685  12.745  1.1070  1.5279 -0.6190
 6971SOL     OW32545   0.096   0.018   3.231  0.2825  0.3317 -0.2366
 6971SOL    HW132546   0.120   0.109   3.213 -1.4254  0.6767 -0.8293
 6971SOL    HW232547   0.110   4.705   3.150 -2.7284 -2.4860  0.9206
 6972SOL     OW32548   1.632   2.555   8.681 -0.8754 -0.3553  0.1272
 6972SOL    HW132549   1.711   2.509   8.706 -0.9443 -2.0164 -2.6840
 6972SOL    HW232550   1.606   2.495   8.611 -1.1521  1.8069 -1.6251
 6973SOL     OW32551   3.280   2.344   8.447  0.2863 -0.3494 -0.2835
 6973SOL    HW132552   3.203   2.343   8.390 -1.0810  2.5506  1.4832
 6973SOL    HW232553   3.248   2.392   8.524  1.2327 -0.6565  0.2958
 6974SOL     OW32554   4.398   2.916   8.436 -0.1277 -0.5198 -0.3817
 6974SOL    HW132555   4.357   2.865   8.505 -1.1299  1.8209  0.7109
 6974SOL    HW232556   4.479   2.939   8.481 -1.5152 -0.2753  1.9713
 6975SOL     OW32557   3.763   4.392   1.363 -0.1914  0.1372 -0.2118
 6975SOL    HW132558   3.735   4.420   1.450 -2.1996  1.5995 -1.3148
 6975SOL    HW232559   3.855   4.414   1.370 -0.1129 -0.2293 -0.0738
 6976SOL     OW32560   0.968   3.157   1.266 -0.5849  0.1101  0.1497
 6976SOL    HW132561   1.034   3.226   1.260 -0.7749  0.3778  1.1404
 6976SOL    HW232562   0.910   3.188   1.335  1.1163  2.0562  0.7066
 6977SOL     OW32563   1.535   1.572   4.405  0.4323 -0.2454 -0.1123
 6977SOL    HW132564   1.594   1.582   4.480 -0.7336 -1.9933  1.0553
 6977SOL    HW232565   1.466   1.508   4.423 -1.5455  1.8168 -0.3477
 6978SOL     OW32566   0.404   2.614   1.862 -0.3346 -0.4897 -0.2269
 6978SOL    HW132567   0.347   2.590   1.789  0.9095  1.6290 -1.8732
 6978SOL    HW232568   0.339   2.598   1.930 -2.1937  3.2388 -1.1697
 6979SOL     OW32569   3.907   0.482  15.877 -0.0169  0.4033  0.1415
 6979SOL    HW132570   3.883   0.403  15.828 -0.7943  0.6284  0.1669
 6979SOL    HW232571   3.820   0.521  15.874  0.8829  2.5390  1.7133
 6980SOL     OW32572   1.674   1.159   5.490 -0.4691  0.3947  0.1359
 6980SOL    HW132573   1.738   1.226   5.516 -1.2310  1.7060 -1.3168
 6980SOL    HW232574   1.600   1.194   5.540  0.1347  0.4330  0.9937
 6981SOL     OW32575   4.309   1.131  12.194 -0.2802 -0.9553 -0.2682
 6981SOL    HW132576   4.383   1.086  12.235  0.1369 -1.0394 -1.1225
 6981SOL    HW232577   4.360   1.178  12.128 -0.7138 -2.3245 -1.5529
 6982SOL     OW32578   4.482   2.913   4.555  0.1980  0.4038  0.0930
 6982SOL    HW132579   4.398   2.919   4.601  2.0823  2.8416  3.2639
 6982SOL    HW232580   4.527   2.996   4.572  0.7152 -0.0704  1.0377
 6983SOL     OW32581   2.031   1.564   3.907 -0.2808 -0.3018 -0.2658
 6983SOL    HW132582   2.095   1.524   3.965 -0.2443 -2.1716 -1.5914
 6983SOL    HW232583   1.946   1.560   3.951 -0.4926 -0.7324 -0.7186
 6984SOL     OW32584   2.050   3.997  10.218  0.4705 -0.2087  0.0161
 6984SOL    HW132585   2.066   4.044  10.136 -1.1997 -0.0337 -0.2092
 6984SOL    HW232586   2.136   4.001  10.261  0.9621  1.9355 -1.1712
 6985SOL     OW32587   4.590   1.398   8.896 -0.0450 -0.3686  0.9444
 6985SOL    HW132588   4.681   1.425   8.881 -0.3531  0.0083 -0.2536
 6985SOL    HW232589   4.535   1.464   8.855  0.5932 -0.2685  0.2549
 6986SOL     OW32590   0.892   1.052   4.247 -0.2998  0.0063 -0.7573
 6986SOL    HW132591   0.981   1.085   4.238 -0.3110  1.3298  3.6920
 6986SOL    HW232592   0.903   0.990   4.319  0.7048  0.2679 -0.6908
 6987SOL     OW32593   2.309   1.698   3.834  0.2040 -0.1987  0.2722
 6987SOL    HW132594   2.293   1.604   3.847 -3.0683  0.2781 -0.3876
 6987SOL    HW232595   2.353   1.718   3.917 -0.3001  0.5922  0.3434
 6988SOL     OW32596   0.495   4.274  15.839 -0.3829  0.1426 -0.6757
 6988SOL    HW132597   0.404   4.299  15.852 -0.7733 -0.3047 -2.5140
 6988SOL    HW232598   0.515   4.269  15.746 -0.4077 -0.3996 -0.6532
 6989SOL     OW32599   1.567   3.325  10.995  0.2885  0.2500  0.1430
 6989SOL    HW132600   1.574   3.283  10.909 -0.4599  2.8130 -1.1947
 6989SOL    HW232601   1.565   3.416  10.963  2.7390 -0.2361 -1.4048
 6990SOL     OW32602   4.011   2.489   2.010  0.3157  0.1116 -0.6691
 6990SOL    HW132603   4.057   2.573   2.021 -0.2717  0.3348  0.1016
 6990SOL    HW232604   4.083   2.428   2.027 -0.1418 -0.5138 -0.9780
 6991SOL     OW32605   0.884   2.009   4.992 -0.0942 -0.5433  0.4460
 6991SOL    HW132606   0.920   2.085   4.947 -3.0739 -0.5128 -1.8887
 6991SOL    HW232607   0.831   2.043   5.064  1.5643  1.1754  0.8605
 6992SOL     OW32608   4.612   3.961  16.650 -0.0489  0.2065  0.2917
 6992SOL    HW132609   4.601   3.877  16.696  3.8313  1.4843  3.4871
 6992SOL    HW232610   4.705   3.958  16.628 -0.4183 -0.2683 -1.1812
 6993SOL     OW32611   4.325   0.912  12.341 -0.0884 -0.3621 -0.3704
 6993SOL    HW132612   4.298   1.003  12.325 -0.1575 -0.4234 -0.6100
 6993SOL    HW232613   4.402   0.923  12.396 -1.0805  1.2185  0.7082
 6994SOL     OW32614   4.082   0.969   8.652 -0.1919 -0.3950  0.1319
 6994SOL    HW132615   4.068   1.064   8.650 -0.6142 -0.3659  3.4882
 6994SOL    HW232616   4.150   0.964   8.720 -0.9252 -2.7517  0.7022
 6995SOL     OW32617   1.659   1.284   0.472 -0.1876  0.2273  0.1794
 6995SOL    HW132618   1.709   1.308   0.550 -0.1019 -0.7839  0.4415
 6995SOL    HW232619   1.710   1.213   0.433  0.0939  1.4101 -1.5802
 6996SOL     OW32620   0.862   1.278   5.795  0.3305  0.2205  0.5321
 6996SOL    HW132621   0.866   1.234   5.880 -0.8022  0.2530  0.6045
 6996SOL    HW232622   0.913   1.215   5.743  0.0234 -0.0488  0.5561
 6997SOL     OW32623   4.114   2.397   6.538  0.2531  0.0924  0.3007
 6997SOL    HW132624   4.085   2.335   6.470  0.2301  0.8043 -0.3418
 6997SOL    HW232625   4.192   2.345   6.557  0.3552 -0.3956 -1.4568
 6998SOL     OW32626   0.078   4.253  16.971  0.4571 -0.6206 -0.1012
 6998SOL    HW132627   0.065   4.340  16.932 -1.3724  0.9134  4.0092
 6998SOL    HW232628   0.014   4.247  17.041 -1.5373  0.2622 -1.8365
 6999SOL     OW32629   1.515   4.575   7.495 -0.2853  0.5758 -0.3420
 6999SOL    HW132630   1.495   4.482   7.491  0.9491  0.1832  2.3310
 6999SOL    HW232631   1.592   4.567   7.438 -0.4284  0.1802 -0.4745
 7000SOL     OW32632   4.512   0.184  13.194 -0.3127 -0.3565  0.1324
 7000SOL    HW132633   4.542   0.096  13.215 -1.3780 -0.9611 -0.8797
 7000SOL    HW232634   4.471   0.205  13.277  1.2090  1.6915  0.3714
 7001SOL     OW32635   0.085   3.482   4.287  0.1576  0.0718  0.0563
 7001SOL    HW132636   0.028   3.406   4.296 -1.1408  1.0816  0.3382
 7001SOL    HW232637   0.105   3.478   4.194 -1.1193  0.2721 -0.2259
 7002SOL     OW32638   1.366   1.673   2.354 -0.2472  0.2278  0.0805
 7002SOL    HW132639   1.437   1.660   2.417  1.8477 -1.4865 -2.6032
 7002SOL    HW232640   1.291   1.644   2.406 -0.3669 -0.5018 -0.4879
 7003SOL     OW32641   0.430   3.315   8.080  0.2789 -0.9311 -0.1004
 7003SOL    HW132642   0.479   3.320   8.162 -0.2307  1.0917  0.0740
 7003SOL    HW232643   0.402   3.406   8.091  0.5036 -1.0811  1.6198
 7004SOL     OW32644   0.999   2.966   2.807 -0.0678  0.4644 -0.2905
 7004SOL    HW132645   0.921   2.983   2.754 -0.1968  2.3049  0.4855
 7004SOL    HW232646   1.026   2.882   2.771 -2.1465 -0.1680 -0.3336
 7005SOL     OW32647   2.795   0.166  10.178  0.5079  0.8494 -0.3112
 7005SOL    HW132648   2.816   0.216  10.257 -0.3378 -0.1766  0.5551
 7005SOL    HW232649   2.811   0.075  10.202  2.0901  1.4335  0.8797
 7006SOL     OW32650   4.295   1.962   7.478 -0.1551  0.1020 -0.3954
 7006SOL    HW132651   4.344   1.941   7.557 -0.0027 -2.5574 -1.2040
 7006SOL    HW232652   4.359   1.941   7.410 -0.2303 -0.6326 -0.2421
 7007SOL     OW32653   0.862   2.330   3.006  0.6597 -0.1696 -0.5977
 7007SOL    HW132654   0.879   2.342   2.913  2.0594  0.5230 -0.2548
 7007SOL    HW232655   0.928   2.264   3.029 -0.5965 -0.9522  0.7430
 7008SOL     OW32656   0.326   0.771   7.961 -0.2136  0.1490  0.3321
 7008SOL    HW132657   0.313   0.677   7.971 -1.2494 -0.0715 -2.9244
 7008SOL    HW232658   0.246   0.791   7.912  0.0026 -0.0253 -0.0996
 7009SOL     OW32659   4.127   2.390  14.372 -0.3933 -0.4311 -0.2528
 7009SOL    HW132660   4.115   2.327  14.301  2.5971 -1.6088  0.2821
 7009SOL    HW232661   4.210   2.364  14.410  0.8757  0.4954 -2.4036
 7010SOL     OW32662   2.314   3.695   7.271 -0.6085  0.1962 -0.2885
 7010SOL    HW132663   2.304   3.774   7.218 -2.3790 -0.1793 -0.5024
 7010SOL    HW232664   2.221   3.675   7.275 -1.0791  2.5547  0.5491
 7011SOL     OW32665   1.753   0.353   1.586  0.5752 -0.1551 -0.5326
 7011SOL    HW132666   1.684   0.293   1.614  1.2865 -0.3759  0.7517
 7011SOL    HW232667   1.703   0.434   1.570 -0.8707 -0.7738  0.8150
 7012SOL     OW32668   2.663   3.214   7.473  0.3240  0.4276  0.4955
 7012SOL    HW132669   2.579   3.174   7.451  0.8530 -1.2806  1.6066
 7012SOL    HW232670   2.674   3.273   7.398 -2.0020  1.2602  0.7974
 7013SOL     OW32671   0.108   2.403   6.939  0.8598  0.2411 -0.2955
 7013SOL    HW132672   0.058   2.447   7.007 -0.8243 -2.1748  0.0494
 7013SOL    HW232673   0.179   2.467   6.937  0.0116  1.1465 -2.4884
 7014SOL     OW32674   3.683   1.793   2.360  0.5373  0.7191  0.0161
 7014SOL    HW132675   3.754   1.762   2.417  0.4793  1.0637  0.2757
 7014SOL    HW232676   3.683   1.888   2.375 -0.1219  1.0752 -2.2629
 7015SOL     OW32677   1.806   4.553   4.173  0.0543 -0.4547  0.4124
 7015SOL    HW132678   1.897   4.558   4.203  0.3438  0.9741 -0.7057
 7015SOL    HW232679   1.795   4.460   4.154 -2.4385  0.1187 -0.9882
 7016SOL     OW32680   2.367   3.480  13.214  0.2725  0.6901 -0.0799
 7016SOL    HW132681   2.452   3.448  13.183  0.4831 -0.1305  1.3632
 7016SOL    HW232682   2.396   3.571  13.207  1.7422  0.3324  1.2567
 7017SOL     OW32683   0.871   0.611  17.599 -0.5143  0.4252 -0.6126
 7017SOL    HW132684   0.779   0.581  17.599 -0.0212 -1.1720  3.7014
 7017SOL    HW232685   0.882   0.620  17.694 -0.1770 -1.0788 -0.5081
 7018SOL     OW32686   1.913   3.926   1.721 -0.2504 -0.1973  0.7327
 7018SOL    HW132687   1.945   4.003   1.673 -1.9155 -0.1769 -0.3476
 7018SOL    HW232688   1.873   3.970   1.796 -0.4964  0.4861  0.2110
 7019SOL     OW32689   4.588   1.291   7.304 -0.3198  0.3025 -0.3599
 7019SOL    HW132690   4.622   1.206   7.274 -0.1398 -0.2912  1.5398
 7019SOL    HW232691   4.657   1.347   7.269 -0.9100 -0.4001 -2.6696
 7020SOL     OW32692   3.725   3.647   8.719  0.3834  0.1770 -0.2542
 7020SOL    HW132693   3.711   3.606   8.804  0.4822 -0.5406 -0.5793
 7020SOL    HW232694   3.767   3.730   8.741  1.5330 -0.5447  0.2840
 7021SOL     OW32695   3.531   3.867   7.038 -0.1560 -0.2116 -0.0573
 7021SOL    HW132696   3.567   3.954   7.019 -1.3363  0.2126 -0.3217
 7021SOL    HW232697   3.489   3.845   6.955  0.4878 -0.6531 -0.2776
 7022SOL     OW32698   4.147   3.641   4.442  0.0360  0.1436  0.3198
 7022SOL    HW132699   4.093   3.657   4.519 -0.7655 -1.7166  0.1489
 7022SOL    HW232700   4.211   3.710   4.460  1.3966 -0.8087 -0.8528
 7023SOL     OW32701   0.585   0.987  12.946 -0.8109 -0.2346 -0.4368
 7023SOL    HW132702   0.583   1.059  13.009  0.1017 -0.4488 -0.1663
 7023SOL    HW232703   0.523   0.923  12.981 -0.6376  0.3797  0.9668
 7024SOL     OW32704   3.248   0.942   2.283 -0.3462  0.4742  0.1330
 7024SOL    HW132705   3.219   0.852   2.269  0.2187  0.2960  0.1283
 7024SOL    HW232706   3.211   0.980   2.203  1.0534  0.2654 -0.5993
 7025SOL     OW32707   2.865   3.041   7.382  0.0257  0.2408  0.1964
 7025SOL    HW132708   2.816   3.097   7.442  1.1154  0.6897  0.6738
 7025SOL    HW232709   2.902   2.974   7.439 -0.4299 -0.4650 -0.3322
 7026SOL     OW32710   0.983   1.843   5.513 -0.4212 -0.0835  0.1074
 7026SOL    HW132711   1.042   1.777   5.549  0.6950  0.7542 -0.1812
 7026SOL    HW232712   0.950   1.797   5.436 -1.7565 -2.0740  1.8585
 7027SOL     OW32713   4.648   1.043   7.539  0.0428 -0.1679 -0.1079
 7027SOL    HW132714   4.700   1.114   7.500 -1.7501  1.4496  0.4910
 7027SOL    HW232715   4.571   1.051   7.483  1.2957 -0.8278 -1.9388
 7028SOL     OW32716   3.026   0.156  12.525 -0.4846  0.2490 -0.9421
 7028SOL    HW132717   3.113   0.195  12.533 -1.2235  1.3864  1.5607
 7028SOL    HW232718   3.049   0.086  12.464  0.8383 -2.1240  2.3153
 7029SOL     OW32719   4.525   3.490  10.054  0.1934  0.0474  0.1983
 7029SOL    HW132720   4.448   3.516  10.104  0.5796  1.4688  0.0523
 7029SOL    HW232721   4.507   3.553   9.984  0.7181 -1.1167 -0.9900
 7030SOL     OW32722   0.078   0.645   2.613 -0.1667 -0.4778 -0.4742
 7030SOL    HW132723   0.158   0.624   2.660 -0.1310  1.0689  0.1669
 7030SOL    HW232724   0.072   0.567   2.559 -0.4264 -1.6355  1.2274
 7031SOL     OW32725   0.022   2.380   0.518  0.1739 -0.2283  0.3144
 7031SOL    HW132726   4.698   2.314   0.549  0.4351 -1.0520 -0.9408
 7031SOL    HW232727   0.082   2.395   0.591 -0.4327  3.0894  0.1499
 7032SOL     OW32728   2.149   2.658   4.365 -0.2569  0.0208 -0.7095
 7032SOL    HW132729   2.152   2.619   4.277 -0.8380  0.9831 -1.1661
 7032SOL    HW232730   2.067   2.628   4.406  0.2287 -2.2966 -1.3987
 7033SOL     OW32731   1.208   2.087   1.808 -0.5150 -1.0331 -0.1201
 7033SOL    HW132732   1.185   2.002   1.845  0.0047 -0.6993  0.9692
 7033SOL    HW232733   1.121   2.125   1.805  0.4451  1.2753  1.1224
 7034SOL     OW32734   4.067   3.380   4.762  0.0382 -0.0906  0.0263
 7034SOL    HW132735   3.995   3.433   4.795 -0.6077 -0.6127 -0.5325
 7034SOL    HW232736   4.138   3.393   4.825 -0.3818 -1.6789  0.8175
 7035SOL     OW32737   2.070   2.598   2.096 -0.2533 -0.1713 -0.2614
 7035SOL    HW132738   2.163   2.617   2.083 -0.3067  1.9102  2.2895
 7035SOL    HW232739   2.047   2.536   2.028 -0.4980 -1.9071  1.4093
 7036SOL     OW32740   4.236   0.893   9.261 -0.1138  0.1162 -0.1137
 7036SOL    HW132741   4.244   0.959   9.192 -0.6044 -1.7120 -1.9139
 7036SOL    HW232742   4.165   0.930   9.314 -0.7101  1.9771 -2.1880
 7037SOL     OW32743   0.701   4.586   7.615 -0.3093  0.0585  0.1008
 7037SOL    HW132744   0.719   4.679   7.607 -0.5587  0.2232  1.3330
 7037SOL    HW232745   0.609   4.588   7.589 -0.4342 -1.3363  0.4430
 7038SOL     OW32746   2.249   0.835   4.375 -0.3468 -0.5156  0.7120
 7038SOL    HW132747   2.316   0.782   4.420 -0.7509 -0.9721  0.7758
 7038SOL    HW232748   2.172   0.822   4.430  0.0968 -3.2265  0.7181
 7039SOL     OW32749   0.885   4.145   4.140 -0.1374 -0.3073 -0.1393
 7039SOL    HW132750   0.827   4.129   4.214  0.8886 -3.2807  0.0169
 7039SOL    HW232751   0.830   4.161   4.063  0.5734 -0.5106 -0.6905
 7040SOL     OW32752   4.341   4.658   4.402 -0.4495  0.4041 -0.7144
 7040SOL    HW132753   4.349   0.003   4.451  1.5285 -0.3302  0.1873
 7040SOL    HW232754   4.261   4.685   4.358 -0.2513  0.1807 -1.2145
 7041SOL     OW32755   3.215   2.675  11.953  0.2160 -0.2354 -0.0732
 7041SOL    HW132756   3.252   2.629  11.877  0.1288 -0.1604 -0.1607
 7041SOL    HW232757   3.217   2.764  11.918 -1.8624  0.3361  1.2891
 7042SOL     OW32758   1.519   3.672   3.753  0.4867 -0.8362  0.1581
 7042SOL    HW132759   1.561   3.589   3.774  0.9300 -0.6502  0.0081
 7042SOL    HW232760   1.594   3.726   3.778 -1.7396  2.5594 -0.5049
 7043SOL     OW32761   1.059   0.026   4.047  0.3464  0.1048  0.2360
 7043SOL    HW132762   1.001   4.700   4.004  0.6943 -0.5872  0.7783
 7043SOL    HW232763   1.026   0.111   4.016 -1.1620 -0.3081  0.7070
 7044SOL     OW32764   1.621   4.072   8.072 -0.1593  0.4249  0.0134
 7044SOL    HW132765   1.621   4.009   8.144  1.9415  1.8484  1.2305
 7044SOL    HW232766   1.682   4.140   8.100 -0.9925  1.5936 -0.9767
 7045SOL     OW32767   3.222   4.333   4.005  0.1690  0.0568  0.6284
 7045SOL    HW132768   3.307   4.315   4.043  0.9708 -0.5398 -1.4107
 7045SOL    HW232769   3.213   4.428   4.000  0.9999  0.1248  0.4814
 7046SOL     OW32770   0.493   1.484  12.356  0.6073  0.0226  0.3476
 7046SOL    HW132771   0.585   1.463  12.340  0.2833 -0.4605 -0.8750
 7046SOL    HW232772   0.486   1.442  12.442  0.5053  2.1714  1.3734
 7047SOL     OW32773   0.041   1.725   5.527 -0.0604 -0.7615  0.0370
 7047SOL    HW132774   0.054   1.693   5.616 -3.1576 -1.2678  0.3074
 7047SOL    HW232775   0.096   1.676   5.465 -0.5235  0.1998 -1.1447
 7048SOL     OW32776   2.712   0.224   5.301  0.2069  0.4894 -0.0103
 7048SOL    HW132777   2.643   0.160   5.319 -0.2945  0.5239 -1.8186
 7048SOL    HW232778   2.785   0.188   5.350 -0.6274  0.1415  0.9826
 7049SOL     OW32779   0.543   1.351  10.295 -0.0373 -0.1806 -0.2000
 7049SOL    HW132780   0.624   1.398  10.313 -0.9370  1.2877  0.0426
 7049SOL    HW232781   0.502   1.346  10.382 -1.3813 -2.6598 -0.9665
 7050SOL     OW32782   0.080   2.534  11.884 -0.1383  0.3337  0.3824
 7050SOL    HW132783   0.148   2.483  11.841 -0.4549 -0.0714  0.3647
 7050SOL    HW232784   0.078   2.495  11.971 -1.2696 -0.5609 -0.0385
 7051SOL     OW32785   4.615   2.761   9.123 -0.4696 -0.4738  0.4272
 7051SOL    HW132786   4.652   2.805   9.046  1.0626  1.1947  2.1147
 7051SOL    HW232787   4.521   2.755   9.106 -0.2764  0.2752 -0.9604
 7052SOL     OW32788   3.616   3.510   1.503 -0.6618  0.3491 -0.0725
 7052SOL    HW132789   3.669   3.586   1.524  1.4344 -1.5606  1.4663
 7052SOL    HW232790   3.542   3.550   1.457  0.3037 -0.4749 -2.3333
 7053SOL     OW32791   1.793   1.757   5.442 -0.3379 -0.3248 -0.5289
 7053SOL    HW132792   1.761   1.768   5.531 -1.3959 -1.0990 -0.8142
 7053SOL    HW232793   1.780   1.849   5.420 -1.9274 -0.4968 -0.3134
 7054SOL     OW32794   2.952   3.702   4.991  0.2164  0.3468 -0.0911
 7054SOL    HW132795   3.033   3.676   4.947 -0.5759 -1.6076 -0.3743
 7054SOL    HW232796   2.911   3.738   4.912 -1.1410  0.6153  0.7371
 7055SOL     OW32797   4.542   3.985   1.954  0.0768 -0.8341 -0.6682
 7055SOL    HW132798   4.540   4.078   1.932 -1.2551 -0.5545  0.6725
 7055SOL    HW232799   4.617   3.961   2.009  0.4131  1.5925 -0.0725
 7056SOL     OW32800   0.463   3.409   7.832  0.2477  0.0038  0.1295
 7056SOL    HW132801   0.556   3.423   7.815  0.8045 -1.3814  2.0919
 7056SOL    HW232802   0.468   3.374   7.921  1.0570 -0.9650 -0.3046
 7057SOL     OW32803   0.096   0.817   7.569 -0.9147  0.4908 -0.3514
 7057SOL    HW132804   0.030   0.875   7.531 -1.1201 -0.4441 -1.4195
 7057SOL    HW232805   0.087   0.840   7.662 -0.6600  2.1714 -0.7382
 7058SOL     OW32806   0.754   0.688  10.441 -0.3547  0.0237 -0.6064
 7058SOL    HW132807   0.780   0.696  10.532  1.8140  1.9341 -1.3976
 7058SOL    HW232808   0.748   0.595  10.418  0.5730 -0.4743  1.1429
 7059SOL     OW32809   0.509   3.235   5.112  0.0377  0.3936  0.5166
 7059SOL    HW132810   0.523   3.170   5.043 -2.8390  0.0797  0.2200
 7059SOL    HW232811   0.567   3.303   5.079 -1.9152  0.2604 -3.1854
 7060SOL     OW32812   0.400   4.522   5.276  0.2244  0.0296 -0.0473
 7060SOL    HW132813   0.354   4.456   5.224 -1.4859  0.7012  0.6048
 7060SOL    HW232814   0.325   4.561   5.321  0.0662  3.0913 -2.9358
 7061SOL     OW32815   4.647   4.617   3.383 -0.3567  0.6862 -0.1550
 7061SOL    HW132816   4.568   4.667   3.362  0.1548  1.8628  0.7064
 7061SOL    HW232817   4.715   4.658   3.330  0.7738 -0.2224  0.6041
 7062SOL     OW32818   4.011   0.458   4.746  0.5013 -0.5881 -0.1089
 7062SOL    HW132819   4.074   0.460   4.675 -0.9867 -0.0160 -1.4190
 7062SOL    HW232820   3.929   0.479   4.702 -0.0144 -1.1910  0.5474
 7063SOL     OW32821   0.206   2.282  10.446  0.3164  1.0146 -0.1785
 7063SOL    HW132822   0.237   2.215  10.507 -2.2794 -0.8223 -0.8377
 7063SOL    HW232823   0.279   2.343  10.450 -1.3826  3.0383  0.3025
 7064SOL     OW32824   1.241   2.859   6.048  0.4201  0.2673  0.4186
 7064SOL    HW132825   1.331   2.882   6.070  1.0416 -0.3087 -1.6054
 7064SOL    HW232826   1.226   2.775   6.091  2.9455 -0.6839 -0.5937
 7065SOL     OW32827   0.385   1.888   3.741  0.1254 -0.0640  0.4385
 7065SOL    HW132828   0.435   1.964   3.709 -0.2838  0.1319  0.2607
 7065SOL    HW232829   0.301   1.913   3.702  0.4907  1.1535  0.3979
 7066SOL     OW32830   4.722   3.016   2.261 -0.7393  0.1415 -0.8400
 7066SOL    HW132831   4.693   2.931   2.230  1.5728 -0.5428 -1.1488
 7066SOL    HW232832   4.687   3.080   2.199 -2.4704 -0.9248 -0.9627
 7067SOL     OW32833   2.722   0.837   8.253 -1.1947  0.4777  0.2991
 7067SOL    HW132834   2.669   0.810   8.178  1.0337 -1.3289 -0.6193
 7067SOL    HW232835   2.668   0.904   8.296 -1.3101  1.5941 -1.5910
 7068SOL     OW32836   1.811   1.901   6.394  0.2305 -0.0446 -0.1766
 7068SOL    HW132837   1.721   1.880   6.416  0.2036 -0.3676 -0.5893
 7068SOL    HW232838   1.850   1.901   6.481 -1.5874  2.2795  0.6374
 7069SOL     OW32839   4.203   4.632  11.956 -0.2861  0.4864  0.2033
 7069SOL    HW132840   4.216   4.544  11.919 -0.2759  0.7384 -0.3937
 7069SOL    HW232841   4.166   4.680  11.882 -2.1713  1.8927  2.0731
 7070SOL     OW32842   3.588   0.842   4.664  0.4870 -0.3073  0.0545
 7070SOL    HW132843   3.523   0.777   4.691  2.7461 -2.1031  1.2278
 7070SOL    HW232844   3.588   0.892   4.746 -1.2201 -0.1523 -0.0510
 7071SOL     OW32845   4.448   3.524   9.196 -0.7461  0.1105 -0.0708
 7071SOL    HW132846   4.541   3.515   9.218 -0.6449 -0.1126 -0.5847
 7071SOL    HW232847   4.449   3.613   9.159 -1.4290 -0.8675 -2.4844
 7072SOL     OW32848   3.388   1.565   7.193  0.1423  0.2498  0.1398
 7072SOL    HW132849   3.475   1.593   7.219  0.7426 -0.8664 -0.6818
 7072SOL    HW232850   3.393   1.472   7.215  0.7271  0.4031  0.6435
 7073SOL     OW32851   1.354   3.881   3.178 -0.4201  0.1288  0.2133
 7073SOL    HW132852   1.418   3.814   3.155 -0.2069 -0.1625  1.6612
 7073SOL    HW232853   1.274   3.829   3.175 -0.8636  0.9470 -2.3578
 7074SOL     OW32854   4.298   4.721   9.301 -0.0966 -0.4185 -0.6606
 7074SOL    HW132855   4.337   4.636   9.282  1.2927 -0.0995  0.7425
 7074SOL    HW232856   4.319   0.001   9.393 -0.6766  1.7687 -0.9114
 7075SOL     OW32857   1.392   1.182  12.229  0.2780  0.1880 -0.2185
 7075SOL    HW132858   1.473   1.222  12.197  0.1590 -0.0892 -0.8552
 7075SOL    HW232859   1.364   1.118  12.165  0.6442 -0.4776  0.2875
 7076SOL     OW32860   3.167   1.777   7.225  0.6057 -0.2637  0.2143
 7076SOL    HW132861   3.196   1.854   7.273 -0.2622  0.8965 -1.1226
 7076SOL    HW232862   3.247   1.729   7.201  0.6039  0.0441 -0.4194
 7077SOL     OW32863   2.051   3.048   8.040 -0.1569  0.3718  0.3031
 7077SOL    HW132864   2.111   3.065   8.113  0.5172  0.9907 -0.3977
 7077SOL    HW232865   2.002   3.130   8.030 -1.4023 -0.5218 -0.9475
 7078SOL     OW32866   1.603   1.803   4.070  0.0624 -0.0161 -0.1050
 7078SOL    HW132867   1.577   1.711   4.083 -0.3174  0.0893 -0.1110
 7078SOL    HW232868   1.698   1.794   4.059 -0.3715 -1.9907 -2.3869
 7079SOL     OW32869   3.047   2.114   8.739  0.9123 -0.1784 -0.5341
 7079SOL    HW132870   2.953   2.122   8.729  0.8944  0.8437  0.4311
 7079SOL    HW232871   3.064   2.031   8.783  1.2049 -0.0093 -0.3261
 7080SOL     OW32872   3.269   2.859   9.624 -0.6980 -0.0736  0.4561
 7080SOL    HW132873   3.345   2.804   9.643 -0.8688 -0.5263 -0.1507
 7080SOL    HW232874   3.202   2.809   9.670 -1.4309  0.8037  0.3230
 7081SOL     OW32875   2.919   3.848   4.461 -0.0709  0.5209 -0.3872
 7081SOL    HW132876   2.879   3.935   4.455  1.7796  1.3545 -0.4993
 7081SOL    HW232877   2.904   3.820   4.371 -2.4959  0.7897 -0.0680
 7082SOL     OW32878   2.241   0.511   9.013  0.0499 -0.1241 -0.0635
 7082SOL    HW132879   2.220   0.489   9.104 -1.3319 -0.7962 -0.5471
 7082SOL    HW232880   2.335   0.514   9.026 -0.3029  2.0035  2.0695
 7083SOL     OW32881   3.177   0.776   6.013  0.1873  0.2310  0.4823
 7083SOL    HW132882   3.226   0.715   5.959  0.6736  0.4643  0.6618
 7083SOL    HW232883   3.088   0.757   5.983 -0.2918 -0.9532  2.6612
 7084SOL     OW32884   1.233   1.967   6.562 -0.6909 -0.7623  0.0921
 7084SOL    HW132885   1.176   2.043   6.547 -0.4849 -0.6837 -0.3028
 7084SOL    HW232886   1.203   1.947   6.651  0.0804  1.6285  0.9103
 7085SOL     OW32887   2.197   4.230   3.871  0.3451 -0.2812  0.8369
 7085SOL    HW132888   2.134   4.170   3.830 -3.2323  3.0444  1.5129
 7085SOL    HW232889   2.243   4.181   3.939 -0.3582 -1.8524  0.1832
 7086SOL     OW32890   2.873   2.341   8.197 -0.1632 -0.3971  0.1640
 7086SOL    HW132891   2.875   2.345   8.102  0.9039 -0.9920  0.1565
 7086SOL    HW232892   2.950   2.394   8.219  0.3837 -0.8249 -0.7347
 7087SOL     OW32893   2.119   2.572   8.858  0.2852 -0.5598 -0.1573
 7087SOL    HW132894   2.162   2.496   8.896 -1.8311 -1.8977 -0.4303
 7087SOL    HW232895   2.116   2.629   8.936  0.1869 -0.1731 -0.4452
 7088SOL     OW32896   1.253   4.697  10.531  0.2435 -0.0121 -0.0411
 7088SOL    HW132897   1.234   4.696  10.624  1.5451  1.2433  0.2381
 7088SOL    HW232898   1.294   0.046  10.517 -0.2009 -0.0391 -1.5512
 7089SOL     OW32899   0.280   3.428   6.227 -0.6394  0.3223  0.0768
 7089SOL    HW132900   0.289   3.467   6.140  2.7493  1.5766  0.9765
 7089SOL    HW232901   0.187   3.441   6.248 -1.3531  0.3495 -3.0452
 7090SOL     OW32902   0.952   2.736   9.296 -0.2310  0.1427  0.2730
 7090SOL    HW132903   0.921   2.691   9.217 -1.5390 -0.9707  1.4166
 7090SOL    HW232904   1.047   2.727   9.289 -0.5186 -0.9029 -2.5762
 7091SOL     OW32905   1.481   4.397   1.312  0.2380 -0.1615 -0.1972
 7091SOL    HW132906   1.435   4.406   1.396  0.4935  0.5966 -0.1380
 7091SOL    HW232907   1.485   4.491   1.294  0.1559  0.5346  3.3802
 7092SOL     OW32908   0.296   4.235  10.513 -0.3458 -0.0258 -0.4219
 7092SOL    HW132909   0.220   4.241  10.571  0.2456  0.2280  0.3234
 7092SOL    HW232910   0.362   4.274  10.571 -0.8596  0.5474 -0.2277
 7093SOL     OW32911   4.502   4.290   8.126  0.4168  0.2946  0.2434
 7093SOL    HW132912   4.431   4.270   8.065 -0.4011  1.5197  0.8046
 7093SOL    HW232913   4.496   4.228   8.199 -1.0015 -0.0201 -0.1534
 7094SOL     OW32914   0.574   3.162  10.813 -0.6041  0.0272  0.6715
 7094SOL    HW132915   0.581   3.093  10.879  1.2050 -0.2778  0.1610
 7094SOL    HW232916   0.482   3.184  10.826 -1.0074 -0.6539 -0.9762
 7095SOL     OW32917   2.299   1.107   7.729 -0.1143 -0.2186  0.9086
 7095SOL    HW132918   2.240   1.101   7.654 -1.0328 -0.1749  1.6339
 7095SOL    HW232919   2.284   1.201   7.741 -0.2399 -0.1373  0.1095
 7096SOL     OW32920   3.652   2.837  15.140 -0.5855  0.2815  0.0305
 7096SOL    HW132921   3.667   2.854  15.047 -0.1844 -1.6299 -0.2528
 7096SOL    HW232922   3.560   2.813  15.152 -0.0650 -1.0860  1.3991
 7097SOL     OW32923   0.150   1.189   8.594  0.4805  0.3823  0.7637
 7097SOL    HW132924   0.081   1.187   8.527 -0.0436  0.8761  1.2816
 7097SOL    HW232925   0.094   1.174   8.670 -0.9015 -0.0423 -0.3254
 7098SOL     OW32926   1.995   0.466   9.619  0.6381 -0.3311  0.0070
 7098SOL    HW132927   2.007   0.467   9.714 -0.5537  1.7147  0.1351
 7098SOL    HW232928   2.039   0.384   9.597  0.2477 -1.0802  2.0008
 7099SOL     OW32929   4.543   1.597   9.589  1.0891  0.3510  0.0610
 7099SOL    HW132930   4.590   1.676   9.563  1.6986 -0.0110  0.0684
 7099SOL    HW232931   4.458   1.640   9.598  1.0553  0.5221 -1.2014
 7100SOL     OW32932   2.454   2.801  13.874  0.3029  0.1506  0.0101
 7100SOL    HW132933   2.503   2.866  13.925  0.5442  1.3172 -1.6986
 7100SOL    HW232934   2.415   2.758  13.950 -0.6567 -0.2352 -0.6896
 7101SOL     OW32935   1.765   3.464  15.254 -0.0145  0.3828 -0.0610
 7101SOL    HW132936   1.830   3.533  15.243  0.3944  0.1661  0.9892
 7101SOL    HW232937   1.777   3.446  15.347  2.1632  1.4054 -0.1477
 7102SOL     OW32938   0.479   1.682   6.415 -0.0644 -0.2404  0.0685
 7102SOL    HW132939   0.465   1.725   6.330  0.4441 -0.1477  0.0320
 7102SOL    HW232940   0.561   1.633   6.408  0.9098  1.5319 -0.7848
 7103SOL     OW32941   4.349   3.776   6.522  0.1717  0.4611  0.0095
 7103SOL    HW132942   4.349   3.832   6.445 -0.1823  0.7024  0.1844
 7103SOL    HW232943   4.405   3.702   6.498 -1.3557 -0.9289  0.7155
 7104SOL     OW32944   2.738   1.695  10.375  0.0131  0.6969  0.4617
 7104SOL    HW132945   2.750   1.600  10.369 -1.0186  0.5557  0.6055
 7104SOL    HW232946   2.817   1.721  10.422  1.4749 -2.6043 -0.1644
 7105SOL     OW32947   3.945   0.888   0.032  0.2132  0.1106 -0.6549
 7105SOL    HW132948   4.004   0.912  17.704 -0.1173  2.4252 -0.1675
 7105SOL    HW232949   4.001   0.873   0.108  2.1281 -0.1434 -2.1149
 7106SOL     OW32950   4.620   3.294   6.487 -0.3567  0.0396  0.3891
 7106SOL    HW132951   4.623   3.212   6.437  2.1424 -0.6290  1.6430
 7106SOL    HW232952   4.606   3.255   6.573 -0.0185  0.4077  0.6098
 7107SOL     OW32953   1.441   4.028   4.238  0.1540  0.4034 -0.2582
 7107SOL    HW132954   1.399   3.956   4.192  0.1347 -1.3637  2.5826
 7107SOL    HW232955   1.371   4.092   4.249 -0.0820 -0.4655  3.2343
 7108SOL     OW32956   2.748   4.624   4.098 -0.0746 -0.1403 -0.2442
 7108SOL    HW132957   2.740   4.719   4.093  0.5472 -0.2078 -2.7528
 7108SOL    HW232958   2.832   4.612   4.141  0.8221 -1.6417 -2.4072
 7109SOL     OW32959   2.458   3.397   2.883  0.3841 -0.1813 -0.4117
 7109SOL    HW132960   2.518   3.360   2.947 -1.0844 -0.7599  0.6210
 7109SOL    HW232961   2.472   3.490   2.901 -1.5745 -0.0233  0.3170
 7110SOL     OW32962   0.622   1.218   2.896 -0.6928  0.1817 -0.4801
 7110SOL    HW132963   0.585   1.169   2.823 -4.4829  2.2951  0.0086
 7110SOL    HW232964   0.600   1.301   2.854  0.8634  0.8158 -0.0642
 7111SOL     OW32965   4.525   3.807  12.045  0.6181 -0.4320 -0.6695
 7111SOL    HW132966   4.518   3.809  12.140 -1.1070  1.6763 -0.8269
 7111SOL    HW232967   4.541   3.898  12.020  2.1666 -0.4490  0.2347
 7112SOL     OW32968   3.298   2.667  10.872 -0.4717 -0.4566 -0.0543
 7112SOL    HW132969   3.391   2.643  10.868  0.0305  1.6040 -0.9073
 7112SOL    HW232970   3.274   2.577  10.852 -1.6407 -0.0676 -0.3742
 7113SOL     OW32971   3.975   2.894   7.941 -0.0413 -0.5766  0.3585
 7113SOL    HW132972   4.018   2.809   7.932  0.5176 -0.6360  3.4573
 7113SOL    HW232973   3.930   2.883   8.025 -0.2530  0.7590  0.4131
 7114SOL     OW32974   2.658   1.961   6.482 -0.1478  0.7130 -0.1648
 7114SOL    HW132975   2.609   1.991   6.405  0.1293 -0.4153 -0.7786
 7114SOL    HW232976   2.690   2.039   6.527  0.9809  0.4012 -0.4387
 7115SOL     OW32977   3.116   2.000   2.727  0.1765  0.1086 -0.5086
 7115SOL    HW132978   3.075   1.935   2.785  1.3006 -1.5104 -1.5167
 7115SOL    HW232979   3.053   2.010   2.656  0.7559  1.1897 -0.8673
 7116SOL     OW32980   1.626   2.023   6.182  0.4278 -0.2220  0.5889
 7116SOL    HW132981   1.551   1.967   6.164 -0.0376  0.6546 -0.1850
 7116SOL    HW232982   1.594   2.103   6.226 -0.8597 -1.4632  1.8977
 7117SOL     OW32983   1.255   1.918   5.708 -0.6405  0.2706 -0.2503
 7117SOL    HW132984   1.253   1.893   5.616  2.5811  3.1998 -1.1563
 7117SOL    HW232985   1.345   1.922   5.742 -1.4544  0.8797  1.8835
 7118SOL     OW32986   0.731   1.450   3.707  0.2315  0.3215 -0.1687
 7118SOL    HW132987   0.674   1.502   3.764  0.3769 -1.5700  1.6993
 7118SOL    HW232988   0.666   1.418   3.645  1.4670 -0.9260 -0.8231
 7119SOL     OW32989   4.695   0.834   4.641  0.1074  0.0277 -0.1347
 7119SOL    HW132990   0.003   0.757   4.605 -0.5268 -0.7829  0.8028
 7119SOL    HW232991   0.029   0.890   4.673 -0.8743 -0.1251  2.2348
 7120SOL     OW32992   1.838   3.677   4.978  0.2605 -0.7826 -0.0520
 7120SOL    HW132993   1.744   3.695   4.980  0.2083 -0.9038 -1.0534
 7120SOL    HW232994   1.866   3.755   5.027 -1.2220 -0.8428  0.8724
 7121SOL     OW32995   4.522   1.178   8.637  0.5041 -0.1694  0.1434
 7121SOL    HW132996   4.577   1.115   8.685  0.9971 -0.4432 -0.7736
 7121SOL    HW232997   4.482   1.232   8.705 -0.8794 -0.0137 -0.8118
 7122SOL     OW32998   3.507   1.739   3.862  0.4016 -0.2516 -0.1041
 7122SOL    HW132999   3.540   1.803   3.798 -0.3922 -1.2172 -1.4723
 7122SOL    HW233000   3.416   1.768   3.874 -0.7331 -2.3903 -3.6350
 7123SOL     OW33001   1.375   0.275  15.056  0.4777 -0.3494  0.2403
 7123SOL    HW133002   1.328   0.319  14.986  1.2787 -0.1845 -0.1901
 7123SOL    HW233003   1.466   0.277  15.027  0.4771 -1.2003  0.1898
 7124SOL     OW33004   3.476   4.056   1.423 -0.2430  0.3673 -0.5843
 7124SOL    HW133005   3.562   4.049   1.465 -0.7890  0.7264  0.5799
 7124SOL    HW233006   3.505   4.043   1.332  1.9549  2.6128 -0.2164
 7125SOL     OW33007   1.235   0.757   7.244  0.5093 -0.0691 -0.2901
 7125SOL    HW133008   1.173   0.690   7.273  0.6512 -1.6471 -3.6442
 7125SOL    HW233009   1.178   0.833   7.251  1.5632  0.7859 -1.0196
 7126SOL     OW33010   1.504   4.276   7.899  0.0508 -0.4239  0.0532
 7126SOL    HW133011   1.548   4.209   7.952  1.5696  0.7478  0.2368
 7126SOL    HW233012   1.487   4.345   7.963  1.9791 -0.9707  1.1591
 7127SOL     OW33013   1.119   1.171   9.876 -0.1434  0.3265  0.0083
 7127SOL    HW133014   1.108   1.239   9.810  1.4828  0.0612 -0.5433
 7127SOL    HW233015   1.048   1.113   9.850 -0.0295  0.6840 -1.0710
 7128SOL     OW33016   0.005   2.947  12.656 -0.2806  0.1451 -0.0017
 7128SOL    HW133017   0.006   2.918  12.747 -3.1628  0.6754  0.2019
 7128SOL    HW233018   4.686   2.880  12.616  1.1938  0.7448 -3.0768
 7129SOL     OW33019   2.011   1.402   1.717 -0.4426  0.0262 -0.1682
 7129SOL    HW133020   1.940   1.369   1.774  0.9594 -2.0770  0.3673
 7129SOL    HW233021   2.087   1.394   1.774 -1.2536 -1.4815  0.7057
 7130SOL     OW33022   0.014   0.196   5.681  0.5367  0.6059 -0.4651
 7130SOL    HW133023   0.079   0.249   5.634  0.0671 -0.4793 -2.3496
 7130SOL    HW233024   4.671   0.221   5.634  0.5157  2.0943  0.3660
 7131SOL     OW33025   1.024   2.858   4.986 -0.2995  0.8859  0.1164
 7131SOL    HW133026   1.006   2.782   4.930 -1.1503  1.5318 -0.5008
 7131SOL    HW233027   1.035   2.824   5.074 -1.9742 -1.3885 -0.5670
 7132SOL     OW33028   4.397   2.857  13.360  0.0657  0.0067 -0.0337
 7132SOL    HW133029   4.336   2.826  13.427  0.8005 -0.0510  0.6196
 7132SOL    HW233030   4.450   2.926  13.399  0.3278  0.5545 -1.3838
 7133SOL     OW33031   2.405   0.339   2.459  0.2747 -0.5380 -0.3020
 7133SOL    HW133032   2.331   0.280   2.446 -1.9963  2.8819 -2.6785
 7133SOL    HW233033   2.429   0.308   2.547  0.9642  0.7576 -0.0331
 7134SOL     OW33034   3.931   2.280   4.341 -0.7185  0.6175 -0.0711
 7134SOL    HW133035   3.969   2.193   4.339 -1.3749  0.2961  1.1837
 7134SOL    HW233036   3.849   2.249   4.379 -1.8927  2.0346 -1.4660
 7135SOL     OW33037   2.422   2.168  15.742 -0.0355  0.1011 -0.1414
 7135SOL    HW133038   2.458   2.257  15.741 -1.7791  0.8362  0.8904
 7135SOL    HW233039   2.510   2.132  15.728  0.5661  2.0204 -1.3562
 7136SOL     OW33040   4.329   0.080   3.912  0.7071  0.7196 -0.1727
 7136SOL    HW133041   4.319   0.175   3.925  0.2887  0.6997 -0.3400
 7136SOL    HW233042   4.401   0.055   3.970  0.8229  2.2915  0.3679
 7137SOL     OW33043   0.659   2.322   2.558 -0.3438  0.1392  0.0365
 7137SOL    HW133044   0.670   2.394   2.497  2.6465 -0.8803 -0.5908
 7137SOL    HW233045   0.612   2.269   2.494  0.8035 -0.2362 -0.4728
 7138SOL     OW33046   3.806   3.705   0.574  0.4042 -0.3252 -0.0860
 7138SOL    HW133047   3.822   3.617   0.540 -0.8389  0.0081 -1.4948
 7138SOL    HW233048   3.890   3.738   0.608  0.3437 -0.0744 -0.1773
 7139SOL     OW33049   2.460   4.168   7.776 -0.3881  0.2100 -0.0244
 7139SOL    HW133050   2.535   4.124   7.816  0.5360  1.1219 -0.7591
 7139SOL    HW233051   2.464   4.263   7.787 -1.0947  0.0570  1.7151
 7140SOL     OW33052   0.420   2.216   2.771 -0.1548  0.3817  0.3613
 7140SOL    HW133053   0.491   2.262   2.725  0.5978 -0.3807  0.7609
 7140SOL    HW233054   0.430   2.131   2.728 -2.6753 -0.4972  1.5215
 7141SOL     OW33055   0.657   3.511   2.950 -0.1533  0.2588  0.5659
 7141SOL    HW133056   0.581   3.560   2.983 -1.0246  0.8841 -2.4002
 7141SOL    HW233057   0.706   3.482   3.028  0.5154 -2.2436 -0.7811
 7142SOL     OW33058   3.519   2.586   6.015  0.0489 -0.6647  0.0802
 7142SOL    HW133059   3.512   2.554   6.105 -1.1711  0.0291  0.2244
 7142SOL    HW233060   3.475   2.670   6.010  1.6723  0.2932  1.7433
 7143SOL     OW33061   0.742   1.568   7.865  0.3395  0.0794 -0.3883
 7143SOL    HW133062   0.761   1.582   7.958  0.8439 -0.3916 -0.4178
 7143SOL    HW233063   0.693   1.486   7.875 -0.9177  1.2593  2.8914
 7144SOL     OW33064   4.146   3.892   6.081 -0.1554 -0.0088 -0.1009
 7144SOL    HW133065   4.170   3.808   6.042  0.2351 -0.0680  0.2587
 7144SOL    HW233066   4.166   3.949   6.007 -1.8488  0.4457 -0.1865
 7145SOL     OW33067   0.464   3.427   9.690  0.2007  0.2774 -0.3638
 7145SOL    HW133068   0.514   3.503   9.660 -0.3227  1.0470  0.7388
 7145SOL    HW233069   0.436   3.449   9.779  0.9324 -2.9888  0.6674
 7146SOL     OW33070   0.328   3.469   9.946  0.5000 -0.3262 -0.3208
 7146SOL    HW133071   0.249   3.468   9.893 -0.9696  1.2886  1.8336
 7146SOL    HW233072   0.304   3.482  10.038  1.1158 -0.0437 -0.1969
 7147SOL     OW33073   1.033   2.334  13.706 -0.5165 -0.5927  0.0162
 7147SOL    HW133074   1.041   2.309  13.798  1.1180 -0.4576 -0.0987
 7147SOL    HW233075   1.030   2.429  13.700  0.3998 -0.6150 -0.8417
 7148SOL     OW33076   4.387   2.034   1.990 -0.1697  0.0807 -0.5007
 7148SOL    HW133077   4.350   1.967   1.933 -1.5479 -0.1838  0.6941
 7148SOL    HW233078   4.302   2.049   2.032 -0.9972 -2.8505 -1.0938
 7149SOL     OW33079   3.940   0.287   9.118 -0.3457  0.5805  0.4558
 7149SOL    HW133080   4.031   0.275   9.142 -0.4666 -1.2340  0.0204
 7149SOL    HW233081   3.923   0.196   9.093  0.8022 -0.1691  2.4272
 7150SOL     OW33082   1.318   2.867  10.333  0.3096  0.4894 -0.3858
 7150SOL    HW133083   1.387   2.804  10.354 -0.7916 -1.4735 -2.6990
 7150SOL    HW233084   1.289   2.898  10.418 -0.7588 -0.8975 -0.2478
 7151SOL     OW33085   0.351   0.358   2.360 -0.8232  0.1454  0.3573
 7151SOL    HW133086   0.417   0.392   2.300 -0.8832 -0.4785 -0.0586
 7151SOL    HW233087   0.363   0.263   2.355  1.0178  0.2474  2.6528
 7152SOL     OW33088   4.318   2.811  10.618 -0.5885  0.6771 -0.0075
 7152SOL    HW133089   4.328   2.800  10.712 -0.3078  0.5913 -0.0472
 7152SOL    HW233090   4.329   2.906  10.626 -2.4119  0.9899 -1.1739
 7153SOL     OW33091   0.003   2.588   9.271 -0.4352  0.2369  0.0625
 7153SOL    HW133092   0.017   2.660   9.333 -2.2044  0.0088  0.7307
 7153SOL    HW233093   4.679   2.636   9.214 -0.5906 -1.4472 -1.1878
 7154SOL     OW33094   0.662   1.205  11.676 -0.2825  0.0875 -0.3856
 7154SOL    HW133095   0.614   1.285  11.697  0.0111 -0.0418  0.7562
 7154SOL    HW233096   0.610   1.180  11.599  0.0064  0.0395 -0.5651
 7155SOL     OW33097   0.511   0.196   1.828  0.3198  0.6890  0.1662
 7155SOL    HW133098   0.601   0.195   1.862  0.9786  1.3439 -1.5426
 7155SOL    HW233099   0.466   0.143   1.893  0.6755  2.7712  2.0832
 7156SOL     OW33100   2.536   1.085   9.257 -0.0998  0.3230  0.3014
 7156SOL    HW133101   2.442   1.071   9.248 -0.1704  1.0861 -0.1580
 7156SOL    HW233102   2.534   1.166   9.308 -0.4760 -1.0647  2.4839
 7157SOL     OW33103   2.647   1.040  15.906 -0.4499 -0.2558  0.4097
 7157SOL    HW133104   2.656   0.998  15.992 -1.1144  0.9839  1.0808
 7157SOL    HW233105   2.621   1.131  15.918  0.0133 -0.0029 -0.4980
 7158SOL     OW33106   3.499   3.662   1.326 -0.0800 -0.1521 -0.4707
 7158SOL    HW133107   3.465   3.609   1.254  1.1568 -1.3553 -0.1800
 7158SOL    HW233108   3.491   3.752   1.295 -0.1604 -0.3273 -0.9484
 7159SOL     OW33109   3.960   1.604   6.889  0.8967 -0.2345 -0.1009
 7159SOL    HW133110   3.979   1.690   6.924 -1.9222  0.1194  0.5037
 7159SOL    HW233111   4.051   1.575   6.882  0.6060 -1.1770 -0.0351
 7160SOL     OW33112   0.542   3.734   5.439  0.2134  0.1675 -0.2465
 7160SOL    HW133113   0.554   3.759   5.347  1.2130 -1.0862 -0.4490
 7160SOL    HW233114   0.490   3.654   5.437 -0.0351  0.3033  0.6532
 7161SOL     OW33115   3.964   0.172   6.791  0.2864  0.3532  0.5723
 7161SOL    HW133116   3.937   0.080   6.787 -0.9336  0.8348 -2.2418
 7161SOL    HW233117   3.890   0.223   6.758  1.0047  2.0347  1.5931
 7162SOL     OW33118   2.544   2.504   4.654 -0.5671 -0.1907 -0.2336
 7162SOL    HW133119   2.598   2.569   4.700  1.6083 -2.1817 -0.0041
 7162SOL    HW233120   2.556   2.525   4.561 -0.3211  0.1653 -0.1227
 7163SOL     OW33121   2.766   2.140   2.988  0.9133  0.3330  0.2675
 7163SOL    HW133122   2.699   2.082   3.026  0.5455  0.7354  0.2281
 7163SOL    HW233123   2.795   2.079   2.920  1.1405  1.0927 -0.3156
 7164SOL     OW33124   2.729   2.998  17.358  0.5682 -0.6722  0.0346
 7164SOL    HW133125   2.655   2.952  17.317 -0.4536 -0.3484  1.5111
 7164SOL    HW233126   2.680   3.076  17.386  3.8631  0.8128  1.6748
 7165SOL     OW33127   1.244   0.365  16.098 -0.2907 -0.4870 -0.1603
 7165SOL    HW133128   1.260   0.445  16.147 -1.1042 -0.5413  0.2021
 7165SOL    HW233129   1.324   0.350  16.048 -1.0560  0.5632 -1.6930
 7166SOL     OW33130   3.449   2.147   8.128  0.4475  0.0537 -0.5782
 7166SOL    HW133131   3.518   2.122   8.066  1.5801  1.6096  0.0800
 7166SOL    HW233132   3.491   2.207   8.189  1.3067 -0.1562 -0.9692
 7167SOL     OW33133   0.444   2.866   7.250  0.1951 -0.0783  0.9303
 7167SOL    HW133134   0.402   2.945   7.215 -2.7846 -1.6683  0.9196
 7167SOL    HW233135   0.530   2.901   7.273  0.3608 -0.1097  0.3545
 7168SOL     OW33136   3.322   4.483   1.430  0.5893  0.1385  0.4388
 7168SOL    HW133137   3.386   4.545   1.395  0.9519 -2.6174 -3.7463
 7168SOL    HW233138   3.328   4.419   1.359  2.9312 -0.6091  1.3021
 7169SOL     OW33139   1.211   2.100   2.790  0.7558 -0.2705 -0.0959
 7169SOL    HW133140   1.212   2.031   2.723  0.3336  1.7048 -2.1174
 7169SOL    HW233141   1.275   2.068   2.854 -0.0146  1.1393  1.3734
 7170SOL     OW33142   3.286   0.327   6.778  0.9627  0.2476  0.0709
 7170SOL    HW133143   3.380   0.343   6.776  1.2294 -1.3944 -0.9373
 7170SOL    HW233144   3.278   0.246   6.828  3.3226  0.1518  0.2622
 7171SOL     OW33145   2.595   3.165   6.583  0.1147  0.1702 -0.3902
 7171SOL    HW133146   2.687   3.151   6.560  0.2875 -1.2651  1.1620
 7171SOL    HW233147   2.586   3.255   6.550 -0.1180  0.0691 -0.6077
 7172SOL     OW33148   4.338   1.013   8.477  0.2899 -0.0413 -0.4038
 7172SOL    HW133149   4.244   1.027   8.488  0.7343  1.0159  2.0459
 7172SOL    HW233150   4.385   1.081   8.526 -0.4508  0.2348 -0.0697
 7173SOL     OW33151   4.284   4.463   8.956  0.2274  0.1483  0.0318
 7173SOL    HW133152   4.269   4.493   9.046 -1.2785  0.0161 -0.1706
 7173SOL    HW233153   4.319   4.374   8.961  0.5934  0.3611  1.5076
 7174SOL     OW33154   2.195   1.388   5.499  0.0075  0.7940  0.4181
 7174SOL    HW133155   2.238   1.462   5.541 -1.3313  1.5231  0.5012
 7174SOL    HW233156   2.125   1.427   5.446 -0.4427 -3.2135 -1.9302
 7175SOL     OW33157   2.798   4.601   2.096  0.0115  0.2717  0.2927
 7175SOL    HW133158   2.848   4.659   2.038  0.0791 -0.7579 -0.6794
 7175SOL    HW233159   2.708   4.633   2.101  0.0968  0.6544 -0.6273
 7176SOL     OW33160   1.570   4.314   9.562  0.4934  0.2987  0.0696
 7176SOL    HW133161   1.535   4.231   9.528 -1.5583  1.2853 -0.2196
 7176SOL    HW233162   1.648   4.326   9.507  2.5002 -1.7192  2.4912
 7177SOL     OW33163   2.021   0.095  16.694 -0.7042  0.3568  0.1069
 7177SOL    HW133164   2.045   0.149  16.769 -1.1713  0.7988 -0.0634
 7177SOL    HW233165   2.060   0.153  16.628  1.9401 -0.4353  0.9924
 7178SOL     OW33166   1.119   0.020   9.112 -0.4898 -0.3689 -0.3067
 7178SOL    HW133167   1.084   0.044   9.026 -1.4541 -1.2183 -0.1465
 7178SOL    HW233168   1.191   0.083   9.119 -0.5354 -0.2142 -1.2341
 7179SOL     OW33169   0.277   3.392   9.490 -0.2395  0.3806 -0.5693
 7179SOL    HW133170   0.297   3.323   9.427  0.5051  1.8555 -1.9418
 7179SOL    HW233171   0.330   3.370   9.567 -0.0008  0.1121 -0.8090
 7180SOL     OW33172   1.786   4.077   1.896  0.3995 -0.1656 -0.0142
 7180SOL    HW133173   1.785   4.162   1.851 -0.9074 -0.4904 -0.5798
 7180SOL    HW233174   1.744   4.095   1.981  1.9166 -2.3134  1.1885
 7181SOL     OW33175   1.863   0.090   5.383 -0.1031  0.0976 -0.4092
 7181SOL    HW133176   1.775   0.116   5.411  0.7186  1.5290  0.8292
 7181SOL    HW233177   1.855   4.731   5.392  1.4471  0.0829  0.6829
 7182SOL     OW33178   3.701   2.130   4.389 -0.4225 -0.3497  0.0222
 7182SOL    HW133179   3.611   2.098   4.386 -0.3224 -0.4617 -1.9197
 7182SOL    HW233180   3.738   2.078   4.317  0.4552  1.9555 -1.1960
 7183SOL     OW33181   1.231   2.316   7.207  0.2697 -0.2265  0.1378
 7183SOL    HW133182   1.236   2.374   7.131 -2.6255 -0.4863 -0.2649
 7183SOL    HW233183   1.323   2.290   7.211  0.4797  0.6391  0.8750
 7184SOL     OW33184   0.068   2.686   8.379  0.0924  0.2747 -0.6998
 7184SOL    HW133185   0.049   2.678   8.286 -2.5907 -2.6096  0.1243
 7184SOL    HW233186   0.068   2.597   8.413  1.6617  0.9079  1.0092
 7185SOL     OW33187   2.861   3.259   6.772  0.1617  0.2246  0.0154
 7185SOL    HW133188   2.822   3.329   6.720 -0.4583  0.7487  1.1945
 7185SOL    HW233189   2.810   3.268   6.852  0.8338  0.5856  0.4023
 7186SOL     OW33190   0.093   0.799   8.670 -0.3930  0.2670  0.0093
 7186SOL    HW133191   0.164   0.758   8.719 -0.4042 -0.2463 -0.4061
 7186SOL    HW233192   0.124   0.783   8.581  0.2599 -1.1163  0.4953
 7187SOL     OW33193   3.917   1.324   7.546  0.0578 -0.1482  0.0157
 7187SOL    HW133194   3.924   1.253   7.610 -0.2811  1.1670  1.5324
 7187SOL    HW233195   3.955   1.392   7.602  2.6636 -0.7287 -1.0617
 7188SOL     OW33196   0.497   2.426   7.601 -1.1093 -0.1223  0.3489
 7188SOL    HW133197   0.573   2.411   7.658 -0.4411  0.1030 -0.4764
 7188SOL    HW233198   0.546   2.410   7.520 -1.5058 -1.6667  0.4092
 7189SOL     OW33199   3.292   4.352  16.925  0.6423  0.3704 -0.2126
 7189SOL    HW133200   3.199   4.330  16.932  1.3324 -1.4594  3.1235
 7189SOL    HW233201   3.302   4.432  16.976 -0.5714  1.9174 -2.4075
 7190SOL     OW33202   2.935   1.843  12.257 -0.3558 -0.4227 -0.1543
 7190SOL    HW133203   2.963   1.801  12.338  0.3232 -1.3417 -0.8707
 7190SOL    HW233204   2.969   1.931  12.275 -1.8176 -0.4385  2.6449
 7191SOL     OW33205   2.200   2.884   0.433  0.0809 -0.0228  0.5278
 7191SOL    HW133206   2.204   2.788   0.432 -0.1399 -0.0074 -0.7277
 7191SOL    HW233207   2.142   2.896   0.358 -0.6363  1.5585  1.3487
 7192SOL     OW33208   1.056   3.839  16.724  0.3637 -0.6252  0.3526
 7192SOL    HW133209   0.967   3.865  16.748  0.9102  0.5171  1.1453
 7192SOL    HW233210   1.044   3.759  16.673 -1.4590  1.3357 -2.3025
 7193SOL     OW33211   0.249   2.548   3.182  0.6972  0.3710 -0.2464
 7193SOL    HW133212   0.319   2.571   3.121  0.4422 -0.0738 -0.7028
 7193SOL    HW233213   0.285   2.468   3.219 -0.5645  0.6970  1.7023
 7194SOL     OW33214   2.473   3.113   4.181 -0.1462  0.5832 -0.1291
 7194SOL    HW133215   2.394   3.083   4.135 -1.3258  1.3153  1.4088
 7194SOL    HW233216   2.502   3.186   4.127 -0.1412  1.6599  1.3168
 7195SOL     OW33217   2.223   2.866  11.323 -0.7689  0.4245 -0.0507
 7195SOL    HW133218   2.271   2.829  11.397 -0.6434  0.9963  0.1542
 7195SOL    HW233219   2.245   2.799  11.259  0.9980 -0.1484  1.1507
 7196SOL     OW33220   4.106   4.683   5.244 -0.1215  0.1991  0.2358
 7196SOL    HW133221   4.025   4.734   5.242 -1.1438 -1.4679 -1.1692
 7196SOL    HW233222   4.163   0.022   5.230  0.4265 -0.1489  0.6004
 7197SOL     OW33223   0.858   4.667   3.419  0.1807 -0.7196  0.4365
 7197SOL    HW133224   0.803   4.653   3.496 -0.1248 -1.2775  0.1216
 7197SOL    HW233225   0.845   4.584   3.372 -3.1343  0.4079 -0.6394
 7198SOL     OW33226   4.131   0.188   4.138 -0.4893 -0.1445  0.7505
 7198SOL    HW133227   4.119   0.240   4.217  1.4078 -1.6897  2.0481
 7198SOL    HW233228   4.147   0.264   4.082  1.3671 -0.2225  1.1842
 7199SOL     OW33229   4.176   2.848   4.964  0.2391  0.1144 -0.0505
 7199SOL    HW133230   4.165   2.940   4.987 -1.5428  0.3282 -1.7962
 7199SOL    HW233231   4.183   2.802   5.048 -0.8104  0.3149  0.1376
 7200SOL     OW33232   3.347   1.301   8.895 -0.3033  0.0163  0.2385
 7200SOL    HW133233   3.407   1.226   8.894  0.7118  0.8409  0.5528
 7200SOL    HW233234   3.372   1.329   8.983 -0.2988 -2.0376  0.9113
 7201SOL     OW33235   1.877   0.503  16.512  0.0474 -0.3345  0.2189
 7201SOL    HW133236   1.896   0.535  16.425  3.8784  0.5494  1.3802
 7201SOL    HW233237   1.800   0.449  16.492  0.9983 -1.5659 -0.1532
 7202SOL     OW33238   0.055   0.211   8.656 -0.0989  0.2969  0.3823
 7202SOL    HW133239   4.699   0.194   8.639  0.2156 -0.4561 -0.5627
 7202SOL    HW233240   0.089   0.122   8.652  1.3449  0.8816 -0.5006
 7203SOL     OW33241   2.957   4.627  10.220  0.0717  0.1239  0.5682
 7203SOL    HW133242   3.047   4.659  10.216 -0.0735  0.9125  3.1968
 7203SOL    HW233243   2.954   4.619  10.316  2.7202  1.5370  0.7567
 7204SOL     OW33244   3.661   0.268   2.649 -0.1092 -0.6970  0.2482
 7204SOL    HW133245   3.689   0.185   2.611 -0.4306 -1.4547  1.6704
 7204SOL    HW233246   3.721   0.330   2.607 -1.4147  2.0442  2.4566
 7205SOL     OW33247   4.658   1.374   7.722  0.1657  0.7337  0.2167
 7205SOL    HW133248   4.597   1.440   7.690 -1.3802 -0.4218  0.7570
 7205SOL    HW233249   4.630   1.300   7.668  1.9560  0.6945 -0.6594
 7206SOL     OW33250   1.517   1.000   2.782 -0.1148 -0.6563 -0.3766
 7206SOL    HW133251   1.597   0.960   2.748 -0.0230 -1.8754  1.2756
 7206SOL    HW233252   1.452   0.985   2.713  0.1999 -1.0596 -0.5789
 7207SOL     OW33253   3.196   3.314   5.482 -0.4847  0.1627 -0.6009
 7207SOL    HW133254   3.275   3.366   5.495 -0.6427  0.5590 -1.2662
 7207SOL    HW233255   3.128   3.362   5.529 -0.1642 -1.2036  1.2513
 7208SOL     OW33256   4.548   2.556   3.308  0.2700 -0.5185  0.0727
 7208SOL    HW133257   4.582   2.471   3.281  0.5384  0.3128 -2.2050
 7208SOL    HW233258   4.494   2.524   3.380 -1.5839 -1.5364 -1.7759
 7209SOL     OW33259   4.035   4.624  10.674  0.0722 -0.2827  0.0357
 7209SOL    HW133260   4.079   4.557  10.620  0.4292 -0.4389  0.5153
 7209SOL    HW233261   3.964   4.650  10.615  1.6235  0.7790 -1.3826
 7210SOL     OW33262   0.812   2.009   9.164  0.2250 -0.8615  0.3238
 7210SOL    HW133263   0.771   2.094   9.178  0.6602 -0.6321  0.2100
 7210SOL    HW233264   0.759   1.962   9.229  0.0234 -0.3853  0.5052
 7211SOL     OW33265   4.469   3.473   4.112  0.0017  0.2121 -0.1675
 7211SOL    HW133266   4.400   3.453   4.175 -0.5362  1.4742 -0.3503
 7211SOL    HW233267   4.502   3.554   4.151 -1.0364  0.1526  0.8387
 7212SOL     OW33268   2.956   2.576  10.063 -0.3673 -0.0419 -0.5400
 7212SOL    HW133269   2.954   2.485  10.094 -1.9796  0.6243  1.2481
 7212SOL    HW233270   2.910   2.622  10.133 -1.3615 -3.0296  0.8009
 7213SOL     OW33271   1.555   0.096   9.853  0.2733 -0.6456 -0.4260
 7213SOL    HW133272   1.614   0.155   9.900 -0.8118  1.2664 -1.5103
 7213SOL    HW233273   1.624   0.043   9.812  0.7612 -0.0411 -0.3878
 7214SOL     OW33274   1.014   2.292   4.025 -0.4148  0.3649  0.7249
 7214SOL    HW133275   1.083   2.225   4.028 -0.9502 -0.1394  1.9550
 7214SOL    HW233276   1.037   2.334   4.108  2.5706  0.2217 -0.0123
 7215SOL     OW33277   3.205   2.985  13.978 -0.5725 -0.2075  0.2816
 7215SOL    HW133278   3.157   2.948  13.903  2.1843 -0.0895 -1.5308
 7215SOL    HW233279   3.233   2.906  14.025  0.4363 -0.4231 -0.6632
 7216SOL     OW33280   2.464   2.466  12.329  0.4509  0.3542 -1.1112
 7216SOL    HW133281   2.558   2.474  12.317  0.6316  0.7640  0.6053
 7216SOL    HW233282   2.432   2.387  12.286 -0.5921 -1.3444  2.7798
 7217SOL     OW33283   1.272   0.230   6.774  0.2399  0.1205 -0.1649
 7217SOL    HW133284   1.317   0.146   6.786 -0.2940  0.1726  2.1702
 7217SOL    HW233285   1.223   0.228   6.856 -0.9214  0.0458 -0.8553
 7218SOL     OW33286   1.167   4.046  12.996 -1.0254 -0.3945  0.2628
 7218SOL    HW133287   1.100   4.074  12.933  0.6387  1.1876 -0.7756
 7218SOL    HW233288   1.212   3.977  12.947  0.9463  2.0740 -1.3457
 7219SOL     OW33289   1.871   1.816   5.035 -0.5194 -0.4944 -0.3235
 7219SOL    HW133290   1.796   1.767   5.002 -0.3867 -0.0589 -1.2676
 7219SOL    HW233291   1.910   1.738   5.074  0.8347  0.3000 -0.0813
 7220SOL     OW33292   2.683   3.005   2.828  0.2392 -0.3332 -0.3508
 7220SOL    HW133293   2.713   3.063   2.758 -0.1257  0.6888  0.3460
 7220SOL    HW233294   2.707   2.919   2.793  2.0385 -0.8898  2.2567
 7221SOL     OW33295   4.353   3.925   0.787 -0.3418 -0.0552  0.0605
 7221SOL    HW133296   4.308   3.842   0.773  0.8288 -0.7467  0.4828
 7221SOL    HW233297   4.353   3.967   0.701  0.4042  2.0232  1.0559
 7222SOL     OW33298   3.760   3.102  15.477  0.2838 -0.0910 -0.3006
 7222SOL    HW133299   3.839   3.086  15.528  1.7373 -0.9773 -2.8220
 7222SOL    HW233300   3.743   3.195  15.489  0.3550  0.0737 -1.5167
 7223SOL     OW33301   2.581   3.071   5.175 -0.0820 -0.1194 -0.0102
 7223SOL    HW133302   2.590   3.138   5.108 -0.2375  0.4699  0.5533
 7223SOL    HW233303   2.603   2.992   5.124 -0.9780 -0.3188 -0.0902
 7224SOL     OW33304   1.595   3.264  15.188 -0.1593 -0.1040  0.2639
 7224SOL    HW133305   1.646   3.186  15.167 -3.5503 -2.2417  0.1015
 7224SOL    HW233306   1.664   3.331  15.191 -0.7895  0.4284  2.5950
 7225SOL     OW33307   2.602   1.264  15.538  0.7151  0.1045 -0.3487
 7225SOL    HW133308   2.536   1.249  15.471  0.9780 -1.1236 -0.3463
 7225SOL    HW233309   2.557   1.281  15.620  2.1429 -2.2233  0.9272
 7226SOL     OW33310   4.309   3.832   3.725 -0.4799 -0.3167  0.1650
 7226SOL    HW133311   4.286   3.761   3.786 -2.1440 -2.1532 -2.6115
 7226SOL    HW233312   4.279   3.906   3.777 -1.2980  0.6044 -1.6299
 7227SOL     OW33313   3.469   2.241   3.543 -0.0645  0.0625 -0.4795
 7227SOL    HW133314   3.398   2.184   3.574  1.1983 -0.4465  1.5352
 7227SOL    HW233315   3.543   2.182   3.559 -0.8235 -0.3615  1.4962
 7228SOL     OW33316   4.190   0.532   4.987 -0.2443  0.1452 -0.1089
 7228SOL    HW133317   4.196   0.585   4.908 -1.2183 -0.5681 -0.6570
 7228SOL    HW233318   4.256   0.575   5.041 -0.9519  0.3639  0.5793
 7229SOL     OW33319   2.795   0.322  14.277 -0.2280  0.3103  0.1816
 7229SOL    HW133320   2.707   0.351  14.252 -0.3842 -0.1856  0.1504
 7229SOL    HW233321   2.780   0.269  14.355 -0.4216  0.1645  0.0474
 7230SOL     OW33322   1.463   2.872   4.163  0.0868 -0.1116 -0.0262
 7230SOL    HW133323   1.397   2.849   4.228  0.3752  0.4202  0.4522
 7230SOL    HW233324   1.456   2.793   4.108 -0.4512  0.5673 -0.9316
 7231SOL     OW33325   0.241   0.259   5.287  0.3114 -0.1577 -0.1056
 7231SOL    HW133326   0.161   0.219   5.252 -0.4742  1.9038 -0.6516
 7231SOL    HW233327   0.309   0.196   5.264  1.8477  0.6408  2.1880
 7232SOL     OW33328   2.721   3.966   6.559  0.7197 -0.3922  0.0576
 7232SOL    HW133329   2.700   4.058   6.548 -0.6833 -0.6648  0.5036
 7232SOL    HW233330   2.801   3.980   6.609  0.7603  0.3441 -0.2169
 7233SOL     OW33331   0.392   2.590   9.608 -0.2511  0.3960 -0.1715
 7233SOL    HW133332   0.487   2.602   9.606  0.0244 -2.0994 -1.5719
 7233SOL    HW233333   0.381   2.514   9.550  1.5880  0.3259 -0.4149
 7234SOL     OW33334   0.490   0.366   3.748  0.1328 -0.4118 -0.3729
 7234SOL    HW133335   0.445   0.297   3.797 -0.8369  0.8403  0.4818
 7234SOL    HW233336   0.527   0.316   3.675  1.1549 -0.9493  0.5278
 7235SOL     OW33337   4.135   1.648  16.944 -0.2866  0.0461  0.0834
 7235SOL    HW133338   4.105   1.727  16.900  0.5359  0.6738  0.6634
 7235SOL    HW233339   4.045   1.619  16.961 -0.0961  0.0638  1.1659
 7236SOL     OW33340   1.391   4.604  13.800  0.8785 -0.5840 -0.5871
 7236SOL    HW133341   1.456   4.555  13.851 -0.4418 -2.3148 -0.5421
 7236SOL    HW233342   1.380   4.688  13.844 -0.3873 -0.5675 -0.9230
 7237SOL     OW33343   1.581   3.690   9.312  0.2909  0.1748 -0.1862
 7237SOL    HW133344   1.645   3.628   9.346  0.7093  0.6493 -0.1173
 7237SOL    HW233345   1.590   3.764   9.372  1.0392  1.4880 -1.9110
 7238SOL     OW33346   3.403   1.099   3.329 -0.9559  0.0029 -0.1190
 7238SOL    HW133347   3.477   1.040   3.316 -0.6686  0.4583 -0.5572
 7238SOL    HW233348   3.402   1.102   3.424  0.9834 -1.9790 -0.0347
 7239SOL     OW33349   2.672   3.709   8.406 -0.1345  0.0746 -0.0330
 7239SOL    HW133350   2.631   3.792   8.430 -0.0616 -0.5242  2.1668
 7239SOL    HW233351   2.658   3.713   8.312 -0.4509  1.2570  0.0545
 7240SOL     OW33352   1.636   3.575   0.281  0.2706 -0.7970 -0.0208
 7240SOL    HW133353   1.613   3.599   0.371  0.4445 -0.1869 -0.1356
 7240SOL    HW233354   1.549   3.581   0.242  0.1154  0.7532  0.5635
 7241SOL     OW33355   1.662   4.310   1.744 -0.1642  0.3636  0.0813
 7241SOL    HW133356   1.660   4.275   1.655  0.3561 -1.4904  0.8209
 7241SOL    HW233357   1.567   4.320   1.758 -0.3642 -0.6379 -0.5903
 7242SOL     OW33358   0.582   2.970   9.308  0.3680  0.3236  0.0459
 7242SOL    HW133359   0.521   2.917   9.359  0.1440 -1.1618 -1.7584
 7242SOL    HW233360   0.665   2.930   9.334  1.0509  1.6888 -0.0043
 7243SOL     OW33361   3.066   4.646   5.425 -0.5376 -0.1222 -0.0549
 7243SOL    HW133362   3.072   4.566   5.372  0.6712  0.2559 -0.5149
 7243SOL    HW233363   3.142   4.621   5.478 -1.4396 -1.0920  0.7446
 7244SOL     OW33364   4.293   0.647   7.316 -0.0912  0.5021  0.3175
 7244SOL    HW133365   4.248   0.635   7.400 -2.7276 -1.0560 -1.3085
 7244SOL    HW233366   4.357   0.575   7.317 -1.8227 -1.0466  1.0970
 7245SOL     OW33367   2.554   2.575   2.838 -0.1909 -0.3794  0.7543
 7245SOL    HW133368   2.531   2.621   2.918 -0.3509 -1.6067  1.4228
 7245SOL    HW233369   2.620   2.637   2.808 -0.3772 -0.1101  0.9002
 7246SOL     OW33370   2.611   2.551   6.849 -0.2374  0.2261 -0.1782
 7246SOL    HW133371   2.561   2.591   6.920 -0.4119 -0.2448 -0.0391
 7246SOL    HW233372   2.669   2.623   6.823 -0.5528  0.3142 -0.6373
 7247SOL     OW33373   3.193   2.373  16.533 -0.6490  0.6335 -0.1029
 7247SOL    HW133374   3.236   2.323  16.602 -0.5579  0.4837 -0.2665
 7247SOL    HW233375   3.258   2.381  16.463 -1.4467  1.5858 -0.7401
 7248SOL     OW33376   0.532   2.096   4.498 -0.1267 -0.1253 -0.1742
 7248SOL    HW133377   0.618   2.117   4.460  0.2632 -0.5015  0.4951
 7248SOL    HW233378   0.550   2.033   4.568  1.3176  0.1815 -0.2549
 7249SOL     OW33379   2.820   3.387   2.701  0.0171  0.4863  0.1628
 7249SOL    HW133380   2.782   3.439   2.631 -0.3280 -0.9528 -0.7256
 7249SOL    HW233381   2.889   3.443   2.738  0.0410  0.3342  0.3552
 7250SOL     OW33382   4.506   0.968  17.135 -0.4441  0.1457 -0.3966
 7250SOL    HW133383   4.520   0.942  17.044 -2.2261 -4.6818  0.7112
 7250SOL    HW233384   4.585   0.950  17.186  0.3028  0.2742 -1.5202
 7251SOL     OW33385   1.708   0.127  14.715  0.6507  0.0259 -0.2307
 7251SOL    HW133386   1.799   0.140  14.689  0.4414 -0.8848 -1.4251
 7251SOL    HW233387   1.676   0.066  14.649 -2.0063 -0.8162  1.7978
 7252SOL     OW33388   4.091   4.077  15.801 -0.2609  0.0614  0.0843
 7252SOL    HW133389   4.071   3.983  15.805  1.2666 -0.3422 -2.1514
 7252SOL    HW233390   4.004   4.115  15.814 -1.0677 -1.5877 -0.5325
 7253SOL     OW33391   1.738   0.323   2.639  0.1342 -0.1236 -0.5206
 7253SOL    HW133392   1.720   0.348   2.729 -1.1142  1.2082 -1.1458
 7253SOL    HW233393   1.760   0.230   2.651  0.0792 -0.2211 -1.1679
 7254SOL     OW33394   1.343   4.241   6.598 -0.2588  0.3928 -0.0276
 7254SOL    HW133395   1.371   4.317   6.649 -0.9292  0.5458  0.1036
 7254SOL    HW233396   1.424   4.194   6.575 -0.8889 -1.5465  1.7151
 7255SOL     OW33397   2.281   1.403   4.791 -0.4287  0.2281  0.5772
 7255SOL    HW133398   2.232   1.348   4.729 -1.8533  1.9829  0.1711
 7255SOL    HW233399   2.320   1.456   4.722 -0.0483  1.2319  1.5687
 7256SOL     OW33400   1.975   2.949  11.361  0.3042  0.2429 -0.5770
 7256SOL    HW133401   2.068   2.933  11.346  0.1157 -3.3977  1.9884
 7256SOL    HW233402   1.954   2.925  11.270 -2.8148  0.6254  0.0217
 7257SOL     OW33403   0.388   0.923   7.711 -0.2264  0.0486 -0.5796
 7257SOL    HW133404   0.341   0.973   7.644  2.7333  0.0496 -2.6292
 7257SOL    HW233405   0.331   0.941   7.786 -0.3786 -1.0801 -0.4155
 7258SOL     OW33406   0.971   3.160   1.635  0.4242 -0.1779 -0.6854
 7258SOL    HW133407   0.966   3.237   1.690 -0.8546 -1.7650  1.3987
 7258SOL    HW233408   1.051   3.119   1.667  0.4609  0.7280  0.3596
 7259SOL     OW33409   2.831   4.212   6.471  0.1855  1.0182  0.4224
 7259SOL    HW133410   2.875   4.291   6.439 -0.1802  0.1142 -2.2892
 7259SOL    HW233411   2.818   4.168   6.387  1.6639  0.6737  0.3701
 7260SOL     OW33412   2.216   1.919  11.444 -0.3538  0.2059 -0.2122
 7260SOL    HW133413   2.152   1.869  11.393 -0.7318  1.3591 -0.8537
 7260SOL    HW233414   2.248   1.984  11.382  0.0686 -0.9193 -1.1502
 7261SOL     OW33415   2.813   3.450   1.860  0.4340 -0.2852 -0.4169
 7261SOL    HW133416   2.783   3.360   1.863 -1.6209  0.3110 -3.0593
 7261SOL    HW233417   2.907   3.441   1.841  0.7389 -1.0419  1.4664
 7262SOL     OW33418   3.675   2.234   4.715  0.6530 -0.2470  0.3567
 7262SOL    HW133419   3.667   2.139   4.720 -1.3664 -0.1041 -0.1247
 7262SOL    HW233420   3.713   2.252   4.801  0.7552  2.2262 -0.2063
 7263SOL     OW33421   2.243   4.203   2.460  0.3660  0.6264  0.1820
 7263SOL    HW133422   2.229   4.242   2.374 -0.4214  1.6410  0.7777
 7263SOL    HW233423   2.166   4.146   2.459  1.3644 -0.6945 -1.3494
 7264SOL     OW33424   4.499   4.632  16.731 -0.8236 -0.2854 -0.7840
 7264SOL    HW133425   4.508   4.653  16.638 -0.8258 -0.7681 -0.8948
 7264SOL    HW233426   4.463   4.713  16.766  0.9583  1.0252 -1.9584
 7265SOL     OW33427   4.171   2.133  16.957 -0.1498  0.4868  0.2634
 7265SOL    HW133428   4.138   2.205  17.011  1.7185  0.9856  0.7396
 7265SOL    HW233429   4.175   2.178  16.872  0.2620  1.0239  0.5669
 7266SOL     OW33430   2.942   1.790   1.979 -0.3649  0.3961  0.2356
 7266SOL    HW133431   3.002   1.767   1.908  1.0684 -0.3878  1.6785
 7266SOL    HW233432   2.885   1.853   1.936 -2.5285 -1.9685 -0.3828
 7267SOL     OW33433   3.929   1.570  13.604 -0.0580 -0.5691 -0.3810
 7267SOL    HW133434   3.836   1.580  13.584  0.2825  0.2443 -1.5751
 7267SOL    HW233435   3.971   1.641  13.556 -1.8733  0.2518 -0.7770
 7268SOL     OW33436   2.036   1.926   5.564  0.6301  0.2365  0.1469
 7268SOL    HW133437   2.108   1.865   5.548 -0.5831 -1.3846  0.7780
 7268SOL    HW233438   2.038   1.972   5.481 -0.4519  1.1210  0.6114
 7269SOL     OW33439   0.017   3.949   7.687 -0.2886 -0.3211  0.2887
 7269SOL    HW133440   0.097   3.896   7.687 -0.1148 -0.0766 -1.2313
 7269SOL    HW233441   0.043   4.033   7.724 -2.1941  1.3640 -2.2601
 7270SOL     OW33442   1.970   2.410   2.280 -0.1022  0.3038 -0.1028
 7270SOL    HW133443   2.006   2.477   2.222  0.7662  1.0463  1.3008
 7270SOL    HW233444   1.876   2.411   2.259 -0.1352 -0.0784  0.0319
 7271SOL     OW33445   4.174   3.863   5.425 -0.5558 -0.4299 -0.2833
 7271SOL    HW133446   4.151   3.881   5.334 -2.9201 -0.5876  0.2978
 7271SOL    HW233447   4.215   3.777   5.412  0.4060  0.1028 -0.7964
 7272SOL     OW33448   4.735   2.195  12.297  0.3045 -0.2593 -0.1185
 7272SOL    HW133449   4.699   2.203  12.385 -0.2055 -0.3218 -0.3241
 7272SOL    HW233450   4.685   2.119  12.269  0.0330  1.3017 -3.9537
 7273SOL     OW33451   4.269   1.692   1.890  0.2453  0.4124 -0.1190
 7273SOL    HW133452   4.242   1.769   1.841 -1.1924 -0.4136 -0.6176
 7273SOL    HW233453   4.276   1.629   1.819  1.6368  0.8620 -0.3701
 7274SOL     OW33454   2.028   3.438  11.572  0.0930 -0.8208  0.8180
 7274SOL    HW133455   2.056   3.515  11.523  0.8612 -2.2681 -1.0116
 7274SOL    HW233456   2.006   3.371  11.507  0.7359  0.9418 -1.1927
 7275SOL     OW33457   3.640   2.722  10.560  0.5948  0.1259  0.7799
 7275SOL    HW133458   3.675   2.638  10.590  1.6160  0.9062  1.7701
 7275SOL    HW233459   3.680   2.732  10.474 -0.9724  3.1677  0.4065
 7276SOL     OW33460   2.479   0.993  15.376 -0.2970 -0.4768 -0.4060
 7276SOL    HW133461   2.420   0.919  15.389 -0.1102 -0.4943  0.3779
 7276SOL    HW233462   2.549   0.971  15.438  1.7073  1.1991 -2.0530
 7277SOL     OW33463   3.268   3.523   3.199 -0.0192 -0.1976 -0.0279
 7277SOL    HW133464   3.337   3.566   3.250 -0.3460 -1.4210  1.4359
 7277SOL    HW233465   3.183   3.544   3.238  0.0058 -0.4920  0.1812
 7278SOL     OW33466   0.917   3.231   9.212 -0.1607  0.1718 -0.0296
 7278SOL    HW133467   0.834   3.211   9.168  0.6827  0.0438 -1.5711
 7278SOL    HW233468   0.887   3.212   9.301  1.5566 -3.5185 -0.2536
 7279SOL     OW33469   0.478   2.550  15.172 -0.0081 -0.2800  0.2374
 7279SOL    HW133470   0.410   2.603  15.214 -1.4176  0.0302 -2.3995
 7279SOL    HW233471   0.558   2.575  15.217  1.0301  0.1194 -1.8502
 7280SOL     OW33472   2.088   1.640  11.114  0.0563 -0.3045 -0.3776
 7280SOL    HW133473   2.155   1.586  11.157  1.5300  0.8757 -1.1812
 7280SOL    HW233474   2.064   1.697  11.187 -0.0413 -1.2887  0.3514
 7281SOL     OW33475   2.862   0.319   6.348  0.4204 -0.2893 -0.1242
 7281SOL    HW133476   2.794   0.253   6.338  0.5919 -0.7454  1.5760
 7281SOL    HW233477   2.845   0.361   6.432 -1.0089 -1.5527  0.2157
 7282SOL     OW33478   3.152   3.805   4.586 -0.1012  0.2576 -0.2016
 7282SOL    HW133479   3.070   3.835   4.546  0.2091  0.0954 -0.9511
 7282SOL    HW233480   3.210   3.800   4.510 -0.2136 -0.2952 -0.2562
 7283SOL     OW33481   1.110   3.815   3.483 -0.0597  0.2181  0.7295
 7283SOL    HW133482   1.088   3.808   3.390 -0.1066 -0.3538  0.7854
 7283SOL    HW233483   1.091   3.907   3.503  0.6214  0.5250 -0.0429
 7284SOL     OW33484   3.987   0.968   3.818  0.8492 -0.1748 -0.4209
 7284SOL    HW133485   4.042   0.995   3.890 -1.2703  2.8816  0.0564
 7284SOL    HW233486   3.895   0.965   3.846  0.7599  2.5545 -0.3699
 7285SOL     OW33487   2.873   1.725   3.149 -0.3197 -0.1197 -0.0202
 7285SOL    HW133488   2.867   1.650   3.208 -4.4720  1.9071  2.1341
 7285SOL    HW233489   2.783   1.748   3.126 -0.1615  0.2845 -0.2294
 7286SOL     OW33490   3.429   3.142   8.905 -0.2414  0.0633 -0.2709
 7286SOL    HW133491   3.388   3.227   8.887  1.3949  0.4551 -2.1949
 7286SOL    HW233492   3.383   3.117   8.985  1.4072 -3.0498 -0.3102
 7287SOL     OW33493   4.466   3.242   9.139  0.5943 -0.0808  0.0617
 7287SOL    HW133494   4.496   3.277   9.054 -0.9476  0.7248 -0.1450
 7287SOL    HW233495   4.460   3.327   9.183  0.1941 -0.6864  1.1486
 7288SOL     OW33496   1.563   3.676   5.027  0.1572  0.2195 -0.1720
 7288SOL    HW133497   1.538   3.587   5.052 -0.0496  0.5200  0.6958
 7288SOL    HW233498   1.513   3.741   5.076  3.5435  1.7887  1.2014
 7289SOL     OW33499   0.957   0.473   4.488 -0.2515 -0.4182 -0.1754
 7289SOL    HW133500   0.863   0.459   4.480 -0.4886  1.7573 -0.9452
 7289SOL    HW233501   0.988   0.399   4.541 -0.0842 -0.9347 -0.9823
 7290SOL     OW33502   4.525   3.325   6.853 -0.0443  0.1589  0.0327
 7290SOL    HW133503   4.594   3.261   6.836  1.3454  1.8463 -0.7137
 7290SOL    HW233504   4.448   3.269   6.854  1.3568 -1.8017 -1.7244
 7291SOL     OW33505   1.896   0.101   2.752 -0.3600 -0.4036  0.2823
 7291SOL    HW133506   1.956   0.141   2.816 -0.8520 -0.2828  0.6714
 7291SOL    HW233507   1.949   0.097   2.673  1.8391 -2.8101  1.8538
 7292SOL     OW33508   3.245   2.468   6.286 -0.1558  0.8305  0.3091
 7292SOL    HW133509   3.194   2.407   6.233  0.0680 -0.6035  1.7452
 7292SOL    HW233510   3.292   2.526   6.225  1.0091 -0.6888 -0.2289
 7293SOL     OW33511   3.610   4.034  10.660  0.0068 -0.2583  0.0312
 7293SOL    HW133512   3.525   4.019  10.702 -0.8207 -2.1176 -2.3174
 7293SOL    HW233513   3.591   4.029  10.567 -0.2773 -0.0016  0.0789
 7294SOL     OW33514   0.719   3.154  17.631  0.3723  0.3587 -0.8050
 7294SOL    HW133515   0.753   3.219  17.693 -0.4395  0.7539 -0.7840
 7294SOL    HW233516   0.714   3.077  17.689  3.0542 -1.2986 -2.7476
 7295SOL     OW33517   0.860   1.092   5.995 -0.6459 -0.3379  0.2793
 7295SOL    HW133518   0.848   1.019   6.056 -1.0284  0.3815  1.0513
 7295SOL    HW233519   0.895   1.156   6.057 -0.7514  0.2085 -0.2224
 7296SOL     OW33520   1.385   1.344   4.462 -0.2046  0.0221 -0.2788
 7296SOL    HW133521   1.424   1.258   4.444  1.4051  0.3402  1.6455
 7296SOL    HW233522   1.367   1.344   4.556 -2.4294  0.2040 -0.7236
 7297SOL     OW33523   3.358   2.813   6.043  0.1630 -0.2349  0.4333
 7297SOL    HW133524   3.365   2.890   6.100 -0.0302 -1.7055  2.4362
 7297SOL    HW233525   3.322   2.852   5.963 -0.2588 -0.8266  0.3347
 7298SOL     OW33526   2.839   1.615   3.823 -0.0572  0.5616  0.4336
 7298SOL    HW133527   2.760   1.606   3.770  0.1109  3.4059 -0.2859
 7298SOL    HW233528   2.896   1.543   3.794  0.8946  1.6039 -0.2716
 7299SOL     OW33529   1.456   1.779   8.748  0.0431  0.6618  0.4443
 7299SOL    HW133530   1.501   1.781   8.833 -0.6251 -0.6729  0.8433
 7299SOL    HW233531   1.375   1.732   8.770 -0.5075  1.5190  0.2485
 7300SOL     OW33532   0.297   0.761  15.250 -0.0767 -0.3796 -0.0142
 7300SOL    HW133533   0.372   0.781  15.306 -0.3998 -1.1676  0.7062
 7300SOL    HW233534   0.254   0.696  15.305 -1.7735 -0.8246 -1.8498
 7301SOL     OW33535   1.028   3.173   8.967 -0.3104 -0.3874 -0.5128
 7301SOL    HW133536   1.102   3.234   8.973 -0.8921 -0.0404  2.8839
 7301SOL    HW233537   0.975   3.198   9.042  1.2901  1.5565 -0.0574
 7302SOL     OW33538   3.634   3.684   3.070 -0.0633  0.3325 -0.0746
 7302SOL    HW133539   3.697   3.643   3.012 -1.1184  1.0649 -1.7521
 7302SOL    HW233540   3.613   3.769   3.029  1.4817  1.7835  2.1406
 7303SOL     OW33541   1.282   0.047   9.668 -0.2408  0.1273 -0.1224
 7303SOL    HW133542   1.333   0.126   9.688  0.7263 -0.3278 -0.7655
 7303SOL    HW233543   1.348   4.728   9.626  0.2992  1.4406 -1.0058
 7304SOL     OW33544   1.429   3.461   9.457 -0.3856  0.5706 -0.3996
 7304SOL    HW133545   1.449   3.382   9.406  0.0372  1.1193 -1.0868
 7304SOL    HW233546   1.460   3.529   9.397 -1.6892  2.2484  0.8486
 7305SOL     OW33547   3.266   1.464   4.626 -0.1663  0.3996  0.4576
 7305SOL    HW133548   3.241   1.385   4.673  0.5764 -0.4723 -0.6018
 7305SOL    HW233549   3.197   1.522   4.658 -0.8736 -1.7043  2.6849
 7306SOL     OW33550   3.344   3.116   2.009  0.1664  0.6035  0.3853
 7306SOL    HW133551   3.340   3.097   2.103 -1.6522 -1.5769 -0.1423
 7306SOL    HW233552   3.438   3.131   1.999  0.7206 -3.3260 -0.3499
 7307SOL     OW33553   4.153   4.242   8.297  0.0600  0.1492 -0.0120
 7307SOL    HW133554   4.106   4.184   8.356 -1.3741  0.2984 -0.9987
 7307SOL    HW233555   4.228   4.186   8.279 -0.3766 -0.6664  0.7103
 7308SOL     OW33556   1.990   1.190   2.813  0.2444  0.2965 -0.4956
 7308SOL    HW133557   2.000   1.285   2.818 -0.7484  0.3802 -0.1611
 7308SOL    HW233558   1.895   1.180   2.811  0.3900 -1.7811  2.1985
 7309SOL     OW33559   1.212   1.664   8.803 -0.8320 -0.0229  0.5628
 7309SOL    HW133560   1.142   1.613   8.763 -0.0987 -0.0369 -0.7354
 7309SOL    HW233561   1.189   1.652   8.895  0.1912 -0.3584  0.7744
 7310SOL     OW33562   4.055   2.976   3.119  0.3566 -0.5181  0.0294
 7310SOL    HW133563   4.120   3.010   3.057  0.3587 -0.7227 -0.0799
 7310SOL    HW233564   4.022   3.060   3.152 -1.8345 -2.2356  2.2623
 7311SOL     OW33565   0.374   2.274  15.572  0.5686 -0.7201  0.9628
 7311SOL    HW133566   0.379   2.182  15.545  0.4482 -0.8289  1.3201
 7311SOL    HW233567   0.343   2.315  15.491 -0.0851 -0.0734  1.5380
 7312SOL     OW33568   4.522   4.112   0.071  0.1285  0.4402  0.0999
 7312SOL    HW133569   4.561   4.198   0.090 -0.4129  0.3380  1.7368
 7312SOL    HW233570   4.542   4.112  17.722  2.6386 -0.5405  0.6469
 7313SOL     OW33571   3.188   1.841   4.854  0.2806  0.2960  0.1559
 7313SOL    HW133572   3.170   1.935   4.852  1.0271  0.4159 -1.4931
 7313SOL    HW233573   3.250   1.835   4.927 -0.4394 -1.3353  0.6283
 7314SOL     OW33574   0.935   3.726   3.828 -0.0241  0.3506 -0.0806
 7314SOL    HW133575   1.000   3.790   3.857  0.0299  0.6521 -0.8895
 7314SOL    HW233576   0.957   3.657   3.891  1.2985  0.0415 -0.8881
 7315SOL     OW33577   1.955   3.935   5.464  0.1360  0.0777 -0.4634
 7315SOL    HW133578   1.972   4.026   5.440 -0.4164  0.2019 -0.3901
 7315SOL    HW233579   1.913   3.950   5.549  0.0304 -0.2850 -0.4495
 7316SOL     OW33580   2.701   2.124   4.443  0.0616 -0.3839  0.1213
 7316SOL    HW133581   2.685   2.197   4.384 -0.9712 -0.6432  0.0729
 7316SOL    HW233582   2.647   2.146   4.519 -0.0450  0.2484 -0.1373
 7317SOL     OW33583   2.486   0.789  14.238 -0.4937  0.3426  0.1684
 7317SOL    HW133584   2.441   0.799  14.154  0.4357  1.8951 -0.1459
 7317SOL    HW233585   2.549   0.861  14.241  0.4883 -0.6051  2.4471
 7318SOL     OW33586   1.809   2.394  15.356 -0.1144  0.1606  0.1835
 7318SOL    HW133587   1.823   2.467  15.295  2.6788 -0.0668  0.5777
 7318SOL    HW233588   1.717   2.366  15.352  0.5372 -1.9029 -0.3172
 7319SOL     OW33589   0.477   3.798   5.192  0.4979 -0.2140 -0.7374
 7319SOL    HW133590   0.500   3.716   5.149  0.0939  0.0354 -1.4319
 7319SOL    HW233591   0.396   3.816   5.145  0.1547 -4.3384 -1.7420
 7320SOL     OW33592   0.291   4.227   7.652 -0.4238  0.1847  0.5812
 7320SOL    HW133593   0.375   4.217   7.697  0.6799 -0.9819 -1.7696
 7320SOL    HW233594   0.299   4.165   7.580  1.8192  1.1534 -0.0243
 7321SOL     OW33595   1.282   0.431   8.910 -0.1135  0.9000  0.1329
 7321SOL    HW133596   1.190   0.408   8.922  0.7036 -2.1736  0.6590
 7321SOL    HW233597   1.302   0.495   8.978 -0.5489  0.9675  0.1955
 7322SOL     OW33598   4.208   1.412   5.255  0.4506 -0.1160 -0.2290
 7322SOL    HW133599   4.151   1.484   5.282 -1.7103 -1.0085 -2.4302
 7322SOL    HW233600   4.282   1.425   5.315 -0.2454 -0.0294  0.6195
 7323SOL     OW33601   1.036   2.554   3.678 -0.4450 -0.4142  0.5608
 7323SOL    HW133602   1.014   2.638   3.719 -0.7883 -0.1184 -0.2287
 7323SOL    HW233603   1.130   2.550   3.698 -0.2031  0.1762 -0.4536
 7324SOL     OW33604   4.020   3.880   6.632  0.1236  0.0677 -0.0898
 7324SOL    HW133605   3.984   3.951   6.686  0.4030 -0.0075  0.1944
 7324SOL    HW233606   4.085   3.939   6.594 -0.3826  0.3942 -0.4539
 7325SOL     OW33607   2.074   4.345  16.056 -0.1539 -0.1837 -0.2102
 7325SOL    HW133608   2.053   4.416  15.995 -0.3534 -0.5515 -0.5684
 7325SOL    HW233609   2.087   4.399  16.134 -2.1907  0.5254 -0.3586
 7326SOL     OW33610   1.448   0.711   8.640  0.1714  0.1249  0.0478
 7326SOL    HW133611   1.395   0.790   8.635  1.3399  0.9374  0.8421
 7326SOL    HW233612   1.497   0.713   8.721  0.1547  0.5522  0.0477
 7327SOL     OW33613   3.672   0.235   5.504  0.5287 -0.3666  0.4124
 7327SOL    HW133614   3.726   0.201   5.576 -1.5802 -0.3985  1.9858
 7327SOL    HW233615   3.687   0.329   5.516 -1.1594 -0.1595  0.8160
 7328SOL     OW33616   4.551   1.192   3.358 -0.2620 -0.1025  0.1909
 7328SOL    HW133617   4.464   1.154   3.359 -0.9478  1.4959  1.3746
 7328SOL    HW233618   4.558   1.229   3.270 -0.0443  0.9185  0.6424
 7329SOL     OW33619   3.580   3.438   8.077 -0.3532 -0.4558  0.1855
 7329SOL    HW133620   3.669   3.458   8.106 -0.2811  2.4047 -1.9921
 7329SOL    HW233621   3.570   3.347   8.106  2.4395 -1.0905 -0.8718
 7330SOL     OW33622   3.292   0.601   2.725 -0.5001 -0.4647 -0.0357
 7330SOL    HW133623   3.377   0.609   2.681 -0.0590 -0.5477  0.8021
 7330SOL    HW233624   3.293   0.685   2.771  1.3518  0.6720 -2.1452
 7331SOL     OW33625   3.400   3.560   5.251 -0.2650  0.4556  0.1796
 7331SOL    HW133626   3.442   3.559   5.337 -2.0694 -0.0221  1.0516
 7331SOL    HW233627   3.307   3.563   5.275 -0.0467 -1.7064  1.2479
 7332SOL     OW33628   3.456   3.582   8.271 -0.4639 -0.1343  0.2589
 7332SOL    HW133629   3.485   3.519   8.205  2.1194  0.3323  0.9445
 7332SOL    HW233630   3.361   3.577   8.278 -0.5728 -0.3746 -1.4179
 7333SOL     OW33631   4.387   3.017   7.020  0.3894  0.5047  0.3610
 7333SOL    HW133632   4.343   3.082   6.965 -2.1223 -1.0761  0.4894
 7333SOL    HW233633   4.390   2.946   6.956  0.0235 -1.6392  2.7334
 7334SOL     OW33634   1.868   2.829   3.675 -0.2878  0.2791 -0.3021
 7334SOL    HW133635   1.838   2.914   3.644  1.5964  1.5119  1.2825
 7334SOL    HW233636   1.782   2.792   3.693 -0.2013 -1.2705 -2.9793
 7335SOL     OW33637   3.041   3.291  10.952 -0.2201  0.2371  0.1721
 7335SOL    HW133638   2.991   3.220  10.993 -1.9186  0.6184 -1.2557
 7335SOL    HW233639   3.065   3.230  10.883 -0.1787 -1.1008  1.3645
 7336SOL     OW33640   2.817   3.226  17.107 -0.1135 -0.1921  0.2134
 7336SOL    HW133641   2.765   3.256  17.181  0.8251  0.7176  0.5032
 7336SOL    HW233642   2.774   3.278  17.038 -2.0466 -0.0214  1.5443
 7337SOL     OW33643   0.578   0.687   4.598 -0.5465  0.0760  0.0098
 7337SOL    HW133644   0.488   0.662   4.619  0.0624 -1.2354  1.0912
 7337SOL    HW233645   0.595   0.624   4.528 -1.1527  0.2701 -0.3066
 7338SOL     OW33646   0.567   0.088   6.479  0.4920 -0.0933 -0.0908
 7338SOL    HW133647   0.559   0.037   6.399 -0.4515  1.3166 -0.8951
 7338SOL    HW233648   0.614   0.030   6.539  0.9774 -0.4044 -0.7876
 7339SOL     OW33649   1.994   2.980   5.647  1.3963 -0.0842  0.2735
 7339SOL    HW133650   1.981   3.070   5.678  1.4012 -0.1965  0.6102
 7339SOL    HW233651   2.087   2.965   5.664  1.4415 -0.3658 -0.2311
 7340SOL     OW33652   0.729   2.381   8.072  0.4798  0.0932 -0.2428
 7340SOL    HW133653   0.729   2.395   8.167  0.0524 -2.8665  0.1981
 7340SOL    HW233654   0.637   2.356   8.060 -0.0472  1.4658  0.7981
 7341SOL     OW33655   3.221   4.293   2.946  0.1710 -0.7204 -0.4952
 7341SOL    HW133656   3.231   4.277   2.852  0.2009  1.4490 -0.8743
 7341SOL    HW233657   3.260   4.213   2.981  1.5953 -0.3645 -1.2724
 7342SOL     OW33658   4.650   4.087   6.310  0.1852 -0.1779  0.2105
 7342SOL    HW133659   4.676   4.003   6.349 -0.9847 -0.5547  0.1791
 7342SOL    HW233660   4.687   4.085   6.222  0.8375 -2.3384  0.5426
 7343SOL     OW33661   1.471   4.457   6.698  0.5722 -0.1125 -0.1779
 7343SOL    HW133662   1.535   4.501   6.753 -0.2190 -0.9752  1.4457
 7343SOL    HW233663   1.522   4.458   6.617  0.9325 -0.1408  0.0481
 7344SOL     OW33664   3.387   1.314   2.213 -0.6381 -0.3668 -0.6218
 7344SOL    HW133665   3.374   1.267   2.131  0.4708 -2.0611  0.1558
 7344SOL    HW233666   3.428   1.396   2.185  1.7608 -0.1763  3.3600
 7345SOL     OW33667   2.194   2.804  16.883 -0.6958 -0.2772 -0.3915
 7345SOL    HW133668   2.144   2.785  16.804  2.9126 -0.9213 -2.4763
 7345SOL    HW233669   2.246   2.724  16.896  0.5832  0.8425  1.4567
 7346SOL     OW33670   2.330   2.928  15.542  0.0119  0.5528 -0.4248
 7346SOL    HW133671   2.356   3.016  15.517 -0.8082  0.1211 -2.8214
 7346SOL    HW233672   2.302   2.929  15.633  0.6673  2.7809 -0.2526
 7347SOL     OW33673   0.575   0.500   3.047 -0.2729  0.1947  0.0383
 7347SOL    HW133674   0.639   0.557   3.089  0.1803 -1.9233  2.2367
 7347SOL    HW233675   0.589   0.416   3.092  0.4042 -0.3420 -1.1659
 7348SOL     OW33676   2.450   3.814   0.503  0.0785 -0.2041  0.4277
 7348SOL    HW133677   2.364   3.830   0.464  0.7158  1.2897 -0.3671
 7348SOL    HW233678   2.454   3.723   0.475 -0.6185  0.8194 -3.0701
 7349SOL     OW33679   1.728   2.328   6.429  0.0292  0.4214  0.2208
 7349SOL    HW133680   1.741   2.364   6.516  0.5887  0.8067 -0.0235
 7349SOL    HW233681   1.819   2.307   6.409 -0.4570 -2.0186  0.5795
 7350SOL     OW33682   3.172   0.822  16.583 -0.4430  0.4365 -0.4089
 7350SOL    HW133683   3.253   0.869  16.565  1.1935 -3.1919 -2.5468
 7350SOL    HW233684   3.172   0.754  16.515  0.1535 -0.4076  0.4394
 7351SOL     OW33685   3.347   2.028   6.904  0.2200  0.0340  0.0738
 7351SOL    HW133686   3.404   1.967   6.950  0.1426  1.1362  1.6290
 7351SOL    HW233687   3.413   2.091   6.873  0.0768  0.9057  1.5351
 7352SOL     OW33688   3.370   3.229  11.388  0.5721 -0.0829  0.3150
 7352SOL    HW133689   3.376   3.260  11.297  0.5860 -0.0262  0.3350
 7352SOL    HW233690   3.463   3.219  11.408  0.7153  0.0613 -0.2767
 7353SOL     OW33691   0.951   1.541   1.007 -0.0677  0.5311 -0.3811
 7353SOL    HW133692   0.987   1.594   0.936  1.7360  0.6266  0.5937
 7353SOL    HW233693   0.936   1.603   1.078  0.6521 -1.1938  1.2679
 7354SOL     OW33694   3.812   3.715   1.798  0.3332  0.6777  0.7101
 7354SOL    HW133695   3.727   3.731   1.758  0.7134 -0.1111 -0.4304
 7354SOL    HW233696   3.788   3.676   1.881  1.8484  0.2012  0.9260
 7355SOL     OW33697   3.845   2.828   0.918 -0.4414 -0.1185 -0.1519
 7355SOL    HW133698   3.777   2.860   0.859  0.8441  0.3818 -1.3671
 7355SOL    HW233699   3.922   2.829   0.862 -1.3757  1.9425 -1.3764
 7356SOL     OW33700   1.476   1.944   7.507 -0.7535  0.4254 -0.0874
 7356SOL    HW133701   1.568   1.954   7.482 -0.7315 -0.6756 -0.4681
 7356SOL    HW233702   1.457   2.015   7.568 -2.8453 -2.0232  2.1048
 7357SOL     OW33703   2.231   4.596   9.240 -0.0692 -0.1566  0.0905
 7357SOL    HW133704   2.281   4.610   9.159 -1.6849 -0.1527 -0.8877
 7357SOL    HW233705   2.187   4.520   9.204 -0.7612  0.3316 -0.0977
 7358SOL     OW33706   3.201   1.593   3.140  0.6488 -0.2171 -0.4048
 7358SOL    HW133707   3.125   1.580   3.197  0.0576  1.6863 -0.7746
 7358SOL    HW233708   3.226   1.501   3.134  0.2605 -0.2165 -2.0568
 7359SOL     OW33709   4.285   3.623   5.376  0.5994 -0.2255  0.2508
 7359SOL    HW133710   4.361   3.636   5.319  0.3948 -0.7348 -0.1376
 7359SOL    HW233711   4.329   3.629   5.461  0.0700 -1.0565  0.5808
 7360SOL     OW33712   3.530   1.572  14.126  0.5043  0.3245  0.3465
 7360SOL    HW133713   3.588   1.496  14.125 -1.0581 -0.8980  1.5776
 7360SOL    HW233714   3.578   1.632  14.069  1.5179  0.9618  1.8616
 7361SOL     OW33715   1.037   1.454   8.747 -0.0473  0.1209  0.5733
 7361SOL    HW133716   1.108   1.418   8.694  0.1507  1.0269  0.2218
 7361SOL    HW233717   0.990   1.371   8.752 -0.3041  0.2700  0.6526
 7362SOL     OW33718   0.103   2.103   8.108  0.0767 -0.8744 -0.1978
 7362SOL    HW133719   0.029   2.157   8.080  0.7958 -0.5757 -1.5082
 7362SOL    HW233720   0.071   2.046   8.178 -0.6861  1.6997  1.5379
 7363SOL     OW33721   0.921   1.262   3.226 -0.0381 -0.0055  0.3925
 7363SOL    HW133722   0.838   1.275   3.273  0.4938 -0.8328  1.5465
 7363SOL    HW233723   0.889   1.280   3.137  0.6988 -0.7432 -0.0159
 7364SOL     OW33724   2.163   1.336   2.598 -0.0838 -0.2015  0.0176
 7364SOL    HW133725   2.209   1.411   2.559 -0.4094 -0.5184 -0.9901
 7364SOL    HW233726   2.080   1.377   2.625  1.4796  3.0883 -0.1592
 7365SOL     OW33727   3.210   0.058   7.380 -0.5860 -0.3567  0.8467
 7365SOL    HW133728   3.148   0.111   7.329  1.4757  0.0371 -1.2408
 7365SOL    HW233729   3.269   0.124   7.417  1.9393 -2.2541  0.2128
 7366SOL     OW33730   2.247   2.316  11.498 -0.4594  0.2524  0.0588
 7366SOL    HW133731   2.332   2.272  11.490 -1.0740 -1.3269  2.2534
 7366SOL    HW233732   2.201   2.296  11.417 -0.0921 -0.6248  0.0674
 7367SOL     OW33733   2.796   0.719   6.712 -0.5154  0.0054  0.2685
 7367SOL    HW133734   2.753   0.736   6.628 -1.3022  0.8942  0.8455
 7367SOL    HW233735   2.882   0.696   6.676 -0.1409  0.7910  0.6610
 7368SOL     OW33736   3.969   4.286   8.842 -0.4503 -0.0841  0.2936
 7368SOL    HW133737   4.034   4.224   8.874  2.8098  2.7648 -0.8274
 7368SOL    HW233738   3.914   4.231   8.786  0.7852 -2.1762  1.1196
 7369SOL     OW33739   1.941   1.480   2.366  0.0975  0.0108  0.2049
 7369SOL    HW133740   2.029   1.462   2.333 -0.0639 -1.1550  0.4123
 7369SOL    HW233741   1.969   1.504   2.455  2.3792 -3.4362  0.4378
 7370SOL     OW33742   2.519   3.960   7.620 -0.5524  0.0504 -0.3498
 7370SOL    HW133743   2.522   4.047   7.659 -0.8410 -1.0480  2.1896
 7370SOL    HW233744   2.428   3.938   7.638  0.0142 -2.0930 -0.0964
 7371SOL     OW33745   3.559   1.845   1.792 -0.2310 -0.7432 -1.2782
 7371SOL    HW133746   3.586   1.929   1.830  0.1150 -0.4006 -2.2848
 7371SOL    HW233747   3.512   1.803   1.864 -0.2273 -0.0490 -0.8726
 7372SOL     OW33748   1.062   0.031   0.278  0.0449  0.1607 -0.0358
 7372SOL    HW133749   0.985   0.011   0.225 -0.5845 -1.0545  1.3360
 7372SOL    HW233750   1.137   4.733   0.230  0.5761 -1.0052  1.6457
 7373SOL     OW33751   3.531   1.058   8.614 -0.2177  0.1825  0.3633
 7373SOL    HW133752   3.578   0.998   8.556 -0.1194 -0.6982  1.3515
 7373SOL    HW233753   3.574   1.144   8.610 -2.8502  1.3988 -1.7447
 7374SOL     OW33754   4.217   1.860   4.876  0.1689  0.1055 -0.5552
 7374SOL    HW133755   4.285   1.815   4.926 -0.6911 -0.5778 -0.0125
 7374SOL    HW233756   4.273   1.931   4.845 -0.2639  0.1311 -1.2853
 7375SOL     OW33757   3.511   2.503   3.478  0.6313 -0.3005 -0.2906
 7375SOL    HW133758   3.532   2.540   3.564 -0.1100  0.5102 -0.4529
 7375SOL    HW233759   3.497   2.411   3.497 -0.4819 -0.4317 -1.7455
 7376SOL     OW33760   4.456   0.195  10.072  0.1517 -0.0173  0.4648
 7376SOL    HW133761   4.444   0.276  10.122  1.2881  0.5136 -0.1283
 7376SOL    HW233762   4.410   0.137  10.133  0.0771 -0.6276 -0.1898
 7377SOL     OW33763   4.280   2.543   3.705  0.2572  0.5073  0.2912
 7377SOL    HW133764   4.261   2.636   3.698 -1.4829 -0.0836 -2.9456
 7377SOL    HW233765   4.297   2.524   3.612  3.2838 -0.8863  1.1082
 7378SOL     OW33766   0.879   2.547   5.293  0.0631  0.2009  0.0575
 7378SOL    HW133767   0.886   2.463   5.247 -0.0444 -0.9564  2.1859
 7378SOL    HW233768   0.831   2.601   5.231  1.1639  1.6729  0.4827
 7379SOL     OW33769   4.435   0.670   5.420 -0.2228  0.4861 -0.2860
 7379SOL    HW133770   4.447   0.625   5.504  3.7227  1.8491 -0.1164
 7379SOL    HW233771   4.452   0.759   5.450  0.5265  0.7408 -1.4818
 7380SOL     OW33772   1.483   3.191   0.733 -0.1385  0.2095  0.2449
 7380SOL    HW133773   1.420   3.247   0.777  1.5198  0.8750  1.7498
 7380SOL    HW233774   1.535   3.250   0.680  0.0876 -1.2799 -1.2094
 7381SOL     OW33775   1.630   2.419   1.093  0.6170  0.1527 -0.0009
 7381SOL    HW133776   1.589   2.342   1.053  1.3273  0.4945 -1.3979
 7381SOL    HW233777   1.556   2.478   1.106 -0.2944 -1.3911  1.8525
 7382SOL     OW33778   3.343   1.977   1.610 -0.8945 -0.2022 -0.1437
 7382SOL    HW133779   3.385   1.914   1.669  0.0158  1.3624  0.8959
 7382SOL    HW233780   3.365   2.060   1.653 -1.0585  1.6338 -3.6564
 7383SOL     OW33781   3.662   3.707   3.998 -0.3555  0.0418  0.3504
 7383SOL    HW133782   3.661   3.793   4.041  0.9466  0.6279 -0.8143
 7383SOL    HW233783   3.571   3.681   4.016 -0.7766  1.2737  0.0458
 7384SOL     OW33784   1.055   0.147   8.867 -0.8955 -0.5681  0.1161
 7384SOL    HW133785   1.060   0.149   8.772 -0.2538  0.5807  0.1794
 7384SOL    HW233786   1.067   0.239   8.891 -0.9226 -0.8677  1.3034
 7385SOL     OW33787   1.859   0.598   7.727  0.2069  1.0180 -0.1527
 7385SOL    HW133788   1.829   0.524   7.779 -1.6340  1.0519 -1.1854
 7385SOL    HW233789   1.901   0.551   7.656  2.5137  0.0313  1.8436
 7386SOL     OW33790   0.316   0.373   7.313 -0.4610 -0.3125  0.5603
 7386SOL    HW133791   0.348   0.296   7.266  0.5568 -0.1186  0.9237
 7386SOL    HW233792   0.403   0.409   7.332 -0.8244  1.0522 -0.3182
 7387SOL     OW33793   1.175   0.379  11.421  0.6530 -0.2106  0.1429
 7387SOL    HW133794   1.207   0.296  11.456 -1.6800 -1.4420 -0.6383
 7387SOL    HW233795   1.157   0.352  11.331 -0.0291  1.5218 -0.2512
 7388SOL     OW33796   4.470   4.365   8.421  0.6384 -0.1183  0.5093
 7388SOL    HW133797   4.435   4.323   8.342 -0.2696  2.8407 -0.6303
 7388SOL    HW233798   4.457   4.305   8.495 -4.1554  0.9944  0.5617
 7389SOL     OW33799   3.950   3.154  17.726 -0.2572  0.0096  0.3810
 7389SOL    HW133800   3.874   3.177  17.673  0.9972  1.8145 -0.6200
 7389SOL    HW233801   3.930   3.187   0.069  0.1262 -1.0815  0.8767
 7390SOL     OW33802   0.065   0.016   4.997  0.2020  0.2726 -0.0926
 7390SOL    HW133803   0.019   0.046   5.076  0.2675  0.2141 -0.0322
 7390SOL    HW233804   0.000   0.012   4.926  2.1538 -0.7380 -1.7921
 7391SOL     OW33805   3.489   3.084  10.016 -0.5367 -0.0056 -0.0532
 7391SOL    HW133806   3.428   3.013  10.039 -0.7890 -0.0886 -0.9753
 7391SOL    HW233807   3.511   3.119  10.102  1.3238 -0.6007 -0.2932
 7392SOL     OW33808   2.590   3.280   5.367 -0.3063 -0.0309 -0.0277
 7392SOL    HW133809   2.576   3.325   5.284 -1.1503  0.1755  0.2187
 7392SOL    HW233810   2.564   3.197   5.328 -1.7801  0.8218 -0.8697
 7393SOL     OW33811   1.979   1.109   4.404 -0.2003  0.1330 -0.3507
 7393SOL    HW133812   1.891   1.140   4.382  0.8465  2.6412 -0.9458
 7393SOL    HW233813   2.016   1.115   4.316 -0.5587  2.3776 -0.3404
 7394SOL     OW33814   1.057   0.415   4.907 -0.0415  0.2992 -0.0054
 7394SOL    HW133815   1.105   0.486   4.864  1.1519  0.0120  0.8341
 7394SOL    HW233816   1.065   0.332   4.860 -0.1262  0.1883  0.1761
 7395SOL     OW33817   1.817   1.302  17.142 -0.6021 -0.2162  0.0841
 7395SOL    HW133818   1.895   1.343  17.180 -0.5225 -0.5123  0.2383
 7395SOL    HW233819   1.845   1.285  17.052 -0.8412  1.6153 -0.3452
 7396SOL     OW33820   3.403   2.219   2.472 -0.0765 -0.1792  0.1392
 7396SOL    HW133821   3.339   2.152   2.445 -1.3053 -0.0365  2.7296
 7396SOL    HW233822   3.415   2.200   2.565 -2.8141 -0.7428  0.3678
 7397SOL     OW33823   1.299   4.456   2.239 -0.0800  0.1398  0.1125
 7397SOL    HW133824   1.216   4.497   2.261 -0.7110 -1.6949  1.1470
 7397SOL    HW233825   1.366   4.524   2.251  3.1732 -2.7052 -1.9895
 7398SOL     OW33826   1.951   0.857   4.514 -0.1788 -0.1107 -0.2649
 7398SOL    HW133827   1.886   0.910   4.559 -0.8407 -1.4062  0.2782
 7398SOL    HW233828   1.973   0.928   4.453  1.8509  0.3215  0.9821
 7399SOL     OW33829   4.724   2.610   4.773 -0.2942 -0.0733 -0.4947
 7399SOL    HW133830   0.026   2.622   4.686  1.8416  0.8212  0.5727
 7399SOL    HW233831   4.632   2.595   4.749  0.0019 -0.7044 -1.2303
 7400SOL     OW33832   3.680   2.896   2.863 -0.1889  0.3030 -0.3493
 7400SOL    HW133833   3.743   2.864   2.927  0.3430  2.0400 -0.0160
 7400SOL    HW233834   3.697   2.990   2.857  1.4778  0.0684  0.9128
 7401SOL     OW33835   4.003   1.566   4.769  0.1460 -0.2505  0.0560
 7401SOL    HW133836   4.063   1.493   4.779  0.4070  0.0521  0.7179
 7401SOL    HW233837   4.048   1.631   4.823  1.3295  0.1244 -1.3744
 7402SOL     OW33838   0.203   0.916  17.135  0.2443  0.3261 -0.1157
 7402SOL    HW133839   0.277   0.903  17.076 -0.1303 -0.2800 -0.4510
 7402SOL    HW233840   0.162   0.990  17.091 -2.4544  0.1018  2.0214
 7403SOL     OW33841   1.083   0.840   6.460 -0.7425  0.5199  0.4413
 7403SOL    HW133842   1.093   0.881   6.546 -0.7967 -0.0479  0.7131
 7403SOL    HW233843   1.150   0.773   6.448 -1.7021 -0.2797 -0.3399
 7404SOL     OW33844   1.309   2.609  16.381 -0.3864  0.5634  0.0746
 7404SOL    HW133845   1.384   2.553  16.396 -0.6933  0.4430  1.2172
 7404SOL    HW233846   1.250   2.570  16.445  0.5684 -0.1560  0.5002
 7405SOL     OW33847   4.484   0.399   7.298 -0.0124  0.6990  0.2543
 7405SOL    HW133848   4.566   0.368   7.261 -1.2278 -2.9990  0.6316
 7405SOL    HW233849   4.425   0.353   7.238 -1.5334 -0.4227  2.6032
 7406SOL     OW33850   4.610   2.317   3.242 -0.0956  0.4533 -0.3482
 7406SOL    HW133851   4.670   2.264   3.295 -1.7057  0.6378  1.6398
 7406SOL    HW233852   4.657   2.308   3.159  0.1451  0.1817 -0.1814
 7407SOL     OW33853   3.366   0.360   8.919 -0.3578 -0.0916  0.2781
 7407SOL    HW133854   3.442   0.305   8.940  1.5280  1.6540 -2.0226
 7407SOL    HW233855   3.309   0.294   8.880  1.1418 -0.4607 -1.2872
 7408SOL     OW33856   2.099   4.542   1.577 -0.7253 -0.6964 -0.1493
 7408SOL    HW133857   2.037   4.613   1.562 -0.3278 -0.6816 -1.6941
 7408SOL    HW233858   2.076   4.486   1.503 -1.4362  1.5873 -1.6313
 7409SOL     OW33859   2.616   2.568  15.544  0.1813  0.2806 -0.5327
 7409SOL    HW133860   2.629   2.557  15.449  2.1900 -0.1820 -0.2023
 7409SOL    HW233861   2.537   2.621  15.529 -0.0437 -0.0056 -0.3714
 7410SOL     OW33862   1.025   1.339   1.527 -0.5963  0.0251  0.1393
 7410SOL    HW133863   0.957   1.272   1.523  1.7960 -2.2902 -2.2536
 7410SOL    HW233864   0.985   1.412   1.479  0.3691  0.4276 -0.0609
 7411SOL     OW33865   1.688   1.975   3.760  0.4095  0.3068  0.6298
 7411SOL    HW133866   1.780   1.957   3.780  0.5855 -0.3627 -0.8035
 7411SOL    HW233867   1.670   1.914   3.688 -0.0216  1.2988 -0.0999
 7412SOL     OW33868   1.635   2.623   3.454  0.0351  0.3122  0.1034
 7412SOL    HW133869   1.554   2.573   3.456  0.3924 -0.2326  0.7951
 7412SOL    HW233870   1.604   2.705   3.493  1.9800  0.6026  1.0413
 7413SOL     OW33871   1.806   0.082   4.322  0.2787 -0.5124 -0.2875
 7413SOL    HW133872   1.890   0.054   4.357  0.8166  0.7553 -0.5840
 7413SOL    HW233873   1.798   0.024   4.246 -0.6382 -1.1365  0.2800
 7414SOL     OW33874   3.805   1.666   4.192  0.2900  0.3503 -0.2263
 7414SOL    HW133875   3.773   1.746   4.233  1.6687 -1.6100  4.6108
 7414SOL    HW233876   3.736   1.642   4.130  1.3210 -0.0517 -1.2272
 7415SOL     OW33877   1.709   2.467  16.679 -0.1432  0.5100 -0.1297
 7415SOL    HW133878   1.626   2.514  16.672  0.4273  1.5309 -0.1466
 7415SOL    HW233879   1.695   2.403  16.748 -1.8064  1.3172  0.2789
 7416SOL     OW33880   0.249   1.289   2.950 -0.2729 -0.0503  0.3166
 7416SOL    HW133881   0.239   1.362   3.011  0.5456  0.1603  0.1936
 7416SOL    HW233882   0.240   1.337   2.868  0.8479 -0.6579 -0.1694
 7417SOL     OW33883   1.664   2.054  12.730  0.1008 -0.0506 -0.0821
 7417SOL    HW133884   1.591   2.112  12.706 -0.2422 -0.3456  0.2550
 7417SOL    HW233885   1.688   2.083  12.818  0.7349 -1.8307  0.3327
 7418SOL     OW33886   2.683   4.123   9.342 -0.2284 -0.4044 -0.0908
 7418SOL    HW133887   2.741   4.069   9.288  0.7823  0.6056 -0.0006
 7418SOL    HW233888   2.605   4.067   9.344 -0.9064  0.4669 -1.9941
 7419SOL     OW33889   2.086   3.154   4.161 -0.3565 -0.5634  0.0410
 7419SOL    HW133890   2.141   3.221   4.120  0.4864 -0.5085  1.2871
 7419SOL    HW233891   2.070   3.202   4.242  0.0625 -0.0897 -0.1571
 7420SOL     OW33892   3.975   2.870  13.712 -0.0916 -0.3165  0.2340
 7420SOL    HW133893   3.890   2.827  13.707 -0.1799 -0.2033  0.7746
 7420SOL    HW233894   3.969   2.915  13.628  0.8108 -0.4283  0.1091
 7421SOL     OW33895   1.726   3.061   8.798 -0.0230 -0.1247  0.1675
 7421SOL    HW133896   1.691   2.979   8.762 -0.0907  0.0629 -0.1919
 7421SOL    HW233897   1.769   3.028   8.877  0.5600  1.3601  0.4703
 7422SOL     OW33898   3.580   1.285   6.961 -0.1007  0.3697  0.4443
 7422SOL    HW133899   3.671   1.309   6.982  0.6146 -1.0467 -1.0042
 7422SOL    HW233900   3.601   1.221   6.893 -1.6917 -2.0214  2.2177
 7423SOL     OW33901   1.565   0.562  10.273 -0.0812 -0.3609 -0.6718
 7423SOL    HW133902   1.493   0.539  10.332  0.0838 -0.9669 -0.7048
 7423SOL    HW233903   1.522   0.639  10.236  0.7869 -0.1436 -1.2364
 7424SOL     OW33904   1.979   1.237   7.140 -0.4439  0.4285  0.1208
 7424SOL    HW133905   1.894   1.277   7.121 -0.4117  1.8043  2.9300
 7424SOL    HW233906   1.985   1.181   7.063 -0.7544 -0.2253  0.5764
 7425SOL     OW33907   2.370   2.267   8.719  0.2300 -0.0512 -0.1360
 7425SOL    HW133908   2.424   2.268   8.641  1.2428  0.5188  0.5747
 7425SOL    HW233909   2.415   2.204   8.775  1.2000  0.0352 -0.8223
 7426SOL     OW33910   0.566   2.372   6.855 -0.7214  0.0429  0.4045
 7426SOL    HW133911   0.596   2.281   6.851 -0.5750  0.0816  0.5819
 7426SOL    HW233912   0.540   2.383   6.764  0.5903 -0.3716 -0.0323
 7427SOL     OW33913   2.623   1.653  13.491 -0.3109  0.2942 -0.0939
 7427SOL    HW133914   2.545   1.677  13.440  0.4119  3.8297  0.4349
 7427SOL    HW233915   2.594   1.672  13.580 -2.3444 -0.7833 -0.5372
 7428SOL     OW33916   2.415   4.252   6.640  0.2842  0.0422  0.0948
 7428SOL    HW133917   2.431   4.241   6.546 -1.9846  0.2203 -0.3114
 7428SOL    HW233918   2.471   4.183   6.676 -0.7074 -0.7614  0.1018
 7429SOL     OW33919   0.310   0.182   9.031 -0.5545 -0.0824 -1.3436
 7429SOL    HW133920   0.309   0.088   9.050  3.5568  0.2678  0.5128
 7429SOL    HW233921   0.222   0.204   9.000 -0.5581  1.6263 -0.0761
 7430SOL     OW33922   3.280   2.778  14.089  0.0395 -0.0684  0.0553
 7430SOL    HW133923   3.333   2.797  14.166  0.2722 -2.4294  0.5048
 7430SOL    HW233924   3.249   2.687  14.101  1.8563 -0.7923 -0.8210
 7431SOL     OW33925   1.462   1.671   2.066 -0.3616  0.8455  0.2938
 7431SOL    HW133926   1.403   1.597   2.055  0.9986 -0.5555  2.4287
 7431SOL    HW233927   1.454   1.683   2.161  0.2178  0.7117  0.3584
 7432SOL     OW33928   3.462   3.090  17.514 -0.0683 -0.0510 -0.4931
 7432SOL    HW133929   3.512   3.067  17.593 -0.9119 -0.6121 -0.1129
 7432SOL    HW233930   3.379   3.046  17.534 -0.6688  0.6821 -1.4103
 7433SOL     OW33931   1.310   1.188   4.705 -0.3749 -0.4632  0.0709
 7433SOL    HW133932   1.359   1.106   4.712 -1.3225 -0.9891  0.5077
 7433SOL    HW233933   1.254   1.160   4.633 -1.5540 -1.0741  1.2496
 7434SOL     OW33934   0.423   2.563  17.080 -0.3167  0.5967  0.3995
 7434SOL    HW133935   0.445   2.653  17.055  0.7673  0.2872  0.2071
 7434SOL    HW233936   0.331   2.578  17.098 -0.4307 -1.9154  1.7568
 7435SOL     OW33937   4.164   1.782   8.326 -0.1192  0.3567 -0.1118
 7435SOL    HW133938   4.122   1.706   8.286 -1.5622  0.7880  0.6032
 7435SOL    HW233939   4.089   1.825   8.365 -2.7670 -2.0231 -2.5939
 7436SOL     OW33940   0.066   3.812   2.145 -0.2270 -0.2420 -0.1022
 7436SOL    HW133941   0.102   3.838   2.060 -3.5631  0.6032 -1.2644
 7436SOL    HW233942   4.729   3.762   2.111 -1.0874  0.5802  0.5556
 7437SOL     OW33943   0.407   1.390   9.911 -0.3866  0.0104 -0.3466
 7437SOL    HW133944   0.319   1.353   9.899 -0.7028  0.5283  0.3485
 7437SOL    HW233945   0.439   1.324   9.972  1.5895 -0.2429 -1.6807
 7438SOL     OW33946   2.313   0.103   4.036 -0.6171  0.3700 -0.5926
 7438SOL    HW133947   2.218   0.089   4.032 -0.4923 -0.1559 -1.8189
 7438SOL    HW233948   2.320   0.198   4.044  3.4974  0.1128 -1.4954
 7439SOL     OW33949   2.389   1.725   3.575  0.2426 -0.0011  0.4232
 7439SOL    HW133950   2.350   1.711   3.661 -1.3256 -0.5174 -0.3808
 7439SOL    HW233951   2.348   1.650   3.531 -0.8182  1.2784 -0.7797
 7440SOL     OW33952   1.735   3.426   4.967 -0.4581 -0.2492 -0.0075
 7440SOL    HW133953   1.793   3.500   4.948 -0.2287 -0.4955 -0.2751
 7440SOL    HW233954   1.751   3.361   4.898  3.5286  0.8453 -0.1115
 7441SOL     OW33955   1.194   2.030  11.490  0.0812 -0.4855  0.1251
 7441SOL    HW133956   1.193   1.944  11.531 -3.3705 -0.5397 -0.0710
 7441SOL    HW233957   1.218   2.004  11.400 -1.4088 -1.1097 -0.0873
 7442SOL     OW33958   3.771   3.621  15.853 -0.4079  0.2559  0.9019
 7442SOL    HW133959   3.751   3.698  15.800 -1.6323  0.6826  1.9876
 7442SOL    HW233960   3.866   3.620  15.839 -0.7361 -2.0878 -1.1822
 7443SOL     OW33961   3.332   0.553   4.519 -0.4133  0.1120  0.4751
 7443SOL    HW133962   3.350   0.636   4.475  0.4596 -0.5966 -0.5067
 7443SOL    HW233963   3.290   0.507   4.447 -1.2273  0.9455  0.4258
 7444SOL     OW33964   0.124   1.528   5.009 -0.5223  0.2579 -0.4189
 7444SOL    HW133965   0.175   1.462   5.057 -3.2573  0.0358  2.1604
 7444SOL    HW233966   0.048   1.536   5.067  0.0838  0.6029  0.3209
 7445SOL     OW33967   4.459   2.481   8.542  0.2038  0.1683 -0.3882
 7445SOL    HW133968   4.481   2.417   8.609  2.0886  0.5057 -0.6936
 7445SOL    HW233969   4.434   2.434   8.462 -1.6084  0.4520 -0.0068
 7446SOL     OW33970   3.650   0.056   5.821  0.1444  0.2087  0.8363
 7446SOL    HW133971   3.577   0.113   5.797  0.1889  0.0979  0.4277
 7446SOL    HW233972   3.635   4.707   5.780 -0.2935 -0.3510  2.1761
 7447SOL     OW33973   1.955   0.830   7.306  0.0105 -0.2371 -0.0190
 7447SOL    HW133974   2.044   0.802   7.284  0.5035  1.0078  0.3650
 7447SOL    HW233975   1.919   0.837   7.217  1.2522  0.7812 -0.4558
 7448SOL     OW33976   4.594   2.584  10.267 -0.3520 -0.1325  0.2633
 7448SOL    HW133977   4.588   2.501  10.313  2.2959  0.0237  0.8814
 7448SOL    HW233978   4.597   2.641  10.344  0.6590 -1.1799  1.0013
 7449SOL     OW33979   1.799   4.143  10.210 -0.2000 -0.0449  0.2762
 7449SOL    HW133980   1.740   4.067  10.211  0.6228 -0.6917 -0.1372
 7449SOL    HW233981   1.888   4.112  10.226 -1.0506 -2.6946 -0.1620
 7450SOL     OW33982   4.566   2.705  10.518 -0.1300  0.6429  0.1761
 7450SOL    HW133983   4.489   2.725  10.572 -1.4518  1.7166 -2.0979
 7450SOL    HW233984   4.637   2.708  10.582 -0.0895 -0.3143  0.1769
 7451SOL     OW33985   1.669   3.530  12.720  0.0944  0.0352 -0.6909
 7451SOL    HW133986   1.752   3.557  12.682  1.2486 -1.0320  1.0913
 7451SOL    HW233987   1.681   3.546  12.814 -1.2539 -0.3153 -0.4585
 7452SOL     OW33988   2.702   3.587   2.521  0.0922 -0.0041 -0.7487
 7452SOL    HW133989   2.663   3.530   2.454  1.3927 -1.3610 -0.3411
 7452SOL    HW233990   2.631   3.650   2.540 -1.1325 -1.3750 -0.7930
 7453SOL     OW33991   1.692   2.413   8.204 -0.1412  0.0688  0.1598
 7453SOL    HW133992   1.717   2.407   8.112 -0.4279  0.7314  0.0470
 7453SOL    HW233993   1.776   2.431   8.247 -0.4936  0.0603  0.8468
 7454SOL     OW33994   4.584   1.045   9.283  0.0625  0.5612 -0.5768
 7454SOL    HW133995   4.560   0.953   9.272 -1.6911  0.6552  2.5159
 7454SOL    HW233996   4.661   1.040   9.339  0.4795 -1.5574 -1.3205
 7455SOL     OW33997   2.843   4.433   4.627  0.0304 -0.1903  0.1587
 7455SOL    HW133998   2.904   4.485   4.679 -0.6987  1.3085 -0.4975
 7455SOL    HW233999   2.822   4.501   4.564  0.9493  1.3384  1.5052
 7456SOL     OW34000   2.912   0.114   5.470 -0.3243  0.1606 -0.1249
 7456SOL    HW134001   2.867   0.079   5.547 -1.0864 -1.3204 -1.2322
 7456SOL    HW234002   2.972   0.043   5.448 -1.7494 -1.2919  0.6832
 7457SOL     OW34003   3.429   3.251  14.574 -0.3922 -0.5899 -0.1436
 7457SOL    HW134004   3.378   3.251  14.493  0.7886  0.4694 -0.8840
 7457SOL    HW234005   3.377   3.316  14.622  0.4325 -0.5908  0.7496
 7458SOL     OW34006   4.382   2.776   5.697 -0.3332 -0.6621 -0.3617
 7458SOL    HW134007   4.396   2.822   5.780 -2.2350 -3.2592  1.4300
 7458SOL    HW234008   4.467   2.733   5.687  0.3434  0.5465  0.2073
 7459SOL     OW34009   2.192   3.165   0.856 -0.1655 -0.4636  0.3037
 7459SOL    HW134010   2.128   3.113   0.808  2.1824 -1.4345 -1.7499
 7459SOL    HW234011   2.258   3.100   0.879  1.1868  0.6857 -0.3477
 7460SOL     OW34012   2.903   2.602   2.116 -0.2737  0.0934  0.2552
 7460SOL    HW134013   2.984   2.608   2.066 -0.0555  0.5660  0.6740
 7460SOL    HW234014   2.835   2.590   2.049 -0.3032 -2.0969  0.6739
 7461SOL     OW34015   4.676   3.073   1.745 -0.3689 -0.0251  0.6106
 7461SOL    HW134016   0.000   3.140   1.775  0.9876 -0.7220 -0.5382
 7461SOL    HW234017   4.644   3.110   1.662  0.1952 -1.3474 -0.1993
 7462SOL     OW34018   4.513   1.186   6.065  0.5048  0.4156 -0.5262
 7462SOL    HW134019   4.521   1.207   6.158 -2.3623  0.8336 -0.3585
 7462SOL    HW234020   4.519   1.093   6.086 -0.5974  0.4012 -0.2741
 7463SOL     OW34021   1.770   4.561   6.198 -0.0943  0.3361  0.0358
 7463SOL    HW134022   1.683   4.565   6.159 -1.3156  2.9751  2.9516
 7463SOL    HW234023   1.781   4.636   6.257  0.6205 -1.6301  2.4079
 7464SOL     OW34024   0.281   2.369   8.380  0.3360 -1.0653  0.4212
 7464SOL    HW134025   0.370   2.337   8.393  0.2727 -2.4271 -2.4274
 7464SOL    HW234026   0.269   2.326   8.296 -3.1376  1.4981 -0.4239
 7465SOL     OW34027   0.221   3.620   6.522 -0.2776 -0.0658 -0.0170
 7465SOL    HW134028   0.194   3.706   6.554  0.0639  0.3231 -0.7631
 7465SOL    HW234029   0.242   3.565   6.597  1.0820  2.1018  1.1960
 7466SOL     OW34030   1.394   2.645  17.623  0.2749  0.4548  0.4613
 7466SOL    HW134031   1.412   2.658  17.716  1.5875 -3.2370  0.7204
 7466SOL    HW234032   1.404   2.551  17.612  4.4305  1.3112 -3.3316
 7467SOL     OW34033   2.453   0.084   6.780  0.0275  0.0078  1.7260
 7467SOL    HW134034   2.523   0.069   6.843  1.1309 -1.9537  0.0387
 7467SOL    HW234035   2.371   0.050   6.815 -0.0616 -2.6193 -1.0136
 7468SOL     OW34036   1.107   3.595   3.633  0.2705 -0.0887  0.4700
 7468SOL    HW134037   1.040   3.640   3.686  1.1156  0.5275  1.0117
 7468SOL    HW234038   1.124   3.667   3.572 -0.8924 -0.0313  0.2117
 7469SOL     OW34039   0.252   0.142   2.605 -0.0159  0.9343  0.6290
 7469SOL    HW134040   0.342   0.160   2.633  1.0220  1.0316 -2.7969
 7469SOL    HW234041   0.252   0.053   2.570  1.9722  0.9841  0.4942
 7470SOL     OW34042   3.755   2.072   2.497  0.4061  0.0822 -0.4652
 7470SOL    HW134043   3.715   2.160   2.496  2.6268  1.0832 -0.4204
 7470SOL    HW234044   3.680   2.027   2.537  0.5017 -0.2490 -0.6614
 7471SOL     OW34045   0.898   4.213  10.849 -0.4074 -0.1172  0.2851
 7471SOL    HW134046   0.890   4.173  10.763  0.0945 -2.7320  1.4361
 7471SOL    HW234047   0.808   4.239  10.868 -0.8550 -1.4595 -0.0262
 7472SOL     OW34048   3.509   1.798   9.280  0.3467  0.2580  0.4110
 7472SOL    HW134049   3.471   1.879   9.313  0.0635 -0.3904  1.6824
 7472SOL    HW234050   3.504   1.804   9.184  0.4967  3.0985  0.5944
 7473SOL     OW34051   2.483   0.009   4.220  0.5465 -0.0697 -0.1133
 7473SOL    HW134052   2.427   0.028   4.145  1.0980 -0.7830 -0.7131
 7473SOL    HW234053   2.553   0.069   4.196  1.1413 -0.5639  0.4055
 7474SOL     OW34054   0.937   0.103   7.782  0.7875  0.5721 -0.1428
 7474SOL    HW134055   0.962   0.189   7.814  0.7575  1.5581 -2.7194
 7474SOL    HW234056   0.930   0.117   7.687 -1.7119 -1.7718 -0.3130
 7475SOL     OW34057   1.131   3.555   5.150  0.2449  0.2636 -0.4043
 7475SOL    HW134058   1.069   3.489   5.180 -0.8473  1.8805  0.9129
 7475SOL    HW234059   1.189   3.556   5.226 -0.9176 -1.3323  0.5060
 7476SOL     OW34060   4.247   3.724   5.850 -0.4010  0.0888  0.1061
 7476SOL    HW134061   4.263   3.800   5.795  2.3527 -0.5561  0.0410
 7476SOL    HW234062   4.153   3.715   5.830 -0.1666 -0.1240 -0.9114
 7477SOL     OW34063   2.125   0.971   5.330  0.2669  0.0501  0.2713
 7477SOL    HW134064   2.147   1.061   5.305  1.4809 -0.5212 -0.7405
 7477SOL    HW234065   2.210   0.929   5.320  0.3869  0.1690  0.7672
 7478SOL     OW34066   0.257   0.387   8.402 -0.1443  1.0120 -0.6045
 7478SOL    HW134067   0.219   0.402   8.489 -0.7040 -1.3865 -0.4378
 7478SOL    HW234068   0.273   0.294   8.415  2.2479  1.3563 -1.0928
 7479SOL     OW34069   1.878   3.480   6.776 -0.2383  0.4869  0.1595
 7479SOL    HW134070   1.853   3.429   6.853 -0.4059 -2.5930 -1.9027
 7479SOL    HW234071   1.965   3.441   6.768 -0.1477  0.7794 -0.2786
 7480SOL     OW34072   3.529   1.091  16.545 -0.3963 -0.2709  0.3233
 7480SOL    HW134073   3.450   1.128  16.506  0.9647  3.6410  1.3152
 7480SOL    HW234074   3.530   0.999  16.518  1.3778  0.6321 -2.6899
 7481SOL     OW34075   1.191   1.248   6.309  0.2536  0.1904 -0.3815
 7481SOL    HW134076   1.202   1.234   6.403 -4.3264 -1.1081 -0.0811
 7481SOL    HW234077   1.185   1.160   6.272 -0.5345  0.1729 -0.2003
 7482SOL     OW34078   3.554   3.290  12.033  0.3898 -0.1267 -0.1887
 7482SOL    HW134079   3.483   3.353  12.041 -1.1357 -1.9740  0.7355
 7482SOL    HW234080   3.618   3.314  12.100  0.8296  0.6394 -0.8981
 7483SOL     OW34081   2.295   3.130  11.424 -0.0537 -0.7836 -0.1885
 7483SOL    HW134082   2.379   3.110  11.464 -0.3289 -2.7850 -0.5760
 7483SOL    HW234083   2.266   3.052  11.376  0.1530  0.5787 -2.5567
 7484SOL     OW34084   0.300   4.067   8.495  0.0785  0.1760  0.2017
 7484SOL    HW134085   0.242   3.991   8.487 -1.0311  1.0544 -0.1989
 7484SOL    HW234086   0.373   4.049   8.436  0.7000 -2.0192  1.6522
 7485SOL     OW34087   4.016   1.737   6.171  0.3111 -0.4165  0.1606
 7485SOL    HW134088   3.921   1.745   6.161  0.4585  0.2713 -0.7634
 7485SOL    HW234089   4.024   1.730   6.266  0.1160  0.6517  0.2566
 7486SOL     OW34090   2.835   1.536  12.106  0.3557 -0.1406 -0.1251
 7486SOL    HW134091   2.767   1.596  12.073  2.0694  0.7174 -2.1114
 7486SOL    HW234092   2.775   1.478  12.152  1.7137 -0.5158  1.1746
 7487SOL     OW34093   0.605   2.943   5.428 -0.4923  0.2175  0.3141
 7487SOL    HW134094   0.674   2.929   5.492  3.3706 -1.6318 -4.2817
 7487SOL    HW234095   0.555   2.862   5.443 -2.9919  1.7308  0.2146
 7488SOL     OW34096   4.722   3.346   1.097  0.4063 -0.0139 -0.1745
 7488SOL    HW134097   4.652   3.373   1.036  2.0669  2.1788 -1.1203
 7488SOL    HW234098   4.701   3.399   1.174  1.3243  2.8913 -1.9015
 7489SOL     OW34099   4.510   0.317   5.081  0.3872 -0.3595 -0.0278
 7489SOL    HW134100   4.460   0.302   5.001 -1.1021 -1.5946  1.1484
 7489SOL    HW234101   4.449   0.371   5.131  0.3829 -0.7212  0.3549
 7490SOL     OW34102   2.575   0.775   1.384 -0.0561 -0.4585  0.2022
 7490SOL    HW134103   2.483   0.768   1.358 -0.1917 -0.3003  0.6320
 7490SOL    HW234104   2.621   0.810   1.307 -3.0979 -0.1169 -1.4580
 7491SOL     OW34105   2.104   2.476  11.665  0.0622 -0.1249 -0.1879
 7491SOL    HW134106   2.161   2.433  11.601  0.4631 -1.5733  1.1439
 7491SOL    HW234107   2.031   2.415  11.678 -0.0144  0.1579  0.7293
 7492SOL     OW34108   4.053   4.458   8.124 -0.0036 -0.4140  0.5345
 7492SOL    HW134109   4.132   4.507   8.105 -0.3053 -0.0851  0.1295
 7492SOL    HW234110   4.087   4.419   8.204 -0.6237 -0.0006  1.0005
 7493SOL     OW34111   0.271   2.248   8.756  0.3184 -0.3219 -0.3101
 7493SOL    HW134112   0.321   2.327   8.774  0.1246 -0.6533  1.6976
 7493SOL    HW234113   0.225   2.222   8.836 -0.5895 -1.2948 -1.1335
 7494SOL     OW34114   2.719   0.541  15.602  0.4763  0.3059  0.1601
 7494SOL    HW134115   2.761   0.596  15.536 -1.3094  0.4219 -0.8837
 7494SOL    HW234116   2.676   0.472  15.551 -0.1117  1.1117 -0.4378
 7495SOL     OW34117   3.573   2.740   8.059 -0.1170 -0.0633  0.0091
 7495SOL    HW134118   3.545   2.706   7.975  1.9478 -0.8021 -0.3697
 7495SOL    HW234119   3.555   2.671   8.123  3.6082 -0.3456  0.7567
 7496SOL     OW34120   0.581   3.708   7.455 -0.5082  0.1627  0.3962
 7496SOL    HW134121   0.656   3.750   7.413  0.6606 -0.4093  1.9449
 7496SOL    HW234122   0.556   3.778   7.516  0.6115 -0.1136  1.1522
 7497SOL     OW34123   3.967   0.745  17.030 -0.4608  0.1084  0.3858
 7497SOL    HW134124   4.012   0.677  17.079 -3.8161 -3.0771 -1.0005
 7497SOL    HW234125   3.918   0.787  17.100 -1.5700  2.7258 -1.9379
 7498SOL     OW34126   3.984   3.056   6.615 -0.1520 -0.1169  0.0618
 7498SOL    HW134127   3.989   3.111   6.693 -4.0450 -0.8772  0.8334
 7498SOL    HW234128   3.985   2.967   6.651 -1.1206  0.5240  1.6753
 7499SOL     OW34129   2.269   0.262   5.775  0.1187 -0.2110  0.9560
 7499SOL    HW134130   2.362   0.256   5.751 -0.0724  2.4792 -0.3935
 7499SOL    HW234131   2.274   0.287   5.867  0.3757  1.8328  0.3879
 7500SOL     OW34132   0.006   0.531  12.998 -0.1029 -0.3384  0.0211
 7500SOL    HW134133   0.081   0.584  13.028  1.0762 -1.8669 -0.2338
 7500SOL    HW234134   4.718   0.577  12.917  0.2153 -2.5610 -1.3566
 7501SOL     OW34135   0.160   2.192   8.985 -0.0390 -0.2924  0.4325
 7501SOL    HW134136   0.129   2.268   9.033  1.5392 -1.3544  3.1935
 7501SOL    HW234137   0.088   2.130   8.999  0.5621 -1.0478  0.2390
 7502SOL     OW34138   4.322   1.517   7.683  0.1402  0.2075  0.2805
 7502SOL    HW134139   4.260   1.588   7.697 -0.1950 -0.1838  0.7554
 7502SOL    HW234140   4.277   1.469   7.613  2.4361 -0.9138 -0.4705
 7503SOL     OW34141   1.594   3.823   2.536  0.3296 -0.1340  0.0836
 7503SOL    HW134142   1.544   3.750   2.571  0.1041  0.5232  1.1244
 7503SOL    HW234143   1.536   3.898   2.526  0.6134 -0.0177 -0.6977
 7504SOL     OW34144   1.004   2.794   3.819 -0.0508  0.3164  0.0730
 7504SOL    HW134145   1.046   2.851   3.884 -1.7390  1.3322  0.2823
 7504SOL    HW234146   0.910   2.794   3.836  0.2619  2.6318  1.8365
 7505SOL     OW34147   2.232   3.149  14.074  0.5615 -0.5302  0.6244
 7505SOL    HW134148   2.263   3.151  13.983 -1.6689 -1.3338 -0.1569
 7505SOL    HW234149   2.207   3.056  14.073  0.5999 -0.5098 -1.4816
 7506SOL     OW34150   4.038   3.425   7.340  0.2282 -0.1600  0.2367
 7506SOL    HW134151   3.988   3.490   7.390 -2.7301 -3.6544  1.8018
 7506SOL    HW234152   4.120   3.425   7.389 -0.1674 -1.1020  0.9153
 7507SOL     OW34153   1.557   1.343   7.004 -0.1219 -0.3988  0.2936
 7507SOL    HW134154   1.508   1.288   7.065 -2.6152 -0.7038 -1.9890
 7507SOL    HW234155   1.586   1.282   6.937  0.6028 -1.1168  1.2581
 7508SOL     OW34156   0.777   3.687   8.005 -0.0270  0.4693 -0.3723
 7508SOL    HW134157   0.755   3.761   7.949  1.7563  1.7614  0.6462
 7508SOL    HW234158   0.842   3.734   8.057 -0.0336 -2.1893  2.0103
 7509SOL     OW34159   2.370   0.205   6.299 -0.4468  0.0221 -0.1533
 7509SOL    HW134160   2.334   0.182   6.385  0.8132  2.8939  1.1436
 7509SOL    HW234161   2.287   0.193   6.253  0.1001  0.9405 -1.3771
 7510SOL     OW34162   4.487   2.208  15.191  0.5634  0.6081 -0.1996
 7510SOL    HW134163   4.460   2.297  15.211  0.8938  0.3555  1.3202
 7510SOL    HW234164   4.451   2.163  15.267  0.2664 -0.0355 -0.7172
 7511SOL     OW34165   1.311   3.683  16.351 -0.0087 -0.0874  0.0467
 7511SOL    HW134166   1.281   3.620  16.286 -0.1892  0.5023 -0.4488
 7511SOL    HW234167   1.360   3.746  16.297 -0.6388 -0.3529 -0.8378
 7512SOL     OW34168   0.087   4.172   6.957  0.0181 -0.0263  0.0880
 7512SOL    HW134169   0.134   4.238   7.008  0.2948 -1.1106  1.2040
 7512SOL    HW234170   0.148   4.099   6.961  0.9474  0.6045 -2.4113
 7513SOL     OW34171   3.072   0.612   2.581 -0.1988 -0.1161  0.5079
 7513SOL    HW134172   3.026   0.689   2.615 -0.5911  0.2325 -0.8446
 7513SOL    HW234173   3.155   0.603   2.627  0.0596  2.7704  0.6075
 7514SOL     OW34174   0.297   3.570   4.464 -0.5567  0.2624  0.3452
 7514SOL    HW134175   0.284   3.479   4.436 -1.3882  0.4334  0.1729
 7514SOL    HW234176   0.217   3.612   4.432  0.8049  0.6627 -2.6151
 7515SOL     OW34177   0.017   0.686   1.160 -0.2994  0.4919 -0.2451
 7515SOL    HW134178   0.095   0.727   1.123 -0.6834  0.6409 -0.9010
 7515SOL    HW234179   0.044   0.620   1.224 -1.5233  0.5063  0.3024
 7516SOL     OW34180   3.199   4.630   4.091  0.1842 -0.0897  0.1286
 7516SOL    HW134181   3.278   4.587   4.124 -0.9973 -1.9013  0.6345
 7516SOL    HW234182   3.238   4.678   4.018 -0.6125  1.1200  0.4908
 7517SOL     OW34183   4.230   3.736   2.545  0.1812  0.0966 -0.0580
 7517SOL    HW134184   4.223   3.646   2.513  0.0265 -0.1734  0.7348
 7517SOL    HW234185   4.271   3.792   2.479  0.8339  0.3906  0.6007
 7518SOL     OW34186   2.434   2.567   9.657  0.0984  0.7369 -0.5155
 7518SOL    HW134187   2.506   2.625   9.681  0.5544 -0.3781  0.7722
 7518SOL    HW234188   2.417   2.584   9.564 -3.0329  1.8570  0.2645
 7519SOL     OW34189   4.554   3.053  12.448 -0.5744 -0.0405 -0.0162
 7519SOL    HW134190   4.608   3.122  12.486 -0.5150  0.2886 -0.6856
 7519SOL    HW234191   4.566   2.979  12.507  2.0088 -0.2303 -0.7702
 7520SOL     OW34192   2.509   1.541  16.626 -0.2737 -0.7342  0.2742
 7520SOL    HW134193   2.528   1.449  16.639  0.3016 -0.5977  0.4267
 7520SOL    HW234194   2.544   1.566  16.712  1.6301 -4.7594  0.6283
 7521SOL     OW34195   4.221   1.543   8.712 -0.4172 -0.1065  0.2033
 7521SOL    HW134196   4.233   1.527   8.806  1.1641 -3.1345 -0.5398
 7521SOL    HW234197   4.139   1.495   8.704 -0.2198 -0.4521  0.2528
 7522SOL     OW34198   2.367   2.212   6.563  0.4261  0.3747  0.3268
 7522SOL    HW134199   2.284   2.257   6.576  1.3949  1.8905  1.2678
 7522SOL    HW234200   2.427   2.284   6.580 -0.0555  1.3583 -2.0636
 7523SOL     OW34201   1.709   3.919   9.053  0.4073  0.2090 -0.1200
 7523SOL    HW134202   1.727   3.941   9.145 -1.8662 -0.2461  0.4470
 7523SOL    HW234203   1.617   3.945   9.047  0.0915 -0.8408  0.2250
 7524SOL     OW34204   3.327   2.967   0.196  0.5146 -0.3262  0.1217
 7524SOL    HW134205   3.300   3.042   0.249 -1.2720 -1.1945  0.4397
 7524SOL    HW234206   3.338   2.902   0.266  0.2168 -0.8684 -0.3349
 7525SOL     OW34207   2.665   2.158   3.380  0.1543  0.3709  0.2779
 7525SOL    HW134208   2.754   2.192   3.390 -0.5281  1.5729  2.2712
 7525SOL    HW234209   2.624   2.186   3.461  0.0132  1.7070 -0.2544
 7526SOL     OW34210   1.031   4.592   2.222 -0.1705 -0.2011  0.5641
 7526SOL    HW134211   1.012   4.556   2.308  1.2158 -1.7507  0.2220
 7526SOL    HW234212   0.980   4.533   2.166  0.9202 -0.1730 -0.4595
 7527SOL     OW34213   0.561   3.937   8.767  0.6407  0.4992  0.1323
 7527SOL    HW134214   0.597   3.850   8.787  0.2035  0.4270  0.6089
 7527SOL    HW234215   0.551   3.934   8.672  1.5891 -1.1059  0.0872
 7528SOL     OW34216   2.516   3.351  10.221 -0.2408 -0.4784  0.1830
 7528SOL    HW134217   2.600   3.384  10.251 -1.0728  1.8298 -0.0683
 7528SOL    HW234218   2.479   3.325  10.305 -0.1424  0.1619  0.4216
 7529SOL     OW34219   3.297   2.163   6.388  0.4679 -0.0495  0.2467
 7529SOL    HW134220   3.324   2.244   6.431 -0.3716  1.1976 -1.6068
 7529SOL    HW234221   3.354   2.166   6.311 -0.2053 -1.6304 -0.3216
 7530SOL     OW34222   4.155   1.093   2.648  0.1347 -0.0574 -0.1283
 7530SOL    HW134223   4.214   1.017   2.653 -0.6048 -0.3977  3.1782
 7530SOL    HW234224   4.183   1.129   2.564 -0.5603  0.9189  0.0625
 7531SOL     OW34225   3.321   1.528   5.392 -0.8587  0.2680  0.4082
 7531SOL    HW134226   3.318   1.615   5.431 -0.6396  0.7416 -0.6134
 7531SOL    HW234227   3.304   1.557   5.302 -1.7391  0.6704  0.7175
 7532SOL     OW34228   1.991   2.539   7.084  0.0126  0.3170  0.1542
 7532SOL    HW134229   1.932   2.520   7.157  1.1171  1.5173  1.3638
 7532SOL    HW234230   2.070   2.505   7.125 -0.8228  1.1824  2.4660
 7533SOL     OW34231   0.422   1.499  17.576 -0.0313 -0.0789 -0.1170
 7533SOL    HW134232   0.488   1.506  17.645  0.8285  1.2484 -1.0648
 7533SOL    HW234233   0.346   1.482  17.632  0.5530  0.4078  0.8179
 7534SOL     OW34234   3.649   3.989   4.117 -0.2343  0.0705 -0.1685
 7534SOL    HW134235   3.584   4.054   4.143  1.2366  2.1128 -1.6287
 7534SOL    HW234236   3.737   4.020   4.136  0.7039 -1.4551 -2.1037
 7535SOL     OW34237   1.108   2.373  14.139  0.2435  0.4694  0.1364
 7535SOL    HW134238   1.134   2.311  14.206 -1.3025 -1.6233 -1.2135
 7535SOL    HW234239   1.057   2.440  14.185 -1.8482 -0.2094 -1.1917
 7536SOL     OW34240   2.419   0.932   6.798 -0.5921 -0.4228 -0.0337
 7536SOL    HW134241   2.418   0.886   6.883  1.9169 -1.1510 -0.4163
 7536SOL    HW234242   2.358   1.003   6.820 -1.0539 -0.3224 -1.6474
 7537SOL     OW34243   0.050   2.837   4.914  0.2607 -0.5203 -0.0632
 7537SOL    HW134244   4.708   2.891   4.915  0.3705 -0.3961  1.8623
 7537SOL    HW234245   0.027   2.759   4.864 -2.8543 -0.6855  1.6796
 7538SOL     OW34246   1.196   0.294   9.939 -0.3532 -0.5983 -0.5562
 7538SOL    HW134247   1.256   0.305   9.865  1.1378 -2.3984  0.3803
 7538SOL    HW234248   1.243   0.237   9.999 -0.8103 -0.4097 -0.0248
 7539SOL     OW34249   0.686   1.748  15.101 -0.2666  0.4859 -0.1847
 7539SOL    HW134250   0.782   1.749  15.097 -0.1832 -1.2919  1.4299
 7539SOL    HW234251   0.664   1.829  15.055 -0.4349 -0.2216 -1.3466
 7540SOL     OW34252   1.986   2.749  13.387 -0.4269 -0.5321  0.2080
 7540SOL    HW134253   2.015   2.753  13.478 -1.3143 -2.5306  0.5611
 7540SOL    HW234254   2.009   2.660  13.359 -1.9560 -1.2345  1.2353
 7541SOL     OW34255   3.688   4.182   3.125 -0.1430 -0.0184  0.5127
 7541SOL    HW134256   3.697   4.256   3.185  0.9005  0.7797 -0.6180
 7541SOL    HW234257   3.633   4.217   3.054  2.0333 -0.6374 -1.4706
 7542SOL     OW34258   4.120   3.166   9.676 -0.4600  0.1608  0.1762
 7542SOL    HW134259   4.205   3.158   9.720  0.6472 -2.0781 -2.3959
 7542SOL    HW234260   4.071   3.118   9.742 -0.2508  0.3575  0.4785
 7543SOL     OW34261   2.652   3.063  15.793 -0.2768  0.1087 -0.1035
 7543SOL    HW134262   2.614   3.123  15.858  0.9936  0.7447  0.0489
 7543SOL    HW234263   2.654   3.126  15.721  0.3295  1.2703  0.9101
 7544SOL     OW34264   2.338   3.684   5.303 -0.3823  0.3148 -0.6098
 7544SOL    HW134265   2.432   3.670   5.312 -0.6800 -0.5075  1.1909
 7544SOL    HW234266   2.301   3.716   5.386  1.3322  1.2482 -0.2112
 7545SOL     OW34267   0.874   3.862  10.097  0.2725  0.5120 -0.4976
 7545SOL    HW134268   0.853   3.931  10.160 -0.0506 -1.9648  2.1084
 7545SOL    HW234269   0.812   3.790  10.110  1.7334 -0.7971 -0.7982
 7546SOL     OW34270   1.277   4.600   6.994 -0.4968 -0.2180 -0.7535
 7546SOL    HW134271   1.252   4.522   6.945  0.2784 -0.1315 -1.2851
 7546SOL    HW234272   1.273   4.578   7.087 -1.2636  1.8438 -0.3022
 7547SOL     OW34273   1.379   2.708   6.418 -0.4701 -0.1850 -0.0541
 7547SOL    HW134274   1.441   2.658   6.472 -1.1393  1.3688  2.1341
 7547SOL    HW234275   1.441   2.776   6.392 -0.0725 -1.0241 -1.3178
 7548SOL     OW34276   1.489   1.511   1.587 -0.1924  0.2923 -0.3516
 7548SOL    HW134277   1.578   1.494   1.558 -0.4527 -0.4432 -0.7301
 7548SOL    HW234278   1.463   1.422   1.611  1.2766  0.1417  0.6757
 7549SOL     OW34279   2.375   1.068   0.984  0.1959  0.1643  0.0822
 7549SOL    HW134280   2.422   1.097   1.063  1.5635  1.8270 -1.3352
 7549SOL    HW234281   2.299   1.019   1.015 -0.0428 -0.4802 -1.5329
 7550SOL     OW34282   2.087   1.505  13.744 -0.0115  0.2399 -0.2576
 7550SOL    HW134283   2.114   1.536  13.830 -4.0402  0.2805  0.9992
 7550SOL    HW234284   2.174   1.480  13.715 -0.1469 -0.0786 -0.3824
 7551SOL     OW34285   4.009   2.024   3.384  0.6263 -0.2531  0.1300
 7551SOL    HW134286   3.993   1.979   3.301 -1.4809  0.7239 -0.0035
 7551SOL    HW234287   4.012   2.115   3.354 -0.0566 -0.1173  0.4694
 7552SOL     OW34288   3.821   0.706   2.254 -0.7282 -0.2480 -0.0976
 7552SOL    HW134289   3.909   0.688   2.286 -0.4170  0.3261 -0.6410
 7552SOL    HW234290   3.785   0.632   2.303 -0.6069  0.5428  1.1741
 7553SOL     OW34291   4.321   2.014   3.143 -0.4787  0.4205  0.2625
 7553SOL    HW134292   4.283   2.102   3.142 -1.2907  0.0909  3.2289
 7553SOL    HW234293   4.297   1.977   3.228  1.0663 -1.4750 -0.1248
 7554SOL     OW34294   3.773   1.297   4.564 -0.2015  0.0882  0.1019
 7554SOL    HW134295   3.685   1.301   4.602 -0.0042 -3.3029  0.8566
 7554SOL    HW234296   3.811   1.234   4.624  1.3813  1.4424  0.5271
 7555SOL     OW34297   2.264   3.877   8.634 -1.0538 -0.6246 -0.2526
 7555SOL    HW134298   2.264   3.952   8.574  0.2912  0.4652  1.1145
 7555SOL    HW234299   2.346   3.890   8.682 -0.8581  1.5962 -1.1502
 7556SOL     OW34300   4.109   2.484   8.363 -0.2616  0.1604  0.1648
 7556SOL    HW134301   4.133   2.392   8.378 -2.6053 -0.2687  1.3119
 7556SOL    HW234302   4.076   2.513   8.448 -0.5133  0.4232 -0.0224
 7557SOL     OW34303   1.499   1.625   7.368  0.1585  0.1262  0.3462
 7557SOL    HW134304   1.474   1.667   7.450 -1.1281  2.0263 -1.0268
 7557SOL    HW234305   1.467   1.676   7.293 -1.8072 -0.8253  0.5260
 7558SOL     OW34306   4.576   1.457   3.505 -0.4619  0.3550 -0.4429
 7558SOL    HW134307   4.582   1.365   3.479 -1.3055 -0.2730  1.5962
 7558SOL    HW234308   4.507   1.481   3.443 -2.0925  0.7115  1.5022
 7559SOL     OW34309   1.227   3.353   3.523 -0.4702  0.1511 -0.3859
 7559SOL    HW134310   1.163   3.421   3.545  0.0672 -0.1444  2.0703
 7559SOL    HW234311   1.301   3.365   3.582 -1.5306  1.2984  0.7257
 7560SOL     OW34312   2.946   1.120   0.915  0.0025  0.0903  0.2015
 7560SOL    HW134313   2.861   1.110   0.958  0.1197  1.4703  0.7434
 7560SOL    HW234314   2.961   1.214   0.925 -2.4769  0.7075 -1.9463
 7561SOL     OW34315   3.272   3.285  15.742  0.0088 -0.1467 -0.3240
 7561SOL    HW134316   3.311   3.372  15.751  0.1239 -0.3212  0.9283
 7561SOL    HW234317   3.191   3.313  15.699 -1.0069 -2.3712  0.1183
 7562SOL     OW34318   2.255   2.642   6.364 -0.2128 -0.3427 -0.1911
 7562SOL    HW134319   2.165   2.637   6.396  0.9921  0.6294  3.4362
 7562SOL    HW234320   2.299   2.659   6.448 -0.2698  0.4826 -0.3296
 7563SOL     OW34321   3.562   2.125  13.244 -0.0446  0.4170 -0.2793
 7563SOL    HW134322   3.540   2.034  13.264 -0.4700  0.5929  0.0611
 7563SOL    HW234323   3.637   2.136  13.302  0.9358  0.4527 -1.5577
 7564SOL     OW34324   1.906   1.762  16.242  0.2052 -0.3959  0.0176
 7564SOL    HW134325   1.876   1.822  16.310  0.3641  2.0016 -2.0299
 7564SOL    HW234326   1.984   1.720  16.277 -0.5795 -2.6905 -1.0069
 7565SOL     OW34327   0.134   3.610   9.426  0.0376 -0.0535  0.1998
 7565SOL    HW134328   0.171   3.527   9.456  0.1903 -0.7660 -1.9837
 7565SOL    HW234329   0.078   3.570   9.360 -1.3627  1.6337  0.3709
 7566SOL     OW34330   3.137   0.283   1.806 -0.5922 -0.0903 -0.2337
 7566SOL    HW134331   3.163   0.336   1.882 -0.9808  0.3264 -0.3910
 7566SOL    HW234332   3.108   0.356   1.751 -0.9768 -0.7869 -0.9449
 7567SOL     OW34333   2.398   3.383   7.209 -0.0591  0.0788 -0.3594
 7567SOL    HW134334   2.393   3.356   7.301  0.5288 -1.3537 -0.7606
 7567SOL    HW234335   2.459   3.456   7.218 -0.7608  0.5174  0.8773
 7568SOL     OW34336   0.446   0.799   9.465 -0.3331 -0.6145 -0.2477
 7568SOL    HW134337   0.353   0.789   9.486 -0.0277  0.2374  1.5845
 7568SOL    HW234338   0.468   0.863   9.533 -1.2771  1.9065 -2.3028
 7569SOL     OW34339   2.263   4.111  11.811  0.2877  0.1880 -0.2734
 7569SOL    HW134340   2.260   4.204  11.791  0.6941  0.4816  0.9953
 7569SOL    HW234341   2.174   4.093  11.843  0.6024 -0.0425  0.4731
 7570SOL     OW34342   4.435   3.208   3.692  0.3315  0.2315 -0.2915
 7570SOL    HW134343   4.419   3.282   3.751 -0.7249  2.8934 -3.9254
 7570SOL    HW234344   4.525   3.192   3.719 -0.0509 -0.7455  0.4021
 7571SOL     OW34345   2.033   0.703   9.869 -0.3909  0.4178  0.3502
 7571SOL    HW134346   2.110   0.651   9.847 -1.4970  0.0232 -2.4949
 7571SOL    HW234347   2.055   0.758   9.944 -2.4914 -0.6220  1.7743
 7572SOL     OW34348   0.897   1.857   2.611 -0.4676  0.1526 -0.2171
 7572SOL    HW134349   0.907   1.952   2.623 -0.1723  0.1646 -0.5593
 7572SOL    HW234350   0.809   1.843   2.576 -0.0063 -2.4523 -0.3358
 7573SOL     OW34351   2.603   3.086   9.056  0.2503  0.7480  0.4196
 7573SOL    HW134352   2.661   3.155   9.021  0.9959  1.6859  3.4392
 7573SOL    HW234353   2.519   3.114   9.021  0.2787 -1.8296 -1.6983
 7574SOL     OW34354   1.848   4.399   1.511  0.0820  0.1359 -0.2636
 7574SOL    HW134355   1.898   4.322   1.538 -3.7476 -2.2598 -0.0364
 7574SOL    HW234356   1.763   4.355   1.503 -0.0669 -0.0399  2.2453
 7575SOL     OW34357   1.573   3.060   4.787  0.6453  0.2803 -0.2643
 7575SOL    HW134358   1.537   3.148   4.797  0.3226  0.2360 -1.0604
 7575SOL    HW234359   1.490   3.011   4.784  0.4306  0.6610 -0.5651
 7576SOL     OW34360   2.184   1.115   4.215 -0.1415 -0.1326  0.3917
 7576SOL    HW134361   2.154   1.169   4.143 -1.1872 -0.3121  0.6788
 7576SOL    HW234362   2.221   1.040   4.169  0.5749 -0.2479  1.1631
 7577SOL     OW34363   1.336   1.466   3.827 -0.3960  0.2967  0.0582
 7577SOL    HW134364   1.254   1.471   3.777 -0.5164 -1.7271  0.0232
 7577SOL    HW234365   1.338   1.542   3.885  1.2620 -0.7631  1.3949
 7578SOL     OW34366   4.450   1.804  14.552  0.3220 -0.4882  0.3276
 7578SOL    HW134367   4.534   1.812  14.597  0.3860  0.2882  0.0830
 7578SOL    HW234368   4.385   1.794  14.621 -0.5037  1.2109 -0.2011
 7579SOL     OW34369   3.298   0.983   6.830 -0.2434 -0.5582 -0.6666
 7579SOL    HW134370   3.315   1.072   6.799 -3.1597  0.0734 -0.4364
 7579SOL    HW234371   3.280   0.942   6.746 -0.0043 -3.5023  0.7035
 7580SOL     OW34372   0.927   4.393  15.863 -0.4385  0.1717 -0.0109
 7580SOL    HW134373   0.973   4.429  15.787  1.3290  0.1679  1.0400
 7580SOL    HW234374   0.836   4.417  15.847  0.2038  2.4121 -0.3386
 7581SOL     OW34375   1.953   4.344   6.631 -0.1993 -0.0073  0.0021
 7581SOL    HW134376   1.962   4.254   6.662  3.4479  0.4210  0.1534
 7581SOL    HW234377   1.987   4.332   6.542 -1.0361 -0.2839 -0.2745
 7582SOL     OW34378   2.998   2.503   7.696 -0.0148 -0.0338  0.3797
 7582SOL    HW134379   3.059   2.576   7.686 -0.3339  0.2150  0.2585
 7582SOL    HW234380   3.019   2.431   7.636 -1.0155 -1.6859  1.9917
 7583SOL     OW34381   0.231   4.385  12.445  0.4994 -0.0608  0.5092
 7583SOL    HW134382   0.233   4.405  12.539 -1.4739 -3.4835  1.2691
 7583SOL    HW234383   0.295   4.448  12.412 -0.5956  0.3919 -0.7177
 7584SOL     OW34384   4.267   4.613   2.018 -0.6068  0.6497  0.4514
 7584SOL    HW134385   4.285   4.642   1.928 -0.8149 -0.7187 -0.0321
 7584SOL    HW234386   4.250   4.519   2.005  3.7468  0.0706 -1.0492
 7585SOL     OW34387   0.008   3.228  16.627 -0.2125 -0.2105 -0.1151
 7585SOL    HW134388   0.025   3.282  16.704 -0.6875 -2.2077  1.4040
 7585SOL    HW234389   0.036   3.283  16.553 -0.2101  0.0242  0.0603
 7586SOL     OW34390   2.784   4.550   6.129 -0.0946 -0.0680  0.6248
 7586SOL    HW134391   2.813   4.462   6.154 -1.4343 -1.0733 -1.2943
 7586SOL    HW234392   2.803   4.592   6.213  0.0888  1.7712 -0.3373
 7587SOL     OW34393   4.410   1.891   6.800  0.2431  0.5151 -0.4813
 7587SOL    HW134394   4.424   1.961   6.736  2.1817  0.1371 -0.4735
 7587SOL    HW234395   4.396   1.945   6.879 -0.8501 -1.9729  1.0281
 7588SOL     OW34396   3.420   2.694   8.677  0.0205 -0.0119  0.1838
 7588SOL    HW134397   3.344   2.750   8.690  1.0981  0.9052  2.5577
 7588SOL    HW234398   3.460   2.730   8.756  2.3495  0.6083 -1.2805
 7589SOL     OW34399   2.879   2.568   6.682 -0.0251 -0.0352 -0.1778
 7589SOL    HW134400   2.908   2.654   6.712 -0.3236  0.0152 -0.0402
 7589SOL    HW234401   2.907   2.562   6.591  0.5547 -2.1057  0.1222
 7590SOL     OW34402   0.728   3.924   3.668  0.2512  0.4141 -0.1682
 7590SOL    HW134403   0.791   3.896   3.734 -0.3365 -1.7817 -0.5284
 7590SOL    HW234404   0.662   3.976   3.715  0.7433  0.7593  0.1373
 7591SOL     OW34405   2.656   4.315   3.268  1.3964 -0.0257  0.5676
 7591SOL    HW134406   2.675   4.393   3.215  0.9013 -0.0963  0.2876
 7591SOL    HW234407   2.739   4.309   3.316  0.4474 -1.3289  2.0084
 7592SOL     OW34408   2.873   1.673   5.076 -0.2338 -0.2455 -0.2674
 7592SOL    HW134409   2.947   1.724   5.044  0.7671 -1.4814  0.0959
 7592SOL    HW234410   2.801   1.720   5.034 -0.3899 -1.1575 -1.0362
 7593SOL     OW34411   3.729   2.322   4.990  0.3367  0.1707  0.7233
 7593SOL    HW134412   3.817   2.349   5.019  1.2615 -1.2696 -0.7568
 7593SOL    HW234413   3.693   2.407   4.964  1.8035  0.4572 -0.4390
 7594SOL     OW34414   4.625   3.353  13.940  0.1653 -0.0178  0.5184
 7594SOL    HW134415   4.705   3.303  13.960 -0.7389 -0.4988  2.8546
 7594SOL    HW234416   4.641   3.378  13.849 -1.4349  0.1376  0.2827
 7595SOL     OW34417   2.942   1.517   7.891 -0.0033 -0.1609 -0.0800
 7595SOL    HW134418   3.021   1.531   7.839 -0.6420 -2.5353 -1.7286
 7595SOL    HW234419   2.883   1.487   7.821 -0.0683  1.6645 -0.8136
 7596SOL     OW34420   0.217   1.017   9.189 -0.8353 -0.3066  0.0009
 7596SOL    HW134421   0.295   0.964   9.208 -0.4268  0.3022  0.0490
 7596SOL    HW234422   0.169   1.035   9.270 -0.4236 -2.6917  0.7917
 7597SOL     OW34423   0.028   3.751   0.914 -0.2260  0.6004 -0.3892
 7597SOL    HW134424   0.043   3.731   0.821  0.1770  0.9433 -0.4022
 7597SOL    HW234425   0.106   3.802   0.938 -0.0026 -1.8095  4.0068
 7598SOL     OW34426   2.500   4.437   7.816 -0.4487 -0.1536 -0.0397
 7598SOL    HW134427   2.460   4.521   7.796 -2.0238 -0.5776  1.2395
 7598SOL    HW234428   2.563   4.470   7.880  0.2775 -0.1576 -0.7644
 7599SOL     OW34429   4.649   4.058   0.955  0.4942 -0.3434  0.2457
 7599SOL    HW134430   4.691   3.973   0.966  0.6770 -0.3615 -0.5772
 7599SOL    HW234431   4.559   4.025   0.959  0.2899  0.0601 -1.0782
 7600SOL     OW34432   0.536   3.036   7.503 -0.0048  0.2882  0.1831
 7600SOL    HW134433   0.445   3.007   7.502  0.2371 -0.4721  0.0674
 7600SOL    HW234434   0.538   3.062   7.595 -1.0024  1.3814 -0.1126
 7601SOL     OW34435   3.575   1.696   1.332  0.8388  0.4340  0.3933
 7601SOL    HW134436   3.514   1.770   1.330 -1.9137 -1.8669 -0.1686
 7601SOL    HW234437   3.528   1.623   1.373 -0.4534  0.6749 -0.6616
 7602SOL     OW34438   0.657   4.440   6.508  0.4070 -0.0454  0.5760
 7602SOL    HW134439   0.570   4.473   6.486  0.4397 -1.3229 -1.4384
 7602SOL    HW234440   0.647   4.420   6.601  1.1098  1.3489  0.9585
 7603SOL     OW34441   4.697   2.554  17.682  0.4612 -0.5945  0.7278
 7603SOL    HW134442   4.638   2.489  17.644 -2.7088  2.2319  0.8387
 7603SOL    HW234443   4.637   2.628  17.687 -1.8125 -2.4339  0.7747
 7604SOL     OW34444   1.649   3.617   1.498  0.6426 -0.3835 -0.6482
 7604SOL    HW134445   1.595   3.571   1.562 -1.5276  0.3573 -1.9519
 7604SOL    HW234446   1.729   3.644   1.544  0.3640 -0.2352 -0.2598
 7605SOL     OW34447   1.495   0.531   3.396  0.1911  0.4827 -0.0218
 7605SOL    HW134448   1.550   0.486   3.331 -2.3782  0.7644 -2.3856
 7605SOL    HW234449   1.478   0.613   3.350  0.9868  0.3022 -0.6344
 7606SOL     OW34450   0.215   2.499   0.314 -0.2103 -0.0134 -0.2804
 7606SOL    HW134451   0.165   2.557   0.256 -1.4159 -2.0394 -1.2665
 7606SOL    HW234452   0.148   2.461   0.371 -0.0258 -0.0990 -0.1199
 7607SOL     OW34453   0.906   4.414   7.526 -0.3301 -0.3467 -0.4581
 7607SOL    HW134454   0.857   4.469   7.587 -0.7823 -1.7918  0.4850
 7607SOL    HW234455   0.915   4.464   7.444  0.3467 -0.8871 -0.7116
 7608SOL     OW34456   3.577   4.088   8.850 -0.6161  0.0190 -0.2490
 7608SOL    HW134457   3.512   4.033   8.806  0.9882 -1.9302 -0.2008
 7608SOL    HW234458   3.585   4.038   8.931  1.7075 -1.3240 -1.2754
 7609SOL     OW34459   2.704   3.686   6.537 -0.1684 -0.7771  0.5413
 7609SOL    HW134460   2.722   3.780   6.530 -0.6522 -0.8133 -1.2220
 7609SOL    HW234461   2.613   3.690   6.509  0.3899  0.8492 -1.0191
 7610SOL     OW34462   2.911   3.983   9.217  0.4394 -0.1681  0.3073
 7610SOL    HW134463   2.928   3.895   9.183  0.5077 -0.1836  0.3820
 7610SOL    HW234464   2.935   4.029   9.137  0.3858  2.4000  1.7886
 7611SOL     OW34465   2.434   2.506   5.436 -0.5702  0.2321 -0.0194
 7611SOL    HW134466   2.348   2.466   5.426  1.0746 -3.7877  1.5345
 7611SOL    HW234467   2.405   2.596   5.449 -0.2980  0.3603 -0.2950
 7612SOL     OW34468   0.583   0.005  14.990  0.0996 -0.1397 -0.2560
 7612SOL    HW134469   0.663   4.689  14.985  0.5722  0.6729 -1.1319
 7612SOL    HW234470   0.616   0.094  14.996 -3.5167  1.2839 -1.4298
 7613SOL     OW34471   0.141   4.468  12.161  0.0962  0.6988  0.0659
 7613SOL    HW134472   0.178   4.431  12.241 -0.8959 -0.4925 -0.0162
 7613SOL    HW234473   0.053   4.493  12.189 -0.0059 -1.9150  2.0281
 7614SOL     OW34474   3.457   0.082  12.330 -0.3876 -0.1283 -0.2939
 7614SOL    HW134475   3.392   0.149  12.350 -0.9356 -1.5294  2.6741
 7614SOL    HW234476   3.407   0.003  12.310 -3.7007  1.4724  1.6776
 7615SOL     OW34477   0.879   1.393   7.457  0.3916  0.7366  0.2028
 7615SOL    HW134478   0.799   1.340   7.463  2.6742 -2.7214 -0.1553
 7615SOL    HW234479   0.895   1.388   7.362 -1.7841  2.0917 -0.2400
 7616SOL     OW34480   3.946   4.128   6.723 -0.8322  0.3140  0.0336
 7616SOL    HW134481   4.014   4.193   6.708 -1.0704  0.2129 -1.5011
 7616SOL    HW234482   3.879   4.164   6.665  0.0981 -0.5272 -1.5668
 7617SOL     OW34483   2.544   4.021  14.273  0.3292  1.1772 -0.2576
 7617SOL    HW134484   2.469   4.011  14.332 -0.0859  2.0299 -0.6469
 7617SOL    HW234485   2.553   4.116  14.271  0.1300  1.2666  2.5241
 7618SOL     OW34486   0.453   0.439   9.012  0.2056 -0.0559 -0.1702
 7618SOL    HW134487   0.393   0.365   9.001  0.6237 -0.3221 -0.6001
 7618SOL    HW234488   0.438   0.481   8.927  1.1985 -1.1753 -0.8917
 7619SOL     OW34489   3.878   0.091   5.261 -0.0091  0.1194 -0.1176
 7619SOL    HW134490   3.822   0.167   5.281 -2.7613 -1.4562 -1.8453
 7619SOL    HW234491   3.861   0.036   5.337 -2.5276 -1.1849 -1.6278
 7620SOL     OW34492   1.845   1.040  16.146  0.1384  0.2465  0.5114
 7620SOL    HW134493   1.788   0.991  16.087  0.7330 -0.6299  0.6752
 7620SOL    HW234494   1.901   1.088  16.085  0.7140 -0.3339  0.5862
 7621SOL     OW34495   1.951   3.359   9.620 -0.5261  0.4761  0.4331
 7621SOL    HW134496   1.900   3.420   9.674 -2.2674 -0.1177 -0.5240
 7621SOL    HW234497   1.941   3.395   9.531  0.1464 -1.4229 -0.4083
 7622SOL     OW34498   3.528   2.721   5.172  0.2843 -0.2849  0.4317
 7622SOL    HW134499   3.608   2.765   5.203  0.9683  0.0862 -1.8904
 7622SOL    HW234500   3.560   2.681   5.091 -0.7560  2.6525 -1.4156
 7623SOL     OW34501   1.398   3.971  10.026  0.4659  0.1742 -0.3425
 7623SOL    HW134502   1.388   4.063  10.002  0.1886  0.2570  0.0902
 7623SOL    HW234503   1.310   3.956  10.062  0.8743 -1.2660  0.0427
 7624SOL     OW34504   4.648   2.493   2.410 -0.2764 -0.6237 -0.2235
 7624SOL    HW134505   4.564   2.535   2.391  0.3642  0.1063 -1.4149
 7624SOL    HW234506   4.619   2.401   2.413 -0.6705 -0.4933  0.0452
 7625SOL     OW34507   3.656   0.852  13.077  0.3402  0.1955  0.1337
 7625SOL    HW134508   3.676   0.932  13.125 -1.8462 -0.0337  1.4594
 7625SOL    HW234509   3.597   0.886  13.010  0.4485  0.4050  0.1462
 7626SOL     OW34510   4.442   1.653  13.534 -0.2164 -0.1969 -0.2909
 7626SOL    HW134511   4.439   1.725  13.598  1.0286  0.3306 -0.8069
 7626SOL    HW234512   4.387   1.698  13.470  1.1649  0.1612 -1.2456
 7627SOL     OW34513   1.973   1.240  16.018 -0.2471 -0.4406  0.1257
 7627SOL    HW134514   2.052   1.185  16.024  0.3676  0.4507  0.1506
 7627SOL    HW234515   1.989   1.304  16.087 -0.0117 -1.7585  1.2917
 7628SOL     OW34516   1.205   2.444  13.508 -0.7986  0.2357 -0.3291
 7628SOL    HW134517   1.160   2.398  13.579 -1.9227 -0.4192 -1.4716
 7628SOL    HW234518   1.205   2.530  13.550  2.3193  2.3169 -4.6866
 7629SOL     OW34519   0.936   2.167   1.840 -0.4213 -0.3548  0.7621
 7629SOL    HW134520   0.893   2.141   1.922 -2.1658 -1.3969 -0.4852
 7629SOL    HW234521   0.911   2.259   1.837  0.8929  0.0094  0.9333
 7630SOL     OW34522   3.212   1.718   6.651 -0.4221  0.3477 -0.3427
 7630SOL    HW134523   3.163   1.694   6.730  0.3480  0.5136  0.1811
 7630SOL    HW234524   3.184   1.807   6.631  0.7904  0.8515  0.1930
 7631SOL     OW34525   2.583   0.478   1.118  0.0765  0.2817 -0.0770
 7631SOL    HW134526   2.551   0.545   1.059 -1.5286  0.9181  1.5293
 7631SOL    HW234527   2.576   0.401   1.061  0.1843  2.4900 -3.0682
 7632SOL     OW34528   1.747   1.276   2.301 -0.1890 -0.6159 -0.2546
 7632SOL    HW134529   1.771   1.232   2.382  0.7571 -0.6783 -0.5708
 7632SOL    HW234530   1.820   1.338   2.305  0.3273 -1.2625  0.1289
 7633SOL     OW34531   0.741   1.602   5.832 -0.3238  0.0837  0.3465
 7633SOL    HW134532   0.779   1.687   5.856  0.0417  0.5684 -1.9535
 7633SOL    HW234533   0.782   1.544   5.895  1.6602 -0.2724 -1.2663
 7634SOL     OW34534   2.009   0.823   6.822 -0.0704 -0.8905 -0.1453
 7634SOL    HW134535   2.077   0.851   6.762 -0.3896 -1.7090 -0.8908
 7634SOL    HW234536   2.021   0.902   6.875  2.5046 -1.5993  0.3158
 7635SOL     OW34537   0.491   1.431  12.830  0.5201  0.0989 -0.5126
 7635SOL    HW134538   0.570   1.408  12.878  1.8077 -0.0894 -2.7410
 7635SOL    HW234539   0.514   1.497  12.764 -1.4633 -0.3719 -1.6741
 7636SOL     OW34540   2.997   1.337   8.728  0.3603  0.4298 -0.1159
 7636SOL    HW134541   3.043   1.366   8.807  0.4183  0.4139 -0.1444
 7636SOL    HW234542   3.047   1.383   8.661  1.7735  2.3356  2.2290
 7637SOL     OW34543   3.961   3.945  16.968 -0.1207 -0.1654 -0.1459
 7637SOL    HW134544   3.946   4.039  16.956  2.4106  0.0403 -1.6885
 7637SOL    HW234545   3.873   3.914  16.946  0.7531 -2.8176  0.1128
 7638SOL     OW34546   3.953   1.449   3.258  0.3712 -0.1973  0.3472
 7638SOL    HW134547   3.976   1.410   3.173 -0.4391  2.7642 -1.2147
 7638SOL    HW234548   3.999   1.385   3.313 -0.3797 -1.7418 -0.8361
 7639SOL     OW34549   3.921   0.694   4.948  0.1254 -0.4108  0.3279
 7639SOL    HW134550   3.895   0.654   4.865  0.3929  1.4302 -0.6522
 7639SOL    HW234551   3.935   0.616   5.002  0.0291 -0.0909  0.8126
 7640SOL     OW34552   1.182   0.976   6.243 -0.2154  0.3049 -0.3617
 7640SOL    HW134553   1.128   0.925   6.182 -1.7057 -0.9875  2.0268
 7640SOL    HW234554   1.141   0.954   6.327 -3.0146  2.0372 -1.2677
 7641SOL     OW34555   2.600   2.419   5.227  0.2020  0.0030 -0.1753
 7641SOL    HW134556   2.640   2.504   5.246  1.3325 -0.4939 -0.3296
 7641SOL    HW234557   2.512   2.444   5.254  0.5053  1.8833 -0.9197
 7642SOL     OW34558   4.715   3.793   4.472 -0.1313 -0.2220 -0.0408
 7642SOL    HW134559   4.714   3.888   4.482 -2.0171  0.2364 -4.5973
 7642SOL    HW234560   0.050   3.781   4.409  0.6490  3.3843  0.1616
 7643SOL     OW34561   3.047   3.176  16.703 -0.6757 -0.3183 -0.2000
 7643SOL    HW134562   3.051   3.167  16.799 -1.5349  0.9537 -0.0453
 7643SOL    HW234563   2.975   3.113  16.695  0.0088 -0.7248 -2.9459
 7644SOL     OW34564   4.352   0.686   8.875 -0.3419 -0.0347 -0.2419
 7644SOL    HW134565   4.316   0.690   8.963 -0.6735  0.5380 -0.4006
 7644SOL    HW234566   4.299   0.617   8.834 -0.9369  0.0792  0.3458
 7645SOL     OW34567   2.050   4.560   0.289 -0.0307 -0.0412  0.0277
 7645SOL    HW134568   2.001   4.543   0.208  1.7306  1.4781 -1.3643
 7645SOL    HW234569   2.131   4.590   0.247  1.2959 -1.2654  1.7119
 7646SOL     OW34570   0.440   3.623  17.186 -0.1669 -0.0490 -0.3002
 7646SOL    HW134571   0.435   3.693  17.252  1.1744  1.7407 -2.0909
 7646SOL    HW234572   0.411   3.548  17.237 -0.9564  0.6866  0.3411
 7647SOL     OW34573   3.276   2.582   3.032 -0.0557  0.0813 -0.1566
 7647SOL    HW134574   3.226   2.536   3.101  0.3433 -0.5335 -0.2740
 7647SOL    HW234575   3.341   2.513   3.018  2.1059  1.9654  0.6835
 7648SOL     OW34576   0.945   4.732   8.471  0.5628 -0.3578  0.0105
 7648SOL    HW134577   0.854   0.026   8.463  0.9205  1.2948  2.1886
 7648SOL    HW234578   0.950   4.652   8.523 -2.6483 -0.6008 -0.0378
 7649SOL     OW34579   3.145   3.851   8.875 -0.3733  0.2653 -0.2489
 7649SOL    HW134580   3.227   3.804   8.890 -2.3667 -3.0612  0.1055
 7649SOL    HW234581   3.113   3.776   8.825  2.1368 -1.4210  0.6696
 7650SOL     OW34582   0.081   2.763   5.827  0.2006 -0.2154 -0.7031
 7650SOL    HW134583   0.168   2.732   5.804  0.9319  0.5253  1.0455
 7650SOL    HW234584   0.088   2.768   5.923 -0.3002 -0.2744 -0.6608
 7651SOL     OW34585   1.932   2.716   8.431  0.4600 -0.2152  0.3667
 7651SOL    HW134586   2.001   2.714   8.497 -1.8427  3.3979  2.9100
 7651SOL    HW234587   1.957   2.780   8.365  0.8018 -0.7106  0.0171
 7652SOL     OW34588   1.287   2.162   1.175  0.0952 -0.9540 -0.1424
 7652SOL    HW134589   1.376   2.154   1.143 -0.2744  0.0414 -1.4220
 7652SOL    HW234590   1.238   2.218   1.115  1.7166  0.6480  0.0265
 7653SOL     OW34591   3.999   1.876  13.942 -0.1093  0.2420 -0.0057
 7653SOL    HW134592   4.047   1.873  14.025  2.4044  1.3325 -1.3959
 7653SOL    HW234593   4.073   1.872  13.882 -0.4032  1.8744 -0.4713
 7654SOL     OW34594   2.384   0.177   0.423 -1.0936 -0.0230  0.6796
 7654SOL    HW134595   2.303   0.201   0.467 -1.7352  1.0549 -1.0819
 7654SOL    HW234596   2.355   0.152   0.335  1.7112  0.9943 -0.5487
 7655SOL     OW34597   4.167   3.273   4.065 -0.3473  0.0803 -0.2175
 7655SOL    HW134598   4.189   3.353   4.112 -0.7290  0.1287 -0.1215
 7655SOL    HW234599   4.073   3.282   4.080 -0.2574 -3.0279  2.1457
 7656SOL     OW34600   1.635   3.895  13.521 -0.2717  0.2431 -0.1839
 7656SOL    HW134601   1.606   3.817  13.569  2.0544 -0.7294 -0.3216
 7656SOL    HW234602   1.553   3.943  13.513 -0.1495  0.2137 -1.5513
 7657SOL     OW34603   1.340   2.008   5.443  0.1505 -0.1392  0.0069
 7657SOL    HW134604   1.338   1.993   5.348  4.3610 -2.8711  0.3258
 7657SOL    HW234605   1.311   2.098   5.455 -1.4581 -0.8446  1.3618
 7658SOL     OW34606   3.192   2.507  17.656  0.0326  0.0748 -0.2029
 7658SOL    HW134607   3.133   2.457  17.600 -4.0385  1.9509  2.4904
 7658SOL    HW234608   3.125   2.559  17.700 -1.5009  0.0051 -2.4802
 7659SOL     OW34609   2.864   0.905  10.602 -0.0679 -0.5404  0.5431
 7659SOL    HW134610   2.863   0.810  10.597 -2.4104 -0.5789  1.6773
 7659SOL    HW234611   2.772   0.915  10.629 -0.7652 -2.0287 -1.3346
 7660SOL     OW34612   4.356   2.813   6.834 -0.3670  0.0025 -0.0055
 7660SOL    HW134613   4.286   2.749   6.821  0.5400 -0.8408 -0.7479
 7660SOL    HW234614   4.390   2.824   6.745  1.2870 -1.6471  0.4119
 7661SOL     OW34615   3.308   4.155   1.964  0.8157 -0.1522  0.1242
 7661SOL    HW134616   3.230   4.134   1.913  1.2916 -0.9237 -0.2791
 7661SOL    HW234617   3.280   4.127   2.050  0.7659  0.3891  0.2877
 7662SOL     OW34618   1.990   1.946   8.587  0.2220  0.0870 -0.4189
 7662SOL    HW134619   2.068   1.910   8.546 -0.3827 -2.7521  0.9293
 7662SOL    HW234620   1.957   1.999   8.514  2.2632  0.1689 -1.2862
 7663SOL     OW34621   1.589   0.960   6.371  0.0262 -0.5382  0.0804
 7663SOL    HW134622   1.649   1.031   6.395 -0.2384 -0.5059  0.6533
 7663SOL    HW234623   1.522   0.957   6.440 -1.4855 -2.1935 -1.4582
 7664SOL     OW34624   4.102   2.368   4.819 -0.2969 -0.4259  0.2168
 7664SOL    HW134625   4.091   2.351   4.726  1.1010  1.4942 -0.3094
 7664SOL    HW234626   4.154   2.296   4.853  0.3390  0.4794  1.1839
 7665SOL     OW34627   2.203   4.605  16.160  0.4323 -0.8422  0.0225
 7665SOL    HW134628   2.291   4.571  16.142  0.0109 -1.7130 -0.4286
 7665SOL    HW234629   2.237   4.690  16.189 -0.4561  0.2483 -2.1398
 7666SOL     OW34630   0.116   1.264   7.434  0.8044 -0.5785  0.5586
 7666SOL    HW134631   0.138   1.259   7.527  0.5702  0.2912  0.6621
 7666SOL    HW234632   0.088   1.355   7.429  0.0378 -0.8292  0.2548
 7667SOL     OW34633   3.943   0.358   1.497 -0.4791 -0.3423  0.2230
 7667SOL    HW134634   3.965   0.357   1.590  0.2903  0.8169  0.0584
 7667SOL    HW234635   3.860   0.406   1.499 -0.6974 -0.8321  2.7241
 7668SOL     OW34636   1.084   3.241  17.232  0.3729  0.4074 -0.4090
 7668SOL    HW134637   1.154   3.177  17.220  1.5746  1.8011 -0.8249
 7668SOL    HW234638   1.053   3.241  17.141  1.0258 -1.1972 -0.6358
 7669SOL     OW34639   2.090   4.691  11.037  0.2465 -0.8303  0.8896
 7669SOL    HW134640   2.008   4.701  11.086 -1.4982  0.4620 -2.2753
 7669SOL    HW234641   2.109   4.602  11.068 -0.3265 -1.2302  0.1007
 7670SOL     OW34642   2.771   0.804   7.340  0.1620  0.4183 -0.2093
 7670SOL    HW134643   2.799   0.760   7.420  1.8601 -0.3922 -1.2593
 7670SOL    HW234644   2.851   0.849   7.313  0.9625 -0.6681  0.3622
 7671SOL     OW34645   0.566   3.409   8.956  0.5529  0.5361 -0.3171
 7671SOL    HW134646   0.506   3.378   8.888  1.3903  3.1197 -2.2601
 7671SOL    HW234647   0.625   3.335   8.970 -1.6235 -1.5418 -2.1006
 7672SOL     OW34648   3.563   1.297   9.496  0.4311  1.2227  0.0586
 7672SOL    HW134649   3.529   1.360   9.432 -0.8854 -0.3594 -0.8095
 7672SOL    HW234650   3.504   1.222   9.488  0.8431  0.6914  2.1066
 7673SOL     OW34651   3.846   0.488   8.815 -0.7783  0.2107 -0.1937
 7673SOL    HW134652   3.804   0.421   8.761  1.2436 -0.7502 -0.6199
 7673SOL    HW234653   3.875   0.553   8.751 -0.3713 -0.6044 -0.8559
 7674SOL     OW34654   4.512   3.634   0.951 -0.6321  0.6106 -0.1516
 7674SOL    HW134655   4.596   3.670   0.923 -0.0275 -0.2053  0.6152
 7674SOL    HW234656   4.503   3.699   1.021  3.9586  1.9876 -0.8566
 7675SOL     OW34657   3.068   3.493   0.397  0.1001 -0.4508  0.9389
 7675SOL    HW134658   3.043   3.584   0.415 -0.7527 -0.5709  0.3327
 7675SOL    HW234659   2.995   3.461   0.345 -0.6779  0.4365  1.4720
 7676SOL     OW34660   2.499   3.442   1.650  0.0215  0.7704 -0.1510
 7676SOL    HW134661   2.584   3.407   1.626 -0.3161  0.6092 -1.0920
 7676SOL    HW234662   2.494   3.415   1.742  0.7640 -1.6464 -0.8168
 7677SOL     OW34663   3.354   1.940  15.251 -0.9124  0.9679 -0.0639
 7677SOL    HW134664   3.379   1.870  15.311 -2.2169  1.3428  0.9343
 7677SOL    HW234665   3.359   1.898  15.166 -0.1824 -1.3294  1.0980
 7678SOL     OW34666   3.886   4.245   7.436 -0.2094 -0.2841 -0.1590
 7678SOL    HW134667   3.919   4.333   7.456 -1.5117  0.2922 -0.5239
 7678SOL    HW234668   3.964   4.194   7.455 -0.0897 -0.5411 -1.3581
 7679SOL     OW34669   2.718   0.988  15.129  0.4704 -0.2830  0.4419
 7679SOL    HW134670   2.657   0.925  15.166 -1.1420  2.1363  1.9528
 7679SOL    HW234671   2.740   1.047  15.202  3.2923 -0.6982 -0.0752
 7680SOL     OW34672   0.033   4.315   9.274 -0.6565  0.2422  0.0009
 7680SOL    HW134673   0.068   4.229   9.298  0.2564  0.1287 -1.7363
 7680SOL    HW234674   0.079   4.383   9.325 -1.4522  0.8987 -0.1593
 7681SOL     OW34675   2.832   0.550  13.997 -1.0329 -0.9127 -0.6237
 7681SOL    HW134676   2.816   0.569  13.905  0.1497 -2.3640 -1.1367
 7681SOL    HW234677   2.756   0.495  14.019 -0.0577 -2.2348 -0.5553
 7682SOL     OW34678   3.094   1.003   3.385  0.3253  0.4738  0.6770
 7682SOL    HW134679   3.141   0.970   3.308 -1.7654  1.7788 -1.1519
 7682SOL    HW234680   3.167   1.010   3.447  2.3591 -3.3975 -1.2835
 7683SOL     OW34681   2.524   1.012   8.017  0.0346 -0.0213 -0.0451
 7683SOL    HW134682   2.520   1.105   7.996  0.3379 -0.0320 -0.1546
 7683SOL    HW234683   2.569   0.979   7.939 -1.4035 -0.4862 -0.6789
 7684SOL     OW34684   0.369   2.369  10.070 -0.6611  0.4069 -0.0965
 7684SOL    HW134685   0.404   2.284  10.097 -1.9221 -0.1833 -0.3223
 7684SOL    HW234686   0.385   2.380   9.977  0.5518 -1.4178 -0.0868
 7685SOL     OW34687   3.434   4.047   8.311  0.1098  0.2024  0.3916
 7685SOL    HW134688   3.363   4.085   8.259 -0.2341 -2.2121 -0.8881
 7685SOL    HW234689   3.460   3.983   8.245 -0.3718 -0.4813  0.8672
 7686SOL     OW34690   0.873   0.848   6.906  0.0283 -0.3635  0.6931
 7686SOL    HW134691   0.969   0.851   6.898 -0.0890 -0.9286 -0.8477
 7686SOL    HW234692   0.863   0.770   6.961 -2.8175 -0.0749  0.5771
 7687SOL     OW34693   2.842   0.478   5.040  0.2708  0.2485  0.4594
 7687SOL    HW134694   2.819   0.565   5.007 -2.9462 -0.1234  1.6820
 7687SOL    HW234695   2.755   0.443   5.061  0.6773 -0.5861  0.7382
 7688SOL     OW34696   0.998   1.833   4.822  0.3418 -0.1519  0.6256
 7688SOL    HW134697   0.975   1.884   4.900 -2.3665 -0.4309 -0.0194
 7688SOL    HW234698   1.057   1.768   4.860  0.3264  0.8851  2.4110
 7689SOL     OW34699   2.792   4.162   9.022  0.2670  0.3374 -0.3323
 7689SOL    HW134700   2.777   4.255   9.011  0.5697  0.4008 -0.2058
 7689SOL    HW234701   2.884   4.154   8.995  0.4028 -1.6286  0.6775
 7690SOL     OW34702   1.538   0.304   2.969  0.4104 -0.2111  0.0854
 7690SOL    HW134703   1.520   0.397   2.986  0.3348 -0.3839  0.9150
 7690SOL    HW234704   1.624   0.297   3.011  0.1997 -0.0209  0.5494
 7691SOL     OW34705   2.628   3.113   9.997  0.0735  0.2023 -0.0536
 7691SOL    HW134706   2.718   3.126  10.026  0.3084 -1.5422  0.0159
 7691SOL    HW234707   2.622   3.017  10.001  0.6906  0.1255 -1.0842
 7692SOL     OW34708   3.701   4.542   7.966  0.4299  0.0318  0.3344
 7692SOL    HW134709   3.719   4.599   8.041 -0.8803  0.1934  0.5363
 7692SOL    HW234710   3.761   4.470   7.985 -0.0182 -0.5301 -0.3577
 7693SOL     OW34711   1.535   1.593   9.420 -0.8071 -0.0254  0.3776
 7693SOL    HW134712   1.554   1.686   9.405  1.1332 -0.5972 -0.7235
 7693SOL    HW234713   1.485   1.571   9.341 -0.8053  0.6754  0.1795
 7694SOL     OW34714   1.049   1.751   7.794  0.4800 -0.7890  0.3197
 7694SOL    HW134715   0.997   1.672   7.779 -0.7295  0.4531 -1.9636
 7694SOL    HW234716   1.122   1.731   7.736  0.4834 -0.6076  0.2617
 7695SOL     OW34717   1.778   0.618   9.951 -0.2504  0.4548  0.4411
 7695SOL    HW134718   1.719   0.679   9.907  0.8219  0.9820 -0.2620
 7695SOL    HW234719   1.869   0.639   9.928 -1.6965  2.2413 -3.6738
 7696SOL     OW34720   1.875   1.764   2.249  0.2929 -0.1220 -0.1130
 7696SOL    HW134721   1.955   1.779   2.199 -0.0417  0.0122 -0.5985
 7696SOL    HW234722   1.886   1.671   2.273  0.8643 -0.7360 -2.7978
 7697SOL     OW34723   1.557   4.537   9.941  0.2127  0.1834  0.1643
 7697SOL    HW134724   1.487   4.576   9.888  0.5022 -0.4317 -0.6621
 7697SOL    HW234725   1.517   4.464   9.988 -0.1785  1.3468  1.6373
 7698SOL     OW34726   0.127   1.725   0.963  0.1192  0.4316 -0.2416
 7698SOL    HW134727   0.179   1.683   0.894  1.8611 -1.0202  1.9378
 7698SOL    HW234728   0.184   1.799   0.982  0.8015  0.0617 -0.8223
 7699SOL     OW34729   3.407   1.722   2.318 -0.3215 -0.6083  0.1862
 7699SOL    HW134730   3.408   1.643   2.372 -1.0571 -0.4844  0.3733
 7699SOL    HW234731   3.502   1.736   2.323  0.1210 -3.2380 -0.6745
 7700SOL     OW34732   4.278   0.729   3.992 -0.5706 -0.3728  0.1674
 7700SOL    HW134733   4.237   0.709   3.907  0.9855 -1.0037 -0.4489
 7700SOL    HW234734   4.268   0.824   3.997  0.6452 -0.3131  1.4083
 7701SOL     OW34735   3.813   3.818   6.828  0.2571  0.0705 -0.5105
 7701SOL    HW134736   3.835   3.726   6.839 -0.1999  0.0731  0.4676
 7701SOL    HW234737   3.872   3.860   6.891  1.8191 -0.8166 -1.4083
 7702SOL     OW34738   4.678   4.282   7.528  0.0132 -0.0835 -0.2790
 7702SOL    HW134739   4.732   4.354   7.494 -1.2396  0.7470 -0.5172
 7702SOL    HW234740   4.731   4.214   7.487 -0.3442 -0.7863  0.4259
 7703SOL     OW34741   3.958   1.913   5.818  0.4407  0.2486  0.5464
 7703SOL    HW134742   3.994   1.949   5.737  0.4156 -2.0709 -0.4873
 7703SOL    HW234743   4.033   1.901   5.877  0.5607  0.8889  0.5240
 7704SOL     OW34744   1.965   1.127   8.395  0.0864  0.8430  0.0721
 7704SOL    HW134745   1.910   1.094   8.325  0.1570 -1.0327  0.8674
 7704SOL    HW234746   1.926   1.095   8.477 -0.3681  0.0339 -0.4655
 7705SOL     OW34747   2.089   3.306  11.812  0.1307  0.0251  0.1506
 7705SOL    HW134748   2.173   3.350  11.799 -0.1777  0.5854  0.0714
 7705SOL    HW234749   2.035   3.344  11.743 -1.3543 -1.2574  0.6179
 7706SOL     OW34750   0.744   2.979   5.935 -0.0965 -0.8124 -0.3382
 7706SOL    HW134751   0.706   3.058   5.973  2.0255 -0.4608  1.0364
 7706SOL    HW234752   0.789   2.932   6.006 -0.3311  1.7301  1.4613
 7707SOL     OW34753   1.471   0.357   4.379 -0.0739  0.0961 -0.2530
 7707SOL    HW134754   1.496   0.293   4.446 -1.5077  1.4486  1.5401
 7707SOL    HW234755   1.551   0.409   4.369  0.7735 -1.0323  0.6051
 7708SOL     OW34756   3.427   4.009   5.116 -0.8516 -0.2364  0.8520
 7708SOL    HW134757   3.357   4.009   5.182 -1.4566  0.4465  0.2118
 7708SOL    HW234758   3.390   3.960   5.042 -2.0540  1.0117  0.6384
 7709SOL     OW34759   0.742   2.127  13.897 -0.0836 -0.6739  0.7090
 7709SOL    HW134760   0.679   2.077  13.948 -0.8381 -0.0292  0.4027
 7709SOL    HW234761   0.745   2.197  13.962  1.4224 -0.7152  0.7055
 7710SOL     OW34762   1.187   1.346  15.876 -0.5748 -0.2954  0.0550
 7710SOL    HW134763   1.275   1.326  15.907  0.1057  1.7746 -0.5527
 7710SOL    HW234764   1.172   1.418  15.938  0.7218 -0.0755  0.1292
 7711SOL     OW34765   4.542   2.705   8.223 -0.2488 -0.2409 -0.2328
 7711SOL    HW134766   4.559   2.616   8.256 -1.2441 -1.1670 -2.2345
 7711SOL    HW234767   4.457   2.722   8.264 -1.0695 -2.3582 -1.0342
 7712SOL     OW34768   2.709   2.760   3.451  0.7822  0.2015  0.3280
 7712SOL    HW134769   2.768   2.787   3.380 -0.1978 -1.6570 -1.1578
 7712SOL    HW234770   2.708   2.837   3.508 -0.7184 -0.6410  1.4432
 7713SOL     OW34771   4.043   0.245   3.586  0.5006 -0.1130  0.3658
 7713SOL    HW134772   4.049   0.286   3.500  1.3736 -1.0780 -0.0292
 7713SOL    HW234773   4.001   0.314   3.638 -2.0372  0.0059 -1.8419
 7714SOL     OW34774   4.496   4.469  14.188  0.1558  0.0578  0.2489
 7714SOL    HW134775   4.558   4.540  14.204  3.1605 -1.9447 -2.4569
 7714SOL    HW234776   4.432   4.490  14.256 -0.5509 -1.6459  0.0868
 7715SOL     OW34777   1.870   4.292   3.587 -0.4216  0.2723 -0.4313
 7715SOL    HW134778   1.925   4.325   3.516 -0.7006  1.1055 -0.2636
 7715SOL    HW234779   1.840   4.378   3.615  0.7949  0.2221  0.9881
 7716SOL     OW34780   2.254   0.588   2.069 -0.0725 -0.1141 -0.1356
 7716SOL    HW134781   2.262   0.677   2.035 -1.6444 -0.0801 -0.4254
 7716SOL    HW234782   2.314   0.546   2.007  1.3059 -2.1315  2.5359
 7717SOL     OW34783   1.122   4.387  16.042  0.3552  0.0686 -0.3981
 7717SOL    HW134784   1.084   4.341  16.117 -0.8014  1.4342 -0.1511
 7717SOL    HW234785   1.056   4.374  15.975  0.5898  1.8261 -0.9517
 7718SOL     OW34786   1.717   0.005   8.670 -0.0782  0.0893  0.6206
 7718SOL    HW134787   1.625   0.001   8.694 -0.3965 -1.6822 -0.9431
 7718SOL    HW234788   1.740   0.088   8.713 -0.5484  0.2585  0.5450
 7719SOL     OW34789   3.968   3.983   1.554  0.2335  0.4658 -0.0906
 7719SOL    HW134790   3.975   4.046   1.625 -0.3258 -0.1439  0.5125
 7719SOL    HW234791   4.021   3.910   1.586 -2.3312 -1.5501 -0.3386
 7720SOL     OW34792   4.108   1.888   4.249  0.4406  0.3969 -0.2724
 7720SOL    HW134793   4.108   1.801   4.287 -1.6782 -0.1453 -1.5142
 7720SOL    HW234794   4.146   1.884   4.162 -1.8263  0.7636 -1.2592
 7721SOL     OW34795   0.031   2.299   3.021 -0.1736 -0.1356  0.3002
 7721SOL    HW134796   0.071   2.334   2.941 -1.2977  0.5948  0.0521
 7721SOL    HW234797   0.113   2.266   3.059  0.8280 -0.2539 -1.9899
 7722SOL     OW34798   0.925   3.300   6.695  0.0241  0.3242 -0.4051
 7722SOL    HW134799   0.970   3.380   6.669 -0.2004  0.4646 -0.3558
 7722SOL    HW234800   0.835   3.301   6.664 -0.0520  0.7580 -0.1711
 7723SOL     OW34801   2.251   4.542  10.389 -0.1905 -0.1018  0.1125
 7723SOL    HW134802   2.157   4.559  10.380  0.3490  2.0324 -1.4313
 7723SOL    HW234803   2.274   4.502  10.305  0.0495 -1.4729  0.8361
 7724SOL     OW34804   1.419   2.197   1.525 -0.8956  0.2256  0.3543
 7724SOL    HW134805   1.508   2.210   1.495 -0.3344 -1.0146  1.4785
 7724SOL    HW234806   1.401   2.103   1.528  2.7068 -0.4013  2.3994
 7725SOL     OW34807   0.954   2.235   4.406  0.0412  0.1515  0.5787
 7725SOL    HW134808   0.871   2.187   4.408 -0.1436  0.4759  0.9059
 7725SOL    HW234809   1.009   2.157   4.398 -0.9272 -0.3393 -1.2975
 7726SOL     OW34810   2.075   3.210  12.064 -0.5421 -0.2320  0.5115
 7726SOL    HW134811   2.010   3.147  12.034 -0.9398  0.5756 -0.2967
 7726SOL    HW234812   2.082   3.264  11.986  1.3764 -1.0919  0.1054
 7727SOL     OW34813   3.915   1.766  12.151  0.7465 -0.4951 -0.3542
 7727SOL    HW134814   3.990   1.810  12.190  0.2156 -0.8124  1.0158
 7727SOL    HW234815   3.960   1.746  12.069  0.9262 -0.0876 -0.3568
 7728SOL     OW34816   0.704   1.732   9.674  0.4357 -0.2929 -0.0080
 7728SOL    HW134817   0.646   1.656   9.677 -1.7027  1.3708  1.3125
 7728SOL    HW234818   0.772   1.702   9.734 -2.4420 -2.1569  2.3754
 7729SOL     OW34819   4.620   2.724  16.158  0.3807  0.3194 -0.2414
 7729SOL    HW134820   4.680   2.768  16.218  0.8778 -0.5939 -0.0809
 7729SOL    HW234821   4.578   2.806  16.131  1.1199  1.3635  1.8319
 7730SOL     OW34822   1.193   2.270  12.813  0.0737  0.7040  0.4814
 7730SOL    HW134823   1.161   2.351  12.773  1.5104  1.5612  1.0769
 7730SOL    HW234824   1.136   2.201  12.781  1.7887 -1.3651  1.9586
 7731SOL     OW34825   2.768   0.262   8.158 -0.1170 -0.5605  0.6843
 7731SOL    HW134826   2.849   0.220   8.130 -0.6890  0.5469 -2.6012
 7731SOL    HW234827   2.706   0.190   8.147 -2.2759  1.3040  0.5063
 7732SOL     OW34828   2.769   3.652  14.305  0.6486 -0.7607  0.2196
 7732SOL    HW134829   2.769   3.724  14.369 -2.2918  0.4430 -1.1220
 7732SOL    HW234830   2.832   3.593  14.346  2.0867  1.1179  0.6921
 7733SOL     OW34831   0.680   0.220   8.023  0.2365 -0.3567 -0.0350
 7733SOL    HW134832   0.731   0.274   8.083  3.0263 -0.9980 -1.7912
 7733SOL    HW234833   0.740   0.150   7.996 -0.1691  0.2589 -2.4903
 7734SOL     OW34834   3.509   2.891   1.785  0.1814  0.1278  0.4513
 7734SOL    HW134835   3.599   2.903   1.756  0.8769 -0.6292  2.2825
 7734SOL    HW234836   3.513   2.935   1.870 -0.9560 -1.5021  1.3431
 7735SOL     OW34837   4.691   2.555   2.773 -0.4185  0.0576  0.9666
 7735SOL    HW134838   4.732   2.485   2.722  0.0513  0.3425  0.9476
 7735SOL    HW234839   4.602   2.566   2.741  0.0053 -1.6133 -0.8095
 7736SOL     OW34840   4.443   2.326   8.306 -0.0544  0.1363  0.0666
 7736SOL    HW134841   4.381   2.304   8.236  0.5613  0.6403 -0.6264
 7736SOL    HW234842   4.478   2.240   8.329 -0.0433 -0.3208 -1.6840
 7737SOL     OW34843   2.592   1.694  11.979  0.1640  0.2608  0.1759
 7737SOL    HW134844   2.621   1.734  12.061  0.0132 -0.1477  0.4290
 7737SOL    HW234845   2.503   1.724  11.963  1.0039  1.8936 -1.3421
 7738SOL     OW34846   2.409   0.755   3.531 -0.0490 -0.0092 -0.1440
 7738SOL    HW134847   2.462   0.705   3.468  0.9877 -0.1434  0.8185
 7738SOL    HW234848   2.319   0.740   3.503  0.5043 -0.8047 -1.4832
 7739SOL     OW34849   3.160   4.038   2.166  0.1380 -0.0091 -0.8201
 7739SOL    HW134850   3.113   4.089   2.232  0.2863 -1.6450  0.5424
 7739SOL    HW234851   3.127   3.949   2.175  0.6539 -0.0346  0.8875
 7740SOL     OW34852   0.461   1.953   8.676  0.0962 -0.0239  0.1532
 7740SOL    HW134853   0.408   2.026   8.644 -0.4899 -0.0330  1.0975
 7740SOL    HW234854   0.404   1.911   8.741  0.2520  0.0843  0.3608
 7741SOL     OW34855   4.570   0.005   5.377  0.4869 -0.0828 -0.3692
 7741SOL    HW134856   4.511   0.017   5.451 -1.1681 -1.1732 -1.5300
 7741SOL    HW234857   4.653   4.725   5.423  0.3479 -1.9276 -0.8161
 7742SOL     OW34858   4.238   2.589   6.682 -0.2187  0.2276 -0.1782
 7742SOL    HW134859   4.181   2.582   6.758 -0.3457 -0.8585 -0.3613
 7742SOL    HW234860   4.200   2.515   6.634 -1.6406  0.6575  0.2852
 7743SOL     OW34861   1.137   4.647   3.540 -0.0810  0.1675  0.5719
 7743SOL    HW134862   1.132   4.596   3.459 -1.8035  0.8070  0.2879
 7743SOL    HW234863   1.046   4.677   3.544  0.0897  0.7915 -0.3743
 7744SOL     OW34864   0.468   1.358  10.566 -0.4593  0.4630 -0.1424
 7744SOL    HW134865   0.433   1.308  10.639  0.6318 -0.5938 -0.3354
 7744SOL    HW234866   0.497   1.442  10.601  0.4849  0.6036 -1.2723
 7745SOL     OW34867   0.144   1.966   0.299  0.2679  0.0644  0.1728
 7745SOL    HW134868   0.157   2.029   0.228 -0.9751 -0.5411 -0.5961
 7745SOL    HW234869   0.090   1.898   0.259 -2.3840  2.4936 -0.3462
 7746SOL     OW34870   0.249   3.123   0.547  0.0799 -0.0152  0.5410
 7746SOL    HW134871   0.204   3.039   0.545 -0.2728  0.1947 -0.2591
 7746SOL    HW234872   0.334   3.106   0.506 -0.5368 -0.6664 -0.4612
 7747SOL     OW34873   0.915   0.112   2.390 -0.1386 -0.0278 -0.0005
 7747SOL    HW134874   0.945   0.074   2.307 -0.2784  2.1482 -1.0486
 7747SOL    HW234875   1.001   0.135   2.426  0.7552 -3.1669 -0.1608
 7748SOL     OW34876   2.127   0.934   7.555  0.0757  0.0290  0.5231
 7748SOL    HW134877   2.089   0.942   7.642 -0.5746  0.3985  0.1993
 7748SOL    HW234878   2.057   0.897   7.500 -1.0947  0.2063  1.9026
 7749SOL     OW34879   2.843   4.468   1.832  0.3577  0.5252 -0.2283
 7749SOL    HW134880   2.903   4.405   1.792 -1.7914 -1.4373 -0.3860
 7749SOL    HW234881   2.853   4.450   1.925  2.1261 -1.9340 -0.8900
 7750SOL     OW34882   3.534   2.319   8.339  0.4249  0.4233  0.2793
 7750SOL    HW134883   3.446   2.311   8.376  0.3094 -3.0152 -0.6730
 7750SOL    HW234884   3.536   2.413   8.324  1.1166  0.4260  0.3877
 7751SOL     OW34885   1.009   2.793   2.004  0.1026  0.6378 -0.2359
 7751SOL    HW134886   1.034   2.881   1.976  0.5208 -0.0997 -2.1723
 7751SOL    HW234887   0.959   2.760   1.930  1.2464  0.1929 -0.8156
 7752SOL     OW34888   1.917   0.850  11.209  0.7970 -0.1899 -0.8116
 7752SOL    HW134889   1.995   0.883  11.253  0.0938  0.7347 -0.2671
 7752SOL    HW234890   1.954   0.784  11.151  0.8011 -1.8788  1.0748
 7753SOL     OW34891   0.111   2.309   3.999  0.1090 -0.1518  0.1125
 7753SOL    HW134892   0.078   2.307   3.910  1.3104  0.6259 -0.3519
 7753SOL    HW234893   0.040   2.345   4.052 -0.6993  0.3256 -1.3021
 7754SOL     OW34894   3.132   2.990   7.781  0.6623 -0.1405 -0.0401
 7754SOL    HW134895   3.116   3.067   7.835  1.4595  0.2885 -0.4235
 7754SOL    HW234896   3.214   3.008   7.735  1.5317 -3.0866  0.3309
 7755SOL     OW34897   2.350   4.666   4.609  0.1446 -0.0656  0.5606
 7755SOL    HW134898   2.383   4.599   4.550  1.7632  0.5467  0.7918
 7755SOL    HW234899   2.351   4.620   4.692 -1.0837  0.1350  0.6908
 7756SOL     OW34900   4.590   3.993  12.335 -0.3109  0.2761 -0.4632
 7756SOL    HW134901   4.517   3.991  12.397  0.7331  1.3421  0.8039
 7756SOL    HW234902   4.594   3.900  12.314 -0.9107  0.1432  0.0325
 7757SOL     OW34903   4.400   3.617  11.250 -0.2117 -0.0720  0.0957
 7757SOL    HW134904   4.317   3.608  11.298  1.6997  1.4131  3.6751
 7757SOL    HW234905   4.366   3.641  11.164  3.5941  2.9317 -0.5679
 7758SOL     OW34906   0.254   4.682  16.140 -0.4164  0.0203  0.3086
 7758SOL    HW134907   0.263   4.648  16.229  0.8918 -1.3894 -0.3602
 7758SOL    HW234908   0.288   4.607  16.092  1.4465  1.1370 -0.1284
 7759SOL     OW34909   3.817   2.007  11.345  0.0386  0.0102 -0.9355
 7759SOL    HW134910   3.853   2.008  11.256  0.0677 -0.6362 -0.9301
 7759SOL    HW234911   3.753   2.077  11.356 -0.4814 -0.6354  0.2056
 7760SOL     OW34912   0.239   2.747   9.900 -0.3778  0.2701  0.2311
 7760SOL    HW134913   0.320   2.704   9.872 -0.3556 -0.5155  1.4798
 7760SOL    HW234914   0.184   2.673   9.927  0.1341 -0.2384 -0.1137
 7761SOL     OW34915   3.606   3.935   9.074  0.5167  0.8009 -0.0174
 7761SOL    HW134916   3.654   3.869   9.124  1.6727 -0.7332 -3.1854
 7761SOL    HW234917   3.526   3.945   9.126  1.5610  3.6628  1.0712
 7762SOL     OW34918   3.472   1.432   9.816  0.0091  0.2372  0.5478
 7762SOL    HW134919   3.513   1.507   9.773 -0.6067 -0.4067 -1.1614
 7762SOL    HW234920   3.399   1.423   9.755  0.8365  0.0679 -0.4269
 7763SOL     OW34921   0.652   1.412  12.075  0.0464  0.2450  0.0745
 7763SOL    HW134922   0.693   1.447  11.996 -0.4372 -2.7116 -1.4668
 7763SOL    HW234923   0.721   1.441  12.135  1.6087 -0.1729 -1.5304
 7764SOL     OW34924   1.577   4.509   4.552 -0.0928  0.1198 -0.6577
 7764SOL    HW134925   1.550   4.471   4.469 -0.1187 -1.4961  0.0918
 7764SOL    HW234926   1.503   4.564   4.578  1.7464  2.0640  0.4995
 7765SOL     OW34927   4.257   1.467   4.091  0.7733  0.0784  0.5349
 7765SOL    HW134928   4.237   1.397   4.153  1.6612  0.0626  0.8042
 7765SOL    HW234929   4.243   1.544   4.146 -0.0704  0.4480 -0.1873
 7766SOL     OW34930   0.231   3.597   7.617  0.2866  0.5644  0.2405
 7766SOL    HW134931   0.174   3.540   7.565  0.7523  0.0001  0.3502
 7766SOL    HW234932   0.311   3.569   7.574 -1.7645 -0.2241 -3.0717
 7767SOL     OW34933   3.070   3.177   3.509 -0.1490 -0.5595  0.1904
 7767SOL    HW134934   3.113   3.116   3.450 -0.7262 -0.5727 -0.2150
 7767SOL    HW234935   3.143   3.232   3.538  0.1987 -0.7743 -0.3029
 7768SOL     OW34936   1.568   1.285   1.399 -0.3496 -0.1010  0.4466
 7768SOL    HW134937   1.498   1.265   1.462  0.4326 -1.1984  0.9593
 7768SOL    HW234938   1.524   1.289   1.314 -0.8552  1.4474  0.7700
 7769SOL     OW34939   4.462   4.296  13.975 -0.1708 -0.2995  0.5359
 7769SOL    HW134940   4.483   4.346  14.054 -0.0731 -0.2263  0.4632
 7769SOL    HW234941   4.376   4.260  13.994  0.3611 -0.6678  2.2215
 7770SOL     OW34942   4.327   4.203  15.919 -0.6383 -0.2988  0.7717
 7770SOL    HW134943   4.241   4.183  15.882 -0.3662 -1.8017  0.9542
 7770SOL    HW234944   4.365   4.264  15.857 -1.2385  0.6517  1.3357
 7771SOL     OW34945   4.414   1.763   8.809 -0.1194  0.7311 -0.6270
 7771SOL    HW134946   4.330   1.737   8.773 -0.7621  2.0425 -0.0719
 7771SOL    HW234947   4.391   1.778   8.901  2.2359  0.2626  0.0593
 7772SOL     OW34948   3.233   0.055  15.277 -0.2533  0.3942 -0.0897
 7772SOL    HW134949   3.251   0.149  15.273  1.3236  0.0654 -0.7114
 7772SOL    HW234950   3.220   0.037  15.184  1.3266  0.1549 -0.2721
 7773SOL     OW34951   3.173   3.606   3.961  0.3243  0.1374  0.1838
 7773SOL    HW134952   3.160   3.523   3.914  1.1709 -1.1354  2.1948
 7773SOL    HW234953   3.082   3.610   3.990  0.7032 -1.4906  1.6501
 7774SOL     OW34954   0.964   4.730  10.843  0.1717 -0.0510 -0.1389
 7774SOL    HW134955   0.927   0.010  10.930  0.7092 -0.0335  0.0885
 7774SOL    HW234956   0.941   4.640  10.819 -0.9162  0.1996 -0.0079
 7775SOL     OW34957   0.784   0.942   7.430  0.0285  0.2331 -0.0645
 7775SOL    HW134958   0.851   1.007   7.451 -0.9010  2.2629 -3.3524
 7775SOL    HW234959   0.722   0.956   7.501  0.1825 -2.1741  0.5376
 7776SOL     OW34960   2.787   4.622   1.238 -0.3221 -0.0331 -0.2521
 7776SOL    HW134961   2.821   4.691   1.296 -1.5255  2.5874 -2.6919
 7776SOL    HW234962   2.864   4.571   1.214 -1.1545 -1.4129 -0.0094
 7777SOL     OW34963   2.695   2.841  15.244  0.1868  0.4991 -0.2391
 7777SOL    HW134964   2.619   2.796  15.281  0.5040  2.0039  2.2841
 7777SOL    HW234965   2.697   2.803  15.156  2.3942  0.3617 -0.1070
 7778SOL     OW34966   2.682   4.019   0.358  0.3844  0.0931  0.3573
 7778SOL    HW134967   2.590   3.998   0.340 -0.2541  1.2851  2.1411
 7778SOL    HW234968   2.707   3.969   0.436  0.0020 -0.5605  0.0564
 7779SOL     OW34969   1.547   3.410  12.238  0.0170 -0.5848  0.2666
 7779SOL    HW134970   1.626   3.405  12.292  1.1401 -0.0341 -1.3252
 7779SOL    HW234971   1.504   3.489  12.271  1.5316 -0.3633  1.7573
 7780SOL     OW34972   1.988   3.718   7.680 -0.4379  0.3524 -0.0969
 7780SOL    HW134973   1.937   3.744   7.757 -0.1490 -0.0756  0.2401
 7780SOL    HW234974   2.073   3.703   7.719  0.4870 -2.4580 -3.1551
 7781SOL     OW34975   1.677   4.185   5.897 -0.1158  0.3312  0.0097
 7781SOL    HW134976   1.655   4.135   5.976  1.6101 -1.0540 -0.4048
 7781SOL    HW234977   1.611   4.151   5.836 -2.6730  3.6515  0.8632
 7782SOL     OW34978   2.633   4.229   3.517  0.5251  0.5381  0.6902
 7782SOL    HW134979   2.678   4.166   3.461 -0.6529 -1.0709  1.5601
 7782SOL    HW234980   2.587   4.278   3.449  0.3697  0.9892  1.1152
 7783SOL     OW34981   3.812   2.430   3.821  0.2121 -0.6329 -0.0922
 7783SOL    HW134982   3.852   2.509   3.784  3.3341 -1.5985  1.1889
 7783SOL    HW234983   3.886   2.381   3.856  0.2327  0.4712  1.3945
 7784SOL     OW34984   3.660   2.911  14.887  0.1879 -0.3172  0.4391
 7784SOL    HW134985   3.605   2.856  14.832 -1.1166  0.6963  0.7347
 7784SOL    HW234986   3.744   2.913  14.840  0.2215 -3.5528  0.3727
 7785SOL     OW34987   4.332   3.971   8.745 -0.0398  0.2488  0.4108
 7785SOL    HW134988   4.390   3.941   8.815  0.2063 -0.1012  0.0590
 7785SOL    HW234989   4.252   3.924   8.771 -0.0444  0.8828  1.5279
 7786SOL     OW34990   1.660   0.645  12.622  0.2563  0.4272  0.1373
 7786SOL    HW134991   1.703   0.608  12.545  1.5177  2.1862  0.0128
 7786SOL    HW234992   1.588   0.583  12.636 -0.3857  0.9619 -0.8233
 7787SOL     OW34993   0.687   0.988   4.581  0.2911 -0.5958  0.5302
 7787SOL    HW134994   0.674   0.915   4.641  0.5776 -1.3699 -0.3599
 7787SOL    HW234995   0.755   1.035   4.630 -1.5263  2.9693 -0.3047
 7788SOL     OW34996   2.331   0.607   8.728 -0.0171  0.2544  0.0892
 7788SOL    HW134997   2.376   0.531   8.765 -1.3115  0.1807  1.4926
 7788SOL    HW234998   2.245   0.573   8.704  0.0540 -0.8571  1.4720
 7789SOL     OW34999   4.187   2.283   1.955  0.1055 -0.0006  0.5476
 7789SOL    HW135000   4.227   2.343   1.892 -1.1040  0.2389 -0.0059
 7789SOL    HW235001   4.140   2.218   1.902  1.1142 -2.9885  3.3533
 7790SOL     OW35002   2.530   3.006  11.738  0.3594  0.4303  0.1043
 7790SOL    HW135003   2.453   2.957  11.766  0.2585 -0.5029 -1.8090
 7790SOL    HW235004   2.535   3.009  11.642 -1.8338  0.3407 -0.0204
 7791SOL     OW35005   2.291   3.222   8.696  0.3245  0.3974 -0.1224
 7791SOL    HW135006   2.293   3.313   8.666  0.0438  0.8580  1.2931
 7791SOL    HW235007   2.245   3.177   8.625  1.1257  0.5197 -0.7200
 7792SOL     OW35008   4.529   2.051   1.728  0.4686  0.7290  0.2951
 7792SOL    HW135009   4.449   2.088   1.766 -0.3255  1.2481 -1.8860
 7792SOL    HW235010   4.538   1.969   1.777  0.0950  1.3736  1.4381
 7793SOL     OW35011   4.665   0.619   6.942  0.1260 -0.2056 -0.5514
 7793SOL    HW135012   4.713   0.702   6.942  0.4489 -0.3967 -1.7772
 7793SOL    HW235013   0.002   0.559   6.956  0.1504  0.2372  1.2926
 7794SOL     OW35014   3.396   1.147   5.759 -0.2966 -0.5875  0.5820
 7794SOL    HW135015   3.303   1.137   5.779 -0.2192 -0.6648  0.9013
 7794SOL    HW235016   3.395   1.148   5.663 -0.3698 -1.1060  0.5759
 7795SOL     OW35017   2.341   3.669   3.028  0.5172  0.3628 -0.1809
 7795SOL    HW135018   2.411   3.709   3.080  0.1886  0.9372 -0.1830
 7795SOL    HW235019   2.378   3.693   2.944  0.1318 -2.0069 -1.0402
 7796SOL     OW35020   1.858   0.070   6.631 -0.2686 -0.0201 -0.2807
 7796SOL    HW135021   1.845   4.711   6.636  1.6972 -0.2323  1.0172
 7796SOL    HW235022   1.770   0.100   6.610 -0.3139 -1.8092 -2.6667
 7797SOL     OW35023   2.324   3.806  12.344  0.1136  0.8368 -0.4442
 7797SOL    HW135024   2.389   3.736  12.342 -1.4908 -0.6546 -0.4145
 7797SOL    HW235025   2.376   3.873  12.389 -1.4075  3.3097 -2.3735
 7798SOL     OW35026   4.527   4.584   7.593  0.2869 -0.1466  0.2573
 7798SOL    HW135027   4.514   4.493   7.569 -0.8634  0.0041  0.3268
 7798SOL    HW235028   4.542   4.628   7.509  1.0644 -1.3503 -0.2420
 7799SOL     OW35029   2.771   4.081   5.914 -0.2593 -0.3702  0.4865
 7799SOL    HW135030   2.700   4.039   5.866 -0.6593  0.7736  0.0655
 7799SOL    HW235031   2.845   4.020   5.916  2.9336  3.4599  1.2889
 7800SOL     OW35032   0.469   3.979  15.798  0.6416 -0.2135  0.3219
 7800SOL    HW135033   0.462   4.068  15.831  2.3529 -0.3610  1.0912
 7800SOL    HW235034   0.493   3.987  15.706  1.6936 -1.7819  0.4600
 7801SOL     OW35035   3.717   3.842  15.698 -0.0298 -0.2737  0.0196
 7801SOL    HW135036   3.762   3.861  15.780  0.3879 -0.7928 -0.0870
 7801SOL    HW235037   3.741   3.922  15.650  1.8172 -1.1573 -0.5306
 7802SOL     OW35038   1.516   4.085   4.606  0.2150  0.5354 -0.6060
 7802SOL    HW135039   1.429   4.114   4.578 -0.9399 -0.3223  2.0616
 7802SOL    HW235040   1.505   4.034   4.686  3.0334 -0.5777 -0.9349
 7803SOL     OW35041   2.363   2.635  12.547  0.4623 -0.2495  0.0029
 7803SOL    HW135042   2.369   2.719  12.501 -2.2321  0.3064  0.6766
 7803SOL    HW235043   2.391   2.572  12.481 -0.0106 -0.5242  0.0614
 7804SOL     OW35044   4.151   4.418   2.376 -0.2325 -0.3541 -0.2148
 7804SOL    HW135045   4.056   4.424   2.380 -0.1640 -0.6996  2.2821
 7804SOL    HW235046   4.160   4.324   2.392  0.7215 -0.5042 -1.6469
 7805SOL     OW35047   1.375   0.289  17.253  0.6996  0.0483 -0.3363
 7805SOL    HW135048   1.394   0.353  17.183 -1.5912  2.3519  1.1590
 7805SOL    HW235049   1.285   0.308  17.278  0.6604  2.3820 -2.2552
 7806SOL     OW35050   0.934   0.216   9.270  0.2032  0.4867  0.0097
 7806SOL    HW135051   0.934   0.311   9.261  0.4005  0.4849 -0.0094
 7806SOL    HW235052   1.022   0.207   9.307 -0.4447  0.4174  1.5525
 7807SOL     OW35053   0.854   0.726   4.640  0.1678 -0.1322  0.4697
 7807SOL    HW135054   0.760   0.713   4.652  0.1628 -0.7064 -0.1984
 7807SOL    HW235055   0.883   0.635   4.630  2.3301  0.5983 -0.0302
 7808SOL     OW35056   4.121   0.016   8.666 -0.3870 -0.0588 -0.0946
 7808SOL    HW135057   4.064   4.720   8.736  1.1582 -2.3440  0.1058
 7808SOL    HW235058   4.176   4.677   8.645 -0.0497  0.2460 -0.2902
 7809SOL     OW35059   3.817   3.396   3.432  0.0227 -0.3797 -0.1047
 7809SOL    HW135060   3.806   3.488   3.407  0.4461 -0.4787 -0.6756
 7809SOL    HW235061   3.905   3.414   3.464  0.0819  1.2872 -1.1779
 7810SOL     OW35062   0.887   3.922   2.381  0.3044 -0.0743 -0.1929
 7810SOL    HW135063   0.827   3.859   2.420  0.8451 -0.3610  0.1838
 7810SOL    HW235064   0.947   3.866   2.331 -1.6462 -0.9009 -1.6058
 7811SOL     OW35065   0.676   2.074  10.830  0.6946  0.2834  0.1961
 7811SOL    HW135066   0.738   2.002  10.843 -1.2786 -1.6320 -1.0709
 7811SOL    HW235067   0.631   2.071  10.915 -0.5711  0.4281 -0.4821
 7812SOL     OW35068   0.607   4.287   1.169 -0.0648  0.0429  0.1900
 7812SOL    HW135069   0.540   4.335   1.218 -0.3096  0.7263 -0.8177
 7812SOL    HW235070   0.681   4.347   1.167 -0.1295  0.1389  0.8291
 7813SOL     OW35071   1.748   2.077   4.296 -0.1312 -0.2940  0.5311
 7813SOL    HW135072   1.736   2.026   4.216 -0.8608 -2.1549  1.8315
 7813SOL    HW235073   1.763   2.161   4.253  0.6612  0.0348  1.4624
 7814SOL     OW35074   2.930   2.299   3.383  0.3016  0.3593 -0.5211
 7814SOL    HW135075   2.963   2.269   3.298 -0.0727  1.4227 -1.0415
 7814SOL    HW235076   3.002   2.272   3.440 -0.3650 -1.0976 -0.3641
 7815SOL     OW35077   4.646   4.305   1.107 -0.2857  0.1571  0.2536
 7815SOL    HW135078   4.586   4.287   1.180 -0.0269  1.1294  0.7051
 7815SOL    HW235079   4.649   4.220   1.062 -1.9603 -0.3961  1.1622
 7816SOL     OW35080   3.914   3.292   0.233  0.3115  0.1613  0.2990
 7816SOL    HW135081   3.878   3.343   0.306 -0.9440 -0.3192  0.0302
 7816SOL    HW235082   3.840   3.232   0.221 -0.6424  0.8931  2.3391
 7817SOL     OW35083   1.943   0.736  16.068 -0.2057  0.2523  0.4494
 7817SOL    HW135084   1.848   0.736  16.060  0.0587  1.2330 -2.7227
 7817SOL    HW235085   1.964   0.775  15.983 -1.2997 -0.9837 -0.3848
 7818SOL     OW35086   3.465   3.041   7.874 -0.1081 -0.2166 -0.3904
 7818SOL    HW135087   3.556   3.068   7.890 -0.3423 -1.5874  3.1570
 7818SOL    HW235088   3.439   3.106   7.809 -0.5610 -2.4119 -2.4241
 7819SOL     OW35089   0.912   1.098   9.234 -0.0102 -0.1270  0.1785
 7819SOL    HW135090   0.981   1.157   9.204  0.6497 -1.8499 -1.6670
 7819SOL    HW235091   0.843   1.157   9.263  0.6356  0.1037  1.2317
 7820SOL     OW35092   3.597   1.387  14.474  0.4359 -0.4535 -0.2680
 7820SOL    HW135093   3.549   1.375  14.393  0.9303 -2.3526 -0.2774
 7820SOL    HW235094   3.652   1.308  14.473 -1.1241 -1.5292 -0.4175
 7821SOL     OW35095   2.193   1.539   6.336  0.1431  0.5035  0.0250
 7821SOL    HW135096   2.190   1.587   6.419 -0.3275  2.3715 -1.0558
 7821SOL    HW235097   2.285   1.512   6.328 -0.5657 -1.3560 -1.7030
 7822SOL     OW35098   2.598   4.145  17.300 -0.2061  0.3784  0.0538
 7822SOL    HW135099   2.600   4.139  17.395  0.8359  0.5302  0.0376
 7822SOL    HW235100   2.548   4.225  17.288 -0.0411  0.0936 -2.6195
 7823SOL     OW35101   1.551   3.509   1.245  0.5567  0.4150 -0.0517
 7823SOL    HW135102   1.460   3.540   1.243  0.0646 -0.9129  2.1470
 7823SOL    HW235103   1.594   3.591   1.270  0.1190  1.0588 -1.4020
 7824SOL     OW35104   0.229   0.199   4.052 -0.5681  0.3265 -0.3652
 7824SOL    HW135105   0.139   0.178   4.027 -0.4531 -1.1003  0.3820
 7824SOL    HW235106   0.269   0.139   3.989 -1.7005 -0.9638  0.1548
 7825SOL     OW35107   0.875   2.332   9.976  0.4445  0.3290  0.6134
 7825SOL    HW135108   0.948   2.336  10.038  0.5070  1.5292  0.4605
 7825SOL    HW235109   0.804   2.378  10.020 -0.4085 -0.6542  0.2815
 7826SOL     OW35110   3.761   1.480   2.450  0.1266  0.5526  0.3427
 7826SOL    HW135111   3.666   1.480   2.441  0.1585  0.2201  0.0108
 7826SOL    HW235112   3.789   1.429   2.373  1.7919  0.1524  1.2035
 7827SOL     OW35113   1.596   0.856  10.572 -0.1436  0.6332 -0.0874
 7827SOL    HW135114   1.679   0.840  10.616 -1.1667  1.3590  2.0923
 7827SOL    HW235115   1.637   0.892  10.494 -1.4537  0.8555 -0.6761
 7828SOL     OW35116   0.007   1.973   5.369 -0.0991 -0.0336  0.0970
 7828SOL    HW135117   4.674   2.011   5.423 -0.7128 -1.7011  0.4689
 7828SOL    HW235118   0.029   1.892   5.414 -1.2363 -0.4132 -0.0267
 7829SOL     OW35119   3.826   4.432   9.011 -0.0452 -0.2483  0.1025
 7829SOL    HW135120   3.897   4.381   8.972 -0.9466 -2.6521  1.5636
 7829SOL    HW235121   3.756   4.409   8.949 -1.4089  0.9482  1.2094
 7830SOL     OW35122   4.048   3.972   5.196 -0.0402 -0.0091 -0.9050
 7830SOL    HW135123   4.033   3.893   5.144  3.6366 -0.5531 -1.1096
 7830SOL    HW235124   4.033   4.035   5.126  1.2240  0.5155 -0.6891
 7831SOL     OW35125   3.658   0.819   3.512  0.0345  0.4307  0.1460
 7831SOL    HW135126   3.753   0.821   3.499 -0.0248 -1.3959 -0.6664
 7831SOL    HW235127   3.616   0.831   3.427 -0.8901  2.6755  0.9355
 7832SOL     OW35128   2.082   0.137   9.856  0.7406  0.0974  0.1966
 7832SOL    HW135129   2.156   0.085   9.890 -0.2768 -0.7334  1.1253
 7832SOL    HW235130   2.099   0.159   9.765 -2.3026  3.1928  0.3745
 7833SOL     OW35131   2.514   4.423  16.572 -0.6216  0.0800 -0.2794
 7833SOL    HW135132   2.547   4.390  16.489 -0.1521  0.5723 -0.2926
 7833SOL    HW235133   2.425   4.452  16.552 -0.8254  0.7365  1.5980
 7834SOL     OW35134   0.559   4.546   4.550  0.5838  0.0425 -0.1091
 7834SOL    HW135135   0.602   4.630   4.533  0.4731 -0.0339 -0.7729
 7834SOL    HW235136   0.496   4.596   4.602 -0.1517  0.6850 -1.6146
 7835SOL     OW35137   3.152   1.605   8.122 -0.4371 -0.7936  0.0033
 7835SOL    HW135138   3.177   1.543   8.191 -1.9090  0.7171  1.9111
 7835SOL    HW235139   3.058   1.595   8.134 -0.6678  0.8184 -0.5316
 7836SOL     OW35140   2.984   0.017   1.919  0.8345  0.0128 -0.0904
 7836SOL    HW135141   2.992   0.078   1.845 -1.2163 -1.5431 -1.5748
 7836SOL    HW235142   3.020   4.670   1.890  0.7233  0.1404 -0.6008
 7837SOL     OW35143   0.627   4.267  14.112  0.0955 -0.2437  0.3129
 7837SOL    HW135144   0.641   4.178  14.079  0.8329  0.0873 -0.2662
 7837SOL    HW235145   0.694   4.316  14.064 -0.6135 -0.5152 -0.9490
 7838SOL     OW35146   2.338   3.413   5.191 -0.5073  0.1314 -0.4941
 7838SOL    HW135147   2.337   3.501   5.228 -1.2269  0.4334 -1.2246
 7838SOL    HW235148   2.247   3.383   5.189 -0.6135  0.4543 -0.4082
 7839SOL     OW35149   1.351   4.557  17.495  0.2926 -0.6662 -0.7427
 7839SOL    HW135150   1.434   4.512  17.511 -0.4513 -1.5090  0.6658
 7839SOL    HW235151   1.342   4.603  17.578 -1.1557  0.0893 -1.3210
 7840SOL     OW35152   3.015   3.025   2.131 -0.5359  0.3676  0.0175
 7840SOL    HW135153   2.991   2.966   2.202 -0.8224 -0.1758 -0.5257
 7840SOL    HW235154   3.087   2.988   2.079 -0.2818  0.6741  0.1519
 7841SOL     OW35155   2.025   3.278   2.880 -0.6030  0.2497 -0.2533
 7841SOL    HW135156   2.046   3.224   2.957 -0.6379 -0.7130 -0.9150
 7841SOL    HW235157   1.992   3.359   2.917  0.8253  1.2656 -1.1913
 7842SOL     OW35158   1.758   1.214  12.919  0.2918 -0.2941  0.0149
 7842SOL    HW135159   1.774   1.121  12.903 -0.2506 -0.5013  0.6778
 7842SOL    HW235160   1.666   1.216  12.895  0.3793  0.4767 -0.2434
 7843SOL     OW35161   2.714   3.420  12.158 -0.1260  0.9849 -0.1626
 7843SOL    HW135162   2.744   3.350  12.216  0.1528  0.6275 -0.7435
 7843SOL    HW235163   2.758   3.404  12.074 -0.5403 -0.8545 -0.0370
 7844SOL     OW35164   2.332   2.859   6.220 -0.2710  0.1604 -0.5100
 7844SOL    HW135165   2.291   2.820   6.143 -0.1628 -2.1549  0.5961
 7844SOL    HW235166   2.302   2.785   6.273 -1.7850  0.1252 -1.4130
 7845SOL     OW35167   0.894   0.119   6.935  0.0007  0.1525 -0.1229
 7845SOL    HW135168   0.954   0.149   7.004  1.1646  1.0466 -1.5182
 7845SOL    HW235169   0.949   0.048   6.903  1.2878  1.7756 -1.5339
 7846SOL     OW35170   3.701   2.600   7.751  0.0123  0.0319 -0.0800
 7846SOL    HW135171   3.771   2.659   7.724  1.0513 -0.8126  0.7871
 7846SOL    HW235172   3.748   2.529   7.794  1.0868  0.8961  0.1707
 7847SOL     OW35173   4.435   0.263   2.201  0.2692 -0.1434 -0.0969
 7847SOL    HW135174   4.519   0.302   2.226  0.7880 -0.9894 -0.4810
 7847SOL    HW235175   4.388   0.285   2.281  1.7212  1.7322  0.2330
 7848SOL     OW35176   3.963   4.631  11.072  0.0006  0.2805 -0.4017
 7848SOL    HW135177   3.946   4.685  11.149 -0.5957 -0.2191 -0.1778
 7848SOL    HW235178   3.908   4.672  11.005  1.4778 -0.3373 -1.9764
 7849SOL     OW35179   2.964   1.172  14.874  0.5669 -0.1795  0.2469
 7849SOL    HW135180   2.870   1.153  14.882  0.7444 -1.3649 -0.5615
 7849SOL    HW235181   2.983   1.155  14.782 -0.3876  2.0039 -0.3544
 7850SOL     OW35182   0.907   4.170   2.222 -0.3860  0.2520  0.4259
 7850SOL    HW135183   0.902   4.126   2.137  0.6076 -1.8672  1.4651
 7850SOL    HW235184   0.885   4.101   2.285  2.3491 -0.0121  1.0842
 7851SOL     OW35185   3.483   2.641   3.995 -0.0109  0.2238 -0.3053
 7851SOL    HW135186   3.488   2.584   4.071 -2.6543 -2.6939 -2.3703
 7851SOL    HW235187   3.505   2.586   3.920 -0.2152  0.9053 -0.8713
 7852SOL     OW35188   2.399   3.599   2.386  0.6616  0.2183  0.0824
 7852SOL    HW135189   2.315   3.553   2.393 -1.4481  3.4719 -3.8367
 7852SOL    HW235190   2.383   3.680   2.435 -2.3606 -0.2235 -0.1927
 7853SOL     OW35191   3.049   1.763   2.456 -0.4123  0.0649 -0.5201
 7853SOL    HW135192   3.073   1.670   2.462  1.0166  0.5083  0.8682
 7853SOL    HW235193   3.051   1.777   2.361 -3.5269 -0.5929 -0.6560
 7854SOL     OW35194   4.070   4.087   0.799 -0.6013 -0.1634 -0.0566
 7854SOL    HW135195   4.036   4.024   0.861 -0.7038 -1.2896 -1.2560
 7854SOL    HW235196   3.996   4.141   0.770 -0.5252  0.1124  0.2630
 7855SOL     OW35197   3.784   2.024  10.282 -0.0148 -0.1496 -0.4804
 7855SOL    HW135198   3.840   1.951  10.306 -0.3864 -0.0834  0.6004
 7855SOL    HW235199   3.704   1.987  10.318  0.3131 -0.8088 -0.4340
 7856SOL     OW35200   4.451   1.167   4.316 -0.4768  0.6046  0.1363
 7856SOL    HW135201   4.363   1.202   4.329 -0.1667  0.9107  1.4105
 7856SOL    HW235202   4.503   1.241   4.349  1.1693 -0.0279 -1.0189
 7857SOL     OW35203   0.097   3.201  17.243 -0.1197  0.4596 -0.2072
 7857SOL    HW135204   0.145   3.220  17.324 -1.6589  0.4287  0.7091
 7857SOL    HW235205   0.025   3.150  17.281  1.0562 -0.6819  0.5276
 7858SOL     OW35206   3.860   2.855   2.188 -0.1822 -0.2968 -0.2725
 7858SOL    HW135207   3.791   2.797   2.155  0.2363 -1.6755  1.3286
 7858SOL    HW235208   3.814   2.895   2.261 -1.1622 -0.8615 -0.5773
 7859SOL     OW35209   3.537   1.120   8.919 -0.4114  0.5023 -0.4716
 7859SOL    HW135210   3.501   1.056   8.980  2.6412 -2.4265 -1.7385
 7859SOL    HW235211   3.595   1.060   8.872  1.8805  3.0961 -0.9224
 7860SOL     OW35212   0.091   3.939   1.908  0.3372  0.2632  0.2526
 7860SOL    HW135213   0.084   4.034   1.900 -0.1260  0.1595 -0.6174
 7860SOL    HW235214   0.164   3.915   1.851 -0.0885  0.5017 -0.3931
 7861SOL     OW35215   2.849   3.380   8.757 -0.1107  0.3950  0.5217
 7861SOL    HW135216   2.915   3.330   8.805  0.7932  0.5587 -0.5453
 7861SOL    HW235217   2.772   3.347   8.803 -0.2562 -1.7002 -1.2655
 7862SOL     OW35218   4.558   2.711   7.007 -0.0838 -0.3344  0.3261
 7862SOL    HW135219   4.490   2.736   6.944  0.8025  0.9715 -0.0921
 7862SOL    HW235220   4.526   2.621   7.018  2.2702 -0.9731  1.8975
 7863SOL     OW35221   1.652   2.998  14.967  0.3209  0.0969 -0.5598
 7863SOL    HW135222   1.661   2.906  14.992 -1.2579 -0.5317 -2.2982
 7863SOL    HW235223   1.717   3.042  15.021  1.0218 -3.0004  1.0902
 7864SOL     OW35224   3.864   2.812   4.031 -0.5207  0.2698  0.0268
 7864SOL    HW135225   3.879   2.769   3.946 -1.7545 -1.8353  0.8761
 7864SOL    HW235226   3.934   2.876   4.018 -1.2704  0.8428 -1.2601
 7865SOL     OW35227   0.811   1.174   1.557 -0.5235 -0.0037  0.2273
 7865SOL    HW135228   0.764   1.255   1.540 -3.8181 -1.5680  1.9071
 7865SOL    HW235229   0.785   1.163   1.648 -2.2274 -2.6683 -0.5681
 7866SOL     OW35230   3.325   0.865   2.764 -0.0694 -0.4746  0.2113
 7866SOL    HW135231   3.377   0.909   2.831  1.0227  1.4521 -1.8960
 7866SOL    HW235232   3.369   0.891   2.683 -0.8050  2.4974  0.7679
 7867SOL     OW35233   1.588   3.771   7.597 -0.1644 -0.5709  0.2451
 7867SOL    HW135234   1.509   3.728   7.631 -0.4272  0.0696  0.4352
 7867SOL    HW235235   1.628   3.796   7.680  2.1448  0.8749 -1.2950
 7868SOL     OW35236   0.036   4.507   7.710  0.4247  0.1422 -0.0030
 7868SOL    HW135237   0.062   4.579   7.653  0.4089 -0.1564 -0.3918
 7868SOL    HW235238   4.679   4.496   7.693  0.6701  0.0943 -1.3462
 7869SOL     OW35239   2.990   4.458   6.529  0.2492  0.3327  0.1285
 7869SOL    HW135240   3.055   4.494   6.589  1.1580  0.6206 -1.0266
 7869SOL    HW235241   2.925   4.526   6.512  1.2031  1.0366 -0.7187
 7870SOL     OW35242   0.828   1.583   1.873 -0.3417  0.2393  0.0114
 7870SOL    HW135243   0.865   1.640   1.940 -1.6254  1.0880  0.0116
 7870SOL    HW235244   0.906   1.560   1.823 -0.0201  3.3792 -0.9618
 7871SOL     OW35245   4.532   1.814   8.020 -0.6043  0.0294 -0.5981
 7871SOL    HW135246   4.527   1.738   8.078  1.2993  0.0418 -0.4275
 7871SOL    HW235247   4.463   1.872   8.053  0.8467 -0.4140  3.2160
 7872SOL     OW35248   0.923   0.101   7.517  0.3818 -0.3305  0.2335
 7872SOL    HW135249   1.012   0.104   7.484 -0.3249  0.3034 -1.6271
 7872SOL    HW235250   0.888   0.037   7.455  0.1479  2.0699 -2.1553
 7873SOL     OW35251   3.944   2.454   2.925  0.1503 -0.2640 -0.2340
 7873SOL    HW135252   3.867   2.403   2.948  0.3298 -0.2542  0.3832
 7873SOL    HW235253   3.992   2.395   2.867  0.0236 -1.2817  0.7056
 7874SOL     OW35254   1.733   4.494   7.915  0.1799 -0.3951  0.1023
 7874SOL    HW135255   1.671   4.490   7.988 -0.3715  0.5021 -0.3171
 7874SOL    HW235256   1.807   4.544   7.950 -0.4222  0.4556  0.1399
 7875SOL     OW35257   4.718   0.876  17.383 -0.4988  0.2061 -0.1080
 7875SOL    HW135258   4.686   0.966  17.389 -0.7681  0.0103  1.4147
 7875SOL    HW235259   0.075   0.892  17.402 -0.7861  1.6180  0.1279
 7876SOL     OW35260   1.154   3.311   4.833 -0.8798  0.7634  0.9392
 7876SOL    HW135261   1.149   3.252   4.758  1.2576  0.9814  0.6402
 7876SOL    HW235262   1.216   3.380   4.809 -1.1144  0.1559 -1.3520
 7877SOL     OW35263   0.699   2.569  13.589 -0.4536  0.6733  0.0848
 7877SOL    HW135264   0.791   2.597  13.584 -0.1473  0.0031  1.8582
 7877SOL    HW235265   0.655   2.651  13.611 -0.2473  0.8354 -0.1094
 7878SOL     OW35266   2.985   0.631   3.249  0.0740 -0.1431  1.0273
 7878SOL    HW135267   2.986   0.721   3.219 -1.0633 -0.1590  0.9196
 7878SOL    HW235268   3.066   0.597   3.211  1.3765  1.1371  2.6982
 7879SOL     OW35269   2.526   3.359   4.083  0.3241  0.0247 -0.1178
 7879SOL    HW135270   2.537   3.368   3.989  1.6942 -0.5226 -0.0024
 7879SOL    HW235271   2.471   3.434   4.104  1.4877 -0.0352  3.2219
 7880SOL     OW35272   0.911   1.280  15.953  0.1142  0.2874 -0.1408
 7880SOL    HW135273   1.000   1.280  15.917 -1.1554 -1.7059 -3.2863
 7880SOL    HW235274   0.861   1.271  15.872  2.1480 -0.5573 -1.3206
 7881SOL     OW35275   2.762   1.695   5.541  0.5144  0.4691  0.1777
 7881SOL    HW135276   2.852   1.667   5.556  0.1284 -0.9150 -0.1185
 7881SOL    HW235277   2.777   1.766   5.479  1.3060 -1.1488 -1.4950
 7882SOL     OW35278   1.092   4.016   2.649  0.4451  0.9686  0.2323
 7882SOL    HW135279   1.099   3.924   2.622 -0.6691  0.4627  1.6749
 7882SOL    HW235280   1.144   4.060   2.582 -0.7367 -0.1476 -1.4080
 7883SOL     OW35281   1.103   4.672   4.315  0.3185  0.0760  0.2088
 7883SOL    HW135282   1.114   4.691   4.221  1.4634  1.2702  0.5678
 7883SOL    HW235283   1.092   0.026   4.346  0.6458 -0.2812  1.3405
 7884SOL     OW35284   2.071   4.704   2.986  0.3114 -0.3408  0.6581
 7884SOL    HW135285   2.058   4.610   3.000  0.4166 -0.4749 -0.1187
 7884SOL    HW235286   1.999   0.013   3.028  0.7292  0.5678  0.3901
 7885SOL     OW35287   4.693   1.641  13.360  0.0091 -0.3159  0.1702
 7885SOL    HW135288   4.677   1.554  13.397 -0.4792 -0.4473 -0.3592
 7885SOL    HW235289   4.688   1.695  13.440  1.3160  0.3071 -0.1820
 7886SOL     OW35290   4.457   3.219   6.079 -0.0284  0.1539 -0.3989
 7886SOL    HW135291   4.539   3.263   6.058 -0.2763  0.7896 -0.0601
 7886SOL    HW235292   4.407   3.298   6.098 -1.1479 -0.3417 -1.2637
 7887SOL     OW35293   0.488   0.972   0.651  0.3666 -0.7668  0.0572
 7887SOL    HW135294   0.542   0.898   0.623  1.5233 -0.2838  0.9994
 7887SOL    HW235295   0.497   1.037   0.582  0.8272 -3.2835 -2.2870
 7888SOL     OW35296   2.211   1.400   8.714  0.1289 -0.3990 -0.0768
 7888SOL    HW135297   2.299   1.390   8.751 -0.0020 -2.0422 -0.2034
 7888SOL    HW235298   2.157   1.446   8.779 -0.3836  1.5539 -1.8665
 7889SOL     OW35299   2.096   2.769   0.905 -0.8947  0.5742 -0.1979
 7889SOL    HW135300   2.181   2.791   0.942 -0.2341 -0.5035 -1.0923
 7889SOL    HW235301   2.050   2.764   0.989  0.9387 -1.0582  0.6847
 7890SOL     OW35302   2.850   0.341   1.255 -0.2783  0.2612  0.4559
 7890SOL    HW135303   2.758   0.353   1.279  0.6267 -0.2357  4.0605
 7890SOL    HW235304   2.867   0.256   1.295  3.7804  0.5725 -0.6228
 7891SOL     OW35305   3.462   1.286   2.641 -0.2159 -0.0305  0.2039
 7891SOL    HW135306   3.418   1.307   2.724 -0.5631 -1.9471  0.4959
 7891SOL    HW235307   3.397   1.229   2.599  1.5980  0.1796 -2.8309
 7892SOL     OW35308   1.472   2.802   2.947  0.1352  0.1947 -0.9756
 7892SOL    HW135309   1.538   2.846   2.999  0.0888 -1.8804  0.8440
 7892SOL    HW235310   1.395   2.852   2.973  1.9874  1.9853  1.0511
 7893SOL     OW35311   3.003   1.676   4.445 -0.5310  0.5159 -0.3404
 7893SOL    HW135312   2.919   1.711   4.473 -0.6111 -0.0674  0.1419
 7893SOL    HW235313   2.981   1.614   4.376  1.9585 -2.1643  1.2484
 7894SOL     OW35314   0.454   1.769   4.434  0.2926  0.7071  0.4465
 7894SOL    HW135315   0.513   1.704   4.396  1.9170  2.3291  0.1739
 7894SOL    HW235316   0.513   1.817   4.493  1.1264  0.4415 -0.1764
 7895SOL     OW35317   2.638   2.842   5.034 -0.3621 -0.2666 -0.1233
 7895SOL    HW135318   2.595   2.762   5.004  0.2671 -1.0472  1.0530
 7895SOL    HW235319   2.658   2.879   4.948 -0.3214  1.6132  0.6944
 7896SOL     OW35320   3.797   3.885   8.807  0.0749  0.2014 -0.0651
 7896SOL    HW135321   3.737   3.910   8.878 -0.8690  1.6645 -1.3849
 7896SOL    HW235322   3.807   3.967   8.760 -1.9291  0.4968  0.0344
 7897SOL     OW35323   2.756   0.473   8.334 -0.0866  0.1448  0.5417
 7897SOL    HW135324   2.673   0.426   8.343 -1.3799  2.3725  0.1973
 7897SOL    HW235325   2.798   0.400   8.289 -0.0246 -0.9195  2.3338
 7898SOL     OW35326   0.193   3.528   1.111  0.6828  0.0513  0.1629
 7898SOL    HW135327   0.145   3.453   1.077  0.0596  0.6932 -0.3745
 7898SOL    HW235328   0.224   3.546   1.022  0.7749 -0.2403  0.1361
 7899SOL     OW35329   2.414   3.995   8.245  0.0202 -0.0044  0.7284
 7899SOL    HW135330   2.444   3.949   8.323  3.0111  3.1689  1.4298
 7899SOL    HW235331   2.495   4.032   8.209 -0.9955  1.2507 -0.2599
 7900SOL     OW35332   2.930   3.856   0.610 -0.1329  0.4848  0.6907
 7900SOL    HW135333   2.976   3.938   0.627 -0.4608  1.0903 -1.3620
 7900SOL    HW235334   2.840   3.884   0.600  0.0332 -0.4636 -3.5322
 7901SOL     OW35335   2.347   3.130   8.943  0.3592 -0.5692  0.8012
 7901SOL    HW135336   2.338   3.182   8.863 -2.1508  0.4130  1.7323
 7901SOL    HW235337   2.256   3.107   8.959  0.1466 -0.2172  0.0973
 7902SOL     OW35338   1.219   2.895  10.081 -0.2833 -0.6942  0.2706
 7902SOL    HW135339   1.243   2.890  10.174  1.3827  2.6220  0.0134
 7902SOL    HW235340   1.128   2.863  10.086  0.1084 -1.9042 -0.4543
 7903SOL     OW35341   1.628   0.251  14.948 -0.0860  0.2703  0.7214
 7903SOL    HW135342   1.659   0.341  14.936 -0.9047  0.4131 -0.3226
 7903SOL    HW235343   1.662   0.206  14.870 -0.7112 -0.8022  1.0673
 7904SOL     OW35344   2.381   4.174   0.681 -0.4671  0.1559 -0.1535
 7904SOL    HW135345   2.372   4.219   0.765  2.6571  1.9579 -0.7827
 7904SOL    HW235346   2.463   4.204   0.642 -1.0346  1.0173 -0.6639
 7905SOL     OW35347   3.255   1.104   2.530  0.7295 -0.6235  0.2014
 7905SOL    HW135348   3.184   1.061   2.578  0.2370 -3.9105 -3.5686
 7905SOL    HW235349   3.273   1.036   2.466  1.0743 -2.0488  1.8304
 7906SOL     OW35350   4.274   2.635  11.744  0.4355 -0.0436  0.6873
 7906SOL    HW135351   4.250   2.690  11.670  1.7256  1.2010  1.2021
 7906SOL    HW235352   4.279   2.549  11.703  2.4571  0.6522 -0.4928
 7907SOL     OW35353   1.260   2.459   6.965 -0.0673  0.0795 -0.6811
 7907SOL    HW135354   1.196   2.515   6.921  1.2162  0.9472 -1.4443
 7907SOL    HW235355   1.324   2.525   6.991  1.1404 -0.4447 -2.3614
 7908SOL     OW35356   4.711   0.328   2.268 -0.0304 -0.5120  0.0131
 7908SOL    HW135357   0.029   0.342   2.346  1.5686  0.3189 -1.2551
 7908SOL    HW235358   4.735   0.401   2.211 -0.2343 -0.0962  0.4640
 7909SOL     OW35359   0.958   2.191   4.794  0.1105  0.2411  0.3720
 7909SOL    HW135360   0.890   2.247   4.756 -1.0799 -2.2089 -1.0813
 7909SOL    HW235361   1.031   2.206   4.735 -0.6405 -0.7630 -0.7909
 7910SOL     OW35362   1.751   0.937  10.353  0.1248 -0.1984  0.2836
 7910SOL    HW135363   1.834   0.979  10.375  0.2328 -0.4266  0.3046
 7910SOL    HW235364   1.785   0.855  10.318  0.4621  0.8568 -1.8871
 7911SOL     OW35365   2.882   3.113  10.087  0.0764  0.0930  0.5181
 7911SOL    HW135366   2.935   3.078  10.159 -0.4881 -4.5968 -1.3771
 7911SOL    HW235367   2.934   3.081  10.013 -1.5028 -0.4052 -0.3536
 7912SOL     OW35368   0.755   4.340   7.814 -0.0825 -0.0231 -0.1846
 7912SOL    HW135369   0.776   4.354   7.906 -0.0085 -0.0452 -0.1985
 7912SOL    HW235370   0.726   4.424   7.778  0.2226 -0.1484 -0.7136
 7913SOL     OW35371   4.268   3.229   7.803  0.0431  0.0118 -0.6106
 7913SOL    HW135372   4.186   3.232   7.853  0.7033 -2.2858  0.6215
 7913SOL    HW235373   4.307   3.147   7.835 -0.5331 -1.0723 -2.7081
 7914SOL     OW35374   1.755   1.520  16.254  0.3166  0.3978  0.0180
 7914SOL    HW135375   1.756   1.602  16.203  0.5033 -0.8056 -1.8938
 7914SOL    HW235376   1.844   1.490  16.241  1.0141  1.8401  1.4100
 7915SOL     OW35377   4.542   0.897   9.657 -0.1582  0.1006  0.0702
 7915SOL    HW135378   4.453   0.921   9.680 -0.0077  1.7374 -1.0668
 7915SOL    HW235379   4.535   0.829   9.591  0.2572  0.5532 -0.4411
 7916SOL     OW35380   1.984   2.395   1.912 -0.1400 -0.2076  0.4225
 7916SOL    HW135381   1.913   2.426   1.968  0.8164  1.1062  0.9132
 7916SOL    HW235382   1.966   2.302   1.921  0.7506 -0.2587  1.7298
 7917SOL     OW35383   1.355   2.193  13.338  0.4307 -0.0866 -0.0712
 7917SOL    HW135384   1.271   2.165  13.374  0.1484  0.7965 -0.0331
 7917SOL    HW235385   1.341   2.180  13.244  1.1729 -0.4354 -0.1353
 7918SOL     OW35386   2.758   1.920  17.721  0.6960 -0.1432  0.1831
 7918SOL    HW135387   2.699   1.882  17.656  0.3735 -0.3430  0.5943
 7918SOL    HW235388   2.723   2.008  17.735 -3.1090 -1.6697  0.1018
 7919SOL     OW35389   4.395   3.111   5.250  0.8010 -0.3398 -0.0011
 7919SOL    HW135390   4.377   3.097   5.157 -2.9833  0.9249  0.5370
 7919SOL    HW235391   4.343   3.191   5.260  2.3098  0.5936  0.5457
 7920SOL     OW35392   1.005   4.509   4.844  0.3221  0.5967  0.3663
 7920SOL    HW135393   1.035   4.532   4.756  2.8749 -1.2984  0.7401
 7920SOL    HW235394   1.076   4.455   4.878  0.4148  0.1787 -0.4973
 7921SOL     OW35395   3.694   1.073   7.884 -0.8186 -0.6501 -0.1105
 7921SOL    HW135396   3.603   1.070   7.855 -1.3169  0.5067  1.3317
 7921SOL    HW235397   3.703   1.159   7.925  0.4774  0.2301 -2.2459
 7922SOL     OW35398   0.214   0.685  14.459  0.3352  0.7242 -0.1224
 7922SOL    HW135399   0.207   0.731  14.375  0.1380 -1.5669 -1.3664
 7922SOL    HW235400   0.268   0.611  14.433 -0.9692 -0.5269  0.7279
 7923SOL     OW35401   2.526   3.288  11.581 -0.0210 -0.3755  0.0982
 7923SOL    HW135402   2.553   3.197  11.565  0.2183 -0.3189  0.1834
 7923SOL    HW235403   2.611   3.316  11.547 -0.0584 -1.5400 -0.9445
 7924SOL     OW35404   0.338   2.680   1.524 -0.5447 -0.1275 -0.2722
 7924SOL    HW135405   0.311   2.766   1.556 -1.7630 -0.1776 -1.1690
 7924SOL    HW235406   0.256   2.634   1.506 -0.2899 -0.6117 -0.1968
 7925SOL     OW35407   3.548   2.711   0.081  0.3613 -0.0786 -0.1387
 7925SOL    HW135408   3.614   2.721   0.149  0.1978  1.0076 -0.1498
 7925SOL    HW235409   3.495   2.639   0.117 -0.8522  1.8853  1.9869
 7926SOL     OW35410   0.197   1.861  10.323 -0.4071 -0.2044  0.7151
 7926SOL    HW135411   0.270   1.832  10.268 -0.5559  0.3344  0.2389
 7926SOL    HW235412   0.218   1.795  10.390 -1.3965 -1.3071 -0.0607
 7927SOL     OW35413   3.535   4.387   8.504 -0.5738 -0.4021 -0.2044
 7927SOL    HW135414   3.524   4.436   8.422 -1.2368 -0.4784 -0.1610
 7927SOL    HW235415   3.564   4.462   8.556 -0.5404 -2.3240  2.5072
 7928SOL     OW35416   0.999   3.736   5.415  0.1427  0.4121 -0.4565
 7928SOL    HW135417   1.086   3.706   5.441 -0.7690 -1.0177  0.9613
 7928SOL    HW235418   0.939   3.680   5.463 -0.0215  2.5062  1.7535
 7929SOL     OW35419   1.330   3.111  13.478  0.5825  0.4756 -0.0277
 7929SOL    HW135420   1.326   3.206  13.487 -0.3962  0.3230  1.0779
 7929SOL    HW235421   1.424   3.101  13.495  0.9706 -0.2131 -2.5764
 7930SOL     OW35422   3.363   0.491   6.188 -0.6369  0.2790  0.3477
 7930SOL    HW135423   3.410   0.408   6.187 -0.6471  0.2852 -1.5252
 7930SOL    HW235424   3.272   0.463   6.204 -1.2636  1.3396 -1.3194
 7931SOL     OW35425   2.544   4.117   8.861  0.1489  0.5176  0.6029
 7931SOL    HW135426   2.627   4.083   8.826  0.6761  1.3487  1.0294
 7931SOL    HW235427   2.556   4.092   8.953  2.7059 -0.5239 -0.0055
 7932SOL     OW35428   0.667   3.023   7.270  0.5343  0.0925  0.0286
 7932SOL    HW135429   0.639   3.039   7.360  0.2387  1.5145 -0.3186
 7932SOL    HW235430   0.643   3.102   7.220  0.5280 -0.2024 -0.4326
 7933SOL     OW35431   3.705   3.367   7.460 -0.2559  1.3179 -0.0731
 7933SOL    HW135432   3.634   3.412   7.415 -1.5203 -0.6752 -0.0499
 7933SOL    HW235433   3.723   3.298   7.396 -0.6665  1.6633 -0.5601
 7934SOL     OW35434   1.750   2.973   5.070 -0.2557  0.0721  0.0436
 7934SOL    HW135435   1.678   3.015   5.024  1.1656 -0.0788 -2.3152
 7934SOL    HW235436   1.716   2.962   5.159 -2.8165  0.8224 -0.8544
 7935SOL     OW35437   0.936   1.980   0.624  0.3848  0.2018  0.4138
 7935SOL    HW135438   0.934   2.065   0.579  0.2480  0.4909  0.9639
 7935SOL    HW235439   0.861   1.930   0.590  0.7461 -0.2394  0.2734
 7936SOL     OW35440   3.850   2.033   9.026  0.1959 -0.9999  0.0840
 7936SOL    HW135441   3.879   2.122   9.004  1.3469 -1.6035 -0.8491
 7936SOL    HW235442   3.771   2.046   9.079 -0.6912  0.8256 -1.6899
 7937SOL     OW35443   3.015   1.291   1.763  0.0439  0.0271 -0.0116
 7937SOL    HW135444   2.980   1.347   1.694 -0.7707  0.7616  1.0034
 7937SOL    HW235445   3.103   1.330   1.764  0.0768 -0.1267  1.8963
 7938SOL     OW35446   2.612   0.573   3.654  0.4340  0.0060  0.2407
 7938SOL    HW135447   2.542   0.595   3.715  0.9056 -1.2592  1.2355
 7938SOL    HW235448   2.628   0.483   3.681  1.4843 -0.3795 -1.6306
 7939SOL     OW35449   2.109   3.980   3.077  0.4705 -0.1336 -0.1109
 7939SOL    HW135450   2.073   4.024   3.001  0.3256 -2.4358 -1.3813
 7939SOL    HW235451   2.150   3.907   3.030  3.0358  0.3592  1.3326
 7940SOL     OW35452   1.785   2.578   2.991  0.1976  0.0963 -0.1217
 7940SOL    HW135453   1.839   2.562   3.067 -1.0769  0.2404  0.8132
 7940SOL    HW235454   1.850   2.615   2.931  1.0081 -0.7267  0.2676
 7941SOL     OW35455   1.740   0.436   9.554 -0.1475 -0.2359 -0.2169
 7941SOL    HW135456   1.692   0.519   9.553 -0.3115 -0.3195  0.5927
 7941SOL    HW235457   1.828   0.472   9.569  0.1179 -0.1067 -2.0567
 7942SOL     OW35458   3.961   2.598   3.554  0.3931  0.6420  0.4269
 7942SOL    HW135459   4.056   2.590   3.564  0.3201 -0.4681  0.1898
 7942SOL    HW235460   3.935   2.549   3.476 -0.4034  0.8630  0.5533
 7943SOL     OW35461   0.999   0.885   5.425 -0.0115  0.4933  0.2505
 7943SOL    HW135462   0.953   0.838   5.494 -0.1959  1.4912  0.8091
 7943SOL    HW235463   1.038   0.809   5.382  0.7948  1.2204 -0.3098
 7944SOL     OW35464   1.672   4.656   2.853 -0.3772 -0.0690 -0.0791
 7944SOL    HW135465   1.589   4.667   2.898 -0.6547  1.9798 -1.1016
 7944SOL    HW235466   1.681   4.732   2.795  0.2401  0.0398  0.1626
 7945SOL     OW35467   4.467   0.423   9.907 -0.0183  0.4123  0.2712
 7945SOL    HW135468   4.477   0.518   9.899  1.8951  0.1793 -0.2357
 7945SOL    HW235469   4.562   0.411   9.903 -0.1137 -0.0684 -0.6187
 7946SOL     OW35470   4.225   4.486  12.369 -0.2634  0.3889 -0.1575
 7946SOL    HW135471   4.236   4.580  12.385  2.5975  0.0081  0.1007
 7946SOL    HW235472   4.148   4.486  12.311  0.9516 -1.7742 -1.7718
 7947SOL     OW35473   3.570   3.788  15.483  1.0704 -0.1846  0.0281
 7947SOL    HW135474   3.515   3.718  15.520  2.7214 -0.5498  1.7990
 7947SOL    HW235475   3.614   3.820  15.562 -2.6513  0.8491  1.6378
 7948SOL     OW35476   2.646   3.880   7.040  0.0006 -0.4309 -0.3368
 7948SOL    HW135477   2.677   3.927   7.117  1.1840 -0.5581 -0.7398
 7948SOL    HW235478   2.607   3.953   6.991 -0.2554  0.3721  1.0886
 7949SOL     OW35479   2.379   0.768   6.574  0.1153 -0.6281 -0.0354
 7949SOL    HW135480   2.422   0.812   6.500  0.3483 -2.5740 -1.0663
 7949SOL    HW235481   2.409   0.812   6.653  0.2311 -0.4950 -0.1530
 7950SOL     OW35482   2.971   4.623   8.442  0.1041 -0.1602 -0.0677
 7950SOL    HW135483   2.925   4.543   8.416  0.4101 -1.2091  2.5829
 7950SOL    HW235484   2.935   4.689   8.384 -0.9170  0.7499  1.5949
 7951SOL     OW35485   3.996   0.066   8.400 -0.0585 -0.0149  0.0321
 7951SOL    HW135486   4.064   0.031   8.343  1.2652  0.3538  1.3604
 7951SOL    HW235487   4.034   0.041   8.485 -1.5254  0.3458  0.7931
 7952SOL     OW35488   1.154   3.064  16.928  0.0512  0.2777  0.2978
 7952SOL    HW135489   1.242   3.102  16.928  1.3337 -2.7306 -2.5879
 7952SOL    HW235490   1.178   2.977  16.959 -1.7710 -0.6474 -0.9214
 7953SOL     OW35491   0.093   2.781  11.740  0.1099 -0.1026  0.1366
 7953SOL    HW135492   4.735   2.769  11.754  0.0633 -0.7045 -0.7201
 7953SOL    HW235493   0.116   2.711  11.801 -0.4825  0.0321  0.5168
 7954SOL     OW35494   4.417   0.271   3.461 -0.4882  0.2151 -0.4032
 7954SOL    HW135495   4.494   0.273   3.518  1.6112  0.6558 -3.2983
 7954SOL    HW235496   4.375   0.357   3.465  1.7790  1.1878  2.5356
 7955SOL     OW35497   3.853   2.568   1.008  0.1204  0.7719 -0.5444
 7955SOL    HW135498   3.760   2.544   1.003 -0.3315  2.4179  0.1915
 7955SOL    HW235499   3.857   2.644   0.950 -2.2806  2.0518  0.9464
 7956SOL     OW35500   3.052   0.941   2.053 -0.0509  0.5220  0.4664
 7956SOL    HW135501   3.003   0.859   2.048  1.1666 -0.0894 -1.8186
 7956SOL    HW235502   3.061   0.951   1.958  0.4965  0.0001  0.4622
 7957SOL     OW35503   4.032   1.825   5.089  0.4434 -0.1044 -0.6974
 7957SOL    HW135504   4.071   1.901   5.132 -1.7094  1.1583 -0.9954
 7957SOL    HW235505   4.075   1.840   5.005  0.8429 -0.0776 -0.4888
 7958SOL     OW35506   3.909   0.476   7.628 -0.4576 -0.1136  0.6596
 7958SOL    HW135507   3.862   0.412   7.683  0.5349 -2.4854 -1.2868
 7958SOL    HW235508   3.991   0.481   7.677 -1.5896  2.3817  2.3071
 7959SOL     OW35509   1.057   2.519   8.821  0.5758 -0.0750  0.6457
 7959SOL    HW135510   0.972   2.562   8.810  0.9774  0.2245 -1.3482
 7959SOL    HW235511   1.075   2.542   8.912  3.0801  1.3567 -0.2138
 7960SOL     OW35512   0.477   1.300  17.385 -0.1625 -0.3427 -0.4681
 7960SOL    HW135513   0.390   1.274  17.413 -1.2968  0.1931 -3.5030
 7960SOL    HW235514   0.494   1.376  17.440  0.2441  0.6558 -1.9725
 7961SOL     OW35515   1.259   2.304   5.521 -0.1844 -0.2657  0.1274
 7961SOL    HW135516   1.340   2.340   5.556 -0.1152 -1.8162  1.5774
 7961SOL    HW235517   1.230   2.383   5.475 -1.6655 -0.7211  0.2633
 7962SOL     OW35518   0.018   1.192   2.254  0.2094 -0.3350 -0.0833
 7962SOL    HW135519   0.044   1.281   2.230  0.5102 -0.3189  0.3059
 7962SOL    HW235520   0.001   1.155   2.167 -1.5692  0.3830 -0.0461
 7963SOL     OW35521   1.689   3.262  15.742  0.2297  0.1105  0.5413
 7963SOL    HW135522   1.638   3.247  15.822 -1.0605 -1.9636 -0.6482
 7963SOL    HW235523   1.719   3.172  15.729 -2.3595 -1.0660  2.5534
 7964SOL     OW35524   0.540   3.256   5.536 -0.3778  0.2264 -0.1085
 7964SOL    HW135525   0.558   3.335   5.587  0.1522 -0.2785  0.4934
 7964SOL    HW235526   0.471   3.288   5.478 -0.6734  0.0799  0.1589
 7965SOL     OW35527   1.844   3.910   4.402 -0.5840 -0.1464  0.0076
 7965SOL    HW135528   1.914   3.857   4.441 -0.1954  0.6439  0.3910
 7965SOL    HW235529   1.761   3.887   4.445 -0.4645  0.1105  0.3771
 7966SOL     OW35530   4.261   2.999   3.315  0.0097  0.1451 -0.2283
 7966SOL    HW135531   4.349   2.964   3.325  1.1317  2.9179 -0.4525
 7966SOL    HW235532   4.259   3.079   3.367 -0.8202  0.3059 -0.4968
 7967SOL     OW35533   0.738   4.699  13.574  0.1472 -0.8615 -0.6140
 7967SOL    HW135534   0.643   4.692  13.581  0.1797 -0.3118  0.4447
 7967SOL    HW235535   0.756   0.057  13.572  0.6542 -0.9364  0.3178
 7968SOL     OW35536   3.392   4.403  17.191 -0.1045  0.5054  0.0292
 7968SOL    HW135537   3.449   4.480  17.189  0.2287  0.2433 -0.7881
 7968SOL    HW235538   3.329   4.425  17.259  0.0163 -2.5810  1.1322
 7969SOL     OW35539   3.300   3.780   1.159 -0.5315 -0.3269 -0.1722
 7969SOL    HW135540   3.220   3.812   1.201 -1.8179 -2.9676 -0.6208
 7969SOL    HW235541   3.271   3.758   1.071  0.7195 -0.5525 -0.5203
 7970SOL     OW35542   2.549   1.746   8.042  0.2910  0.8780 -0.2787
 7970SOL    HW135543   2.623   1.795   8.078  0.7766 -0.0232 -0.0427
 7970SOL    HW235544   2.520   1.712   8.126 -2.8340 -1.1107 -2.1744
 7971SOL     OW35545   2.835   4.633   8.688 -0.6553 -0.1669  0.4504
 7971SOL    HW135546   2.889   4.636   8.610  0.3028  2.3029  1.2155
 7971SOL    HW235547   2.843   4.721   8.726  0.4101  0.5871 -1.5512
 7972SOL     OW35548   3.209   0.340   7.497 -0.1741 -0.2040  0.3246
 7972SOL    HW135549   3.123   0.372   7.521  1.0427  3.3700 -0.0825
 7972SOL    HW235550   3.201   0.350   7.402 -0.1780  1.5815  0.5173
 7973SOL     OW35551   4.298   3.065   9.238 -0.6049  0.2079 -0.8149
 7973SOL    HW135552   4.270   3.119   9.311 -2.5299  1.7021 -2.6691
 7973SOL    HW235553   4.370   3.118   9.203 -1.7139  3.0238  1.2350
 7974SOL     OW35554   4.663   0.197   4.159  0.2350  0.4028 -0.0614
 7974SOL    HW135555   4.593   0.234   4.213  1.5594  0.6093  1.5250
 7974SOL    HW235556   4.634   0.106   4.158  0.2297  0.4265 -1.3840
 7975SOL     OW35557   0.816   4.685  14.269 -0.8559  0.0285  0.2258
 7975SOL    HW135558   0.726   4.664  14.294 -1.0669  0.7617  0.0607
 7975SOL    HW235559   0.851   4.596  14.280 -1.4592 -0.2996 -0.4377
 7976SOL     OW35560   3.059   2.395   8.696 -0.0669  0.0067  0.1698
 7976SOL    HW135561   3.144   2.424   8.730  1.1675 -1.8168 -1.3600
 7976SOL    HW235562   3.048   2.316   8.748  1.5629  0.8289  1.7713
 7977SOL     OW35563   1.313   3.906  14.263  0.3493 -0.2177 -0.5588
 7977SOL    HW135564   1.261   3.978  14.299  1.9111  0.4764  0.3553
 7977SOL    HW235565   1.398   3.950  14.271  0.2209  0.1562 -1.2867
 7978SOL     OW35566   1.721   4.576   7.340 -0.3650 -0.1859 -0.2529
 7978SOL    HW135567   1.732   4.671   7.338 -1.5497 -0.1013 -2.2545
 7978SOL    HW235568   1.808   4.544   7.315 -0.4420 -0.9261  0.4094
 7979SOL     OW35569   4.712   0.533   7.683 -0.6751  0.0282 -0.0002
 7979SOL    HW135570   0.034   0.564   7.614 -0.3293  0.6994  0.5952
 7979SOL    HW235571   4.654   0.609   7.686 -0.2647  0.3462 -0.1904
 7980SOL     OW35572   4.487   4.709   6.299 -0.8141 -0.0541 -0.1776
 7980SOL    HW135573   4.453   4.706   6.210  3.3395 -0.5714 -1.7430
 7980SOL    HW235574   4.443   4.637   6.345 -3.0264  1.4298  0.0454
 7981SOL     OW35575   2.830   3.909   3.072 -0.1310  0.1625 -0.0938
 7981SOL    HW135576   2.788   3.837   3.119  0.2034 -0.8939 -1.4147
 7981SOL    HW235577   2.773   3.985   3.086  0.7654  0.5940  1.2780
 7982SOL     OW35578   3.701   0.636   6.123 -0.3587  0.0259 -0.7387
 7982SOL    HW135579   3.779   0.631   6.177 -1.3226 -0.3097  0.6417
 7982SOL    HW235580   3.647   0.672   6.193  1.3988 -1.6573  1.4804
 7983SOL     OW35581   0.842   3.555  15.640 -0.0750 -0.0321  0.2301
 7983SOL    HW135582   0.801   3.641  15.642 -0.7492 -0.2904 -2.8158
 7983SOL    HW235583   0.764   3.508  15.670  0.3810 -1.2074 -0.4247
 7984SOL     OW35584   1.644   2.444   4.804 -0.2028  0.2041 -0.1943
 7984SOL    HW135585   1.633   2.385   4.878 -0.8938 -0.1723 -0.6037
 7984SOL    HW235586   1.652   2.527   4.851  4.5845 -0.3187 -0.0828
 7985SOL     OW35587   3.815   1.224   3.668 -0.0635 -0.2224 -0.2643
 7985SOL    HW135588   3.885   1.163   3.644  0.4241  0.6025 -0.9113
 7985SOL    HW235589   3.840   1.260   3.753 -3.3389 -0.6540  0.9089
 7986SOL     OW35590   4.651   4.435   3.568 -0.0472 -0.3031  0.2884
 7986SOL    HW135591   4.729   4.379   3.560 -0.2936 -0.7042  0.6405
 7986SOL    HW235592   4.668   4.501   3.502 -0.0362 -1.0417 -0.4461
 7987SOL     OW35593   2.263   0.865  15.512  0.3091 -0.0884  0.0710
 7987SOL    HW135594   2.245   0.776  15.540 -0.7963  0.4169  0.9530
 7987SOL    HW235595   2.286   0.909  15.594  2.2128 -1.8706  0.4925
 7988SOL     OW35596   2.694   4.518   4.906  0.1523 -0.1291  0.3755
 7988SOL    HW135597   2.610   4.561   4.893 -0.0830 -1.4117 -2.4292
 7988SOL    HW235598   2.710   4.492   4.815  3.4568  2.6940  0.1578
 7989SOL     OW35599   0.191   2.953   9.240 -0.4490 -0.6852 -0.1971
 7989SOL    HW135600   0.204   2.915   9.154  1.7858 -0.9066  0.2253
 7989SOL    HW235601   0.103   2.989   9.237 -0.0746  0.2604 -0.0046
 7990SOL     OW35602   2.100   3.081  11.621 -0.2530 -0.4580 -0.1773
 7990SOL    HW135603   2.167   3.108  11.558 -1.1420  0.7819 -0.6065
 7990SOL    HW235604   2.079   3.165  11.664 -0.4173 -0.5126 -0.1506
 7991SOL     OW35605   3.557   0.472   8.541  0.1165 -0.2014 -0.0507
 7991SOL    HW135606   3.537   0.553   8.587 -0.7073 -0.3173 -0.2069
 7991SOL    HW235607   3.471   0.433   8.553  0.2805 -0.6234 -0.2362
 7992SOL     OW35608   1.530   0.020  14.170  0.1650 -0.6089  0.0655
 7992SOL    HW135609   1.469   4.697  14.127  0.5661 -0.8015 -0.2400
 7992SOL    HW235610   1.463   0.085  14.193 -1.2570 -1.7272 -0.9791
 7993SOL     OW35611   1.913   2.778  12.573  0.2140  0.1467  0.0624
 7993SOL    HW135612   1.821   2.758  12.586 -0.1108  2.4942  1.3672
 7993SOL    HW235613   1.950   2.697  12.538  1.1351  0.9956 -0.9449
 7994SOL     OW35614   0.990   3.226   4.258  0.8516  0.2148 -0.2767
 7994SOL    HW135615   1.036   3.310   4.250 -0.1572  0.5125 -2.7552
 7994SOL    HW235616   1.004   3.204   4.350 -2.7603  0.2917  0.2972
 7995SOL     OW35617   3.626   3.963   2.876 -0.4473  0.2814  0.1858
 7995SOL    HW135618   3.722   3.966   2.865 -0.4723 -3.2235 -1.0312
 7995SOL    HW235619   3.597   3.953   2.785 -0.5546 -2.2855  0.5150
 7996SOL     OW35620   1.010   3.915   4.421 -0.3176  0.0454  0.1451
 7996SOL    HW135621   0.993   3.993   4.474  0.3681  1.8554 -2.3475
 7996SOL    HW235622   0.927   3.899   4.375 -1.3177 -0.4832  2.1115
 7997SOL     OW35623   1.232   1.622   2.586  0.3337  0.2301  0.1816
 7997SOL    HW135624   1.269   1.572   2.659  1.7989  1.8214  0.5327
 7997SOL    HW235625   1.138   1.620   2.601  0.1117  1.2028 -1.1356
 7998SOL     OW35626   0.047   3.863   8.939  0.7464 -0.1955 -0.6992
 7998SOL    HW135627   0.138   3.844   8.963  0.5634  0.9746  0.9553
 7998SOL    HW235628   0.061   3.956   8.921  0.2676 -0.2033 -1.1200
 7999SOL     OW35629   1.755   0.861  15.700 -0.1340  0.0525  0.1940
 7999SOL    HW135630   1.782   0.772  15.720 -0.5228 -0.4043 -1.2658
 7999SOL    HW235631   1.839   0.895  15.669  0.0899 -0.7309 -0.0538
 8000SOL     OW35632   0.791   2.276  13.382 -0.3244 -0.6625 -0.4841
 8000SOL    HW135633   0.729   2.203  13.384  0.3159 -1.2177 -0.4893
 8000SOL    HW235634   0.838   2.265  13.465  0.2129 -0.7627 -0.7972
 8001SOL     OW35635   3.736   3.567   6.133 -0.1175  0.1974  0.6757
 8001SOL    HW135636   3.696   3.520   6.206 -1.1238 -0.0178 -0.0169
 8001SOL    HW235637   3.687   3.534   6.058  1.3458  0.0567 -0.2333
 8002SOL     OW35638   1.775   1.425   1.579 -0.2066  0.5989 -0.2198
 8002SOL    HW135639   1.753   1.383   1.496  0.5042  0.1442 -0.1821
 8002SOL    HW235640   1.855   1.377   1.601 -0.2530  0.9970  0.8240
 8003SOL     OW35641   3.701   1.810   8.843  0.3097  0.2370 -0.2219
 8003SOL    HW135642   3.622   1.815   8.896 -0.3918  0.3098 -1.2577
 8003SOL    HW235643   3.714   1.903   8.827 -0.7289  0.2093 -1.2373
 8004SOL     OW35644   0.130   1.588   8.062  0.4848 -0.7634  0.1911
 8004SOL    HW135645   0.042   1.611   8.093 -0.2652  0.2007 -2.5997
 8004SOL    HW235646   0.125   1.493   8.074  0.4383 -0.8670 -0.6573
 8005SOL     OW35647   0.788   1.019  10.062  0.2084  0.0530  0.1381
 8005SOL    HW135648   0.776   0.984  10.151 -2.0846  3.3363  1.1159
 8005SOL    HW235649   0.703   0.996  10.026  0.5159 -0.5433 -0.2071
 8006SOL     OW35650   3.448   0.164  15.003  0.1420  0.4081  0.0397
 8006SOL    HW135651   3.404   0.140  14.921 -0.1157  0.7049  0.0921
 8006SOL    HW235652   3.524   0.106  15.001 -0.0319  0.1745  0.4358
 8007SOL     OW35653   2.144   1.060   6.378  0.1637 -0.2247  0.5118
 8007SOL    HW135654   2.154   1.154   6.362 -0.5860  0.1768  2.4255
 8007SOL    HW235655   2.157   1.037   6.286  1.2059 -0.2316  0.6635
 8008SOL     OW35656   1.346   4.336   1.766 -0.1796 -0.0344 -0.8044
 8008SOL    HW135657   1.319   4.245   1.783  0.6075  0.0989  1.1098
 8008SOL    HW235658   1.377   4.351   1.855  0.0633  0.9482 -1.0592
 8009SOL     OW35659   1.064   2.646  13.303  0.0271 -0.4116  0.1177
 8009SOL    HW135660   0.996   2.599  13.254 -0.9933  1.1936  0.0116
 8009SOL    HW235661   1.138   2.592  13.273 -0.1370 -2.1323  2.7943
 8010SOL     OW35662   3.909   4.049   2.838 -0.1122  0.6909  0.0541
 8010SOL    HW135663   3.985   4.053   2.780  0.3371 -0.1950  0.5835
 8010SOL    HW235664   3.890   4.142   2.848 -1.4499  0.5803 -1.5484
 8011SOL     OW35665   0.589   2.876   3.066  0.1038  0.2744  0.8295
 8011SOL    HW135666   0.683   2.863   3.051  0.0031 -1.2037  1.5572
 8011SOL    HW235667   0.568   2.789   3.098  1.8504 -0.0018  1.2377
 8012SOL     OW35668   2.054   4.670   4.914 -0.0544  0.1040 -0.1992
 8012SOL    HW135669   2.104   0.008   4.882 -1.0481  0.3521 -1.1734
 8012SOL    HW235670   2.101   4.654   4.996 -1.6715 -3.6593  0.0173
 8013SOL     OW35671   0.747   1.044   7.893  0.3612  0.2181 -0.5982
 8013SOL    HW135672   0.792   1.030   7.977 -1.6781  1.1414  0.6378
 8013SOL    HW235673   0.693   0.966   7.904 -0.6644  0.7211 -2.0869
 8014SOL     OW35674   2.707   3.011   0.639 -0.0558 -0.5136  0.4848
 8014SOL    HW135675   2.779   2.983   0.582  0.7606 -0.1180  1.3138
 8014SOL    HW235676   2.629   2.980   0.594 -0.9978  1.3438  0.8425
 8015SOL     OW35677   0.037   0.257  10.117 -0.2763  0.3044  0.2670
 8015SOL    HW135678   0.009   0.331  10.170 -0.3223  0.4568  0.0317
 8015SOL    HW235679   4.706   0.194  10.145 -0.0226 -0.3940 -0.6725
 8016SOL     OW35680   0.599   2.276   1.799  0.6338  0.1404  0.2304
 8016SOL    HW135681   0.554   2.254   1.718  1.0081  1.7846 -0.4105
 8016SOL    HW235682   0.560   2.362   1.813  0.2177  0.1917 -1.2797
 8017SOL     OW35683   2.695   4.083  16.666  0.0502 -0.1745 -0.5652
 8017SOL    HW135684   2.748   4.004  16.666  1.6171  0.8892  3.1184
 8017SOL    HW235685   2.615   4.045  16.702  0.0843 -0.7058 -1.0600
 8018SOL     OW35686   2.214   0.228   3.582  0.1744  0.3357 -0.5136
 8018SOL    HW135687   2.264   0.175   3.643 -0.1623 -1.0928 -1.4926
 8018SOL    HW235688   2.124   0.200   3.601  0.0332  0.2615 -1.2894
 8019SOL     OW35689   2.759   2.491   3.533 -0.0572 -0.7121 -0.2399
 8019SOL    HW135690   2.732   2.576   3.498 -0.2859 -1.5776 -2.1374
 8019SOL    HW235691   2.812   2.456   3.462  2.4178  0.0282  1.2213
 8020SOL     OW35692   3.657   2.067   9.239  0.4244  0.0552  0.1323
 8020SOL    HW135693   3.565   2.040   9.240  0.3908  0.2164  1.1107
 8020SOL    HW235694   3.650   2.157   9.271 -0.7934  0.5037 -1.3841
 8021SOL     OW35695   2.111   0.210   4.232  0.1133  0.1052 -0.2210
 8021SOL    HW135696   2.145   0.133   4.276 -1.3997  1.0847  2.7220
 8021SOL    HW235697   2.051   0.169   4.170  1.3389  0.7605 -1.8427
 8022SOL     OW35698   4.633   0.677   7.352 -0.3159 -0.2428  0.0500
 8022SOL    HW135699   4.704   0.621   7.320 -0.1704  0.9781 -1.7824
 8022SOL    HW235700   4.570   0.605   7.362  1.1562 -1.3474  1.3084
 8023SOL     OW35701   1.710   0.620   5.733 -0.3311  0.5138  0.5515
 8023SOL    HW135702   1.637   0.682   5.729  0.2415  1.0338 -1.3946
 8023SOL    HW235703   1.722   0.575   5.650  2.9809 -3.3694  3.1429
 8024SOL     OW35704   3.499   1.722   7.970 -0.9248  0.4735 -0.1701
 8024SOL    HW135705   3.507   1.762   7.883 -0.6253 -0.5401 -0.6081
 8024SOL    HW235706   3.456   1.637   7.959 -0.3050  0.0123  1.0124
 8025SOL     OW35707   1.198   4.698   7.776  0.2419  0.6427  0.2937
 8025SOL    HW135708   1.170   4.612   7.746  1.6814  0.0574  0.6300
 8025SOL    HW235709   1.130   0.003   7.829  0.1558 -0.5724  1.1301
 8026SOL     OW35710   0.750   3.655  11.622  0.3496  1.2420  0.5016
 8026SOL    HW135711   0.659   3.684  11.629 -0.1563 -0.1747 -0.1534
 8026SOL    HW235712   0.758   3.659  11.527 -0.2546  1.5960  0.4644
 8027SOL     OW35713   2.650   1.035   6.986 -0.7199 -0.0589 -0.1095
 8027SOL    HW135714   2.640   0.941   6.972  0.9039 -0.0814 -1.0773
 8027SOL    HW235715   2.568   1.048   7.034 -0.6587 -2.2757  0.5815
 8028SOL     OW35716   2.192   1.105   3.338 -0.2117  0.1859  0.1086
 8028SOL    HW135717   2.101   1.114   3.311 -0.2608 -0.4978  0.0535
 8028SOL    HW235718   2.233   1.130   3.256  0.0442  0.0736  0.2040
 8029SOL     OW35719   1.251   3.798   6.593  0.2274  0.8500 -0.2608
 8029SOL    HW135720   1.299   3.853   6.655 -0.0984  0.9311 -0.0824
 8029SOL    HW235721   1.237   3.714   6.637 -1.8057  1.0445 -0.5276
 8030SOL     OW35722   1.986   4.337   7.476 -0.6320 -0.4283 -0.1028
 8030SOL    HW135723   1.932   4.258   7.472  0.0197 -0.7503 -2.2942
 8030SOL    HW235724   1.947   4.370   7.558 -0.1481  0.3524 -0.1797
 8031SOL     OW35725   2.498   0.763  14.524  1.0387 -0.0114  0.6120
 8031SOL    HW135726   2.469   0.849  14.554 -1.7854 -0.3205 -1.2307
 8031SOL    HW235727   2.508   0.792  14.433  2.8209  1.4110  1.2659
 8032SOL     OW35728   4.355   2.097   8.570  0.4675  0.2128  0.0424
 8032SOL    HW135729   4.432   2.062   8.616  1.3470  1.4426 -0.4907
 8032SOL    HW235730   4.364   2.042   8.492 -2.5505  0.0795 -0.1784
 8033SOL     OW35731   4.064   3.100   4.948 -0.4822  0.0363 -0.0972
 8033SOL    HW135732   4.039   3.135   5.033 -1.7673  0.2806 -0.5720
 8033SOL    HW235733   3.987   3.131   4.900  0.9125 -0.3001 -2.5335
 8034SOL     OW35734   2.574   2.591   9.026 -0.0881 -0.1601 -0.1454
 8034SOL    HW135735   2.602   2.521   9.084  0.5607  0.5875  0.4560
 8034SOL    HW235736   2.593   2.556   8.939 -1.1706 -0.0596 -0.4224
 8035SOL     OW35737   0.576   4.309  10.542  0.9016 -0.0850  0.6239
 8035SOL    HW135738   0.570   4.348  10.455 -0.5757  1.3266  1.3708
 8035SOL    HW235739   0.670   4.290  10.544  0.6143 -1.7409 -2.0181
 8036SOL     OW35740   4.656   3.124   3.495  0.3833  0.6586 -0.0305
 8036SOL    HW135741   4.598   3.198   3.480  0.8274  1.0725  0.3033
 8036SOL    HW235742   4.684   3.139   3.585 -0.1436 -2.0222  0.5861
 8037SOL     OW35743   4.443   3.555   1.995 -0.6600  0.0235 -0.2399
 8037SOL    HW135744   4.432   3.469   1.955  1.6208 -0.9811  1.2752
 8037SOL    HW235745   4.469   3.604   1.917 -0.5618  0.9707  0.3819
 8038SOL     OW35746   3.363   1.519   3.395  0.0519  0.2294  0.0573
 8038SOL    HW135747   3.293   1.585   3.391  1.0834  1.4286  2.0499
 8038SOL    HW235748   3.348   1.503   3.301 -1.5163  0.0713  0.3262
 8039SOL     OW35749   1.881   3.144   3.946  0.1112 -0.0578 -0.1882
 8039SOL    HW135750   1.938   3.149   4.023  0.5201 -1.7284 -0.3920
 8039SOL    HW235751   1.860   3.052   3.927 -0.3641  0.3830 -1.7953
 8040SOL     OW35752   1.637   0.069   9.367  1.1012  0.3757 -0.2870
 8040SOL    HW135753   1.591   0.028   9.294 -1.1021  0.5660  0.9923
 8040SOL    HW235754   1.695   0.001   9.401 -1.4396 -1.8880 -0.4555
 8041SOL     OW35755   2.177   0.730   7.184  0.1338 -0.3058 -0.4129
 8041SOL    HW135756   2.231   0.734   7.263  0.6328  0.2623 -0.7859
 8041SOL    HW235757   2.245   0.734   7.116 -0.8892  1.0510 -1.3385
 8042SOL     OW35758   2.042   4.476  10.787  0.0280 -0.1325 -0.7295
 8042SOL    HW135759   2.100   4.421  10.735  1.9314  3.5130 -2.4303
 8042SOL    HW235760   2.093   4.482  10.868 -0.7612 -2.5768 -0.0397
 8043SOL     OW35761   3.828   2.843   8.184 -0.2418  0.6711 -0.4013
 8043SOL    HW135762   3.740   2.828   8.150 -1.5112  0.0496  3.1222
 8043SOL    HW235763   3.820   2.923   8.236  0.4637  0.6448 -0.2547
 8044SOL     OW35764   0.246   2.797   8.529  0.0644  0.5434  0.2662
 8044SOL    HW135765   0.217   2.885   8.556  0.0030  0.3487  0.8251
 8044SOL    HW235766   0.188   2.762   8.461  0.2822 -0.0474  0.3866
 8045SOL     OW35767   4.404   3.686  15.995  0.0047  0.1166  0.1980
 8045SOL    HW135768   4.361   3.626  15.934  2.0827 -1.5861  0.4399
 8045SOL    HW235769   4.488   3.642  16.007 -0.6007 -0.8683  0.7666
 8046SOL     OW35770   1.409   0.044   1.947  0.0703  0.2086 -0.6289
 8046SOL    HW135771   1.337   0.096   1.983 -0.2117  1.1797 -2.6044
 8046SOL    HW235772   1.440   4.730   2.023  0.1749  0.5091 -0.4724
 8047SOL     OW35773   3.840   2.959  13.485 -0.0903  0.3021 -0.2080
 8047SOL    HW135774   3.794   2.932  13.405  0.8582  0.4323 -0.7977
 8047SOL    HW235775   3.767   2.989  13.539 -2.7559 -1.6483 -2.7445
 8048SOL     OW35776   3.248   0.012   4.608  0.1689 -0.8381  0.1291
 8048SOL    HW135777   3.255   4.686   4.681  2.6251 -0.2581  0.3736
 8048SOL    HW235778   3.184   0.073   4.646  1.2734 -0.9759  2.2361
 8049SOL     OW35779   4.594   2.236   2.045  0.1534  0.2191 -0.6244
 8049SOL    HW135780   4.668   2.182   2.072 -0.6057 -0.5367 -0.0605
 8049SOL    HW235781   4.525   2.176   2.020 -1.6974  0.9723  2.6286
 8050SOL     OW35782   0.602   3.652   9.978  0.0654 -0.2679 -0.1044
 8050SOL    HW135783   0.514   3.645  10.015  0.3828 -1.2027  0.4597
 8050SOL    HW235784   0.625   3.745   9.987 -0.3382 -0.0125 -1.8090
 8051SOL     OW35785   2.245   4.717   1.727 -0.5987 -0.0996 -0.1619
 8051SOL    HW135786   2.200   4.643   1.686 -1.2343  0.8588 -1.1822
 8051SOL    HW235787   2.224   4.701   1.819 -0.0925 -0.4356 -0.1077
 8052SOL     OW35788   4.080   3.031   9.051  0.0358  0.1500 -0.0019
 8052SOL    HW135789   4.136   3.076   9.114 -2.6166 -0.0884  2.5712
 8052SOL    HW235790   4.014   3.001   9.114 -1.6099 -1.9173 -2.6673
 8053SOL     OW35791   1.439   2.212  12.678 -0.1904  0.5542  0.6891
 8053SOL    HW135792   1.377   2.245  12.744  1.8161  1.1555  2.2602
 8053SOL    HW235793   1.457   2.298  12.642 -0.2262  0.3737  0.2328
 8054SOL     OW35794   1.775   1.136   5.186 -0.1047 -0.0562 -0.2729
 8054SOL    HW135795   1.777   1.042   5.170  0.3776  0.0537 -0.8406
 8054SOL    HW235796   1.720   1.142   5.264  0.2593 -0.1226 -0.0089
 8055SOL     OW35797   1.228   4.032  11.586  0.6310 -0.5350 -0.4955
 8055SOL    HW135798   1.222   4.005  11.678  0.2767 -1.3344 -0.7607
 8055SOL    HW235799   1.152   3.985  11.553 -0.0968  0.8729 -0.7875
 8056SOL     OW35800   2.383   0.230   8.680 -0.2581  0.3038 -0.1280
 8056SOL    HW135801   2.354   0.141   8.658 -0.1146  0.3167 -0.3750
 8056SOL    HW235802   2.302   0.275   8.658 -0.3306 -0.1688 -0.8263
 8057SOL     OW35803   1.901   1.457   2.925 -0.0609 -0.1601 -0.0875
 8057SOL    HW135804   1.922   1.459   3.018 -0.1488 -0.9896 -0.0492
 8057SOL    HW235805   1.822   1.510   2.915 -0.6779 -0.9335  0.7348
 8058SOL     OW35806   3.127   0.599   5.010  0.0224 -0.1052 -0.2837
 8058SOL    HW135807   3.032   0.592   5.000 -0.1542 -1.8425  2.3698
 8058SOL    HW235808   3.143   0.532   5.078 -0.5259  0.6407  0.5827
 8059SOL     OW35809   1.917   2.991   8.580  0.0984 -0.0888  0.0674
 8059SOL    HW135810   1.932   2.899   8.601 -0.0876 -0.1778 -0.1862
 8059SOL    HW235811   1.845   3.019   8.636  0.3735 -0.2819  0.5139
 8060SOL     OW35812   0.642   3.848  17.482  0.1497 -0.0516  0.1414
 8060SOL    HW135813   0.546   3.850  17.480  0.2544  3.5277 -1.4642
 8060SOL    HW235814   0.654   3.767  17.533  2.6096  1.3213  1.7319
 8061SOL     OW35815   3.071   4.173  16.654  0.4922 -0.4181  0.2315
 8061SOL    HW135816   3.001   4.225  16.693 -0.7188 -2.1303  0.3243
 8061SOL    HW235817   3.081   4.110  16.726  1.2314 -1.3396 -0.6692
 8062SOL     OW35818   0.591   3.220   5.860 -0.0991 -0.5054 -0.0197
 8062SOL    HW135819   0.620   3.268   5.782 -1.0216  0.3188  0.1387
 8062SOL    HW235820   0.616   3.285   5.926 -1.5401  1.5274 -1.4721
 8063SOL     OW35821   1.476   0.283   4.108 -0.4894 -0.3749 -0.0273
 8063SOL    HW135822   1.509   0.275   4.198 -0.0941 -1.0223 -0.2300
 8063SOL    HW235823   1.437   0.196   4.093 -0.7190 -0.2710 -0.0284
 8064SOL     OW35824   2.625   4.419  16.811 -0.0545 -0.2956  0.3398
 8064SOL    HW135825   2.592   4.387  16.727 -0.2001  0.0003  0.2831
 8064SOL    HW235826   2.563   4.487  16.836 -0.0989 -0.5438  0.9085
 8065SOL     OW35827   4.456   4.317   3.364  0.4757  0.1298  0.0817
 8065SOL    HW135828   4.520   4.361   3.419  1.1562  0.0578 -0.6570
 8065SOL    HW235829   4.482   4.361   3.284  2.8683  0.3501  0.9836
 8066SOL     OW35830   0.977   0.694   4.313  0.1698  0.7922 -0.0714
 8066SOL    HW135831   0.954   0.617   4.365 -4.7068  1.9722 -0.4291
 8066SOL    HW235832   0.942   0.667   4.228 -0.3317 -0.7369  0.6289
 8067SOL     OW35833   0.341   3.961   8.957 -0.4093  0.6650  0.4320
 8067SOL    HW135834   0.324   4.052   8.934 -0.0260  0.1805 -1.8432
 8067SOL    HW235835   0.403   3.946   8.885 -2.3538 -3.2616 -0.4372
 8068SOL     OW35836   3.472   0.729   8.115  0.1170 -0.0125 -0.2287
 8068SOL    HW135837   3.474   0.651   8.170  1.4839  0.1444 -0.0469
 8068SOL    HW235838   3.489   0.800   8.176 -0.0855 -0.4305  0.3096
 8069SOL     OW35839   3.274   3.129   7.082 -0.7256 -0.3081 -0.0704
 8069SOL    HW135840   3.301   3.211   7.042 -0.1859 -0.0491  0.8374
 8069SOL    HW235841   3.183   3.122   7.055 -0.6757 -0.0389 -0.3066
 8070SOL     OW35842   0.879   2.447   1.863 -0.5898  0.3301 -0.3730
 8070SOL    HW135843   0.807   2.510   1.858  1.3746  2.4087 -2.0273
 8070SOL    HW235844   0.924   2.463   1.947 -0.5174  3.8743 -1.0860
 8071SOL     OW35845   4.596   1.113   1.743 -0.1903 -0.2433 -0.7006
 8071SOL    HW135846   4.518   1.062   1.765 -2.0906  1.8973 -2.4861
 8071SOL    HW235847   4.594   1.117   1.648  1.2664  1.9428 -0.6288
 8072SOL     OW35848   3.805   4.612   2.883 -0.6576  0.4337  0.0084
 8072SOL    HW135849   3.763   4.607   2.797 -0.3103 -0.3338 -0.1152
 8072SOL    HW235850   3.898   4.633   2.875 -0.5651  1.0566  2.6541
 8073SOL     OW35851   2.957   1.100   6.559 -0.4127  0.2497  0.1927
 8073SOL    HW135852   2.975   1.153   6.482 -0.7248  1.7256  1.1255
 8073SOL    HW235853   2.958   1.161   6.633 -0.0274  1.6576 -0.9725
 8074SOL     OW35854   4.242   4.394   6.000  0.7848 -0.0813 -0.2350
 8074SOL    HW135855   4.174   4.425   5.940 -1.5687 -1.4772  1.6678
 8074SOL    HW235856   4.310   4.460   5.990  1.1113 -0.4131 -0.1864
 8075SOL     OW35857   0.483   2.226  14.088  0.0442  0.5003  0.0170
 8075SOL    HW135858   0.543   2.295  14.059 -0.7017  0.5068 -1.5147
 8075SOL    HW235859   0.549   2.162  14.112 -1.0772 -1.0198 -0.9445
 8076SOL     OW35860   2.901   0.870  15.852  0.3009  0.1367  0.3249
 8076SOL    HW135861   2.908   0.946  15.910  1.3190  1.1810 -1.1670
 8076SOL    HW235862   2.815   0.882  15.811 -0.0863 -0.6826  0.8811
 8077SOL     OW35863   4.472   1.889   2.469  0.5114 -0.0663  0.3224
 8077SOL    HW135864   4.412   1.833   2.519  2.4168 -0.7684  1.8010
 8077SOL    HW235865   4.414   1.961   2.443  0.7035  0.2774  0.8533
 8078SOL     OW35866   1.461   1.549   6.827 -0.2592 -0.3723 -0.1750
 8078SOL    HW135867   1.514   1.474   6.855 -0.7575 -1.5617 -2.4427
 8078SOL    HW235868   1.493   1.619   6.884  0.0602 -1.4491  0.9665
 8079SOL     OW35869   2.770   3.904   8.827 -0.3352  0.0208 -0.8454
 8079SOL    HW135870   2.802   3.948   8.906  1.4204 -0.6992 -1.1557
 8079SOL    HW235871   2.839   3.839   8.814  1.2666  1.6036 -0.2784
 8080SOL     OW35872   2.262   3.558   5.741 -1.0502 -0.6677  0.7008
 8080SOL    HW135873   2.180   3.509   5.749 -1.9521  1.1644  2.9444
 8080SOL    HW235874   2.310   3.504   5.679  0.0186 -0.3779  1.2813
 8081SOL     OW35875   2.696   4.029   4.389  0.0059 -0.3235 -0.1517
 8081SOL    HW135876   2.669   4.096   4.451  1.1257 -1.1408  1.2228
 8081SOL    HW235877   2.748   4.083   4.330 -0.4953  0.9765  0.5927
 8082SOL     OW35878   2.254   3.841   2.472  0.0878  0.0278  0.5978
 8082SOL    HW135879   2.192   3.877   2.408  1.5278  1.2540 -0.1339
 8082SOL    HW235880   2.200   3.824   2.549 -1.5503 -0.8584 -0.7581
 8083SOL     OW35881   4.010   2.681   5.842  0.0990  0.3397  0.0446
 8083SOL    HW135882   3.944   2.752   5.841 -3.2744 -2.7869  0.3909
 8083SOL    HW235883   3.967   2.621   5.902 -0.1778 -1.0861 -1.5814
 8084SOL     OW35884   4.733   1.796   0.110 -0.1796 -0.2302 -0.0657
 8084SOL    HW135885   0.045   1.805   0.029  1.1371  2.4972  1.0357
 8084SOL    HW235886   0.031   1.709   0.131 -1.3411 -0.1959  2.0644
 8085SOL     OW35887   0.410   3.620   8.118 -0.0901 -0.0422  0.8367
 8085SOL    HW135888   0.453   3.694   8.161  1.8238 -1.3609  1.2020
 8085SOL    HW235889   0.434   3.652   8.031 -0.9714  1.9930  1.3255
 8086SOL     OW35890   1.948   3.346   2.084 -0.0478  0.2072  0.1610
 8086SOL    HW135891   1.940   3.301   2.000 -0.3833 -0.9950  0.8409
 8086SOL    HW235892   2.016   3.410   2.061 -1.0987  0.8828 -1.0854
 8087SOL     OW35893   0.165   1.201  10.144  0.1795  0.1940  0.5759
 8087SOL    HW135894   0.199   1.217  10.232  0.1485 -0.4881  0.7122
 8087SOL    HW235895   0.098   1.136  10.165  0.1735 -0.4163 -1.3318
 8088SOL     OW35896   2.445   2.054   5.606  0.2173 -0.1453  0.4887
 8088SOL    HW135897   2.470   2.021   5.692 -1.6521  0.0854  1.1251
 8088SOL    HW235898   2.459   2.145   5.633 -0.7695  0.2672 -0.3768
 8089SOL     OW35899   2.789   2.071   5.367  0.0608  0.2348 -0.5294
 8089SOL    HW135900   2.831   1.990   5.339 -1.7681 -0.1331 -2.1509
 8089SOL    HW235901   2.821   2.138   5.307 -1.3646  0.1707 -1.3538
 8090SOL     OW35902   3.348   3.148   1.430  0.5303  0.1031 -0.4548
 8090SOL    HW135903   3.303   3.088   1.490  1.5312  2.0292  2.1912
 8090SOL    HW235904   3.340   3.230   1.478  0.7475 -0.0476 -0.1560
 8091SOL     OW35905   2.788   2.147   8.935  0.6287  0.2738  0.5285
 8091SOL    HW135906   2.712   2.200   8.958  0.9680  0.6395  0.8012
 8091SOL    HW235907   2.779   2.153   8.839  2.8599  1.6171  0.4139
 8092SOL     OW35908   2.413   4.724   0.105 -0.2996  0.0776 -0.1625
 8092SOL    HW135909   2.362   4.643   0.107 -1.3931  0.7504 -0.8651
 8092SOL    HW235910   2.340   0.048   0.120  1.3148  1.7199  1.1624
 8093SOL     OW35911   4.241   4.230  14.183 -0.1447 -0.3157 -0.0092
 8093SOL    HW135912   4.190   4.242  14.103  0.1896  0.8607 -0.0514
 8093SOL    HW235913   4.202   4.304  14.229  0.4619 -1.1457  1.8492
 8094SOL     OW35914   0.151   3.291   7.300 -0.4017  0.1837  0.0454
 8094SOL    HW135915   0.071   3.258   7.259 -0.5747  3.0710 -1.9547
 8094SOL    HW235916   0.114   3.367   7.346  0.9927  1.6215 -1.2221
 8095SOL     OW35917   3.026   2.846   6.346  0.0065 -0.1121 -0.0566
 8095SOL    HW135918   3.072   2.880   6.270  0.5151 -1.3740 -0.3071
 8095SOL    HW235919   2.934   2.850   6.318 -0.0896 -0.7854  0.1450
 8096SOL     OW35920   2.493   3.775   0.126  0.2982  0.1837 -0.5183
 8096SOL    HW135921   2.492   3.842   0.058 -0.5988  0.1159 -0.5724
 8096SOL    HW235922   2.420   3.804   0.180  1.0048  1.1848 -0.1106
 8097SOL     OW35923   0.089   0.492   1.355  0.3003  0.4594  0.1344
 8097SOL    HW135924   0.172   0.477   1.401 -1.4456 -3.0128  2.0946
 8097SOL    HW235925   0.038   0.434   1.411 -0.8015  0.6497 -0.6772
 8098SOL     OW35926   3.616   2.569   1.770 -0.4156 -0.2404  0.2216
 8098SOL    HW135927   3.532   2.613   1.785 -1.3839 -2.3920  1.1406
 8098SOL    HW235928   3.624   2.519   1.852 -0.3720  0.6161  0.7362
 8099SOL     OW35929   3.555   1.356   7.643 -0.1068  0.2668 -0.0560
 8099SOL    HW135930   3.476   1.411   7.637 -0.4857 -0.0592  1.9956
 8099SOL    HW235931   3.633   1.410   7.647 -0.1109  0.2213  0.5771
 8100SOL     OW35932   2.446   0.458  16.991 -0.0790  0.3847 -0.4310
 8100SOL    HW135933   2.392   0.381  16.974 -0.7471  0.5300  1.0146
 8100SOL    HW235934   2.535   0.425  16.988 -0.0991  0.2118  0.9762
 8101SOL     OW35935   0.012   1.785   9.435 -0.6162  0.3729  0.0572
 8101SOL    HW135936   0.103   1.757   9.431 -1.0356 -1.3199  2.0886
 8101SOL    HW235937   0.014   1.860   9.495  0.0490  0.2634  0.1745
 8102SOL     OW35938   2.534   3.682   2.811 -0.6490 -0.6531 -0.1388
 8102SOL    HW135939   2.626   3.699   2.831 -0.8340 -0.6697  0.7070
 8102SOL    HW235940   2.521   3.740   2.736 -0.7615 -2.5102 -1.5529
 8103SOL     OW35941   0.379   1.936   1.930  0.2255 -0.6149 -0.2275
 8103SOL    HW135942   0.464   1.933   1.886 -0.2740 -0.0199 -1.2422
 8103SOL    HW235943   0.346   1.848   1.913 -0.1260 -0.6172  0.4658
 8104SOL     OW35944   3.170   3.064  11.258 -0.2360  0.1604  0.3647
 8104SOL    HW135945   3.253   3.109  11.270  0.2791  0.0432 -2.7063
 8104SOL    HW235946   3.183   2.987  11.203 -1.3986 -0.2741  0.6974
 8105SOL     OW35947   2.010   1.887  16.878 -0.1760 -0.3885  0.2558
 8105SOL    HW135948   1.977   1.837  16.953  3.5435 -1.3169  1.2632
 8105SOL    HW235949   1.956   1.844  16.812 -0.2993 -0.9849  0.7447
 8106SOL     OW35950   3.974   3.471   6.131  0.5304 -0.6661 -0.3663
 8106SOL    HW135951   3.982   3.439   6.221  0.0624  2.5068  0.8001
 8106SOL    HW235952   3.890   3.515   6.145  0.4383 -0.8261 -0.4126
 8107SOL     OW35953   4.229   0.098   2.532 -0.2408  0.3881  0.6567
 8107SOL    HW135954   4.262   0.008   2.535  1.8915  1.0666 -3.0878
 8107SOL    HW235955   4.148   0.085   2.484  0.8661 -1.6620 -0.6560
 8108SOL     OW35956   2.495   2.928   8.816  0.0037  0.0170 -0.4746
 8108SOL    HW135957   2.458   2.850   8.857  0.8403 -1.2726 -2.1310
 8108SOL    HW235958   2.456   2.995   8.871 -0.8367 -1.4198  0.6601
 8109SOL     OW35959   2.195   3.230   1.901 -0.4138 -0.0712  0.5027
 8109SOL    HW135960   2.275   3.261   1.944 -0.3577 -3.1953  2.6863
 8109SOL    HW235961   2.234   3.183   1.827  1.6163  0.5540  1.1626
 8110SOL     OW35962   4.201   4.565   5.482 -0.0291 -0.0454 -0.0103
 8110SOL    HW135963   4.147   4.601   5.411  0.0332 -1.0150 -0.5410
 8110SOL    HW235964   4.267   4.517   5.432 -1.3595 -0.4465 -1.3723
 8111SOL     OW35965   1.082   1.207   5.143 -0.4474 -0.0572  0.2499
 8111SOL    HW135966   1.161   1.260   5.151  0.7617 -1.6447 -1.1351
 8111SOL    HW235967   1.103   1.114   5.153 -1.6730 -0.5716 -1.9589
 8112SOL     OW35968   3.020   2.193   3.747  0.0954 -0.0948  0.0228
 8112SOL    HW135969   2.964   2.143   3.687 -0.6465  0.1798  0.4803
 8112SOL    HW235970   2.998   2.171   3.838  0.9171  3.8648  1.1660
 8113SOL     OW35971   1.842   1.299   9.682  0.3163  0.8117 -0.1453
 8113SOL    HW135972   1.821   1.324   9.592  0.4803 -1.6562 -0.8938
 8113SOL    HW235973   1.771   1.237   9.700 -0.4945  1.5219 -0.9015
 8114SOL     OW35974   0.044   4.695   2.737 -0.2533  0.3817 -0.2225
 8114SOL    HW135975   4.719   4.645   2.683 -0.1519 -0.1685  0.1763
 8114SOL    HW235976   0.123   4.645   2.715  0.4908  1.3866  0.1158
 8115SOL     OW35977   1.215   4.576  11.543 -0.4522  0.3160 -0.2854
 8115SOL    HW135978   1.232   4.631  11.619  1.8071 -2.4923  1.2277
 8115SOL    HW235979   1.229   4.490  11.582  0.6085  0.7400  0.2753
 8116SOL     OW35980   3.376   1.351  14.014  0.1864  0.2617 -0.0069
 8116SOL    HW135981   3.410   1.437  14.040  1.2289 -0.6623  1.7060
 8116SOL    HW235982   3.337   1.362  13.928  0.1529  1.0295  0.1035
 8117SOL     OW35983   1.507   1.519   3.372  0.5363  0.0052 -0.1828
 8117SOL    HW135984   1.573   1.497   3.307  1.6156  1.4285  0.4395
 8117SOL    HW235985   1.563   1.538   3.448 -1.5154  0.5886  1.1734
 8118SOL     OW35986   1.982   1.040  10.442 -0.0087 -0.4381  0.5313
 8118SOL    HW135987   2.019   1.125  10.467  0.5014 -0.2706 -0.7863
 8118SOL    HW235988   2.000   1.050  10.349 -0.1558  0.6168  0.6163
 8119SOL     OW35989   2.678   2.342   4.271  0.6708 -0.2619 -0.2705
 8119SOL    HW135990   2.673   2.329   4.176 -0.9611 -0.3330 -0.1706
 8119SOL    HW235991   2.593   2.384   4.282  1.0380  0.3443  0.2457
 8120SOL     OW35992   1.582   0.765   9.837  0.1059 -0.5593  0.0312
 8120SOL    HW135993   1.541   0.716   9.766  0.7608 -0.8723 -0.1328
 8120SOL    HW235994   1.516   0.825   9.870 -0.2414  0.4674 -2.5678
 8121SOL     OW35995   1.636   2.733   4.927 -0.0325 -0.6180 -0.2160
 8121SOL    HW135996   1.546   2.739   4.894  0.3988 -2.2350 -1.6646
 8121SOL    HW235997   1.628   2.703   5.018 -0.1675 -1.0219 -0.3626
 8122SOL     OW35998   2.583   2.334   5.644  0.0982 -0.4872 -0.3489
 8122SOL    HW135999   2.675   2.307   5.646  0.1536 -0.2183  0.6034
 8122SOL    HW236000   2.584   2.406   5.581 -0.1089 -2.5193 -2.6960
 8123SOL     OW36001   1.830   3.014   9.073 -0.2174  0.7148  0.0527
 8123SOL    HW136002   1.756   2.974   9.118  0.7043  0.8027  1.6559
 8123SOL    HW236003   1.858   3.073   9.144  1.7165 -1.4048  1.0407
 8124SOL     OW36004   1.138   4.649   1.466 -0.4969  0.3047 -0.2468
 8124SOL    HW136005   1.095   4.655   1.552 -2.1064 -0.3142 -1.0155
 8124SOL    HW236006   1.198   4.576   1.481 -1.5346 -0.6252 -0.5795
 8125SOL     OW36007   4.475   1.146   2.678 -0.5844  0.0476  0.4293
 8125SOL    HW136008   4.495   1.169   2.587  0.2402 -1.7942  0.1393
 8125SOL    HW236009   4.565   1.118   2.696 -0.4947  0.2173  0.2449
 8126SOL     OW36010   0.282   4.193   5.390 -0.0709 -0.2795  0.5030
 8126SOL    HW136011   0.278   4.240   5.473  4.1691 -0.1910  0.6854
 8126SOL    HW236012   0.309   4.108   5.427 -0.0192 -1.0001 -1.1763
 8127SOL     OW36013   3.504   2.104   6.002 -0.4913 -0.1873  0.0271
 8127SOL    HW136014   3.565   2.139   5.936  0.1017 -0.9156  0.1896
 8127SOL    HW236015   3.479   2.023   5.957  3.2387 -0.3679 -1.7562
 8128SOL     OW36016   3.996   4.435   6.195  0.3294 -0.3495  0.1871
 8128SOL    HW136017   3.932   4.432   6.266  0.5863 -0.4876  0.4112
 8128SOL    HW236018   3.943   4.406   6.120 -0.8097  0.4841  0.6725
 8129SOL     OW36019   2.904   2.330   7.917 -0.4906 -0.5380  0.5329
 8129SOL    HW136020   2.942   2.377   7.843 -1.5123  0.9412  0.9437
 8129SOL    HW236021   2.936   2.242   7.897  0.8029 -0.1066  0.7526
 8130SOL     OW36022   0.469   3.372  15.222 -0.0223 -0.1088  0.0725
 8130SOL    HW136023   0.470   3.418  15.138  0.2809 -0.8467 -0.3346
 8130SOL    HW236024   0.376   3.376  15.242 -0.1615  1.3031 -0.8639
 8131SOL     OW36025   3.345   4.590   8.231 -0.2345 -0.0552 -0.2646
 8131SOL    HW136026   3.334   4.503   8.269 -1.7270  0.5888  0.7648
 8131SOL    HW236027   3.339   4.643   8.311  0.1813 -1.5770  0.7697
 8132SOL     OW36028   0.757   1.135   5.528 -0.1618  0.1074 -0.1363
 8132SOL    HW136029   0.716   1.203   5.581 -0.2936  0.4102 -0.6293
 8132SOL    HW236030   0.842   1.146   5.572  0.9277 -2.7357 -1.5251
 8133SOL     OW36031   3.007   2.313   6.543  0.2776  0.3028  0.4866
 8133SOL    HW136032   3.074   2.289   6.607  0.1439 -1.0213  0.1292
 8133SOL    HW236033   3.016   2.408   6.543 -1.0691  0.4566 -3.6349
 8134SOL     OW36034   4.129   3.111  17.515  0.1994  0.1212 -0.5057
 8134SOL    HW136035   4.080   3.088  17.594  0.5787  0.1004 -0.2751
 8134SOL    HW236036   4.054   3.123  17.456 -0.2422 -0.0875  0.0158
 8135SOL     OW36037   4.447   2.606  14.843  0.1216 -0.0160 -0.2083
 8135SOL    HW136038   4.483   2.579  14.927 -2.1597  0.9858  1.0824
 8135SOL    HW236039   4.457   2.701  14.838 -2.6872  0.2293 -1.4232
 8136SOL     OW36040   3.776   2.524   6.836  0.1396 -0.3673 -0.1939
 8136SOL    HW136041   3.703   2.583   6.857 -0.3432 -1.2399  0.5708
 8136SOL    HW236042   3.787   2.520   6.741  2.2140  1.4628 -0.0349
 8137SOL     OW36043   2.856   4.620  12.515  0.4609  0.0811  0.1090
 8137SOL    HW136044   2.939   4.628  12.468  0.9225 -0.1897  0.8729
 8137SOL    HW236045   2.803   4.684  12.466 -0.2624  0.1717  1.0087
 8138SOL     OW36046   1.570   2.829  16.500  0.0443  0.4189 -0.3994
 8138SOL    HW136047   1.502   2.896  16.494 -0.3447  0.0882  0.3020
 8138SOL    HW236048   1.538   2.788  16.580  2.7803  0.3936  0.6871
 8139SOL     OW36049   0.525   2.179   2.341 -0.2935 -0.4723  0.4463
 8139SOL    HW136050   0.483   2.094   2.355  1.0173 -1.1405  0.3958
 8139SOL    HW236051   0.617   2.151   2.336 -0.5910 -1.4939  0.7304
 8140SOL     OW36052   1.146   3.444   4.201  0.0968  0.1816  0.0087
 8140SOL    HW136053   1.123   3.537   4.209 -1.8183 -0.2868  0.0419
 8140SOL    HW236054   1.190   3.453   4.117  2.2677  0.4091  1.1551
 8141SOL     OW36055   0.563   0.575   8.397  1.2582 -0.1439 -0.0568
 8141SOL    HW136056   0.491   0.540   8.345  0.6217  2.2450 -0.7758
 8141SOL    HW236057   0.520   0.641   8.451 -1.7614 -2.2840  0.1637
 8142SOL     OW36058   1.036   1.916   8.880 -0.7461  0.1123 -0.8438
 8142SOL    HW136059   0.981   1.956   8.947  1.1839 -0.1305  0.8655
 8142SOL    HW236060   0.995   1.829   8.877 -2.4068  0.8544  0.5878
 8143SOL     OW36061   1.799   3.701   3.352  0.2846  0.2617  0.0216
 8143SOL    HW136062   1.732   3.702   3.420  0.0599 -0.2264 -0.1964
 8143SOL    HW236063   1.790   3.620   3.302 -0.3127 -0.2214  0.9321
 8144SOL     OW36064   0.226   3.000   2.378 -0.3449 -0.5650 -0.0192
 8144SOL    HW136065   0.161   2.953   2.430  1.2087 -3.3126 -0.4993
 8144SOL    HW236066   0.171   3.002   2.299  0.6889 -0.7801 -0.7542
 8145SOL     OW36067   4.674   0.510  17.022 -0.4382  0.1847  0.6672
 8145SOL    HW136068   4.710   0.577  17.080  0.3469 -1.1502  1.7229
 8145SOL    HW236069   0.012   0.494  16.964 -0.7542 -1.7114  0.7893
 8146SOL     OW36070   2.864   3.689   7.413  0.4240 -0.1770  0.0063
 8146SOL    HW136071   2.870   3.769   7.465  2.0831 -0.2159 -0.1388
 8146SOL    HW236072   2.891   3.721   7.327  0.4284  1.8612  0.7712
 8147SOL     OW36073   0.072   3.201  12.546  0.8096 -0.3613  0.4363
 8147SOL    HW136074   0.090   3.127  12.604  0.1189  0.2379  1.4124
 8147SOL    HW236075   0.045   3.268  12.608  0.5671 -0.7166  0.7138
 8148SOL     OW36076   3.718   3.684   2.059 -0.1661 -0.0312  0.2082
 8148SOL    HW136077   3.733   3.772   2.093 -0.7392 -0.4722  1.6267
 8148SOL    HW236078   3.795   3.637   2.090  1.0104  2.0255  0.3901
 8149SOL     OW36079   1.684   0.887   5.547  0.4796  0.2675  0.0364
 8149SOL    HW136080   1.733   0.847   5.475  2.6118  1.1530  1.0065
 8149SOL    HW236081   1.665   0.973   5.509  0.3022  0.5820  0.8334
 8150SOL     OW36082   0.297   3.024   6.937 -0.3486 -0.3682 -0.4491
 8150SOL    HW136083   0.325   3.071   7.015 -0.5493  1.2380 -1.3589
 8150SOL    HW236084   0.208   2.994   6.958 -0.6510  0.4000 -0.6365
 8151SOL     OW36085   3.775   1.702   9.321  0.4840 -0.1755 -1.2033
 8151SOL    HW136086   3.795   1.774   9.381  0.0180 -0.8235 -0.2763
 8151SOL    HW236087   3.700   1.745   9.280 -0.0708  0.9764  1.0580
 8152SOL     OW36088   4.636   0.642   3.618 -0.0288 -0.2794  0.2895
 8152SOL    HW136089   4.610   0.606   3.703 -0.8778 -0.4513 -0.0451
 8152SOL    HW236090   4.567   0.705   3.598 -0.0792 -0.5162 -0.2723
 8153SOL     OW36091   3.024   2.293   9.543 -0.2559  0.2352 -0.8907
 8153SOL    HW136092   2.931   2.283   9.561 -0.1859 -0.5020 -0.9072
 8153SOL    HW236093   3.066   2.265   9.624 -0.2210 -1.5921 -1.5293
 8154SOL     OW36094   2.079   1.056   5.665 -0.4532 -0.0686  0.0868
 8154SOL    HW136095   2.039   0.972   5.689  2.9093 -1.3128  1.3109
 8154SOL    HW236096   2.018   1.085   5.597 -1.7201 -0.9711  0.8466
 8155SOL     OW36097   0.564   1.788   9.926 -0.0139 -0.1248 -0.5544
 8155SOL    HW136098   0.510   1.717   9.892  1.3779 -1.4757  0.1034
 8155SOL    HW236099   0.635   1.803   9.863  0.6337 -2.4846 -0.3653
 8156SOL     OW36100   3.621   3.987  12.762 -0.5951  0.5718 -0.0311
 8156SOL    HW136101   3.647   4.001  12.671  0.2274 -1.4480 -0.1054
 8156SOL    HW236102   3.688   4.041  12.802 -1.8106 -0.0729  2.9055
 8157SOL     OW36103   0.138   3.084   8.221  0.5822 -0.6680  0.3584
 8157SOL    HW136104   0.108   3.000   8.256  0.6639 -1.1923 -0.8251
 8157SOL    HW236105   0.233   3.072   8.230  0.5526 -0.7274  0.5969
 8158SOL     OW36106   0.704   4.617   1.979 -0.1503  0.1352  0.2011
 8158SOL    HW136107   0.709   4.553   2.050 -1.1266 -0.2944 -0.1145
 8158SOL    HW236108   0.672   4.558   1.910  0.6861  0.8201 -0.7790
 8159SOL     OW36109   3.062   4.154  14.148  0.2013  0.6600  0.4915
 8159SOL    HW136110   3.068   4.249  14.163  0.5337  1.0397 -1.9698
 8159SOL    HW236111   2.969   4.137  14.160  0.7255 -0.9870  2.0818
 8160SOL     OW36112   3.934   4.703   9.795  0.1197 -1.1887 -0.2259
 8160SOL    HW136113   3.973   4.626   9.755  0.2760  0.6640 -3.6373
 8160SOL    HW236114   3.912   0.011   9.713  0.2145 -1.3245 -0.3241
 8161SOL     OW36115   3.025   1.053   5.353  0.3875  0.1519 -0.3921
 8161SOL    HW136116   2.978   1.115   5.296  0.8254  1.3539  0.5619
 8161SOL    HW236117   2.955   1.028   5.413  0.3865 -1.5272 -1.0707
 8162SOL     OW36118   0.727   3.289   1.002 -0.0104 -0.3963  0.5447
 8162SOL    HW136119   0.743   3.365   0.946  2.5150 -1.2456  0.1226
 8162SOL    HW236120   0.706   3.327   1.087  0.2186  1.3221 -0.1558
 8163SOL     OW36121   2.734   1.408   3.151 -0.5047  0.5465  0.5284
 8163SOL    HW136122   2.683   1.378   3.227 -1.6515 -0.7151 -0.7325
 8163SOL    HW236123   2.672   1.390   3.080  0.0790 -1.9640  0.6620
 8164SOL     OW36124   4.227   2.252   8.130 -0.1184  0.8125 -0.5601
 8164SOL    HW136125   4.146   2.257   8.182 -0.1429  1.4617 -0.6546
 8164SOL    HW236126   4.211   2.323   8.067  1.3592  1.5073 -0.1551
 8165SOL     OW36127   0.711   1.547   8.510 -0.0304  0.2864  0.2441
 8165SOL    HW136128   0.722   1.465   8.461 -0.2024 -0.3192  1.2094
 8165SOL    HW236129   0.681   1.614   8.449 -2.1347 -2.5330 -1.8018
 8166SOL     OW36130   3.207   4.591  14.776 -0.1720  0.0140  0.5761
 8166SOL    HW136131   3.158   4.511  14.759  1.6518 -0.9636  0.0238
 8166SOL    HW236132   3.297   4.559  14.772  0.5178  1.6915  2.4889
 8167SOL     OW36133   3.242   0.597   9.040  0.3741 -0.2096 -0.1265
 8167SOL    HW136134   3.278   0.665   8.984  4.1010 -0.7693  1.5841
 8167SOL    HW236135   3.281   0.520   9.000  0.4267 -1.2642  1.9720
 8168SOL     OW36136   4.295   3.702   8.388  0.1215  0.6847 -0.4417
 8168SOL    HW136137   4.309   3.657   8.305  5.2791  4.2390 -1.4500
 8168SOL    HW236138   4.384   3.692   8.421 -0.3850 -1.2742  0.3462
 8169SOL     OW36139   3.991   1.308   2.758  0.6947 -0.2921  0.0255
 8169SOL    HW136140   4.053   1.237   2.744 -0.3416 -1.1103 -0.4296
 8169SOL    HW236141   3.939   1.302   2.678  0.8882 -0.0578 -0.1207
 8170SOL     OW36142   3.385   3.020   4.316  0.5622 -0.6966 -0.2631
 8170SOL    HW136143   3.433   2.944   4.285  0.9371 -1.2606  1.6789
 8170SOL    HW236144   3.425   3.088   4.262  3.2277 -4.0549 -2.4864
 8171SOL     OW36145   2.101   3.264  12.775  0.0739  0.0051  0.1366
 8171SOL    HW136146   2.128   3.174  12.796 -1.9941 -0.2518  1.6766
 8171SOL    HW236147   2.012   3.244  12.745 -0.0990  0.7217  0.1949
 8172SOL     OW36148   3.966   1.993   3.010 -0.0628  0.7088  0.0073
 8172SOL    HW136149   3.922   2.060   3.062  0.5938 -0.1655  1.6671
 8172SOL    HW236150   3.896   1.951   2.960  0.3583  0.1167 -0.0912
 8173SOL     OW36151   3.650   2.927   7.657 -0.1049  0.0253  0.0552
 8173SOL    HW136152   3.734   2.881   7.648 -0.9250 -1.4906  0.1892
 8173SOL    HW236153   3.679   3.012   7.689  1.1593 -0.6573  0.7370
 8174SOL     OW36154   1.418   1.793   2.796  0.4572 -0.4530  0.5915
 8174SOL    HW136155   1.342   1.790   2.853  0.3911  0.4775  0.5409
 8174SOL    HW236156   1.483   1.843   2.845 -0.6617  2.5896 -1.0708
 8175SOL     OW36157   0.923   3.135   8.719  0.4242  0.2451 -0.8046
 8175SOL    HW136158   0.960   3.157   8.805  0.4680  0.9430 -1.0054
 8175SOL    HW236159   0.845   3.095   8.756  1.3911  0.1886  1.1970
 8176SOL     OW36160   3.693   0.098   3.065 -0.1587  0.1172  0.0661
 8176SOL    HW136161   3.610   0.070   3.103  0.4244 -0.6407  0.7819
 8176SOL    HW236162   3.715   0.038   2.994 -0.0714 -0.6142  0.7206
 8177SOL     OW36163   3.714   4.466  13.562  0.5433  0.7272  0.5185
 8177SOL    HW136164   3.620   4.453  13.558  0.9633 -1.9478 -0.6459
 8177SOL    HW236165   3.744   4.377  13.582 -0.7943  0.0729 -0.4153
 8178SOL     OW36166   2.175   3.846   0.974 -0.2874 -0.1322 -0.4036
 8178SOL    HW136167   2.217   3.877   0.894 -0.2723 -0.5774 -0.5700
 8178SOL    HW236168   2.247   3.791   1.007 -1.6027 -1.5431  0.1088
 8179SOL     OW36169   0.029   3.345   5.109  0.3071 -0.2077 -0.1707
 8179SOL    HW136170   0.032   3.261   5.154 -1.4617 -1.6660 -2.7556
 8179SOL    HW236171   0.118   3.375   5.127 -0.0164 -0.6370  2.0896
 8180SOL     OW36172   0.945   3.892  11.516 -0.3123 -0.1417 -0.1944
 8180SOL    HW136173   0.900   3.820  11.472 -0.6242  0.2173 -0.4573
 8180SOL    HW236174   0.946   3.866  11.608  3.3384  1.4176  0.2347
 8181SOL     OW36175   3.437   2.531   2.690 -0.4821  0.3957  0.0267
 8181SOL    HW136176   3.353   2.546   2.645 -0.5114 -0.1657 -0.1101
 8181SOL    HW236177   3.409   2.491   2.772  1.2004 -0.0848  0.3606
 8182SOL     OW36178   1.841   2.656  15.732 -0.1456 -0.1667 -0.0421
 8182SOL    HW136179   1.768   2.700  15.774  2.2127  2.0077  1.7759
 8182SOL    HW236180   1.913   2.708  15.768 -0.8893 -0.3991  1.7678
 8183SOL     OW36181   3.203   2.848   7.400  0.1295  0.1517 -0.1237
 8183SOL    HW136182   3.193   2.790   7.475 -0.6453  0.2556 -0.1535
 8183SOL    HW236183   3.295   2.874   7.406  0.6352 -2.0224  1.6559
 8184SOL     OW36184   2.158   3.837  11.224  0.4686  0.0184  0.5099
 8184SOL    HW136185   2.134   3.885  11.304 -1.6163 -1.9800  1.0747
 8184SOL    HW236186   2.213   3.770  11.264  0.5825 -1.7345 -2.5986
 8185SOL     OW36187   1.840   0.008   9.840 -0.1569 -0.5112  0.8336
 8185SOL    HW136188   1.850   4.676   9.906 -1.9577 -1.6054 -0.0263
 8185SOL    HW236189   1.917   0.064   9.850  0.3710 -1.3167  1.2928
 8186SOL     OW36190   1.055   3.036   0.769 -0.3043  0.1503 -0.3144
 8186SOL    HW136191   1.021   3.119   0.738 -1.0283 -0.0822 -0.1351
 8186SOL    HW236192   0.995   3.033   0.843 -0.0677 -2.2623 -0.2138
 8187SOL     OW36193   0.954   1.986  11.827 -0.3535  0.0086  0.3023
 8187SOL    HW136194   1.021   2.050  11.804 -0.2803 -0.8127 -1.7739
 8187SOL    HW236195   0.933   1.946  11.743 -1.6377  0.5547  0.3696
 8188SOL     OW36196   4.540   3.507   5.840  0.1558 -0.2280  0.0023
 8188SOL    HW136197   4.553   3.420   5.802  0.3754 -0.0267 -0.3811
 8188SOL    HW236198   4.635   3.524   5.837 -0.1139  1.0866 -1.0022
 8189SOL     OW36199   0.172   2.485   2.570 -0.1017 -0.0954 -0.1265
 8189SOL    HW136200   0.113   2.438   2.512 -1.0217  0.2036  0.5817
 8189SOL    HW236201   0.249   2.487   2.512  0.9002 -1.0374  1.1464
 8190SOL     OW36202   0.023   2.738  12.835  0.3120  0.6093 -0.4656
 8190SOL    HW136203   0.005   2.743  12.929  1.9296 -0.1282 -0.1259
 8190SOL    HW236204   0.104   2.688  12.835  1.6443  2.7731 -0.0358
 8191SOL     OW36205   1.375   0.897   1.165  0.3575 -0.6000 -0.2246
 8191SOL    HW136206   1.305   0.833   1.151  0.4661 -0.2268 -2.4499
 8191SOL    HW236207   1.351   0.966   1.103  2.6025  1.1263  0.8260
 8192SOL     OW36208   4.321   2.779   7.729 -0.1419  0.1947  0.3180
 8192SOL    HW136209   4.240   2.733   7.753  0.3848 -2.1700 -2.3657
 8192SOL    HW236210   4.349   2.817   7.812 -3.5291 -1.0963  2.0586
 8193SOL     OW36211   3.302   3.852   8.471  0.3985 -0.8386 -0.0120
 8193SOL    HW136212   3.378   3.799   8.495  0.2829 -1.0073 -0.0144
 8193SOL    HW236213   3.347   3.922   8.425  0.7618 -0.0919  1.4833
 8194SOL     OW36214   3.055   1.633   5.531 -0.2780  0.1982  0.5863
 8194SOL    HW136215   3.063   1.575   5.607  0.4673  0.3099  0.5891
 8194SOL    HW236216   3.099   1.579   5.465  0.4007  0.5869  0.7295
 8195SOL     OW36217   4.440   4.399  12.702 -0.4852  0.0234  0.1494
 8195SOL    HW136218   4.418   4.463  12.634  0.4454 -0.1395 -0.3030
 8195SOL    HW236219   4.493   4.457  12.756  0.3526  1.2210 -1.9282
 8196SOL     OW36220   1.074   4.469   3.329 -0.0165 -0.1311  0.4463
 8196SOL    HW136221   1.080   4.413   3.252 -1.0051 -0.5513  0.6669
 8196SOL    HW236222   1.103   4.411   3.399 -0.6423 -1.5505 -0.4710
 8197SOL     OW36223   0.069   4.676   1.114  0.4206  0.3527  0.2017
 8197SOL    HW136224   0.022   4.612   1.061 -1.6615  1.7816  0.3269
 8197SOL    HW236225   0.161   4.671   1.088  0.2720 -0.5566 -0.1172
 8198SOL     OW36226   1.946   0.775   5.689 -0.1148 -0.1899 -0.2586
 8198SOL    HW136227   1.856   0.743   5.699 -0.7830  2.1487  1.2635
 8198SOL    HW236228   1.992   0.692   5.693 -2.5953 -1.6432 -1.6624
 8199SOL     OW36229   1.190   2.285   8.556 -0.3665  0.2135 -0.1776
 8199SOL    HW136230   1.118   2.268   8.617 -1.4996 -1.7183 -2.0349
 8199SOL    HW236231   1.168   2.215   8.494  1.5387  0.2227 -0.8535
 8200SOL     OW36232   2.447   2.137   1.062 -0.2287 -0.2280  0.2905
 8200SOL    HW136233   2.351   2.128   1.066 -0.2828  0.7050  0.9629
 8200SOL    HW236234   2.452   2.177   0.975 -0.7641  1.4530  1.0267
 8201SOL     OW36235   3.097   0.012  14.533 -0.5004  0.1371  0.0601
 8201SOL    HW136236   3.116   0.012  14.627 -1.2986  2.0057  0.2091
 8201SOL    HW236237   3.179   4.729  14.488 -0.0984  0.6979  0.5433
 8202SOL     OW36238   2.824   3.514   6.697  0.3617 -0.3267  0.7524
 8202SOL    HW136239   2.795   3.565   6.622  1.5766 -1.0282 -0.1896
 8202SOL    HW236240   2.825   3.585   6.761  3.1670  1.7278 -1.5999
 8203SOL     OW36241   1.877   1.875   7.265  0.2136  0.1502  0.1589
 8203SOL    HW136242   1.838   1.882   7.352  1.1283 -0.3272  0.6045
 8203SOL    HW236243   1.863   1.781   7.255  1.8103 -0.0580 -0.1595
 8204SOL     OW36244   0.528   1.323  16.616  0.2820  0.3952 -0.0887
 8204SOL    HW136245   0.617   1.340  16.645  0.1633  1.3958 -0.2937
 8204SOL    HW236246   0.469   1.325  16.691 -0.7916  0.5876 -0.9284
 8205SOL     OW36247   1.022   0.345   7.891 -0.2203  0.1272  0.2273
 8205SOL    HW136248   1.097   0.401   7.872  1.5747 -1.6785  2.0899
 8205SOL    HW236249   0.954   0.413   7.897 -0.4642 -0.1001 -0.0249
 8206SOL     OW36250   3.934   2.279   5.396 -0.1009 -0.2900 -0.6336
 8206SOL    HW136251   3.992   2.325   5.335  1.3073 -0.3638  0.6746
 8206SOL    HW236252   3.928   2.189   5.366 -1.9757 -0.6381  0.7849
 8207SOL     OW36253   2.320   4.157   3.216  0.0104  0.1013 -0.1997
 8207SOL    HW136254   2.291   4.088   3.157 -0.1703 -0.9488  1.1314
 8207SOL    HW236255   2.236   4.194   3.244  0.4858  1.6284 -0.7409
 8208SOL     OW36256   3.618   0.131   8.711  0.5335  0.4387 -0.5778
 8208SOL    HW136257   3.599   0.192   8.782 -0.9225  0.8173 -1.2952
 8208SOL    HW236258   3.705   0.166   8.692  1.0137 -0.6735 -0.4397
 8209SOL     OW36259   0.479   4.644   0.691 -0.8892  0.0181  0.3022
 8209SOL    HW136260   0.445   4.557   0.669  1.9943 -0.9764 -0.1684
 8209SOL    HW236261   0.532   4.630   0.769 -2.3001  1.0063  1.4247
 8210SOL     OW36262   1.922   1.682  13.516 -0.1383 -0.3466 -0.1025
 8210SOL    HW136263   1.948   1.634  13.595  0.9410 -0.0813 -0.2972
 8210SOL    HW236264   1.861   1.623  13.473  0.3934  1.8752 -3.8159
 8211SOL     OW36265   4.676   2.434  14.136  0.8576 -0.1915  0.3748
 8211SOL    HW136266   4.709   2.476  14.215 -0.0865 -1.1659  1.2891
 8211SOL    HW236267   4.684   2.342  14.160  2.5724  0.1642  1.2325
 8212SOL     OW36268   3.082   2.056   6.770 -0.4607  0.2104  0.0381
 8212SOL    HW136269   3.090   2.024   6.680  0.5640 -1.5014  0.7335
 8212SOL    HW236270   3.166   2.101   6.779 -0.6948  0.5361  0.6057
 8213SOL     OW36271   3.056   3.110   6.946 -0.1792 -0.0847  0.2539
 8213SOL    HW136272   3.024   3.144   6.862  1.5794  1.6849  0.2918
 8213SOL    HW236273   3.008   3.027   6.949 -0.4192  0.0588  0.3632
 8214SOL     OW36274   3.168   2.458   3.721 -0.0755 -0.6236 -0.2981
 8214SOL    HW136275   3.094   2.399   3.709 -1.3286  1.0045 -0.4845
 8214SOL    HW236276   3.217   2.399   3.778  0.5657  0.7505  0.5837
 8215SOL     OW36277   2.271   3.684  16.306  0.1946  0.0459  0.2291
 8215SOL    HW136278   2.270   3.699  16.211  0.7660  0.9249  0.3635
 8215SOL    HW236279   2.216   3.606  16.304  0.2195  0.0078  1.1622
 8216SOL     OW36280   0.584   0.908   3.350 -0.3367 -0.3987 -0.4685
 8216SOL    HW136281   0.576   0.999   3.320 -0.4633 -0.1574  0.2834
 8216SOL    HW236282   0.495   0.872   3.342  0.5654 -2.8165  0.4597
 8217SOL     OW36283   1.777   2.462   2.080 -0.0035 -0.2588 -0.1788
 8217SOL    HW136284   1.700   2.406   2.071  0.2831 -0.6803 -0.0005
 8217SOL    HW236285   1.739   2.542   2.045  1.1823 -0.2844 -1.5160
 8218SOL     OW36286   0.949   1.041   2.080 -0.0812 -0.0671  0.4312
 8218SOL    HW136287   0.861   1.038   2.119  0.1789 -1.1658  0.9066
 8218SOL    HW236288   0.957   0.958   2.034  1.8686 -1.0040  2.4910
 8219SOL     OW36289   1.551   0.327   7.316 -0.2593 -0.2444  0.0095
 8219SOL    HW136290   1.463   0.364   7.305  0.5592  1.0024 -2.3528
 8219SOL    HW236291   1.564   0.371   7.400 -0.1052 -2.2715  1.0482
 8220SOL     OW36292   0.597   1.028   8.166 -0.3876  0.5388 -0.2288
 8220SOL    HW136293   0.510   0.991   8.181 -0.2001  0.5641  0.9176
 8220SOL    HW236294   0.565   1.098   8.109 -0.8924  0.6932  0.2438
 8221SOL     OW36295   3.950   2.209   3.680 -0.4478  0.1602 -0.1915
 8221SOL    HW136296   3.970   2.302   3.693 -2.8755  0.3077  2.3473
 8221SOL    HW236297   4.001   2.179   3.605  1.6343  0.3444  1.1505
 8222SOL     OW36298   0.698   2.299   1.494  0.0090 -0.4076 -0.5787
 8222SOL    HW136299   0.766   2.313   1.428  1.0685 -0.2679  0.5516
 8222SOL    HW236300   0.713   2.365   1.562  1.4324 -1.3048 -0.0371
 8223SOL     OW36301   3.245   3.343   6.193  0.3924  0.0059  0.4708
 8223SOL    HW136302   3.248   3.335   6.098 -3.5595 -2.1965  0.5469
 8223SOL    HW236303   3.250   3.254   6.227  1.6269  0.1830  0.7753
 8224SOL     OW36304   0.137   1.307   9.894 -0.0009 -0.4609 -0.2854
 8224SOL    HW136305   0.126   1.324   9.988  0.7193 -0.0332 -0.2775
 8224SOL    HW236306   0.049   1.328   9.865 -0.5910 -1.2963  0.9154
 8225SOL     OW36307   2.514   1.149  11.065 -0.6535  0.1074 -0.3626
 8225SOL    HW136308   2.575   1.105  11.124 -0.0417  0.4652 -0.7252
 8225SOL    HW236309   2.443   1.088  11.042 -0.0765 -0.7883  0.2253
 8226SOL     OW36310   3.778   0.603   4.631 -0.4599 -0.1090  0.0518
 8226SOL    HW136311   3.700   0.547   4.621 -0.6717  0.1332  0.3478
 8226SOL    HW236312   3.739   0.689   4.620 -0.2774 -0.1369 -0.8049
 8227SOL     OW36313   3.736   3.676   7.084 -0.0185 -0.4935 -0.6369
 8227SOL    HW136314   3.646   3.707   7.086  0.6330  1.5324 -2.5006
 8227SOL    HW236315   3.770   3.723   7.160 -0.9743 -0.7005 -0.0833
 8228SOL     OW36316   0.143   4.307   3.512  0.6592  0.4825  0.0550
 8228SOL    HW136317   0.150   4.259   3.429 -0.2842  1.8409 -0.8326
 8228SOL    HW236318   0.207   4.378   3.502 -1.1312  2.1860  0.5695
 8229SOL     OW36319   1.215   4.616   2.550 -0.5660 -0.1422  0.3039
 8229SOL    HW136320   1.155   4.550   2.515 -1.3678 -1.0535  3.4088
 8229SOL    HW236321   1.293   4.573   2.582  0.6589  0.5061 -1.7875
 8230SOL     OW36322   2.182   2.061  13.390 -0.0528 -0.4804 -0.2891
 8230SOL    HW136323   2.267   2.018  13.386 -0.3737 -1.3581  2.2595
 8230SOL    HW236324   2.130   1.992  13.432  0.5949 -0.3951  0.6624
 8231SOL     OW36325   1.679   0.381   3.277  0.1360 -0.1516  0.3043
 8231SOL    HW136326   1.701   0.340   3.193 -2.0313 -0.1357 -0.2690
 8231SOL    HW236327   1.745   0.450   3.277  0.4139 -0.4333 -2.0931
 8232SOL     OW36328   4.341   0.265   7.105  0.1380 -0.2348 -0.1794
 8232SOL    HW136329   4.407   0.313   7.055  0.4124  1.0506  1.4136
 8232SOL    HW236330   4.263   0.257   7.050  1.4761 -1.0520 -1.9686
 8233SOL     OW36331   2.126   1.692   6.828  0.0512 -0.5767  0.4330
 8233SOL    HW136332   2.198   1.652   6.876  0.5012  1.4254  1.3946
 8233SOL    HW236333   2.049   1.644   6.860 -0.2585  0.8689  1.8725
 8234SOL     OW36334   3.190   1.417  13.470  0.0739  0.4163 -0.5170
 8234SOL    HW136335   3.164   1.496  13.518 -1.4205 -1.3437  1.6102
 8234SOL    HW236336   3.115   1.418  13.410 -0.7153  0.1555  0.4488
 8235SOL     OW36337   1.800   0.541   8.188 -0.1409  0.3456  0.4076
 8235SOL    HW136338   1.740   0.469   8.209  0.1968 -0.8826 -2.7354
 8235SOL    HW236339   1.848   0.492   8.121  1.4261  0.6399  1.3335
 8236SOL     OW36340   4.336   4.195   8.593  0.1800  0.2267 -0.4681
 8236SOL    HW136341   4.248   4.175   8.562  0.3853 -0.9582 -0.2883
 8236SOL    HW236342   4.338   4.124   8.657 -2.0810  0.5289 -0.0833
 8237SOL     OW36343   2.062   4.702   7.052  0.1833  0.2789 -0.8217
 8237SOL    HW136344   2.094   0.047   7.093  0.9029 -0.4967  0.1514
 8237SOL    HW236345   2.028   4.661   7.131  1.3693 -0.4989 -0.7198
 8238SOL     OW36346   4.248   4.016   6.850  0.2723  0.2548 -0.7608
 8238SOL    HW136347   4.186   4.070   6.802 -1.5022 -0.2021  1.0225
 8238SOL    HW236348   4.235   3.933   6.805 -3.7990  0.5572 -0.0835
 8239SOL     OW36349   3.930   1.341   3.873 -0.0568  0.6109 -0.1295
 8239SOL    HW136350   4.025   1.327   3.872 -0.2514 -0.7444  0.1347
 8239SOL    HW236351   3.923   1.428   3.834 -0.2489  1.1851  1.1973
 8240SOL     OW36352   2.564   3.799   4.334 -0.1033 -0.0809 -0.4540
 8240SOL    HW136353   2.478   3.808   4.374  0.7850  1.0063  1.2370
 8240SOL    HW236354   2.604   3.872   4.381 -1.5447  0.7415 -0.5096
 8241SOL     OW36355   1.256   4.364  11.749 -0.1482 -0.0710  0.4106
 8241SOL    HW136356   1.164   4.349  11.768 -0.3763  0.0720 -0.5624
 8241SOL    HW236357   1.301   4.287  11.783 -1.0504 -0.0891  1.5531
 8242SOL     OW36358   2.776   4.503   3.068 -0.5714  0.0033  0.0385
 8242SOL    HW136359   2.789   4.573   3.131 -1.7876 -0.2992  0.6134
 8242SOL    HW236360   2.844   4.525   3.004  0.4037 -1.5023  0.5273
 8243SOL     OW36361   1.669   3.587   4.517 -0.3722 -0.1798  0.5111
 8243SOL    HW136362   1.647   3.515   4.458 -2.2316 -0.7538  1.9085
 8243SOL    HW236363   1.649   3.658   4.456  1.1030  0.0933  0.3404
 8244SOL     OW36364   2.472   4.483  17.648 -0.0830 -0.2791  0.1265
 8244SOL    HW136365   2.542   4.548  17.656  0.1407 -0.4454 -0.4988
 8244SOL    HW236366   2.463   4.479  17.553 -0.4172 -0.3801  0.1606
 8245SOL     OW36367   3.565   4.317  16.887  0.0625 -0.3562  0.0696
 8245SOL    HW136368   3.470   4.313  16.896  0.0738  2.3914  1.5403
 8245SOL    HW236369   3.578   4.396  16.834 -0.5434 -1.5882 -1.9267
 8246SOL     OW36370   3.648   3.798   6.603  0.3027  0.1922  0.3626
 8246SOL    HW136371   3.700   3.800   6.683 -1.5456  0.4453  1.5550
 8246SOL    HW236372   3.718   3.780   6.540  0.4521 -0.3091  0.6700
 8247SOL     OW36373   2.812   4.676   3.280 -0.0326  0.0407 -0.0876
 8247SOL    HW136374   2.796   4.661   3.373 -0.2052  0.4472 -0.0532
 8247SOL    HW236375   2.868   0.017   3.287  0.4072 -0.2708 -0.1564
 8248SOL     OW36376   3.317   2.296   4.362  0.0177 -0.0187 -0.1337
 8248SOL    HW136377   3.352   2.217   4.321 -0.9202 -0.5949  0.1657
 8248SOL    HW236378   3.343   2.295   4.454  1.2679 -0.9335 -0.5081
 8249SOL     OW36379   2.738   1.072   4.851  0.5359  0.4305  1.0019
 8249SOL    HW136380   2.724   1.162   4.821  1.0202 -0.8973 -3.1202
 8249SOL    HW236381   2.709   1.078   4.942 -1.3431 -1.3470  0.5199
 8250SOL     OW36382   1.212   2.940   2.166 -0.0397 -0.4390  0.1395
 8250SOL    HW136383   1.143   2.969   2.106  0.6899  2.1908  0.5754
 8250SOL    HW236384   1.236   3.022   2.209  0.0241  0.2163 -1.1393
 8251SOL     OW36385   2.455   1.361  11.840 -0.2775  0.3272  0.1102
 8251SOL    HW136386   2.535   1.394  11.881  0.3190 -2.0406  0.8851
 8251SOL    HW236387   2.484   1.351  11.749 -0.6353 -3.6033  0.4193
 8252SOL     OW36388   1.429   2.801   0.131 -0.0124  0.4840  0.1776
 8252SOL    HW136389   1.471   2.803   0.217 -0.6853  0.5191  0.5088
 8252SOL    HW236390   1.383   2.717   0.126  1.0719 -0.1889  1.4619
 8253SOL     OW36391   0.854   1.858  11.593  0.2325  0.1106 -0.5331
 8253SOL    HW136392   0.866   1.922  11.522 -2.6839  0.9946 -0.2363
 8253SOL    HW236393   0.815   1.786  11.544  0.9144 -0.1656 -0.6692
 8254SOL     OW36394   1.797   1.871   7.956 -0.2246 -0.0619 -0.5358
 8254SOL    HW136395   1.811   1.936   8.025 -0.8626 -0.2602 -0.2174
 8254SOL    HW236396   1.711   1.831   7.972 -1.5047  1.7017 -3.0305
 8255SOL     OW36397   1.190   0.318   3.611  0.2098  1.0106 -0.1033
 8255SOL    HW136398   1.196   0.351   3.522 -1.2465  0.2599 -0.4774
 8255SOL    HW236399   1.213   0.396   3.661 -1.3813  1.3573  0.0809
 8256SOL     OW36400   3.373   4.100   5.820 -0.3358 -0.3575 -0.0168
 8256SOL    HW136401   3.403   4.044   5.892  2.6159 -0.2045 -1.1420
 8256SOL    HW236402   3.414   4.050   5.750 -0.2262  0.7393 -0.7350
 8257SOL     OW36403   4.407   1.621   4.358  0.4063 -0.0014 -0.1373
 8257SOL    HW136404   4.430   1.691   4.419  0.9666  1.0791 -1.5779
 8257SOL    HW236405   4.371   1.671   4.285  0.5159 -2.4694 -1.8791
 8258SOL     OW36406   4.425   3.821  13.104 -0.8223  0.2440  0.3651
 8258SOL    HW136407   4.446   3.860  13.019 -1.2549 -2.0627 -0.7775
 8258SOL    HW236408   4.488   3.856  13.168 -1.8743  1.0883  0.9407
 8259SOL     OW36409   1.694   1.615   2.983  0.2379 -0.5666  0.2114
 8259SOL    HW136410   1.602   1.639   2.995  0.2164 -0.0261 -1.0548
 8259SOL    HW236411   1.706   1.682   2.916  0.7536  0.6636  1.5380
 8260SOL     OW36412   1.290   3.016   0.643  0.0317  0.0101  0.1508
 8260SOL    HW136413   1.215   3.020   0.702  0.7008 -0.3096  1.0245
 8260SOL    HW236414   1.331   3.098   0.672 -0.7570  0.5092 -0.1535
 8261SOL     OW36415   3.366   1.153   7.735  0.0711 -0.0501  0.0950
 8261SOL    HW136416   3.437   1.213   7.711  0.5333 -0.6274  0.0117
 8261SOL    HW236417   3.403   1.072   7.700 -0.6237 -0.5700  0.5838
 8262SOL     OW36418   3.229   2.695   3.903  0.2319  0.0134  0.1452
 8262SOL    HW136419   3.314   2.667   3.938 -0.0898 -0.2492  0.7278
 8262SOL    HW236420   3.201   2.613   3.861  0.9536  0.5331 -1.3189
 8263SOL     OW36421   2.937   1.808  14.225 -0.0691 -0.5302  0.1655
 8263SOL    HW136422   3.000   1.748  14.264  0.2414 -1.1868 -1.3167
 8263SOL    HW236423   2.993   1.881  14.201  0.7708 -0.6826  1.6888
 8264SOL     OW36424   1.406   0.672   5.525  0.4809  0.7225 -0.0602
 8264SOL    HW136425   1.464   0.599   5.503  0.4000  0.4862  0.4951
 8264SOL    HW236426   1.400   0.719   5.442  0.3263 -1.2415 -1.1725
 8265SOL     OW36427   2.891   1.658  14.605  0.0925 -0.2980  0.2243
 8265SOL    HW136428   2.976   1.699  14.620  0.0310  0.4295 -1.4213
 8265SOL    HW236429   2.901   1.594  14.676 -2.4198  1.5470  2.2129
 8266SOL     OW36430   0.902   3.415   3.843  0.2505 -0.2915  0.2350
 8266SOL    HW136431   0.902   3.445   3.934 -1.4074  2.3951 -0.6678
 8266SOL    HW236432   0.951   3.334   3.860 -0.3017 -0.3656  1.4920
 8267SOL     OW36433   3.769   3.352   3.782  0.8400 -0.4444  0.4962
 8267SOL    HW136434   3.848   3.335   3.731 -0.3341  0.3782 -1.6159
 8267SOL    HW236435   3.767   3.446   3.764  0.3776 -0.4350  0.5980
 8268SOL     OW36436   3.538   2.210   5.468 -0.0417  0.0336 -0.3171
 8268SOL    HW136437   3.447   2.182   5.470  0.3194 -1.1273 -0.2848
 8268SOL    HW236438   3.550   2.246   5.380  1.2330  1.3904  0.4051
 8269SOL     OW36439   3.942   0.224   4.857  0.0691 -0.0986  0.1807
 8269SOL    HW136440   3.951   0.308   4.813 -2.0320 -1.1213 -2.1934
 8269SOL    HW236441   3.973   0.169   4.786  0.5621 -0.2617  0.5239
 8270SOL     OW36442   1.568   3.669   9.037  0.6241  0.1965 -0.3955
 8270SOL    HW136443   1.552   3.682   9.131  1.4938 -0.6213 -0.1421
 8270SOL    HW236444   1.636   3.735   9.024 -1.2323  2.3062  0.4020
 8271SOL     OW36445   1.710   0.109  16.665 -0.3959 -0.4126  0.1292
 8271SOL    HW136446   1.671   0.096  16.752  0.5144 -0.5096  0.5182
 8271SOL    HW236447   1.802   0.103  16.692 -0.5742 -0.4365  0.7262
 8272SOL     OW36448   0.516   1.589   8.722  0.1790  0.3041  0.0106
 8272SOL    HW136449   0.423   1.582   8.702  0.1812  0.1990  0.0349
 8272SOL    HW236450   0.561   1.542   8.652  1.0751 -0.3756  1.0419
 8273SOL     OW36451   3.763   2.904   4.924 -0.0114 -0.4228  0.1667
 8273SOL    HW136452   3.792   2.925   5.013  1.5227 -1.5267 -0.0622
 8273SOL    HW236453   3.772   2.990   4.882  0.3189 -0.6002 -0.1229
 8274SOL     OW36454   3.530   0.531   7.925  0.1803 -0.5672 -0.5193
 8274SOL    HW136455   3.486   0.451   7.952 -1.3844 -0.4795 -2.8534
 8274SOL    HW236456   3.488   0.598   7.978  1.0174 -0.8469  0.4946
 8275SOL     OW36457   0.922   3.539   6.204  0.3455  0.2407 -0.1618
 8275SOL    HW136458   0.930   3.634   6.206  0.0289  0.3024 -1.6701
 8275SOL    HW236459   0.836   3.528   6.243 -0.0395  1.7783 -0.6006
 8276SOL     OW36460   2.505   4.060  11.702  0.2290  0.7209  0.0373
 8276SOL    HW136461   2.504   3.973  11.740  1.4780  0.5947 -0.2230
 8276SOL    HW236462   2.424   4.095  11.739 -0.4834 -1.2961  0.3355
 8277SOL     OW36463   0.460   1.925   2.193  0.7151 -0.0685  0.1463
 8277SOL    HW136464   0.539   1.871   2.189  0.1037 -0.9195 -0.3297
 8277SOL    HW236465   0.452   1.935   2.099 -1.3865  1.0664  0.4417
 8278SOL     OW36466   3.404   2.396   7.718  0.5463 -0.5050  0.0982
 8278SOL    HW136467   3.478   2.428   7.665  1.3974 -2.5502  0.0381
 8278SOL    HW236468   3.344   2.381   7.645  0.1952 -0.5787  0.4051
 8279SOL     OW36469   2.553   3.875   1.478  0.0944  0.4616 -0.2275
 8279SOL    HW136470   2.560   3.950   1.418 -0.5231  0.7396  0.0574
 8279SOL    HW236471   2.569   3.805   1.415 -1.7710 -0.8211  0.7447
 8280SOL     OW36472   3.337   3.096   9.504 -0.0827 -0.4566  0.0008
 8280SOL    HW136473   3.306   3.015   9.544  0.2619 -0.1962  0.8057
 8280SOL    HW236474   3.397   3.063   9.437  2.1829 -0.6261  2.1113
 8281SOL     OW36475   3.543   1.958   2.653 -0.2475  0.9757  0.1281
 8281SOL    HW136476   3.475   1.898   2.685  0.6615  0.3252  0.8434
 8281SOL    HW236477   3.519   2.034   2.706  2.4459  2.6466 -1.0498
 8282SOL     OW36478   4.645   1.827   3.190 -0.7393 -0.3637 -0.5940
 8282SOL    HW136479   4.550   1.824   3.197 -0.6187  1.0600  1.6009
 8282SOL    HW236480   4.678   1.800   3.275  0.1152 -0.1805 -0.8651
 8283SOL     OW36481   3.800   1.198   4.063 -0.2782 -0.0837 -0.0359
 8283SOL    HW136482   3.845   1.250   3.997 -0.5385 -1.1471 -1.0517
 8283SOL    HW236483   3.777   1.272   4.119 -2.0809 -0.6397 -0.0271
 8284SOL     OW36484   0.046   3.262   7.566  0.0543 -0.7377  0.4649
 8284SOL    HW136485   0.089   3.238   7.484  0.4982 -1.8058  1.0070
 8284SOL    HW236486   0.129   3.277   7.612 -1.7945  0.3410  3.4270
 8285SOL     OW36487   0.556   0.081   5.828 -0.3339  0.8898  0.1616
 8285SOL    HW136488   0.634   0.071   5.884 -1.1650 -1.0077  1.0014
 8285SOL    HW236489   0.496   0.133   5.881 -1.3442  0.7368 -0.8490
 8286SOL     OW36490   4.156   3.479   4.222  0.0188 -0.2390  0.0409
 8286SOL    HW136491   4.160   3.538   4.297 -0.1523 -0.0151 -0.1298
 8286SOL    HW236492   4.061   3.484   4.213 -0.0011  0.9451  0.8554
 8287SOL     OW36493   0.575   1.628   7.404 -0.2112 -0.0695  0.2911
 8287SOL    HW136494   0.666   1.624   7.376 -0.4715 -0.1543 -0.5643
 8287SOL    HW236495   0.588   1.666   7.491  1.7922  0.1439 -0.1152
 8288SOL     OW36496   2.668   0.308   3.119  0.0237 -0.7848  0.2252
 8288SOL    HW136497   2.746   0.302   3.065  0.6380 -0.4283  1.0899
 8288SOL    HW236498   2.685   0.379   3.180 -1.8426 -0.9561  0.9485
 8289SOL     OW36499   1.796   4.544  16.912  0.5843 -0.0903 -0.0301
 8289SOL    HW136500   1.734   4.610  16.882 -0.0030 -0.5169  0.2532
 8289SOL    HW236501   1.792   4.487  16.835 -1.4667  0.4722 -0.3330
 8290SOL     OW36502   1.314   4.636  14.434 -0.2691 -0.1985 -0.1890
 8290SOL    HW136503   1.303   4.728  14.458 -0.9111 -0.8383  2.0060
 8290SOL    HW236504   1.285   4.579  14.506 -0.5408 -1.0439 -0.9618
 8291SOL     OW36505   1.812   4.400  16.677  0.0260  0.4163  0.3297
 8291SOL    HW136506   1.837   4.308  16.688  0.1899  0.6230  1.7324
 8291SOL    HW236507   1.814   4.401  16.582 -1.8313 -2.4242  0.2633
 8292SOL     OW36508   4.472   1.519   2.947  0.0962 -0.0183 -0.2944
 8292SOL    HW136509   4.448   1.500   3.037  2.3945  0.2371  0.3817
 8292SOL    HW236510   4.548   1.576   2.962  0.9361 -1.3747  0.5955
 8293SOL     OW36511   2.992   4.634   4.755  0.5314 -0.4127  0.2821
 8293SOL    HW136512   2.933   4.639   4.830  0.0942 -1.0922 -0.0133
 8293SOL    HW236513   3.025   4.723   4.765  1.3984 -0.7172  0.1717
 8294SOL     OW36514   3.714   2.507  12.919  0.3752  0.3246  0.6178
 8294SOL    HW136515   3.686   2.416  12.933 -0.1101  0.3644 -0.0737
 8294SOL    HW236516   3.697   2.522  12.826 -1.4285 -0.0639  0.8743
 8295SOL     OW36517   3.251   2.412  15.270 -0.3471 -0.1800 -0.0803
 8295SOL    HW136518   3.340   2.437  15.294 -0.7310 -1.1566  2.2754
 8295SOL    HW236519   3.252   2.325  15.309 -3.6759  0.1682  0.7953
 8296SOL     OW36520   1.343   0.546   9.624 -0.2671  0.2182 -0.3907
 8296SOL    HW136521   1.401   0.516   9.694 -0.4425  1.5382  0.3264
 8296SOL    HW236522   1.259   0.516   9.660 -0.2415 -0.3487 -0.8145
 8297SOL     OW36523   1.306   2.242   6.777  0.3556 -0.1133 -0.2204
 8297SOL    HW136524   1.267   2.320   6.815 -0.9107  0.0287 -1.8408
 8297SOL    HW236525   1.395   2.251   6.810  0.0285  0.7342  0.4217
 8298SOL     OW36526   1.660   1.527   5.382  0.1957 -0.5023 -0.2861
 8298SOL    HW136527   1.695   1.494   5.465 -0.2130  0.4186  0.2514
 8298SOL    HW236528   1.697   1.615   5.376 -0.9626 -0.0975 -1.3331
 8299SOL     OW36529   1.222   0.743   2.602 -0.1358 -1.0503  0.1277
 8299SOL    HW136530   1.227   0.669   2.663  1.5007 -0.5852  0.5484
 8299SOL    HW236531   1.147   0.715   2.548 -1.6201  2.7798  0.2397
 8300SOL     OW36532   2.526   3.486   0.024  0.3573  0.3319 -0.1491
 8300SOL    HW136533   2.614   3.519   0.005  0.6562 -1.0154 -1.1540
 8300SOL    HW236534   2.493   3.573   0.044  1.5316  0.8695 -0.5459
 8301SOL     OW36535   2.902   1.118   7.088  0.3580  0.5253  0.0610
 8301SOL    HW136536   2.957   1.164   7.025  0.2000 -0.9527 -1.1795
 8301SOL    HW236537   2.811   1.125   7.057  1.2874  4.2244 -1.8099
 8302SOL     OW36538   2.707   3.755   5.869  0.9223 -0.2715  0.2390
 8302SOL    HW136539   2.663   3.684   5.822  0.7022 -0.9635  1.4711
 8302SOL    HW236540   2.664   3.831   5.828 -1.9246 -1.6333  0.6843
 8303SOL     OW36541   0.890   2.521   5.715 -0.4385 -0.4104 -0.4797
 8303SOL    HW136542   0.806   2.539   5.757  1.2428  1.0839  2.2277
 8303SOL    HW236543   0.870   2.449   5.654  0.0344  0.2083 -1.3699
 8304SOL     OW36544   3.389   1.956   1.346 -0.0566  0.4671  0.6555
 8304SOL    HW136545   3.382   1.964   1.442 -0.2354 -1.4825  0.7985
 8304SOL    HW236546   3.479   1.983   1.328  0.1786  0.1064  1.2910
 8305SOL     OW36547   3.490   2.417  16.550 -0.0921  0.3286 -0.3768
 8305SOL    HW136548   3.463   2.374  16.469 -2.4729 -1.5152  1.3745
 8305SOL    HW236549   3.485   2.346  16.614  0.8310  0.6453  0.0392
 8306SOL     OW36550   2.898   4.158  15.499 -0.1903 -0.4552 -0.1701
 8306SOL    HW136551   2.877   4.224  15.565  0.9846 -0.3220  0.0673
 8306SOL    HW236552   2.909   4.078  15.550  1.6168  0.5993  1.0839
 8307SOL     OW36553   2.500   0.624  14.763 -0.3904  0.2351 -0.4010
 8307SOL    HW136554   2.523   0.675  14.685 -0.6529  0.7200 -0.1593
 8307SOL    HW236555   2.411   0.656  14.774 -0.1140  0.3499  1.5061
 8308SOL     OW36556   4.668   2.052   4.828 -0.0301  0.2055 -0.4386
 8308SOL    HW136557   4.675   2.115   4.900 -0.1120 -2.2156  1.7037
 8308SOL    HW236558   4.668   2.109   4.751  0.0073  0.3345 -0.3433
 8309SOL     OW36559   3.985   3.426   0.911 -0.2300 -0.0286 -0.1298
 8309SOL    HW136560   3.944   3.453   0.829  0.4936  1.2366 -0.0717
 8309SOL    HW236561   4.037   3.504   0.931  0.3712 -0.4389 -0.0844
 8310SOL     OW36562   3.719   1.327   4.941 -0.3102  0.0605 -0.0178
 8310SOL    HW136563   3.718   1.241   4.899 -3.3571  0.0613  0.0578
 8310SOL    HW236564   3.762   1.314   5.026 -0.2261 -2.6849 -0.4836
 8311SOL     OW36565   1.481   1.189  12.893  0.5000 -0.5806  0.2832
 8311SOL    HW136566   1.430   1.112  12.866 -1.1940  0.3394  0.8977
 8311SOL    HW236567   1.450   1.251  12.827  1.7183 -0.9260 -0.6299
 8312SOL     OW36568   0.108   0.092   2.121  0.0378 -0.0760 -0.2849
 8312SOL    HW136569   0.026   0.095   2.070 -0.2129  0.3577  0.1453
 8312SOL    HW236570   0.096   0.170   2.176 -0.2995  0.0251 -0.5007
 8313SOL     OW36571   0.796   3.529   0.882 -0.8817 -0.5118  0.0865
 8313SOL    HW136572   0.851   3.577   0.820 -1.7041  2.0839  1.4038
 8313SOL    HW236573   0.720   3.585   0.895 -0.8713 -0.2040 -1.1842
 8314SOL     OW36574   3.480   4.722   6.115  0.1658 -0.1405 -0.1025
 8314SOL    HW136575   3.534   4.646   6.093 -0.8817 -1.1298  0.7965
 8314SOL    HW236576   3.397   4.678   6.096 -0.0859 -0.1039  0.9221
 8315SOL     OW36577   3.022   3.165  15.947  0.4352 -0.1810 -1.1357
 8315SOL    HW136578   2.945   3.142  15.999  0.5141 -0.7143 -1.2635
 8315SOL    HW236579   2.987   3.144  15.861 -0.0149  1.7607 -1.4335
 8316SOL     OW36580   2.468   2.465   2.571 -0.0523 -0.2357 -0.3155
 8316SOL    HW136581   2.378   2.441   2.592 -0.6763  1.8711 -0.5403
 8316SOL    HW236582   2.495   2.517   2.647  3.2728 -1.6710 -0.5111
 8317SOL     OW36583   0.467   4.112   7.352 -0.3056 -0.5756  0.1498
 8317SOL    HW136584   0.433   4.027   7.327 -0.8513 -0.2558 -0.1986
 8317SOL    HW236585   0.552   4.115   7.309  0.1352 -0.2562  1.0456
 8318SOL     OW36586   1.425   0.399   6.364 -0.1797  0.1645 -0.0647
 8318SOL    HW136587   1.365   0.328   6.339 -0.2041 -0.1965  1.0147
 8318SOL    HW236588   1.514   0.365   6.372  0.2392  1.6662  1.6373
 8319SOL     OW36589   2.516   1.259   5.324 -0.0406  0.3447  0.6782
 8319SOL    HW136590   2.506   1.340   5.375 -0.8539  1.1628 -0.7911
 8319SOL    HW236591   2.581   1.212   5.376 -1.2925 -0.0747  1.8667
 8320SOL     OW36592   0.325   2.311  13.735 -0.1145 -0.3250 -0.4331
 8320SOL    HW136593   0.417   2.293  13.716 -0.1578 -0.2912 -0.6842
 8320SOL    HW236594   0.328   2.317  13.830 -0.5212 -0.1645 -0.4316
 8321SOL     OW36595   0.287   4.225   2.745  0.4876  0.5087 -0.4864
 8321SOL    HW136596   0.218   4.280   2.783  0.5281  0.7560 -0.7748
 8321SOL    HW236597   0.234   4.155   2.708  0.6545 -0.8879  1.8675
 8322SOL     OW36598   0.360   1.287   6.620  0.1968 -0.1752  0.1198
 8322SOL    HW136599   0.312   1.205   6.614  0.1187 -0.2450  1.6581
 8322SOL    HW236600   0.379   1.293   6.714  0.9498  0.3746 -0.0621
 8323SOL     OW36601   2.598   3.772   8.145  0.1519  0.7347 -0.0081
 8323SOL    HW136602   2.565   3.737   8.062  1.1165  1.6533 -0.7753
 8323SOL    HW236603   2.687   3.799   8.121  1.0957 -1.0904  1.4956
 8324SOL     OW36604   2.168   0.724   3.425 -0.0819 -0.4505  0.1123
 8324SOL    HW136605   2.080   0.715   3.462  0.5238  0.5364  1.7713
 8324SOL    HW236606   2.157   0.702   3.332  0.9749  2.2029 -0.6463
 8325SOL     OW36607   2.777   4.061   3.713  0.3975 -0.6881  1.2872
 8325SOL    HW136608   2.761   3.971   3.684  1.5430 -0.0494 -1.3672
 8325SOL    HW236609   2.731   4.112   3.646  2.7916 -1.0691 -0.6727
 8326SOL     OW36610   3.629   4.318   6.635 -0.1825  0.3288 -0.5313
 8326SOL    HW136611   3.655   4.258   6.565  1.1815  0.0448  0.2199
 8326SOL    HW236612   3.537   4.320   6.610  0.3696 -0.2919 -2.6178
 8327SOL     OW36613   1.200   4.016   2.054  0.2264 -0.0411 -0.0399
 8327SOL    HW136614   1.254   4.020   1.975  1.1084  0.0368  0.5644
 8327SOL    HW236615   1.118   4.054   2.024 -0.8894  0.4818  3.6860
 8328SOL     OW36616   2.194   1.252  13.325  0.4047 -0.1593 -0.4404
 8328SOL    HW136617   2.148   1.292  13.398 -1.2781 -2.0256 -0.4718
 8328SOL    HW236618   2.272   1.307  13.318  0.5215 -0.2075  0.5090
 8329SOL     OW36619   2.531   2.847   7.516 -0.0192 -0.4583  0.2205
 8329SOL    HW136620   2.479   2.767   7.521 -1.3634  0.4568  1.0058
 8329SOL    HW236621   2.613   2.824   7.560  0.5803  0.5964 -0.3324
 8330SOL     OW36622   1.272   3.952   6.107  0.1787 -0.2775  0.6670
 8330SOL    HW136623   1.271   3.906   6.191  1.6694 -0.5238  0.5526
 8330SOL    HW236624   1.178   3.946   6.089 -0.0478  1.2504  1.3323
 8331SOL     OW36625   3.760   4.133   5.654 -0.0981  0.1836 -0.3155
 8331SOL    HW136626   3.798   4.081   5.725  0.3472  0.6284 -0.2247
 8331SOL    HW236627   3.823   4.129   5.582 -1.2135 -1.8763 -1.1638
 8332SOL     OW36628   2.406   3.661   6.374  0.4815  0.7748  0.0270
 8332SOL    HW136629   2.383   3.742   6.330  1.9045  0.3274 -1.5664
 8332SOL    HW236630   2.432   3.609   6.297  0.0959 -2.4948  2.0767
 8333SOL     OW36631   2.114   4.017   8.824  0.0812 -0.1195  0.4872
 8333SOL    HW136632   2.178   4.088   8.835  0.6770 -0.7855  1.2529
 8333SOL    HW236633   2.142   3.979   8.740 -1.1833 -0.3719  0.1742
 8334SOL     OW36634   2.482   1.492   5.092 -0.0269  0.3804 -0.0591
 8334SOL    HW136635   2.496   1.412   5.144 -0.0387 -0.1053 -0.8002
 8334SOL    HW236636   2.393   1.483   5.058 -0.4810 -0.5734  1.3582
 8335SOL     OW36637   2.385   4.665  12.434  0.2651  0.1474  0.3263
 8335SOL    HW136638   2.318   4.635  12.495 -0.6513  1.0312 -0.2494
 8335SOL    HW236639   2.443   4.714  12.492 -2.6943  1.5052  2.1214
 8336SOL     OW36640   0.187   0.377   5.549  0.0098  0.5942 -0.4270
 8336SOL    HW136641   0.276   0.357   5.579  0.2189  2.4632  0.1921
 8336SOL    HW236642   0.199   0.360   5.455  1.2509 -0.4307 -0.0908
 8337SOL     OW36643   2.491   2.082   4.007 -0.1342  0.1712  0.0214
 8337SOL    HW136644   2.470   2.100   4.099  1.2133 -2.4537  0.8358
 8337SOL    HW236645   2.583   2.056   4.018 -0.1952 -0.0029  0.1349
 8338SOL     OW36646   4.632   1.370  17.092  0.2013  0.4498  0.3749
 8338SOL    HW136647   4.618   1.422  17.013  2.2396  2.7092  1.5056
 8338SOL    HW236648   4.559   1.386  17.151 -1.2919 -4.9925 -0.0094
 8339SOL     OW36649   0.648   0.876   5.418  0.7264  0.4009  0.0682
 8339SOL    HW136650   0.716   0.812   5.439 -0.0497 -0.5009 -0.1738
 8339SOL    HW236651   0.692   0.961   5.430 -0.0514  0.6877  0.9607
 8340SOL     OW36652   4.223   3.149   5.731  0.0676 -0.0979 -0.0369
 8340SOL    HW136653   4.169   3.071   5.740  1.2281 -0.7459  1.4039
 8340SOL    HW236654   4.308   3.114   5.704 -0.4182 -1.5223  0.2980
 8341SOL     OW36655   1.770   1.518   3.239  0.0795 -0.3953  0.4603
 8341SOL    HW136656   1.863   1.540   3.244  0.5859 -2.6301  1.0131
 8341SOL    HW236657   1.739   1.585   3.178 -0.7604  0.5731  1.9410
 8342SOL     OW36658   2.404   1.596   7.535 -0.5890  0.2942 -0.4131
 8342SOL    HW136659   2.452   1.600   7.618  0.4141 -3.6166 -0.8042
 8342SOL    HW236660   2.453   1.524   7.495 -0.0005  0.5583 -0.1650
 8343SOL     OW36661   2.785   0.552   1.854 -0.3806 -0.3398 -0.0147
 8343SOL    HW136662   2.692   0.567   1.871 -0.6525 -1.4237 -0.5519
 8343SOL    HW236663   2.775   0.460   1.880  0.4648 -0.9000 -1.6663
 8344SOL     OW36664   4.190   3.566   8.965 -0.2185  0.4708 -0.1748
 8344SOL    HW136665   4.105   3.524   8.949 -0.3042  0.8600 -0.7514
 8344SOL    HW236666   4.190   3.585   9.059 -1.0427 -1.3095  0.1899
 8345SOL     OW36667   2.948   0.778  16.279  0.3306  0.2923  0.5266
 8345SOL    HW136668   2.864   0.774  16.325 -0.8158 -0.7424 -1.6679
 8345SOL    HW236669   3.003   0.720  16.330  0.4441  0.3783  0.5020
 8346SOL     OW36670   4.729   0.038   6.425  0.3101 -0.4226  0.1566
 8346SOL    HW136671   4.726   4.694   6.478  0.2478 -0.1330  0.5927
 8346SOL    HW236672   4.653   0.026   6.369  0.6467  1.0786 -0.6187
 8347SOL     OW36673   2.982   2.516   6.961  0.0821  0.0491 -0.1043
 8347SOL    HW136674   3.006   2.512   6.868 -0.2437  0.3709 -0.2038
 8347SOL    HW236675   2.932   2.598   6.963  0.7585  0.3701  2.5129
 8348SOL     OW36676   0.457   3.983   0.397 -0.6932 -0.3430  0.1367
 8348SOL    HW136677   0.382   3.988   0.457 -0.3286 -1.1782  0.6571
 8348SOL    HW236678   0.424   4.020   0.315  0.6105  0.2749 -0.1028
 8349SOL     OW36679   2.692   1.250   1.010  0.1381  0.3166  0.4416
 8349SOL    HW136680   2.668   1.332   0.967  1.0292  0.3061 -0.0740
 8349SOL    HW236681   2.604   1.216   1.026  0.1534  0.7923  1.5457
 8350SOL     OW36682   2.370   4.379  17.375 -0.4367 -0.8480 -0.4721
 8350SOL    HW136683   2.310   4.305  17.365 -1.4486  0.0157 -0.7573
 8350SOL    HW236684   2.416   4.382  17.292  2.8932  2.2259  1.4885
 8351SOL     OW36685   0.939   0.888   4.840  0.8570 -0.0545 -0.0502
 8351SOL    HW136686   0.908   0.840   4.763  0.3906 -0.3265  0.3042
 8351SOL    HW236687   1.011   0.829   4.864  2.4351  1.2935 -1.4664
 8352SOL     OW36688   1.142   1.130   4.496 -0.3645  0.2984  0.0623
 8352SOL    HW136689   1.098   1.047   4.509  0.0950  0.3235  1.7807
 8352SOL    HW236690   1.158   1.139   4.402  2.2133 -1.1932  0.3577
 8353SOL     OW36691   1.386   2.389  10.138 -0.2348  0.4526  0.0266
 8353SOL    HW136692   1.482   2.392  10.135 -0.1958 -1.3422 -0.4346
 8353SOL    HW236693   1.371   2.424  10.051  1.6018  0.4365 -0.2960
 8354SOL     OW36694   0.894   0.313   2.929  0.4982  0.7382 -0.3906
 8354SOL    HW136695   0.904   0.305   2.834  1.3853 -0.6442 -0.1753
 8354SOL    HW236696   0.879   0.223   2.955  2.5359  0.8482  1.1853
 8355SOL     OW36697   3.447   0.095   5.392 -0.0330  0.5675  0.1600
 8355SOL    HW136698   3.515   0.150   5.432  0.8560 -0.9759  0.7824
 8355SOL    HW236699   3.491   0.012   5.409 -0.4609  1.1737  4.1331
 8356SOL     OW36700   0.840   3.179   2.974 -0.5114  0.1283 -0.1064
 8356SOL    HW136701   0.858   3.103   3.031 -1.7684 -0.5798 -0.6599
 8356SOL    HW236702   0.757   3.209   3.011 -0.7484  0.7738 -1.1788
 8357SOL     OW36703   4.516   0.420   2.617 -0.1731 -0.1682  0.2060
 8357SOL    HW136704   4.480   0.356   2.679 -2.4329  0.3489 -0.5615
 8357SOL    HW236705   4.469   0.392   2.538  0.4952 -0.4278 -0.1032
 8358SOL     OW36706   2.899   4.435   8.886  0.1009  0.8209 -0.4073
 8358SOL    HW136707   2.881   4.507   8.827  1.6685  1.0772 -0.5627
 8358SOL    HW236708   2.902   4.478   8.971 -0.9839 -2.2930  1.2465
 8359SOL     OW36709   2.183   3.661   2.676  0.3243 -0.2696 -0.6309
 8359SOL    HW136710   2.098   3.635   2.712  0.7021 -1.3470 -0.5245
 8359SOL    HW236711   2.206   3.584   2.623  1.9595 -1.1231  1.3225
 8360SOL     OW36712   4.451   3.497   6.138  0.1171  0.0946  0.1357
 8360SOL    HW136713   4.523   3.517   6.077 -1.0884  0.0547 -1.2931
 8360SOL    HW236714   4.396   3.575   6.144 -1.3177 -0.9323  0.2231
 8361SOL     OW36715   1.139   1.943  16.073  0.0927 -0.3595 -0.0286
 8361SOL    HW136716   1.113   2.027  16.036 -0.9925 -0.5348  0.3341
 8361SOL    HW236717   1.061   1.890  16.060  0.7662 -1.1264 -0.9088
 8362SOL     OW36718   0.920   4.039   1.970  0.2287  0.2748  0.1483
 8362SOL    HW136719   0.826   4.047   1.985  0.0421 -3.2276  0.9115
 8362SOL    HW236720   0.914   4.012   1.878 -0.1980  0.1157  0.2243
 8363SOL     OW36721   3.635   1.956   2.960 -0.3884  0.9395 -0.5025
 8363SOL    HW136722   3.543   1.933   2.967 -0.3576  0.3623 -2.0190
 8363SOL    HW236723   3.671   1.868   2.954 -1.4150  0.4559  0.6869
 8364SOL     OW36724   2.198   3.190   2.371  0.5223  0.1554  0.8167
 8364SOL    HW136725   2.112   3.231   2.358 -0.3790 -1.6194  1.1925
 8364SOL    HW236726   2.170   3.119   2.429  2.0974 -0.5869  0.6423
 8365SOL     OW36727   1.888   2.428   9.275  0.5120  0.7249  0.2585
 8365SOL    HW136728   1.856   2.484   9.345  0.2919  1.4948 -0.4522
 8365SOL    HW236729   1.979   2.424   9.305 -0.4386  1.5579  3.2755
 8366SOL     OW36730   4.717   2.430  10.758 -0.1506 -0.5732  0.3780
 8366SOL    HW136731   0.007   2.519  10.738 -0.7799 -0.2534  0.9747
 8366SOL    HW236732   4.717   2.400  10.667 -1.4018  1.3465 -0.2581
 8367SOL     OW36733   3.747   3.092   8.261  0.0326  0.1818 -0.2437
 8367SOL    HW136734   3.700   3.077   8.343  2.2556 -0.0242  0.9811
 8367SOL    HW236735   3.783   3.178   8.283 -1.9606  0.9649 -0.0490
 8368SOL     OW36736   4.725   3.451   2.098  0.0574  0.7194  0.5944
 8368SOL    HW136737   4.644   3.503   2.099 -0.4385  0.0259 -3.3817
 8368SOL    HW236738   0.027   3.461   2.185 -0.3056 -0.8346  0.9304
 8369SOL     OW36739   2.771   2.606  13.059  0.2202  0.5965  0.3435
 8369SOL    HW136740   2.835   2.669  13.027 -0.0709 -0.0593 -1.5293
 8369SOL    HW236741   2.717   2.603  12.980 -0.1270 -0.1143  0.6059
 8370SOL     OW36742   0.126   0.842   6.686  0.0366  0.3997 -0.0939
 8370SOL    HW136743   0.136   0.839   6.781 -1.2157  1.4286  0.0724
 8370SOL    HW236744   0.209   0.807   6.654 -0.9552 -1.7264 -0.2744
 8371SOL     OW36745   0.324   0.945   8.180  0.2591  0.1651  0.5132
 8371SOL    HW136746   0.330   0.881   8.109  0.5118 -1.6581  2.1835
 8371SOL    HW236747   0.326   1.028   8.131  0.0424  0.2571  0.6586
 8372SOL     OW36748   1.347   1.431   4.827  0.0447 -0.1309 -0.0673
 8372SOL    HW136749   1.434   1.428   4.786 -0.8053  0.8368 -1.9109
 8372SOL    HW236750   1.314   1.346   4.799 -0.0187 -0.3378  0.6161
 8373SOL     OW36751   1.355   1.145   5.902  0.0607 -0.4293 -0.2126
 8373SOL    HW136752   1.287   1.078   5.899 -1.7486  1.2829  2.5932
 8373SOL    HW236753   1.407   1.110   5.975 -0.3400 -1.9113 -0.6312
 8374SOL     OW36754   4.287   2.948   7.339  0.2940 -0.2095 -0.0133
 8374SOL    HW136755   4.285   2.962   7.244 -1.0039  2.9763  0.4567
 8374SOL    HW236756   4.354   2.880   7.336  1.5818  1.1014 -0.4733
 8375SOL     OW36757   4.539   2.495   5.045  0.5222 -0.3096 -0.1772
 8375SOL    HW136758   4.587   2.520   4.967  1.0603  0.0553  0.2735
 8375SOL    HW236759   4.455   2.540   5.031  0.3959 -0.3832  0.3358
 8376SOL     OW36760   1.180   1.757   3.637 -0.0429 -0.0112  0.1576
 8376SOL    HW136761   1.086   1.750   3.654  0.0119  0.5865  0.7055
 8376SOL    HW236762   1.188   1.678   3.585  0.5199 -0.0683  0.3388
 8377SOL     OW36763   0.398   0.146   6.861  0.2206  0.7209  0.6584
 8377SOL    HW136764   0.376   0.059   6.893 -0.7497  0.9006  0.4817
 8377SOL    HW236765   0.339   0.155   6.787  1.1473  0.8155 -0.0642
 8378SOL     OW36766   4.248   4.388  11.854  0.4740  0.4159  0.5007
 8378SOL    HW136767   4.214   4.315  11.906  0.8235 -0.6145 -0.7295
 8378SOL    HW236768   4.339   4.361  11.864  0.6494  1.0476  0.6006
 8379SOL     OW36769   4.195   2.724   9.624 -0.8540 -0.6545  0.5820
 8379SOL    HW136770   4.290   2.717   9.621 -0.8521  0.2551 -1.6507
 8379SOL    HW236771   4.175   2.685   9.709 -2.2287 -1.9169 -0.3113
 8380SOL     OW36772   2.558   2.884   7.214  0.3087 -0.4027  0.1414
 8380SOL    HW136773   2.472   2.889   7.170  0.7731 -2.0631 -0.9643
 8380SOL    HW236774   2.523   2.882   7.303 -1.7573  0.4770 -0.6505
 8381SOL     OW36775   0.630   4.407  12.502 -0.1605 -0.0037  0.4834
 8381SOL    HW136776   0.572   4.357  12.444  0.0934 -0.0993  0.3150
 8381SOL    HW236777   0.703   4.446  12.454  0.7063  0.0032  1.8054
 8382SOL     OW36778   4.198   0.992   3.244  0.3451  0.3362  0.2894
 8382SOL    HW136779   4.283   0.953   3.224  0.4996  1.3669 -1.0882
 8382SOL    HW236780   4.156   0.911   3.272  0.0732  1.2424  2.5034
 8383SOL     OW36781   4.210   1.128   6.796  0.0931 -0.3928  0.4743
 8383SOL    HW136782   4.141   1.168   6.849 -1.0163 -1.0984 -0.4303
 8383SOL    HW236783   4.191   1.035   6.785 -2.2325  0.2193 -0.5858
 8384SOL     OW36784   0.200   2.364   0.726 -0.3342  0.3487 -0.3816
 8384SOL    HW136785   0.292   2.390   0.719  0.0818 -0.9793  0.0959
 8384SOL    HW236786   0.215   2.271   0.712 -2.8058 -0.0862 -0.1457
 8385SOL     OW36787   0.506   3.089   2.664 -0.2743  0.7347  0.2547
 8385SOL    HW136788   0.446   3.047   2.726  0.7175  1.3047  1.5971
 8385SOL    HW236789   0.502   3.179   2.697  0.4186  2.3125 -3.9602
 8386SOL     OW36790   1.022   1.519   7.641 -0.2007  0.0410  0.2199
 8386SOL    HW136791   1.089   1.451   7.627  1.5436  2.1501 -1.6220
 8386SOL    HW236792   0.956   1.475   7.589 -0.1632 -0.4521  0.5825
 8387SOL     OW36793   1.814   4.248   8.079 -0.0057 -0.4079 -0.3326
 8387SOL    HW136794   1.897   4.287   8.051 -0.1553  0.5435  0.5430
 8387SOL    HW236795   1.795   4.288   8.164  0.5903  1.3407 -1.0083
 8388SOL     OW36796   1.713   4.113   4.880 -0.2122  0.3069  0.2066
 8388SOL    HW136797   1.687   4.199   4.845 -0.4486 -0.1757 -0.8051
 8388SOL    HW236798   1.789   4.095   4.825 -1.0835 -0.6906 -0.6571
 8389SOL     OW36799   1.061   1.764  10.867  0.5816  0.4048 -0.4917
 8389SOL    HW136800   1.073   1.793  10.777  1.0637  2.5680  0.2558
 8389SOL    HW236801   1.074   1.670  10.865  0.9736  0.3947  2.5707
 8390SOL     OW36802   2.704   1.279   7.742  0.5331  0.5461 -0.3167
 8390SOL    HW136803   2.669   1.355   7.695  1.4964  1.2365  0.0679
 8390SOL    HW236804   2.753   1.230   7.677  0.1196 -1.8271  1.1681
 8391SOL     OW36805   0.907   1.022  15.191  0.0137  0.3162 -0.3144
 8391SOL    HW136806   0.961   1.044  15.115 -0.1893 -2.6347 -1.3443
 8391SOL    HW236807   0.824   1.063  15.166 -0.1063 -0.0994 -0.6065
 8392SOL     OW36808   2.224   3.013   2.853 -0.5246 -0.4227 -0.1531
 8392SOL    HW136809   2.305   3.011   2.905 -2.0542  1.2709  2.2560
 8392SOL    HW236810   2.170   3.067   2.911 -0.2855 -1.6795  1.2404
 8393SOL     OW36811   0.262   1.134   4.981 -0.0961 -0.2021  0.3657
 8393SOL    HW136812   0.281   1.216   5.027  1.0662 -0.4855  0.4035
 8393SOL    HW236813   0.338   1.080   5.003  0.4198 -0.3334 -1.7488
 8394SOL     OW36814   3.293   4.436   4.493 -0.3219 -0.1495  0.3955
 8394SOL    HW136815   3.360   4.496   4.527  1.9244 -3.0116  0.9775
 8394SOL    HW236816   3.342   4.398   4.421  0.1727 -1.4020  1.3888
 8395SOL     OW36817   4.093   3.081   0.679  0.1457  0.0161 -0.0889
 8395SOL    HW136818   4.014   3.127   0.706 -1.4777 -2.6102 -0.3711
 8395SOL    HW236819   4.058   3.007   0.630  0.1746 -0.2604  0.3123
 8396SOL     OW36820   3.962   1.262   0.693 -0.2531 -0.5748  0.2071
 8396SOL    HW136821   3.967   1.184   0.748  0.3541  1.2197  2.7434
 8396SOL    HW236822   3.869   1.283   0.705 -0.4921 -1.4516 -0.2068
 8397SOL     OW36823   1.726   0.177   8.939 -0.3568  0.2462  0.0300
 8397SOL    HW136824   1.805   0.159   8.988 -0.6833 -1.7833 -0.1982
 8397SOL    HW236825   1.688   0.232   9.007  1.5558 -0.5095  1.7007
 8398SOL     OW36826   0.172   1.812   2.728 -0.4491 -0.3763  0.0151
 8398SOL    HW136827   0.173   1.861   2.646  0.6264  1.3589  1.0588
 8398SOL    HW236828   0.080   1.789   2.741 -1.1840  2.0400 -0.9138
 8399SOL     OW36829   2.563   4.151   5.564  0.8756 -0.1928 -0.1316
 8399SOL    HW136830   2.623   4.160   5.491  0.3818 -1.2084 -0.6673
 8399SOL    HW236831   2.597   4.210   5.631  0.9510 -0.1396 -0.2164
 8400SOL     OW36832   3.250   1.986   2.439 -0.2633  0.4123  0.1110
 8400SOL    HW136833   3.181   1.932   2.476  0.0333  0.3101  0.5089
 8400SOL    HW236834   3.301   1.921   2.391 -0.4838  0.4772 -0.2129
 8401SOL     OW36835   3.659   3.359  15.500  0.1219  0.5472 -0.0193
 8401SOL    HW136836   3.651   3.398  15.587  0.4318  3.1108 -1.1385
 8401SOL    HW236837   3.583   3.389  15.450 -0.5161 -1.0983 -0.0323
 8402SOL     OW36838   1.578   1.814   4.651 -0.2319  0.1548  0.6772
 8402SOL    HW136839   1.624   1.734   4.625 -0.3512 -0.0813  1.1923
 8402SOL    HW236840   1.646   1.868   4.691 -0.9592  2.5271 -1.3193
 8403SOL     OW36841   1.690   2.289   1.491  0.8980 -0.6197 -0.0258
 8403SOL    HW136842   1.759   2.314   1.553  0.8052 -1.5174  0.4345
 8403SOL    HW236843   1.739   2.299   1.410  0.4767  0.3081 -0.1711
 8404SOL     OW36844   2.236   1.282  14.762 -0.2611 -0.4460  0.0228
 8404SOL    HW136845   2.204   1.192  14.770  1.1874 -1.2607 -2.9692
 8404SOL    HW236846   2.153   1.327  14.748  0.1913  0.4718  0.3159
 8405SOL     OW36847   3.620   2.969   2.332  0.1999 -0.5992 -0.2497
 8405SOL    HW136848   3.603   3.062   2.341 -0.3147 -0.3909 -3.2470
 8405SOL    HW236849   3.561   2.930   2.397 -2.0669  0.2167 -1.8142
 8406SOL     OW36850   1.563   0.304   3.567  0.2629  0.0171 -0.1736
 8406SOL    HW136851   1.608   0.371   3.618  1.2234 -0.5887 -0.2049
 8406SOL    HW236852   1.511   0.354   3.504  1.5917 -2.0092 -2.9104
 8407SOL     OW36853   1.956   0.529  16.256  0.1660  0.2029  0.6857
 8407SOL    HW136854   1.974   0.614  16.217  0.7476  0.2349  1.0148
 8407SOL    HW236855   2.009   0.466  16.206 -0.1111  0.0056  0.6422
 8408SOL     OW36856   0.939   1.778   9.967 -0.5027 -0.7209 -0.2300
 8408SOL    HW136857   1.032   1.763   9.986 -0.6342 -1.5969 -0.2973
 8408SOL    HW236858   0.914   1.690   9.938 -0.9000 -1.0692  1.1410
 8409SOL     OW36859   1.617   3.914   9.828  0.0407  0.3395  0.1318
 8409SOL    HW136860   1.546   3.916   9.893 -0.1917 -0.9941 -0.0645
 8409SOL    HW236861   1.619   4.004   9.796 -0.3071  0.8162  1.4298
 8410SOL     OW36862   3.854   0.700   2.583 -0.3397  0.5687 -0.2309
 8410SOL    HW136863   3.776   0.719   2.635 -1.0520 -0.1803 -1.0377
 8410SOL    HW236864   3.897   0.785   2.573  0.5296  0.1590  0.0367
 8411SOL     OW36865   2.443   4.013  12.646 -0.2835  0.1339  0.0984
 8411SOL    HW136866   2.428   4.044  12.557 -1.2106 -1.1381 -0.1890
 8411SOL    HW236867   2.536   3.992  12.648 -0.5281 -1.0761 -1.1359
 8412SOL     OW36868   2.850   1.344   0.676  1.1101  0.1273 -0.5051
 8412SOL    HW136869   2.917   1.368   0.740 -1.5986  1.1385  1.9828
 8412SOL    HW236870   2.809   1.275   0.728  1.5404  0.3100  0.0837
 8413SOL     OW36871   4.084   1.250   5.684 -0.8820 -0.1205  0.0292
 8413SOL    HW136872   4.069   1.306   5.760  0.5749 -0.2402  0.4091
 8413SOL    HW236873   4.179   1.251   5.670 -0.8138 -0.1609  0.4839
 8414SOL     OW36874   3.288   2.551   7.936  0.0121 -0.1998  0.7016
 8414SOL    HW136875   3.216   2.494   7.909  1.7242 -1.7230 -0.6057
 8414SOL    HW236876   3.346   2.555   7.860  0.6575  2.1956  1.3265
 8415SOL     OW36877   3.417   0.727   3.052 -0.0697 -0.0129  0.0298
 8415SOL    HW136878   3.355   0.685   3.111  1.3069 -0.6766  0.9982
 8415SOL    HW236879   3.348   0.760   2.994  0.3429 -1.2301 -1.1360
 8416SOL     OW36880   2.090   2.877   3.495  0.4918  0.0242  0.0623
 8416SOL    HW136881   2.007   2.856   3.537 -0.4415 -3.1862 -3.4013
 8416SOL    HW236882   2.070   2.970   3.479 -1.9487 -0.6178 -0.5088
 8417SOL     OW36883   4.447   3.357   4.463 -0.1024 -0.5345  0.5224
 8417SOL    HW136884   4.385   3.285   4.472 -0.8644 -0.2742 -2.7838
 8417SOL    HW236885   4.385   3.425   4.438  1.5351 -0.2271 -2.7820
 8418SOL     OW36886   2.202   4.484   0.568 -0.3776 -1.0244 -0.0392
 8418SOL    HW136887   2.214   4.423   0.496  0.9867 -0.4423 -0.2891
 8418SOL    HW236888   2.279   4.539   0.554 -0.9411 -0.1024  0.4783
 8419SOL     OW36889   0.938   1.720   1.211  0.1002  0.0450 -0.4594
 8419SOL    HW136890   0.996   1.796   1.199  0.1106  0.3067  1.3055
 8419SOL    HW236891   0.865   1.744   1.269  1.1579 -2.9454  2.0964
 8420SOL     OW36892   2.479   3.925   6.081  0.3623  0.5392  0.5022
 8420SOL    HW136893   2.566   3.886   6.093 -0.0666 -0.6894 -0.4240
 8420SOL    HW236894   2.455   3.870   6.007  2.3881  0.3668 -0.0411
 8421SOL     OW36895   1.216   1.474  14.081  0.1508 -0.4957  0.1502
 8421SOL    HW136896   1.251   1.430  14.004 -1.4962  0.6741 -1.2541
 8421SOL    HW236897   1.139   1.519  14.048  0.3075  0.1328  0.6330
 8422SOL     OW36898   4.711   3.328   6.091 -0.1809 -0.2235 -0.0608
 8422SOL    HW136899   0.014   3.381   6.160 -0.3652  0.3761 -0.4201
 8422SOL    HW236900   0.050   3.307   6.037  1.5566  0.6009  2.0556
 8423SOL     OW36901   0.225   3.191   3.512  0.4395 -0.4479 -0.2741
 8423SOL    HW136902   0.174   3.262   3.551  0.2980 -1.1720  0.8691
 8423SOL    HW236903   0.308   3.234   3.535  0.2727  0.1559 -0.8051
 8424SOL     OW36904   3.428   3.502   6.344 -0.3351  0.2522  0.0117
 8424SOL    HW136905   3.372   3.453   6.283  1.4869 -1.7824 -0.0482
 8424SOL    HW236906   3.510   3.452   6.340 -1.6989 -2.0161  0.2980
 8425SOL     OW36907   4.102   0.303  15.679 -0.3162 -0.4736  0.0055
 8425SOL    HW136908   4.048   0.364  15.630  1.3730 -0.1146 -1.3831
 8425SOL    HW236909   4.167   0.278  15.613 -1.4801  0.0004 -1.3065
 8426SOL     OW36910   2.003   0.735   1.835 -0.0130  0.0077 -0.8604
 8426SOL    HW136911   1.982   0.779   1.917 -2.2327  0.3024 -1.6061
 8426SOL    HW236912   2.086   0.778   1.813 -0.7572  1.7910 -0.1554
 8427SOL     OW36913   1.683   0.137   2.188 -0.2772  0.2444  0.6269
 8427SOL    HW136914   1.687   0.104   2.099  1.7111 -0.6110  1.0277
 8427SOL    HW236915   1.721   0.224   2.183  1.5029 -0.5245  0.8190
 8428SOL     OW36916   2.487   2.090   4.872  0.2088 -0.3494  0.3859
 8428SOL    HW136917   2.392   2.081   4.861  0.4292 -2.1083 -0.0702
 8428SOL    HW236918   2.497   2.101   4.967 -4.0727  1.8749  0.6242
 8429SOL     OW36919   2.273   2.782  16.533 -0.0585 -0.1251 -0.0669
 8429SOL    HW136920   2.251   2.690  16.522 -2.2057  0.1209  2.2480
 8429SOL    HW236921   2.198   2.803  16.588 -0.1958 -0.6831 -0.0421
 8430SOL     OW36922   3.363   2.751   4.355  0.1163  0.5665  0.1924
 8430SOL    HW136923   3.297   2.800   4.305 -0.6338  0.9740  1.5925
 8430SOL    HW236924   3.380   2.668   4.312 -0.4542  1.6646 -2.1541
 8431SOL     OW36925   1.821   1.110   8.866  0.2737  0.5583 -0.0264
 8431SOL    HW136926   1.871   1.031   8.847 -0.0877  0.5928 -1.1491
 8431SOL    HW236927   1.850   1.170   8.796  1.4543  0.4965  0.4043
 8432SOL     OW36928   0.774   0.428   4.772 -0.0842  0.1749 -0.1832
 8432SOL    HW136929   0.758   0.403   4.863  1.0050 -2.3196 -0.6496
 8432SOL    HW236930   0.855   0.377   4.762 -1.1784 -1.6307  0.2306
 8433SOL     OW36931   1.636   4.251   3.290  0.0408 -0.4068  0.6873
 8433SOL    HW136932   1.595   4.315   3.349  1.6284  0.8965  0.3714
 8433SOL    HW236933   1.699   4.313   3.254 -0.8174 -1.0061 -1.8257
 8434SOL     OW36934   0.173   0.856  16.121 -0.0782 -0.1801 -0.0526
 8434SOL    HW136935   0.262   0.822  16.121 -1.1322 -2.8833  1.6445
 8434SOL    HW236936   0.193   0.949  16.106  2.0004 -0.3450  1.7320
 8435SOL     OW36937   2.919   0.211   4.305 -0.4205  0.4780  0.1125
 8435SOL    HW136938   2.955   0.125   4.326 -0.4608  0.3072 -0.5295
 8435SOL    HW236939   2.893   0.242   4.392 -0.0284 -0.1107  0.4494
 8436SOL     OW36940   1.738   2.026   8.820  0.1120 -0.1213  0.0492
 8436SOL    HW136941   1.787   1.948   8.794 -0.7137  0.1030 -2.1936
 8436SOL    HW236942   1.682   1.998   8.892  0.3976 -3.8241 -1.1293
 8437SOL     OW36943   0.381   2.757   2.645 -0.1308 -0.3148  0.1767
 8437SOL    HW136944   0.286   2.752   2.637 -0.2499  0.8750  0.8969
 8437SOL    HW236945   0.411   2.840   2.682  0.8105 -0.4215 -0.3457
 8438SOL     OW36946   3.812   3.567   2.895  0.4000  0.6934  0.0290
 8438SOL    HW136947   3.863   3.497   2.854 -2.9395 -1.7075 -0.0143
 8438SOL    HW236948   3.798   3.624   2.819  0.5623 -0.0998 -0.5922
 8439SOL     OW36949   2.775   4.689  13.899  0.4102 -0.0484  0.0177
 8439SOL    HW136950   2.707   4.707  13.833 -1.2593  0.6806  1.9511
 8439SOL    HW236951   2.839   4.632  13.857  0.0409 -1.2045  1.0619
 8440SOL     OW36952   1.755   1.282   3.408  0.2680  0.0080 -0.0006
 8440SOL    HW136953   1.751   1.370   3.370 -2.0117  0.1214  0.4926
 8440SOL    HW236954   1.848   1.259   3.398 -0.0898 -0.8461 -1.2051
 8441SOL     OW36955   0.319   1.601  10.100 -0.0003 -0.2400  0.1266
 8441SOL    HW136956   0.353   1.524  10.054  1.8792  0.8433 -0.2530
 8441SOL    HW236957   0.349   1.596  10.190 -0.8714 -0.7711  0.3923
 8442SOL     OW36958   0.363   1.494   1.956 -0.2423  0.8419  0.8009
 8442SOL    HW136959   0.362   1.567   1.893  2.4127 -1.1855 -1.5614
 8442SOL    HW236960   0.455   1.472   1.972 -0.8696 -0.3128  2.7567
 8443SOL     OW36961   0.713   0.773   2.402 -0.5344 -0.6249  0.2404
 8443SOL    HW136962   0.652   0.777   2.476  0.1350  1.8704  0.6693
 8443SOL    HW236963   0.769   0.700   2.426 -0.0313 -1.6462 -4.0346
 8444SOL     OW36964   3.832   0.039   6.354  0.6264 -0.2156 -0.0644
 8444SOL    HW136965   3.889   0.084   6.292  0.4771  0.3713  0.2225
 8444SOL    HW236966   3.754   0.095   6.350  0.6783  0.0279  2.2317
 8445SOL     OW36967   1.744   2.971   7.951  0.8544 -0.2904  0.6155
 8445SOL    HW136968   1.675   2.905   7.945 -2.0416  2.9014 -1.2909
 8445SOL    HW236969   1.814   2.907   7.962  0.3379 -1.3265 -2.0079
 8446SOL     OW36970   1.403   1.350  11.889 -0.1616 -0.3661  0.2217
 8446SOL    HW136971   1.433   1.391  11.970  1.0780  2.1149 -1.4797
 8446SOL    HW236972   1.369   1.268  11.925 -1.4977 -0.3222 -0.9361
 8447SOL     OW36973   0.728   0.782   8.694  0.3559  0.1010 -0.8733
 8447SOL    HW136974   0.807   0.771   8.641  1.6158  1.1997  0.7802
 8447SOL    HW236975   0.773   0.788   8.778  1.3833 -0.5064 -1.3848
 8448SOL     OW36976   4.363   0.020   3.600 -0.4916  0.8786  0.1411
 8448SOL    HW136977   4.419   0.026   3.678  0.1611 -1.3405 -0.1417
 8448SOL    HW236978   4.359   0.111   3.571 -0.3224  0.8839  0.1351
 8449SOL     OW36979   4.281   2.579   8.719 -0.2065 -0.0138 -0.0705
 8449SOL    HW136980   4.346   2.556   8.653  0.0853 -1.1838  0.6430
 8449SOL    HW236981   4.334   2.634   8.776 -2.0231  2.5061 -0.7957
 8450SOL     OW36982   2.578   2.619   7.111  0.0682 -0.4949  0.2699
 8450SOL    HW136983   2.565   2.706   7.151 -0.2917 -0.9007  1.0413
 8450SOL    HW236984   2.648   2.574   7.159 -0.7632  0.0856  2.0560
 8451SOL     OW36985   3.066   1.806   3.702  0.0730 -0.7693  0.3491
 8451SOL    HW136986   2.988   1.782   3.752 -0.2652 -0.3037  0.0480
 8451SOL    HW236987   3.054   1.756   3.621 -0.2586  1.0863 -0.7496
 8452SOL     OW36988   3.469   4.267   4.317 -0.3228 -0.0463  0.2159
 8452SOL    HW136989   3.420   4.189   4.342  0.6173 -1.6080 -2.8917
 8452SOL    HW236990   3.543   4.264   4.378  1.0826  0.5680 -1.4737
 8453SOL     OW36991   1.335   3.771   2.716 -0.2843 -0.0859 -0.4973
 8453SOL    HW136992   1.282   3.781   2.637  1.0520  2.0729 -1.1099
 8453SOL    HW236993   1.274   3.731   2.778 -1.0516 -0.6420 -1.6106
 8454SOL     OW36994   1.578   4.660   1.286 -0.0312 -0.1086 -0.1751
 8454SOL    HW136995   1.525   4.709   1.350 -0.8467  1.0133 -1.7029
 8454SOL    HW236996   1.618   0.003   1.250 -0.8124 -1.1524 -3.3826
 8455SOL     OW36997   3.875   4.493   2.363 -0.2556 -0.4886  0.1633
 8455SOL    HW136998   3.868   4.461   2.273 -0.3723 -1.7497  0.6191
 8455SOL    HW236999   3.828   4.576   2.355  0.2146 -0.3371 -0.9922
 8456SOL     OW37000   1.762   4.212  17.354  0.0830 -0.1912  0.1398
 8456SOL    HW137001   1.721   4.196  17.269  0.9284  2.4727 -0.7605
 8456SOL    HW237002   1.795   4.124  17.372 -0.9298 -0.3508  1.2731
 8457SOL     OW37003   0.420   3.781   1.296  0.4902  0.1214  0.2018
 8457SOL    HW137004   0.484   3.722   1.256  2.7880  1.6339  1.7128
 8457SOL    HW237005   0.353   3.784   1.227  0.7157  0.0782 -0.0172
 8458SOL     OW37006   1.477   3.503   8.263  0.3916 -0.0784  0.5466
 8458SOL    HW137007   1.477   3.410   8.240 -0.1505  0.2964 -0.9504
 8458SOL    HW237008   1.410   3.509   8.331  0.3306  0.3330  0.4498
 8459SOL     OW37009   2.285   3.737   8.190 -0.1864  0.5009  0.6007
 8459SOL    HW137010   2.237   3.722   8.272  2.2128 -0.3961  1.8317
 8459SOL    HW237011   2.355   3.798   8.215  0.3151 -0.0041  0.4104
 8460SOL     OW37012   1.125   0.044  11.392  0.0752  0.0661 -0.2366
 8460SOL    HW137013   1.203   0.075  11.346 -0.6166 -0.4456 -1.7414
 8460SOL    HW237014   1.156   4.693  11.418 -0.1071 -0.7660 -2.8447
 8461SOL     OW37015   0.164   1.809   7.900  0.0430  0.1857  0.1531
 8461SOL    HW137016   0.186   1.740   7.961 -1.7169  0.5932  1.2551
 8461SOL    HW237017   0.177   1.762   7.817 -1.9539  0.3605 -0.2560
 8462SOL     OW37018   0.997   3.910   9.293  0.3043 -0.3410  0.0328
 8462SOL    HW137019   0.973   3.981   9.233 -1.3218 -0.7267  0.2221
 8462SOL    HW237020   0.908   3.884   9.317 -0.4782  1.5863 -0.7615
 8463SOL     OW37021   2.127   1.273   3.543 -0.0063 -0.0442  0.0209
 8463SOL    HW137022   2.056   1.255   3.605  0.4614 -0.3538  0.4682
 8463SOL    HW237023   2.152   1.188   3.508  1.8010  0.1851  0.7539
 8464SOL     OW37024   4.556   3.019  16.536 -0.0603  0.6355 -0.5854
 8464SOL    HW137025   4.631   3.072  16.507 -1.0866  1.9650 -0.7992
 8464SOL    HW237026   4.480   3.049  16.485  0.4741 -0.7897 -2.2456
 8465SOL     OW37027   3.669   2.468   7.153  0.2218 -0.0086  0.3177
 8465SOL    HW137028   3.711   2.402   7.208 -0.8862 -2.3645 -1.6683
 8465SOL    HW237029   3.712   2.456   7.068  1.0090 -0.6793  0.8061
 8466SOL     OW37030   0.737   0.313  17.695  0.0253  0.3246  0.5207
 8466SOL    HW137031   0.819   0.330  17.742 -1.3036  0.2930  2.8239
 8466SOL    HW237032   0.711   0.227  17.726  1.6565 -0.6103 -0.7176
 8467SOL     OW37033   2.922   0.703   1.654 -0.0982 -0.3576 -0.1973
 8467SOL    HW137034   2.861   0.775   1.638  2.6761  2.0205 -0.0985
 8467SOL    HW237035   2.864   0.652   1.710  0.1834  2.4629  2.6670
 8468SOL     OW37036   1.995   3.066   5.306  0.1255  0.1437  0.0700
 8468SOL    HW137037   1.920   3.080   5.364  0.0287  1.3908 -0.3592
 8468SOL    HW237038   2.010   3.160   5.294  0.2915 -0.1089 -1.7054
 8469SOL     OW37039   1.119   3.508   7.716  0.0101  0.1077 -0.5441
 8469SOL    HW137040   1.089   3.425   7.680 -0.7291  0.6134 -1.0855
 8469SOL    HW237041   1.046   3.564   7.691 -0.0378  0.8625  1.2625
 8470SOL     OW37042   2.894   3.426   5.863 -0.3640 -0.6402 -0.5952
 8470SOL    HW137043   2.936   3.381   5.936 -2.5089  0.5789  1.4073
 8470SOL    HW237044   2.805   3.400   5.889 -0.4373  0.0758 -0.1069
 8471SOL     OW37045   0.153   3.049  11.377  0.1563  0.3352  0.3791
 8471SOL    HW137046   0.174   2.963  11.412 -0.3058 -0.9923 -2.5932
 8471SOL    HW237047   0.078   3.067  11.434 -0.0934  1.6734 -0.3778
 8472SOL     OW37048   1.139   3.632   2.032  0.3388  0.1951  0.0103
 8472SOL    HW137049   1.066   3.689   2.008  2.2610  1.9517 -1.7122
 8472SOL    HW237050   1.110   3.577   2.105  3.3688 -1.8769 -0.3412
 8473SOL     OW37051   2.615   4.573   5.494  0.9889  0.1864  0.9381
 8473SOL    HW137052   2.549   4.562   5.562 -0.4177  3.1828  0.0233
 8473SOL    HW237053   2.695   4.550   5.542  2.3644  2.3819 -0.2819
 8474SOL     OW37054   3.101   0.250   0.553  0.2405 -0.5703  0.0858
 8474SOL    HW137055   3.124   0.158   0.566  1.0469 -0.3467  0.2277
 8474SOL    HW237056   3.075   0.278   0.641 -1.2290 -0.3002 -0.4334
 8475SOL     OW37057   3.755   4.429   6.363  0.5601  0.3995 -0.0516
 8475SOL    HW137058   3.741   4.507   6.310  1.0868  0.5219 -0.0132
 8475SOL    HW237059   3.709   4.449   6.444 -0.1712 -1.2835 -0.0423
 8476SOL     OW37060   0.914   0.676  16.043  0.4651 -0.0774 -0.4344
 8476SOL    HW137061   0.838   0.681  16.101  1.5841 -1.7409  1.1875
 8476SOL    HW237062   0.979   0.732  16.084  0.8351 -0.2380 -0.8082
 8477SOL     OW37063   3.433   3.473   5.494 -0.6031 -0.0005  0.2841
 8477SOL    HW137064   3.512   3.420   5.503 -0.8855 -0.4293  0.2286
 8477SOL    HW237065   3.458   3.544   5.554 -0.1772  0.1852 -0.1155
 8478SOL     OW37066   2.425   4.078   5.005 -0.5050  0.2430  0.1367
 8478SOL    HW137067   2.453   4.066   4.914 -0.5262  0.0430  0.1574
 8478SOL    HW237068   2.385   3.993   5.023  3.0610 -1.2377  1.0920
 8479SOL     OW37069   3.632   2.190  15.359 -0.2197 -0.0074 -0.0804
 8479SOL    HW137070   3.702   2.190  15.423 -0.2089 -1.4566 -0.0898
 8479SOL    HW237071   3.666   2.154  15.276 -0.6156 -1.4897  0.3972
 8480SOL     OW37072   0.331   2.614   7.275  0.3438  0.0410 -0.0795
 8480SOL    HW137073   0.352   2.591   7.185  2.1713  0.4765  0.2229
 8480SOL    HW237074   0.368   2.703   7.277  0.1873  0.1251 -1.0328
 8481SOL     OW37075   3.860   3.533   6.646  0.2421 -0.0014  0.1934
 8481SOL    HW137076   3.905   3.539   6.731 -1.1680 -0.2408  0.9686
 8481SOL    HW237077   3.790   3.470   6.664 -0.8276  1.2225  0.3740
 8482SOL     OW37078   3.709   3.201  14.521 -0.3592 -0.5875  0.7327
 8482SOL    HW137079   3.617   3.196  14.546 -1.2661  0.2698 -2.4014
 8482SOL    HW237080   3.753   3.154  14.592 -1.1405  0.7403  2.0960
 8483SOL     OW37081   2.228   4.324   0.916 -0.0940  0.7824  0.5276
 8483SOL    HW137082   2.137   4.309   0.891 -0.2336  0.6188  1.1285
 8483SOL    HW237083   2.247   4.404   0.867 -1.2570 -0.5228 -2.0422
 8484SOL     OW37084   4.498   2.694  12.744 -0.8184 -0.0171 -0.5198
 8484SOL    HW137085   4.526   2.703  12.653  0.9056  1.5061  0.1563
 8484SOL    HW237086   4.576   2.706  12.798 -0.7053 -2.6422 -0.1326
 8485SOL     OW37087   3.919   3.058  11.596  0.4087 -0.1939 -0.8881
 8485SOL    HW137088   3.878   3.039  11.680 -0.0412  1.1982 -0.7912
 8485SOL    HW237089   3.882   3.145  11.582 -1.4259 -0.9667 -0.9276
 8486SOL     OW37090   4.394   4.637  12.137  0.2795  0.2479 -0.0004
 8486SOL    HW137091   4.332   4.647  12.064  0.1187  4.3163  0.6865
 8486SOL    HW237092   4.373   4.697  12.208 -2.1627  0.3591 -0.8070
 8487SOL     OW37093   1.382   3.409   6.490 -0.3076 -0.1149  0.1246
 8487SOL    HW137094   1.360   3.464   6.566 -2.2037 -1.2060  0.3695
 8487SOL    HW237095   1.477   3.417   6.496 -0.3629  0.9981 -0.3806
 8488SOL     OW37096   3.372   2.359   7.445 -0.1846 -0.4796  0.1607
 8488SOL    HW137097   3.304   2.398   7.390  0.1443  0.9345  0.7406
 8488SOL    HW237098   3.436   2.430   7.438 -0.0785 -0.3638  2.2767
 8489SOL     OW37099   0.204   0.640   6.175  0.4310 -0.1135  0.1096
 8489SOL    HW137100   0.244   0.556   6.198  1.0470 -0.0622 -0.7917
 8489SOL    HW237101   0.263   0.704   6.214  0.8993 -0.7091  0.3694
 8490SOL     OW37102   3.484   3.520   2.720  0.0672 -0.3236  0.1825
 8490SOL    HW137103   3.454   3.499   2.809 -1.0698 -1.9016 -0.5597
 8490SOL    HW237104   3.455   3.612   2.721 -0.0099 -0.3496  0.4019
 8491SOL     OW37105   4.230   1.286  17.168  0.7814  0.5196 -0.3362
 8491SOL    HW137106   4.259   1.229  17.096  1.1582  0.6092 -0.2509
 8491SOL    HW237107   4.135   1.285  17.159  0.8737  2.1660 -1.4062
 8492SOL     OW37108   0.907   1.008   9.818  0.3566  0.1179  0.6358
 8492SOL    HW137109   0.891   0.977   9.907 -2.0355  2.9351  1.1851
 8492SOL    HW237110   0.839   0.961   9.769 -0.4999  1.8979  0.1332
 8493SOL     OW37111   4.658   4.386  17.595 -0.1593  0.2193 -0.0042
 8493SOL    HW137112   4.718   4.457  17.618  1.5585 -1.9337  2.1920
 8493SOL    HW237113   4.609   4.377  17.677 -0.2743  0.9681  0.0057
 8494SOL     OW37114   3.716   0.990   3.883 -0.2724  0.0945 -0.0541
 8494SOL    HW137115   3.665   0.927   3.933 -0.5272  2.2373  2.3694
 8494SOL    HW237116   3.713   1.067   3.939  0.0319 -0.2038  0.3651
 8495SOL     OW37117   2.423   3.701  16.569  0.2619  0.0441 -0.0880
 8495SOL    HW137118   2.455   3.791  16.573  0.3942 -0.0195  0.2807
 8495SOL    HW237119   2.381   3.700  16.483 -0.6590  1.1323  0.3422
 8496SOL     OW37120   1.497   0.977   3.049  0.0177 -0.1993 -0.0844
 8496SOL    HW137121   1.450   1.056   3.078 -2.3933 -2.0476  0.9976
 8496SOL    HW237122   1.492   0.987   2.954 -0.7551 -1.7138 -0.1904
 8497SOL     OW37123   2.278   4.613  16.544 -0.3868  0.0418  0.4097
 8497SOL    HW137124   2.199   4.614  16.598 -0.1015 -2.5145  0.8577
 8497SOL    HW237125   2.251   4.572  16.462 -0.0485  1.5699 -0.4707
 8498SOL     OW37126   0.399   0.050   5.198  0.2585 -0.3210 -0.2259
 8498SOL    HW137127   0.404   4.691   5.205 -0.7749 -0.4501 -1.2226
 8498SOL    HW237128   0.478   0.072   5.248 -0.7992  2.9695  0.0147
 8499SOL     OW37129   0.032   3.265   2.956  0.5373 -0.5946  0.6367
 8499SOL    HW137130   0.042   3.175   2.923  1.7447 -0.8404  1.6877
 8499SOL    HW237131   4.679   3.286   2.929 -0.1859 -1.6150  2.2024
 8500SOL     OW37132   0.202   3.063  15.513  0.3910 -0.1064  0.2293
 8500SOL    HW137133   0.133   3.071  15.578 -0.2421 -0.0977 -0.4429
 8500SOL    HW237134   0.280   3.095  15.559  1.0704 -2.6274  0.8330
 8501SOL     OW37135   2.793   1.936   2.798 -0.1961 -0.3291 -0.3089
 8501SOL    HW137136   2.803   1.848   2.762  0.7472 -0.5526  0.5199
 8501SOL    HW237137   2.736   1.986   2.739  0.1613 -1.4177 -1.5697
 8502SOL     OW37138   3.019   1.774   2.842 -0.4816  0.3174 -0.2884
 8502SOL    HW137139   2.966   1.810   2.913  1.3606  1.9915  0.2242
 8502SOL    HW237140   2.956   1.713   2.802  2.0653 -1.4615 -1.5837
 8503SOL     OW37141   1.705   3.107  10.475 -0.0024 -0.1183 -0.2613
 8503SOL    HW137142   1.697   3.194  10.513  0.2316  1.0627 -2.9138
 8503SOL    HW237143   1.800   3.100  10.480  0.0300  1.1606  0.7904
 8504SOL     OW37144   3.134   2.047  13.061 -0.2935  0.4480  0.7861
 8504SOL    HW137145   3.041   2.051  13.081 -1.2321 -0.3545 -3.5337
 8504SOL    HW237146   3.165   1.962  13.029  0.6191  1.1835 -0.2856
 8505SOL     OW37147   3.128   2.471  16.030 -0.2948 -0.7554 -0.1560
 8505SOL    HW137148   3.107   2.558  16.062  0.4591  0.2658 -2.3988
 8505SOL    HW237149   3.053   2.421  16.062 -2.9949  3.1171 -0.4715
 8506SOL     OW37150   3.963   3.207   4.447  0.0373 -0.4793  0.1148
 8506SOL    HW137151   3.918   3.139   4.395 -2.1346  0.9064  0.1689
 8506SOL    HW237152   3.906   3.284   4.439  0.6035 -0.0889 -0.0923
 8507SOL     OW37153   3.866   1.046   7.131 -0.1181 -0.3368 -0.2869
 8507SOL    HW137154   3.788   0.995   7.109 -0.9757  2.0102 -2.7027
 8507SOL    HW237155   3.838   1.107   7.199  0.4629  0.7338 -1.0049
 8508SOL     OW37156   0.828   2.144   2.699  0.3667 -0.0401  0.1698
 8508SOL    HW137157   0.903   2.204   2.701 -0.1359  0.5518  1.0831
 8508SOL    HW237158   0.766   2.210   2.667 -0.2220 -0.5148  0.3511
 8509SOL     OW37159   1.261   0.803   9.567 -0.0828  0.2467  0.0854
 8509SOL    HW137160   1.276   0.713   9.594  0.1468  0.4021  0.4718
 8509SOL    HW237161   1.239   0.837   9.654 -0.1877 -0.8418  0.4801
 8510SOL     OW37162   1.834   2.188   6.085  0.4689  0.0932 -0.1740
 8510SOL    HW137163   1.761   2.128   6.098  1.5742 -1.2087  0.0034
 8510SOL    HW237164   1.866   2.195   6.175 -0.2002  0.0160  0.0652
 8511SOL     OW37165   2.398   4.530  16.956 -0.1971 -0.1875 -0.2435
 8511SOL    HW137166   2.389   4.615  16.912 -2.3736 -2.0107 -3.3041
 8511SOL    HW237167   2.343   4.471  16.905 -2.0067  2.2243 -1.0644
 8512SOL     OW37168   3.120   0.843   5.641 -0.3606 -0.1224  0.0708
 8512SOL    HW137169   3.153   0.921   5.686 -1.1510  0.4864 -0.3925
 8512SOL    HW237170   3.045   0.815   5.693  0.5415  1.3833  2.1699
 8513SOL     OW37171   2.498   0.020   9.319 -0.3542  0.3524 -0.2436
 8513SOL    HW137172   2.463   4.680   9.365 -1.3788  1.9458  1.6323
 8513SOL    HW237173   2.591   4.732   9.320 -0.6806 -0.9202 -1.0610
 8514SOL     OW37174   3.681   1.766   7.116  0.3143 -0.2638 -0.0484
 8514SOL    HW137175   3.621   1.825   7.161 -0.1233 -1.2111  0.5988
 8514SOL    HW237176   3.739   1.733   7.184 -1.0549 -3.0400 -0.2199
 8515SOL     OW37177   2.082   3.396  13.139  0.4561  0.0309 -0.4847
 8515SOL    HW137178   2.155   3.425  13.193 -1.6091  1.3920  1.5465
 8515SOL    HW237179   2.097   3.302  13.124  1.3636  0.4098 -1.9570
 8516SOL     OW37180   2.037   2.809  16.654  0.3785 -0.2222 -0.8648
 8516SOL    HW137181   1.986   2.886  16.678  1.0908  0.4183 -1.4026
 8516SOL    HW237182   1.970   2.763  16.604 -1.4549 -0.5377  1.8939
 8517SOL     OW37183   3.853   1.712   2.557  0.2397  0.1519 -0.0991
 8517SOL    HW137184   3.839   1.623   2.524  2.5117 -1.0481  2.1862
 8517SOL    HW237185   3.818   1.714   2.646 -2.3617  0.2096 -1.1291
 8518SOL     OW37186   2.567   0.486   9.862 -0.2117 -0.0227  0.1881
 8518SOL    HW137187   2.595   0.406   9.817 -1.0490  0.6334 -1.4801
 8518SOL    HW237188   2.595   0.457   9.949 -0.7810  2.9080  1.3431
 8519SOL     OW37189   3.122   3.084   2.593 -0.1300 -0.2888  0.1019
 8519SOL    HW137190   3.158   3.167   2.624 -0.7518  0.8179 -2.0675
 8519SOL    HW237191   3.030   3.107   2.577 -0.2500 -0.7530  0.1357
 8520SOL     OW37192   4.009   4.707   3.562 -0.3631 -0.3252  0.4228
 8520SOL    HW137193   4.025   0.063   3.580 -3.5628  0.6672 -1.6877
 8520SOL    HW237194   3.916   4.705   3.538 -0.0027 -1.2240 -0.8967
 8521SOL     OW37195   0.785   2.753   4.659  0.3035  0.2901  0.3584
 8521SOL    HW137196   0.815   2.691   4.593 -1.4954  0.5398 -0.6860
 8521SOL    HW237197   0.744   2.700   4.728 -2.1598  1.9132  0.1562
 8522SOL     OW37198   3.166   1.700  11.803  0.1560  0.0730 -0.0321
 8522SOL    HW137199   3.101   1.701  11.873 -1.8253  0.4653 -1.8740
 8522SOL    HW237200   3.120   1.751  11.737 -0.5527  0.1867  0.5541
 8523SOL     OW37201   4.368   4.164   6.155  0.2797  0.2085  0.4210
 8523SOL    HW137202   4.458   4.179   6.126  0.2910  1.7900  1.2314
 8523SOL    HW237203   4.333   4.240   6.109  0.6661 -0.3123 -0.7242
 8524SOL     OW37204   3.533   2.502   6.271 -0.2782  0.0443 -0.5806
 8524SOL    HW137205   3.517   2.407   6.269  1.2177 -0.1972 -1.5699
 8524SOL    HW237206   3.624   2.507   6.241  0.0970  1.8311  0.8624
 8525SOL     OW37207   3.160   3.363   7.797 -0.1646  0.0328 -0.1536
 8525SOL    HW137208   3.236   3.375   7.741  1.8964 -2.3767  2.1024
 8525SOL    HW237209   3.166   3.442   7.851 -2.7207 -0.4397  0.8390
 8526SOL     OW37210   4.680   3.976  16.315 -0.1781 -0.3622 -0.0226
 8526SOL    HW137211   0.038   3.967  16.327  0.2270  1.0212 -2.1195
 8526SOL    HW237212   4.691   4.000  16.223 -3.1549  1.7660  0.1625
 8527SOL     OW37213   0.565   2.445   1.158 -1.4292 -0.2276 -0.1835
 8527SOL    HW137214   0.619   2.415   1.084  0.8811  0.5670  1.1910
 8527SOL    HW237215   0.505   2.372   1.177 -0.3239 -0.7554  1.2513
 8528SOL     OW37216   0.443   2.674   8.260 -0.4909  0.2126 -0.6602
 8528SOL    HW137217   0.475   2.605   8.318  1.2907 -0.2279 -2.1710
 8528SOL    HW237218   0.411   2.620   8.188 -2.6086 -0.2060  0.6005
 8529SOL     OW37219   4.072   1.629   4.276  0.3498 -0.2530  0.0257
 8529SOL    HW137220   3.984   1.645   4.242 -0.6962 -1.1780  2.2562
 8529SOL    HW237221   4.052   1.555   4.334  0.8257 -1.5725 -1.5042
 8530SOL     OW37222   3.379   3.057  15.615  0.0627  0.1422 -0.2932
 8530SOL    HW137223   3.349   2.991  15.678 -0.8999  0.0409 -0.8518
 8530SOL    HW237224   3.349   3.136  15.662 -0.1843  0.7638 -1.5002
 8531SOL     OW37225   3.466   4.636   1.807 -0.8735 -0.4968 -0.4015
 8531SOL    HW137226   3.440   4.550   1.841 -3.5166 -0.0584 -1.3330
 8531SOL    HW237227   3.389   4.684   1.776 -1.8930 -2.4239 -0.8810
 8532SOL     OW37228   1.287   2.392   1.667 -0.5951 -0.4631 -0.0098
 8532SOL    HW137229   1.198   2.386   1.632 -0.7353 -2.3463  0.6680
 8532SOL    HW237230   1.341   2.327   1.624 -2.8744 -1.7186 -0.9603
 8533SOL     OW37231   3.067   0.156   4.760  0.3883 -0.2525  0.2658
 8533SOL    HW137232   3.033   0.232   4.713  0.6240 -1.3884 -1.7309
 8533SOL    HW237233   3.106   0.206   4.832 -0.2766  1.0245 -0.2636
 8534SOL     OW37234   1.430   1.520  16.160 -0.0792  0.0749 -0.1090
 8534SOL    HW137235   1.493   1.463  16.115  1.9889  1.6533  0.7556
 8534SOL    HW237236   1.479   1.597  16.190 -1.3885  0.2857  1.4316
 8535SOL     OW37237   4.369   2.850  17.539  0.3092 -1.0343  0.0008
 8535SOL    HW137238   4.386   2.930  17.588 -1.3655 -0.0773 -0.9966
 8535SOL    HW237239   4.441   2.790  17.560  1.8670  0.4387 -1.1031
 8536SOL     OW37240   3.807   1.357   1.922  0.0284  0.1045  0.9119
 8536SOL    HW137241   3.874   1.290   1.916  0.7130  0.9683 -1.0460
 8536SOL    HW237242   3.858   1.437   1.915 -0.7030  0.3581 -1.5906
 8537SOL     OW37243   0.868   4.221   4.983 -0.3046 -0.2990  0.0428
 8537SOL    HW137244   0.836   4.252   4.898  4.1501 -1.1436 -1.9264
 8537SOL    HW237245   0.901   4.136   4.957  0.7047  0.9006 -2.6208
 8538SOL     OW37246   2.129   1.921   2.090 -0.0958  0.1768 -0.2850
 8538SOL    HW137247   2.059   1.969   2.046 -0.4176  0.5868  0.6540
 8538SOL    HW237248   2.166   1.882   2.011  0.2612 -0.6974  0.3182
 8539SOL     OW37249   3.153   4.474   2.520 -0.3794 -0.3324 -0.4099
 8539SOL    HW137250   3.092   4.484   2.448  0.2323 -0.7510 -0.9808
 8539SOL    HW237251   3.192   4.561   2.512  0.4349 -0.7687 -1.2018
 8540SOL     OW37252   3.501   3.684   8.524 -0.5656  0.4434  0.1481
 8540SOL    HW137253   3.581   3.642   8.556 -2.0590 -1.4798  1.2878
 8540SOL    HW237254   3.510   3.642   8.438  0.4275 -1.4192  1.1740
 8541SOL     OW37255   3.910   2.535   4.910  0.5535  0.5383 -0.8616
 8541SOL    HW137256   3.960   2.470   4.860 -0.8541 -2.0533  1.1285
 8541SOL    HW237257   3.863   2.584   4.842 -1.3554 -1.0645 -0.6977
 8542SOL     OW37258   1.915   0.421  10.079 -0.1983 -0.1467 -0.0108
 8542SOL    HW137259   1.875   0.506  10.061  0.3687  0.2892  0.7497
 8542SOL    HW237260   1.842   0.365  10.053  2.0968 -2.9059 -0.5363
 8543SOL     OW37261   3.868   2.184   7.831  0.0393 -0.3396 -0.4511
 8543SOL    HW137262   3.948   2.133   7.835 -0.0501 -0.6586 -2.6782
 8543SOL    HW237263   3.841   2.165   7.740 -0.2126 -1.3629 -0.1596
 8544SOL     OW37264   2.677   3.758   4.074 -0.1365 -0.5449 -0.1148
 8544SOL    HW137265   2.646   3.847   4.057  1.3182  0.0540  0.4064
 8544SOL    HW237266   2.644   3.747   4.163 -2.3848 -0.2397 -0.9236
 8545SOL     OW37267   3.188   0.436  13.968  0.2781 -0.1643 -0.1688
 8545SOL    HW137268   3.131   0.396  14.033  0.7092 -2.6673 -1.3344
 8545SOL    HW237269   3.188   0.368  13.900 -0.4314  0.7992 -1.1320
 8546SOL     OW37270   2.450   1.599   7.804  0.1052 -0.4815 -0.7248
 8546SOL    HW137271   2.543   1.582   7.788 -0.0439  0.3877 -2.5285
 8546SOL    HW237272   2.462   1.637   7.892  1.5902  3.0834 -2.4536
 8547SOL     OW37273   1.296   3.519   8.453 -0.3326  0.4434 -0.1162
 8547SOL    HW137274   1.244   3.465   8.394  0.0289 -2.3728  2.1062
 8547SOL    HW237275   1.249   3.498   8.534  0.0972  0.1957  0.0661
 8548SOL     OW37276   0.020   4.132   8.919  0.3753  0.3578  0.9039
 8548SOL    HW137277   0.104   4.174   8.900  0.5071 -0.0761  0.5174
 8548SOL    HW237278   4.702   4.207   8.939 -1.8359 -0.4575 -2.0520
 8549SOL     OW37279   2.643   2.006  15.694 -0.0064 -0.2241  0.0171
 8549SOL    HW137280   2.616   1.916  15.711 -0.8067  0.5994  3.1408
 8549SOL    HW237281   2.738   2.005  15.710 -0.2149  0.9251  1.3757
 8550SOL     OW37282   2.252   4.736   4.350  0.0110 -0.5200  0.5263
 8550SOL    HW137283   2.325   4.715   4.293 -0.5785 -1.1347 -0.0103
 8550SOL    HW237284   2.296   4.734   4.434 -0.1402 -2.0991  0.5789
 8551SOL     OW37285   2.331   1.210  15.358  0.3741 -0.0618  0.1388
 8551SOL    HW137286   2.393   1.138  15.363  0.2554 -0.0244  2.2215
 8551SOL    HW237287   2.347   1.238  15.268 -1.1903  1.0192  0.1841
 8552SOL     OW37288   2.897   0.661   3.757  0.1193 -0.1248 -0.0537
 8552SOL    HW137289   2.930   0.634   3.672  0.0658  0.1689 -0.1688
 8552SOL    HW237290   2.806   0.633   3.751  0.0465  0.6381 -2.4630
 8553SOL     OW37291   2.440   1.883  11.590 -0.2185  0.3801  0.7001
 8553SOL    HW137292   2.373   1.945  11.558 -0.8066 -0.5020  0.2369
 8553SOL    HW237293   2.404   1.843  11.669  0.0616  0.0296  0.6483
 8554SOL     OW37294   3.145   1.036   5.856  0.1688 -0.2467  0.1047
 8554SOL    HW137295   3.176   0.969   5.916 -1.3231 -2.2296 -1.3496
 8554SOL    HW237296   3.055   1.004   5.848  0.5171 -0.9088 -1.2384
 8555SOL     OW37297   0.733   1.858  10.408  0.6915 -0.6597 -0.0786
 8555SOL    HW137298   0.762   1.917  10.338  1.4903 -1.2914 -0.2751
 8555SOL    HW237299   0.673   1.913  10.458  0.5816 -1.7180  0.9376
 8556SOL     OW37300   2.401   4.732  16.780  0.1372  0.0118 -0.3216
 8556SOL    HW137301   2.454   0.069  16.750 -0.4973  1.1347  1.2960
 8556SOL    HW237302   2.387   4.694  16.694 -1.0412 -1.4526  0.5163
 8557SOL     OW37303   2.915   0.426  11.949 -0.4405 -0.0123  0.2095
 8557SOL    HW137304   2.929   0.336  11.921  1.8005 -0.2345  2.0622
 8557SOL    HW237305   2.947   0.416  12.038 -1.7343 -0.7113  0.5921
 8558SOL     OW37306   4.644   0.471   4.388  0.2313 -0.3417  0.0404
 8558SOL    HW137307   4.555   0.436   4.386 -0.0096  0.2450  0.3038
 8558SOL    HW237308   4.647   0.542   4.325  1.2900 -1.6274 -1.3420
 8559SOL     OW37309   4.627   2.365   4.194  0.5497  0.7315 -0.2393
 8559SOL    HW137310   4.534   2.371   4.169 -0.3098  1.3163  3.0715
 8559SOL    HW237311   4.618   2.337   4.285 -0.1907  1.9409  0.0620
 8560SOL     OW37312   3.737   0.137   4.445  0.7345 -0.4532 -0.3874
 8560SOL    HW137313   3.781   0.097   4.519  0.4262  1.3093  0.7566
 8560SOL    HW237314   3.655   0.149   4.493  0.9911  1.7672 -0.4880
 8561SOL     OW37315   4.511   4.465   3.144 -0.1827 -0.3217 -0.2713
 8561SOL    HW137316   4.471   4.548   3.170 -1.6372 -1.0964 -0.0879
 8561SOL    HW237317   4.509   4.481   3.050  2.1558 -3.8452 -0.9037
 8562SOL     OW37318   1.232   1.309   9.506 -0.1631  0.7549 -0.0287
 8562SOL    HW137319   1.194   1.370   9.443 -2.7671 -0.9482 -0.0584
 8562SOL    HW237320   1.226   1.371   9.579  0.8208  0.7983  0.0201
 8563SOL     OW37321   0.474   1.323   5.356 -0.0330  0.1178 -0.1348
 8563SOL    HW137322   0.418   1.255   5.393  1.0932 -1.2180 -0.9044
 8563SOL    HW237323   0.557   1.276   5.355  1.1514  2.2548 -0.8309
 8564SOL     OW37324   1.055   1.471   4.204 -0.2494 -0.3464  0.3235
 8564SOL    HW137325   1.014   1.422   4.275  0.2146  0.5594  1.2266
 8564SOL    HW237326   1.015   1.429   4.128 -1.8295  1.1762  0.3284
 8565SOL     OW37327   1.039   4.081  10.290 -0.3193 -0.1596  0.9668
 8565SOL    HW137328   1.032   4.150  10.224  1.3349 -1.0956 -0.2001
 8565SOL    HW237329   1.092   4.014  10.246 -1.3110 -1.4308  1.7000
 8566SOL     OW37330   4.564   4.256  16.358 -0.0981 -0.3132 -0.4033
 8566SOL    HW137331   4.590   4.166  16.338  0.4048 -0.0624 -0.8891
 8566SOL    HW237332   4.481   4.244  16.313  1.2513 -3.4901 -2.0623
 8567SOL     OW37333   2.549   1.759  15.730 -0.1747 -0.4499 -0.2537
 8567SOL    HW137334   2.467   1.750  15.780  0.9252 -0.4891  1.5551
 8567SOL    HW237335   2.535   1.719  15.644  3.9901 -2.7107  0.1155
 8568SOL     OW37336   2.635   1.731   9.741 -0.3264 -0.4611  0.3366
 8568SOL    HW137337   2.620   1.646   9.782 -0.2495  0.3403  2.0699
 8568SOL    HW237338   2.548   1.753   9.709 -0.1563 -0.3896 -0.0656
 8569SOL     OW37339   1.265   1.687   1.142 -0.4280 -0.3932  0.1841
 8569SOL    HW137340   1.205   1.751   1.180 -0.2352 -0.3966  0.4963
 8569SOL    HW237341   1.330   1.754   1.119 -2.0434 -0.2355 -3.8909
 8570SOL     OW37342   0.417   3.305  13.539  0.0644  0.3082  0.1622
 8570SOL    HW137343   0.374   3.243  13.598 -2.0843  0.5770 -1.1247
 8570SOL    HW237344   0.505   3.269  13.547 -0.8680 -2.0168 -0.2262
 8571SOL     OW37345   1.230   1.915   2.586  0.0110  0.1386  0.2443
 8571SOL    HW137346   1.202   1.824   2.594 -1.1847  0.4790 -0.0010
 8571SOL    HW237347   1.309   1.913   2.639 -0.2815  0.5339  0.7042
 8572SOL     OW37348   0.364   4.108   6.564 -0.5585 -0.3015  0.9726
 8572SOL    HW137349   0.457   4.090   6.550 -0.9308 -2.2682  1.0158
 8572SOL    HW237350   0.355   4.083   6.656 -0.8157 -0.1713  0.9816
 8573SOL     OW37351   1.469   2.180   9.023 -0.2477 -0.0460  0.5206
 8573SOL    HW137352   1.531   2.237   8.977 -1.8765 -0.0103 -1.6557
 8573SOL    HW237353   1.382   2.217   9.007 -0.1500  0.7553  1.8313
 8574SOL     OW37354   3.020   1.374   2.728  0.2755 -0.4571  0.5535
 8574SOL    HW137355   2.934   1.403   2.759 -0.4694 -0.7876 -1.2299
 8574SOL    HW237356   3.037   1.426   2.649 -1.6331  0.8536  1.0074
 8575SOL     OW37357   0.362   4.045   6.821 -0.6113 -0.2394  0.1382
 8575SOL    HW137358   0.444   4.054   6.871 -1.7993 -3.0800  2.6053
 8575SOL    HW237359   0.344   3.951   6.818  3.0497 -0.9537  0.3273
 8576SOL     OW37360   1.431   1.099   7.466  0.7881  0.1920  0.5649
 8576SOL    HW137361   1.403   1.120   7.555  0.4342  0.5684  0.3658
 8576SOL    HW237362   1.514   1.148   7.461 -0.2388  2.0582  1.9492
 8577SOL     OW37363   3.769   2.978   6.301  0.0527 -0.6922 -0.3683
 8577SOL    HW137364   3.847   3.033   6.287 -1.6445  1.0769 -2.8287
 8577SOL    HW237365   3.781   2.885   6.286  0.1919 -1.1052  2.1785
 8578SOL     OW37366   3.113   3.498   1.335 -0.1575  0.4212  0.0116
 8578SOL    HW137367   3.078   3.587   1.337  2.1155  1.3333 -1.6803
 8578SOL    HW237368   3.074   3.474   1.251  0.8430  3.6002 -1.3363
 8579SOL     OW37369   1.747   0.460  16.032  0.6628  0.0243  0.5590
 8579SOL    HW137370   1.742   0.394  16.101  1.0443 -3.6781 -3.0187
 8579SOL    HW237371   1.810   0.518  16.075  2.7495 -2.2809  0.5879
 8580SOL     OW37372   1.748   4.225   2.363  0.1130  0.4677  0.3392
 8580SOL    HW137373   1.791   4.230   2.448 -0.2928 -2.0357  0.6954
 8580SOL    HW237374   1.656   4.229   2.386  0.5583  2.2050  1.7649
 8581SOL     OW37375   3.894   1.876   3.873  0.4053 -0.5387  0.0001
 8581SOL    HW137376   3.890   1.888   3.778  0.9901  0.9809  0.1704
 8581SOL    HW237377   3.805   1.899   3.900  0.4573 -1.0032  0.5679
 8582SOL     OW37378   3.155   0.081   7.955  0.5682 -0.5294 -0.0081
 8582SOL    HW137379   3.156   0.130   8.037 -0.9848 -0.5507  0.0266
 8582SOL    HW237380   3.223   0.015   7.970  1.0790 -0.1368 -0.5931
 8583SOL     OW37381   2.955   1.146   7.358  0.2438 -0.0242 -0.0414
 8583SOL    HW137382   2.916   1.133   7.272 -0.1963  0.7880  0.0324
 8583SOL    HW237383   3.032   1.197   7.332 -1.3267  1.7887 -1.1606
 8584SOL     OW37384   2.567   4.046   1.953 -0.8715 -0.4600  0.1899
 8584SOL    HW137385   2.488   4.097   1.972 -0.6012  0.7291 -1.8523
 8584SOL    HW237386   2.634   4.089   2.007  1.2178 -1.3564 -1.7344
 8585SOL     OW37387   2.042   0.049   8.016  0.2475  0.9419 -0.3363
 8585SOL    HW137388   1.979   0.055   8.088 -1.7858  0.7756 -2.0691
 8585SOL    HW237389   1.998   0.106   7.952 -3.3978 -0.5491  0.8384
 8586SOL     OW37390   1.859   0.046  10.210 -0.1781 -0.6206  0.5330
 8586SOL    HW137391   1.941   4.736  10.195 -0.2607 -1.2284  1.9391
 8586SOL    HW237392   1.904   0.130  10.222  0.2176 -0.6189 -0.9431
 8587SOL     OW37393   1.529   1.885   5.755 -0.4935  0.5063 -0.4511
 8587SOL    HW137394   1.595   1.954   5.759  0.8603 -0.8170  0.5696
 8587SOL    HW237395   1.583   1.806   5.767  1.8773  1.7422 -3.0987
 8588SOL     OW37396   3.375   1.780   8.294  0.1442  0.4851  0.1777
 8588SOL    HW137397   3.389   1.825   8.211  2.3610 -2.3094 -0.9637
 8588SOL    HW237398   3.405   1.692   8.271  1.5400  0.8265  0.6885
 8589SOL     OW37399   3.945   1.802   3.191  0.7034 -0.6058 -0.0440
 8589SOL    HW137400   3.950   1.733   3.126  2.7250  1.5361 -2.1466
 8589SOL    HW237401   3.957   1.877   3.133  1.8152 -1.7171 -1.2504
 8590SOL     OW37402   1.765   3.684   1.722 -0.5825  0.2668  0.2803
 8590SOL    HW137403   1.734   3.657   1.808 -1.4396 -0.8569 -0.3742
 8590SOL    HW237404   1.779   3.776   1.744  0.4157  0.0757  0.4260
 8591SOL     OW37405   0.166   3.649  16.769 -0.1948  0.8913  0.0367
 8591SOL    HW137406   0.202   3.662  16.856  0.4836 -1.2120  0.0629
 8591SOL    HW237407   0.168   3.554  16.763  0.2242  0.9844 -1.4504
 8592SOL     OW37408   1.010   4.003   6.070 -0.0237  0.0375 -0.4375
 8592SOL    HW137409   0.977   4.092   6.058  0.5906  0.2298 -0.7075
 8592SOL    HW237410   0.934   3.957   6.035 -1.4198  2.2142 -0.3274
 8593SOL     OW37411   4.696   1.847   1.193  0.1424  0.2090 -0.4776
 8593SOL    HW137412   4.733   1.790   1.261  0.3313 -0.6928 -1.3497
 8593SOL    HW237413   0.004   1.812   1.116  3.1082  0.3818  1.1493
 8594SOL     OW37414   2.234   1.747   5.142  0.9920 -0.3168  0.1925
 8594SOL    HW137415   2.308   1.769   5.085  2.2013 -2.6714  0.8311
 8594SOL    HW237416   2.239   1.653   5.158  1.3885  0.3760  4.2389
 8595SOL     OW37417   3.135   3.794   1.890  0.0268  0.5154  0.6715
 8595SOL    HW137418   3.054   3.798   1.940 -0.2566  1.6622  0.1045
 8595SOL    HW237419   3.188   3.803   1.970 -0.4582 -2.4108  1.3193
 8596SOL     OW37420   0.722   0.002   7.267  0.5480 -0.0968  0.1890
 8596SOL    HW137421   0.647   4.687   7.298 -1.1658  2.2312 -0.0896
 8596SOL    HW237422   0.688   0.068   7.207 -0.9746 -1.5355 -0.5444
 8597SOL     OW37423   3.562   4.529   4.546 -0.4409  0.2652  0.3672
 8597SOL    HW137424   3.553   4.554   4.454  1.0118  0.0489  0.1564
 8597SOL    HW237425   3.562   4.614   4.590 -0.0078  0.4548  0.0098
 8598SOL     OW37426   3.844   2.519  10.585 -0.4963 -0.4408  0.0074
 8598SOL    HW137427   3.939   2.507  10.577 -0.9647 -2.5018 -2.3704
 8598SOL    HW237428   3.806   2.458  10.522 -2.9176 -1.4699  2.4850
 8599SOL     OW37429   3.213   0.545   0.434  0.3832 -0.6103 -0.4413
 8599SOL    HW137430   3.175   0.463   0.402  0.2593 -0.2326 -1.2695
 8599SOL    HW237431   3.207   0.596   0.353  3.1372  0.0866 -0.2235
 8600SOL     OW37432   0.596   0.021  11.618  0.0700 -0.2151  0.8843
 8600SOL    HW137433   0.590   0.111  11.648 -2.4103 -0.1866  0.2890
 8600SOL    HW237434   0.683   0.005  11.581 -0.3692  1.6399 -0.9322
 8601SOL     OW37435   4.266   1.236   9.569  0.1549  0.2553 -0.5928
 8601SOL    HW137436   4.192   1.240   9.630  0.5153  2.4115 -0.2938
 8601SOL    HW237437   4.244   1.316   9.520  1.5274  0.5172 -0.7722
 8602SOL     OW37438   4.718   4.185   2.039  0.0490  0.3296 -0.0974
 8602SOL    HW137439   0.074   4.179   2.063  0.1915  0.6203 -0.5772
 8602SOL    HW237440   0.003   4.212   1.950 -0.7842 -2.9237 -1.2942
 8603SOL     OW37441   0.356   0.253  13.217 -0.1929 -0.1308  0.3032
 8603SOL    HW137442   0.333   0.343  13.193 -4.7244 -1.2091  0.5115
 8603SOL    HW237443   0.441   0.266  13.259  0.5832  0.6512 -1.5332
 8604SOL     OW37444   2.889   3.009   8.201  0.2988  0.6040 -0.8135
 8604SOL    HW137445   2.849   3.055   8.275  2.5407 -1.1135  1.4763
 8604SOL    HW237446   2.813   3.010   8.143  0.6041  1.1043 -1.2052
 8605SOL     OW37447   0.955   4.485   3.833  0.0750 -0.1543 -0.3197
 8605SOL    HW137448   0.894   4.558   3.836  1.8059  1.1895  1.7645
 8605SOL    HW237449   0.959   4.441   3.919 -0.2195 -1.1863 -0.8313
 8606SOL     OW37450   2.495   2.672  16.948 -0.2580 -0.1760  0.3379
 8606SOL    HW137451   2.555   2.739  16.981 -0.0792  0.7507 -1.8538
 8606SOL    HW237452   2.474   2.722  16.869  2.8059  1.4072  0.5054
 8607SOL     OW37453   3.302   2.338   7.006 -0.1637  0.1443 -0.1697
 8607SOL    HW137454   3.283   2.417   6.955  1.4735  1.9531  2.0145
 8607SOL    HW237455   3.366   2.380   7.064  1.5343 -1.8590 -0.6033
 8608SOL     OW37456   2.759   0.549   8.600  0.2929 -0.0468  0.2751
 8608SOL    HW137457   2.680   0.601   8.610 -1.3585 -2.6781  0.9679
 8608SOL    HW237458   2.766   0.543   8.504 -2.0653 -0.5435  0.1383
 8609SOL     OW37459   0.429   0.668  12.220 -0.7290  0.0664 -0.4833
 8609SOL    HW137460   0.496   0.722  12.177  0.8704 -2.3157 -1.0145
 8609SOL    HW237461   0.463   0.579  12.214 -1.2985 -0.3754  2.8743
 8610SOL     OW37462   2.881   3.870  11.046 -0.2877  0.0956 -0.0321
 8610SOL    HW137463   2.789   3.846  11.056 -0.5904  1.2100 -0.1540
 8610SOL    HW237464   2.920   3.801  10.993 -0.1716  0.2961 -0.2061
 8611SOL     OW37465   3.758   1.395   4.280 -0.4523  0.5883  0.5000
 8611SOL    HW137466   3.721   1.378   4.367  0.9623 -2.3797  0.4993
 8611SOL    HW237467   3.772   1.488   4.299 -0.7934  0.7635 -0.1208
 8612SOL     OW37468   0.500   3.549   1.698 -0.4438 -0.3074  0.0109
 8612SOL    HW137469   0.584   3.587   1.722  0.5007 -1.4232 -1.5095
 8612SOL    HW237470   0.451   3.586   1.771  0.5613  0.8154  0.0970
 8613SOL     OW37471   4.164   0.132  13.598 -0.7863 -0.0270  0.2939
 8613SOL    HW137472   4.252   0.094  13.595 -1.0409 -0.5650 -0.2324
 8613SOL    HW237473   4.137   0.113  13.508  1.6910  0.1687 -0.4902
 8614SOL     OW37474   3.630   0.356   3.571  0.2447 -0.3518 -0.3563
 8614SOL    HW137475   3.581   0.274   3.577 -2.8842  1.5485 -0.3201
 8614SOL    HW237476   3.681   0.349   3.652  1.0178 -2.3339 -1.0061
 8615SOL     OW37477   4.348   0.195   7.751 -0.0299  0.1123  0.1807
 8615SOL    HW137478   4.365   0.103   7.770 -0.1074  0.0042 -0.2745
 8615SOL    HW237479   4.434   0.235   7.764 -0.2036  0.1632  1.1286
 8616SOL     OW37480   3.174   3.898  12.074 -0.2841  0.2054 -0.4433
 8616SOL    HW137481   3.186   3.991  12.091  0.7994  0.2377 -1.4388
 8616SOL    HW237482   3.254   3.866  12.032 -0.9461 -0.6676 -1.0483
 8617SOL     OW37483   1.111   4.445   7.740  0.3839 -0.3218 -0.2107
 8617SOL    HW137484   1.056   4.424   7.664 -0.3565  0.4420  0.1190
 8617SOL    HW237485   1.171   4.371   7.746  0.4161 -0.1731  1.2286
 8618SOL     OW37486   0.714   3.753   8.896  0.4164  0.2252  0.2764
 8618SOL    HW137487   0.797   3.800   8.892 -0.7547  2.2478 -0.4295
 8618SOL    HW237488   0.677   3.783   8.979  0.2749 -0.9436  0.6248
 8619SOL     OW37489   2.389   2.656   9.397 -0.0653 -0.3061 -0.5580
 8619SOL    HW137490   2.409   2.724   9.333 -0.7596  0.2612 -0.1750
 8619SOL    HW237491   2.294   2.665   9.394  0.0844  1.3064 -0.8613
 8620SOL     OW37492   4.576   1.273   6.309 -0.0130  0.4303  0.1017
 8620SOL    HW137493   4.642   1.225   6.259  0.7654  1.6832 -0.0681
 8620SOL    HW237494   4.631   1.322   6.370 -0.1120  1.8826 -0.9673
 8621SOL     OW37495   4.449   3.476   8.902 -0.2232  0.5093  0.1871
 8621SOL    HW137496   4.362   3.489   8.940 -0.6129  0.0495 -0.5338
 8621SOL    HW237497   4.464   3.555   8.849  2.5122 -0.8859 -1.1025
 8622SOL     OW37498   3.329   1.624  13.278  0.3218 -0.4328 -0.0006
 8622SOL    HW137499   3.364   1.535  13.284 -1.0557 -0.8515  1.6729
 8622SOL    HW237500   3.264   1.616  13.208 -0.5958  3.2016  0.4437
 8623SOL     OW37501   3.271   1.646   6.018  0.1212  0.0903 -0.0564
 8623SOL    HW137502   3.362   1.672   6.032  0.1122  0.1530 -0.1135
 8623SOL    HW237503   3.276   1.567   6.072 -1.0704  1.0522  1.4695
 8624SOL     OW37504   0.322   2.646   7.543  0.3976  0.2131 -0.0302
 8624SOL    HW137505   0.326   2.642   7.448 -1.3973  0.2675 -0.1057
 8624SOL    HW237506   0.370   2.565   7.562  0.2259  0.6533  2.3660
 8625SOL     OW37507   2.522   2.975   7.926 -0.5592 -0.0720 -0.1673
 8625SOL    HW137508   2.597   2.936   7.971  0.4770 -0.4860 -2.2729
 8625SOL    HW237509   2.490   2.903   7.872 -1.1623 -0.0844  0.2083
 8626SOL     OW37510   3.707   4.525   1.898 -0.1309  0.3725  0.0734
 8626SOL    HW137511   3.627   4.571   1.875  0.3779  1.5515  0.6697
 8626SOL    HW237512   3.684   4.490   1.984 -2.6774  0.8347 -0.4231
 8627SOL     OW37513   2.447   4.182   2.643  0.6203  0.2806  0.5855
 8627SOL    HW137514   2.373   4.177   2.582  0.2688 -1.8767  1.1876
 8627SOL    HW237515   2.460   4.277   2.636  1.4039  0.1484  0.2829
 8628SOL     OW37516   0.458   2.210   9.227 -0.3522  0.2411 -0.1951
 8628SOL    HW137517   0.399   2.180   9.158  0.0747  1.6918 -1.1913
 8628SOL    HW237518   0.445   2.137   9.288  0.7777 -0.0281 -0.2721
 8629SOL     OW37519   3.042   4.589  17.118 -0.1072 -0.0090  0.1113
 8629SOL    HW137520   3.111   4.608  17.055 -1.2137 -1.6492 -1.5961
 8629SOL    HW237521   3.077   4.635  17.194 -0.2174  0.1387  0.0724
 8630SOL     OW37522   0.890   2.585   7.755 -0.1766 -0.2851  0.2663
 8630SOL    HW137523   0.945   2.509   7.736 -3.3589 -2.2135 -1.1620
 8630SOL    HW237524   0.856   2.607   7.668 -1.3695 -0.1826  0.7662
 8631SOL     OW37525   1.918   3.306   6.388 -0.2661 -0.5704 -0.0689
 8631SOL    HW137526   1.983   3.236   6.395 -2.1602 -2.3023  0.1264
 8631SOL    HW237527   1.958   3.364   6.323 -2.2018 -3.0923 -3.4815
 8632SOL     OW37528   2.932   2.627  17.719  0.3237  0.5166  0.1612
 8632SOL    HW137529   2.878   2.673  17.654 -0.8578 -0.8681  0.1655
 8632SOL    HW237530   2.960   2.707   0.019 -0.9460  1.0578 -0.0195
 8633SOL     OW37531   1.773   4.252  16.972  0.0354  0.0084 -0.9281
 8633SOL    HW137532   1.832   4.230  16.900  1.8558  0.2262  0.4834
 8633SOL    HW237533   1.802   4.342  16.990 -1.2513  0.6068 -1.8921
 8634SOL     OW37534   0.961   2.654  13.563  0.4116 -0.1013 -0.2896
 8634SOL    HW137535   0.953   2.749  13.549  1.2523  0.1006  0.5436
 8634SOL    HW237536   1.020   2.637  13.490  0.3607  1.2935 -0.6551
 8635SOL     OW37537   1.981   2.694   2.813  0.4382 -0.3358 -0.6231
 8635SOL    HW137538   2.070   2.726   2.796  0.9240 -0.6797  1.2370
 8635SOL    HW237539   1.972   2.642   2.733 -0.3949  0.1234 -0.8341
 8636SOL     OW37540   1.743   3.660   8.329 -0.0071  0.1037  0.0036
 8636SOL    HW137541   1.649   3.642   8.335 -0.1115  1.1517  1.4542
 8636SOL    HW237542   1.774   3.596   8.265  1.0031 -0.5312  1.1161
 8637SOL     OW37543   3.324   2.271  13.772 -0.6627  0.4615  0.7025
 8637SOL    HW137544   3.283   2.343  13.820  0.5161  1.3130  0.4266
 8637SOL    HW237545   3.259   2.205  13.797  0.4668 -1.0436 -0.3732
 8638SOL     OW37546   3.930   4.124  10.867 -0.0269  0.1970  0.0195
 8638SOL    HW137547   3.999   4.178  10.905  0.3389 -1.7975  2.1517
 8638SOL    HW237548   3.870   4.110  10.941 -1.6400  1.0886 -1.1049
 8639SOL     OW37549   2.727   4.015   1.300  0.1020  0.9012 -0.0688
 8639SOL    HW137550   2.744   3.933   1.253  0.1493  0.7283  0.2559
 8639SOL    HW237551   2.773   4.073   1.239  0.1779 -1.6724 -2.4987
 8640SOL     OW37552   0.863   2.809   1.752 -0.0409  0.3194  0.7146
 8640SOL    HW137553   0.815   2.743   1.801 -0.2802  0.4345  0.6367
 8640SOL    HW237554   0.805   2.826   1.677  0.0066 -2.9444 -0.0503
 8641SOL     OW37555   4.722   1.705   2.313 -0.3827  0.8530 -0.3071
 8641SOL    HW137556   0.060   1.765   2.317  0.4956 -0.3432  1.3834
 8641SOL    HW237557   4.661   1.773   2.283 -0.3461  1.9157  2.0178
 8642SOL     OW37558   4.087   0.628   2.279  0.1792 -0.4129  0.2520
 8642SOL    HW137559   4.117   0.549   2.235  0.9501  0.8652 -1.5368
 8642SOL    HW237560   4.173   0.666   2.295  0.8013 -1.6813 -0.1610
 8643SOL     OW37561   0.450   0.714  16.467 -0.1232 -0.2746 -0.1629
 8643SOL    HW137562   0.386   0.706  16.396 -1.5770 -0.0487  1.1371
 8643SOL    HW237563   0.495   0.636  16.433 -0.7350 -0.7060  0.0263
 8644SOL     OW37564   2.077   2.148   2.348  0.3088 -0.4083  0.2314
 8644SOL    HW137565   2.054   2.235   2.314 -0.2997 -0.4537  0.5384
 8644SOL    HW237566   2.055   2.093   2.273  0.3313 -2.0234  1.4084
 8645SOL     OW37567   2.307   2.095  11.265 -0.1828 -0.0701 -0.6434
 8645SOL    HW137568   2.338   2.082  11.176 -1.1419  0.2961 -1.0257
 8645SOL    HW237569   2.381   2.145  11.299  1.4219 -1.8344 -1.5542
 8646SOL     OW37570   0.072   3.116  12.283 -0.8989 -0.2223  0.0520
 8646SOL    HW137571   0.106   3.134  12.371 -0.2082  0.9645 -0.4599
 8646SOL    HW237572   4.721   3.156  12.282 -0.8507 -0.1038  0.9664
 8647SOL     OW37573   3.148   0.399   4.394 -0.5197 -0.1614 -0.5038
 8647SOL    HW137574   3.070   0.401   4.338  0.8565 -1.3380 -2.4462
 8647SOL    HW237575   3.105   0.400   4.480  0.0598  1.6210 -0.2416
 8648SOL     OW37576   2.709   3.741   0.820  0.3395  0.3364 -0.1416
 8648SOL    HW137577   2.634   3.684   0.831  1.5398 -1.5420 -1.7725
 8648SOL    HW237578   2.775   3.680   0.787  0.5427  0.7623 -0.5414
 8649SOL     OW37579   0.227   3.246   2.486 -0.1446  0.3994  0.3387
 8649SOL    HW137580   0.140   3.245   2.525 -0.5430  0.2087 -0.5770
 8649SOL    HW237581   0.239   3.153   2.468  1.0813  0.6250 -0.0289
 8650SOL     OW37582   2.449   3.412  14.177 -0.7241 -0.8315  0.2737
 8650SOL    HW137583   2.421   3.424  14.267 -1.6933  0.6236 -0.2223
 8650SOL    HW237584   2.378   3.356  14.146 -0.6555  0.0502 -1.4893
 8651SOL     OW37585   2.315   3.290   3.411  0.0071 -0.1577  0.5361
 8651SOL    HW137586   2.247   3.229   3.384  0.5875 -0.7942  0.5112
 8651SOL    HW237587   2.256   3.328   3.475  1.2088 -0.3374  1.7433
 8652SOL     OW37588   4.268   1.754   2.560  0.1068  0.6204  0.4403
 8652SOL    HW137589   4.266   1.709   2.645  2.0264  0.5450  0.4373
 8652SOL    HW237590   4.186   1.803   2.561 -2.7666 -4.2003  0.1262
 8653SOL     OW37591   3.215   3.836   6.110 -0.5509 -0.3190  0.1202
 8653SOL    HW137592   3.153   3.779   6.065 -0.5616 -0.3025  0.1138
 8653SOL    HW237593   3.205   3.813   6.202 -1.9579 -0.2233 -0.0027
 8654SOL     OW37594   1.598   1.891   9.029  0.0986 -0.6143  0.2902
 8654SOL    HW137595   1.623   1.920   9.117 -0.9246 -0.6060  0.5762
 8654SOL    HW237596   1.503   1.887   9.034  0.1428  0.8507  2.5176
 8655SOL     OW37597   1.033   2.824   7.708 -0.5005  0.2760  0.1321
 8655SOL    HW137598   0.973   2.870   7.649  0.2260 -1.1884 -1.7512
 8655SOL    HW237599   0.995   2.737   7.698  1.3541 -0.3867 -0.9928
 8656SOL     OW37600   4.448   0.876   8.267  0.0093 -0.3324 -0.8031
 8656SOL    HW137601   4.438   0.790   8.307  0.5207 -0.3301 -0.6646
 8656SOL    HW237602   4.426   0.928   8.345 -0.9746  0.1124 -1.3766
 8657SOL     OW37603   4.200   1.279   4.273 -0.1201 -0.1291  0.2214
 8657SOL    HW137604   4.151   1.220   4.216 -0.4653  0.7797 -0.4266
 8657SOL    HW237605   4.135   1.291   4.342  0.7260  0.2584  0.9519
 8658SOL     OW37606   1.448   1.086  16.887 -0.1921  0.1882  0.4794
 8658SOL    HW137607   1.519   1.093  16.824 -0.9302  2.4512 -0.1282
 8658SOL    HW237608   1.497   1.049  16.961 -1.2475 -2.3502 -0.1262
 8659SOL     OW37609   4.664   1.848   7.545 -0.5417  0.1815  0.0173
 8659SOL    HW137610   4.636   1.845   7.637 -0.7046 -1.1561 -0.0841
 8659SOL    HW237611   0.021   1.829   7.548 -0.4798  0.2532 -1.6523
 8660SOL     OW37612   1.419   1.856   6.055  0.3223  0.1782  0.3685
 8660SOL    HW137613   1.392   1.942   6.025  1.7776 -0.0862 -1.7521
 8660SOL    HW237614   1.338   1.824   6.092 -0.1787  1.6349  0.5224
 8661SOL     OW37615   4.075   3.827  16.100 -1.0379 -0.5143 -0.0033
 8661SOL    HW137616   4.073   3.848  16.193  1.5964 -0.6569  0.0805
 8661SOL    HW237617   4.161   3.863  16.077 -0.5231 -0.3081  2.2319
 8662SOL     OW37618   3.274   1.942   7.709  0.6732  0.0224  0.5783
 8662SOL    HW137619   3.274   2.004   7.782  0.2480  1.7325 -0.8634
 8662SOL    HW237620   3.367   1.943   7.687  0.6274 -0.7382  0.3445
 8663SOL     OW37621   0.437   4.140   1.932 -0.0771 -0.6762 -0.4587
 8663SOL    HW137622   0.428   4.218   1.877  1.6419 -0.8220 -0.9610
 8663SOL    HW237623   0.406   4.067   1.877 -0.5539 -0.5055 -0.4123
 8664SOL     OW37624   3.468   1.539   8.193  0.2671  0.0734  0.0117
 8664SOL    HW137625   3.405   1.530   8.122 -0.3440  0.5993  0.4890
 8664SOL    HW237626   3.506   1.451   8.198  1.2696  0.4730 -0.5561
 8665SOL     OW37627   1.095   0.371   3.336 -0.5505  0.6253  0.0436
 8665SOL    HW137628   1.136   0.410   3.258 -0.8459  1.9370  0.5405
 8665SOL    HW237629   1.044   0.446   3.367  2.1273  2.1950  0.6409
 8666SOL     OW37630   1.644   0.052   6.365 -0.1973 -0.5093  0.1206
 8666SOL    HW137631   1.568   0.032   6.419  0.1222  0.5488  0.9588
 8666SOL    HW237632   1.654   0.148   6.367 -0.0043 -0.5296  0.1502
 8667SOL     OW37633   3.263   3.509  17.228 -0.4881  0.1389 -0.0310
 8667SOL    HW137634   3.249   3.521  17.322  0.8465  1.5845 -0.0204
 8667SOL    HW237635   3.330   3.575  17.211  0.3601 -0.8270 -0.4242
 8668SOL     OW37636   1.007   2.565   8.509 -0.3616 -0.5832 -0.0781
 8668SOL    HW137637   1.059   2.551   8.588  1.4243 -0.8209 -1.2931
 8668SOL    HW237638   0.954   2.639   8.538 -0.4487 -1.2261  1.3864
 8669SOL     OW37639   3.069   3.380  16.511  0.3750  0.2402  0.0253
 8669SOL    HW137640   3.161   3.372  16.484  0.1098  1.4283 -1.2392
 8669SOL    HW237641   3.074   3.315  16.580 -0.9079  1.9402  1.7294
 8670SOL     OW37642   2.435   1.763   6.284  0.8287 -0.0757  0.1365
 8670SOL    HW137643   2.437   1.714   6.366  2.9185 -1.7403 -0.9234
 8670SOL    HW237644   2.419   1.850   6.323  0.3355 -0.1244  0.0491
 8671SOL     OW37645   4.473   2.031  14.979 -0.4800 -0.0436 -0.6403
 8671SOL    HW137646   4.490   1.951  15.027  0.1138 -0.3216 -1.3129
 8671SOL    HW237647   4.478   2.095  15.050  0.1239 -0.9175  0.1112
 8672SOL     OW37648   2.846   0.000   4.977  0.6669 -0.3523  0.0934
 8672SOL    HW137649   2.774   0.058   5.003  2.1444  1.5156  0.0361
 8672SOL    HW237650   2.825   4.648   5.007 -0.9845  0.1325  0.3269
 8673SOL     OW37651   3.177   1.232  11.204 -0.0787  0.0200 -0.2113
 8673SOL    HW137652   3.223   1.196  11.280 -1.9107  0.8268  1.2741
 8673SOL    HW237653   3.221   1.208  11.122  0.6507 -2.1526  0.8035
 8674SOL     OW37654   3.379   1.904  12.978 -0.0972 -0.5184  0.3869
 8674SOL    HW137655   3.424   1.856  12.908  2.1076 -1.4702  2.4450
 8674SOL    HW237656   3.445   1.964  13.012 -0.1825 -1.7295  2.6929
 8675SOL     OW37657   3.651   0.445   5.696  0.1400  0.1709  0.7220
 8675SOL    HW137658   3.699   0.438   5.778 -1.5380 -2.3767  1.4586
 8675SOL    HW237659   3.621   0.535   5.707 -3.3783 -0.4741 -3.7385
 8676SOL     OW37660   2.569   2.139   7.010  0.3247 -0.1243  0.4412
 8676SOL    HW137661   2.631   2.072   6.983  1.5758  1.1001  0.2367
 8676SOL    HW237662   2.622   2.217   6.995 -1.9871  1.1248 -1.1875
 8677SOL     OW37663   2.555   3.292  15.916 -0.1189 -0.1696 -0.4577
 8677SOL    HW137664   2.557   3.366  15.856 -0.8725 -0.5171 -0.9207
 8677SOL    HW237665   2.597   3.322  15.996 -2.2410  0.2462  0.5057
 8678SOL     OW37666   3.383   1.303   7.147 -0.3562  0.0243 -0.2666
 8678SOL    HW137667   3.453   1.293   7.083 -0.9431  0.8010 -1.0220
 8678SOL    HW237668   3.408   1.238   7.213  2.2770 -0.4196 -1.6732
 8679SOL     OW37669   3.262   3.608  17.728  0.5009 -0.3527  0.0048
 8679SOL    HW137670   3.342   3.650  17.698  0.5956 -1.2218 -0.9633
 8679SOL    HW237671   3.229   3.580  17.642  0.0171 -0.6252  0.2796
 8680SOL     OW37672   0.118   4.146   7.366  0.0903 -0.3402 -0.4168
 8680SOL    HW137673   0.158   4.191   7.292  1.6577 -0.1697  0.5418
 8680SOL    HW237674   0.059   4.084   7.323  0.2534 -0.2260 -0.8021
 8681SOL     OW37675   1.559   0.675   7.598 -0.1710 -0.1891 -0.1113
 8681SOL    HW137676   1.617   0.718   7.535 -0.4868 -0.9946 -0.9460
 8681SOL    HW237677   1.481   0.717   7.562  0.5563 -0.6323 -2.2432
 8682SOL     OW37678   1.491   3.723   6.888 -0.4158  0.4842 -0.6300
 8682SOL    HW137679   1.551   3.720   6.963 -1.3620  2.4950  0.2246
 8682SOL    HW237680   1.550   3.739   6.815  1.8246 -1.9304  0.6574
 8683SOL     OW37681   3.701   4.255   1.753  0.0215  0.5038  0.4853
 8683SOL    HW137682   3.719   4.344   1.784 -0.1745  0.7518 -0.1168
 8683SOL    HW237683   3.768   4.208   1.802  2.2790  1.2421 -1.8653
 8684SOL     OW37684   0.793   2.103   2.350 -0.5204  0.0597 -0.2882
 8684SOL    HW137685   0.875   2.109   2.399 -1.8083 -0.5628  1.9582
 8684SOL    HW237686   0.832   2.110   2.263  0.9331  0.9634  0.4393
 8685SOL     OW37687   0.774   3.254   1.474 -0.5086  0.1225 -0.1284
 8685SOL    HW137688   0.706   3.268   1.540 -0.0638 -1.9677  0.7835
 8685SOL    HW237689   0.846   3.218   1.525  2.1782  3.9953 -1.1231
 8686SOL     OW37690   2.085   2.123  15.444  0.0727  0.0726 -0.2068
 8686SOL    HW137691   2.042   2.039  15.460 -1.1780  0.9192  0.9255
 8686SOL    HW237692   2.177   2.099  15.434  0.3843  1.2826 -0.2903
 8687SOL     OW37693   3.307   4.038   4.307 -0.3547  0.0286 -0.3385
 8687SOL    HW137694   3.327   3.948   4.335  1.3103  0.2424 -0.8247
 8687SOL    HW237695   3.260   4.023   4.225 -2.0501  3.0341  0.0891
 8688SOL     OW37696   1.348   0.010   3.353 -0.5428 -0.4566  0.0403
 8688SOL    HW137697   1.320   0.101   3.344  1.6963  0.3300  1.0608
 8688SOL    HW237698   1.287   4.721   3.423 -0.2929 -0.2179  0.3446
 8689SOL     OW37699   3.194   2.949   3.793 -0.1814 -0.0798 -0.0704
 8689SOL    HW137700   3.202   2.870   3.846  3.3494  1.1458  1.1782
 8689SOL    HW237701   3.224   2.929   3.704  0.3666  0.4660 -0.0057
 8690SOL     OW37702   1.204   2.523   8.331  0.2435 -0.4628 -0.0620
 8690SOL    HW137703   1.129   2.531   8.390 -0.2740  2.5986 -1.1029
 8690SOL    HW237704   1.273   2.565   8.384 -0.1086 -1.2234  0.9958
 8691SOL     OW37705   1.956   4.105   6.747  0.0938 -0.2294 -0.7742
 8691SOL    HW137706   1.958   4.128   6.840  0.5038 -2.2376 -0.2904
 8691SOL    HW237707   2.033   4.048   6.750 -0.8786 -1.4559  1.0430
 8692SOL     OW37708   2.544   2.278   2.903 -0.3036  0.2454  0.5952
 8692SOL    HW137709   2.626   2.247   2.941  0.3419  0.1833 -0.8740
 8692SOL    HW237710   2.566   2.371   2.899  0.6640 -0.0248 -0.1885
 8693SOL     OW37711   2.227   4.249  12.744 -0.0716  0.6986 -0.6974
 8693SOL    HW137712   2.200   4.173  12.795  0.6478  0.7881 -0.1793
 8693SOL    HW237713   2.302   4.277  12.797 -2.1036 -1.5859  3.3730
 8694SOL     OW37714   2.706   4.290   5.765  0.3294  0.0426  0.0956
 8694SOL    HW137715   2.704   4.232   5.841  1.3547  0.6979  0.6227
 8694SOL    HW237716   2.792   4.272   5.727 -0.3642 -0.4376 -1.2684
 8695SOL     OW37717   3.246   3.351   9.372 -0.6076 -0.0961 -0.1096
 8695SOL    HW137718   3.154   3.329   9.385 -0.7653  1.4224  1.3676
 8695SOL    HW237719   3.281   3.296   9.442  1.0381  2.6223  1.1949
 8696SOL     OW37720   4.551   4.134   2.268  0.3531 -0.1531 -0.0024
 8696SOL    HW137721   4.646   4.136   2.279  0.3413  0.3730  0.0271
 8696SOL    HW237722   4.537   4.168   2.180 -4.6544  1.6337  1.4949
 8697SOL     OW37723   3.812   4.722   9.061  0.5085 -0.2833  0.3241
 8697SOL    HW137724   3.858   4.655   9.010 -0.2608 -0.5792  0.0136
 8697SOL    HW237725   3.757   4.661   9.111 -2.8444  0.7784 -2.0581
 8698SOL     OW37726   2.398   3.280   4.698 -0.1481 -0.2207  0.1481
 8698SOL    HW137727   2.383   3.332   4.777 -0.9162 -0.5242  0.1999
 8698SOL    HW237728   2.311   3.246   4.677  0.6617 -1.0952 -1.7365
 8699SOL     OW37729   1.855   2.412   1.256  0.2746 -0.0951  0.3065
 8699SOL    HW137730   1.789   2.399   1.188 -1.1397  3.0462  1.1090
 8699SOL    HW237731   1.876   2.502   1.231  2.5988 -1.0372 -1.1875
 8700SOL     OW37732   0.300   1.557   9.276 -0.2375  0.1829  0.1342
 8700SOL    HW137733   0.389   1.524   9.286 -0.5470 -1.1604 -1.6137
 8700SOL    HW237734   0.252   1.494   9.330  0.2704 -1.0258 -0.8418
 8701SOL     OW37735   1.198   1.823   8.115 -0.6957 -0.1434 -0.0910
 8701SOL    HW137736   1.283   1.788   8.090  0.6049  1.6882  1.7773
 8701SOL    HW237737   1.170   1.862   8.032  0.3049  0.2913 -0.2273
 8702SOL     OW37738   1.355   2.899   5.349  0.4707  0.7617 -0.1389
 8702SOL    HW137739   1.392   2.972   5.399  1.5072  0.5004 -0.5210
 8702SOL    HW237740   1.367   2.831   5.416  2.8148  1.7820  0.4826
 8703SOL     OW37741   0.277   1.647   0.758  0.2879  0.2348  0.1899
 8703SOL    HW137742   0.223   1.636   0.680 -0.2434  0.0225  0.5878
 8703SOL    HW237743   0.326   1.566   0.770  1.3882  0.8319 -0.1884
 8704SOL     OW37744   3.104   3.505   1.970 -0.5504 -0.2194 -0.6064
 8704SOL    HW137745   3.066   3.592   1.985 -0.9511 -0.2274 -1.5537
 8704SOL    HW237746   3.162   3.513   2.046  0.6498 -1.6241 -1.3800
 8705SOL     OW37747   2.536   2.164  12.780 -0.5488  0.4774 -0.3368
 8705SOL    HW137748   2.613   2.172  12.836 -1.4494  0.1617  0.9348
 8705SOL    HW237749   2.552   2.236  12.718 -0.6338  1.3142  0.6112
 8706SOL     OW37750   1.271   3.620   6.801 -0.2206  0.2240 -0.0453
 8706SOL    HW137751   1.352   3.664   6.826 -0.0746  0.1953 -0.4659
 8706SOL    HW237752   1.267   3.545   6.860  0.3657  0.0353 -0.2401
 8707SOL     OW37753   3.861   3.416   5.884 -0.4217 -0.1324 -0.1096
 8707SOL    HW137754   3.923   3.379   5.822 -0.9606  0.9785 -1.3063
 8707SOL    HW237755   3.914   3.439   5.961  2.7261  1.2571 -2.6962
 8708SOL     OW37756   1.533   1.297   3.832 -0.1451  0.1274 -0.0828
 8708SOL    HW137757   1.454   1.351   3.830 -1.1006 -1.2677  0.2970
 8708SOL    HW237758   1.489   1.230   3.884  2.3537  1.3144  3.6175
 8709SOL     OW37759   0.351   1.115   7.502 -0.3094  0.2778  0.0528
 8709SOL    HW137760   0.388   1.045   7.448  0.9042 -0.9440  2.5112
 8709SOL    HW237761   0.293   1.152   7.435 -2.4711 -0.8298  1.2972
 8710SOL     OW37762   1.120   4.321   5.060 -0.0937 -0.0849  0.6374
 8710SOL    HW137763   1.051   4.266   5.022  0.4317 -0.4483  0.2088
 8710SOL    HW237764   1.086   4.332   5.148  0.3672 -0.9439  0.9231
 8711SOL     OW37765   2.100   0.594  11.244  0.0840 -0.0533 -0.1708
 8711SOL    HW137766   2.140   0.570  11.161 -1.2501  2.1063 -1.4100
 8711SOL    HW237767   2.184   0.589  11.290 -0.5332  0.3555  1.0134
 8712SOL     OW37768   3.239   4.577   2.154  0.0721 -0.2990 -0.3129
 8712SOL    HW137769   3.199   4.557   2.070 -1.4718 -0.5444  0.4746
 8712SOL    HW237770   3.160   4.601   2.203 -1.9617 -0.1248 -3.6787
 8713SOL     OW37771   3.911   3.558   6.915  0.5227 -0.3445  0.2517
 8713SOL    HW137772   3.841   3.593   6.970  1.7789  0.4286  1.3595
 8713SOL    HW237773   3.931   3.482   6.971  0.2741 -1.7197 -1.5132
 8714SOL     OW37774   0.538   1.143   3.776  0.0055 -0.3938 -1.0228
 8714SOL    HW137775   0.522   1.179   3.863  0.9195 -1.0481 -0.5830
 8714SOL    HW237776   0.472   1.074   3.775 -0.0396 -0.3318 -2.5583
 8715SOL     OW37777   1.089   3.777   3.198  0.4461  0.1501 -0.3159
 8715SOL    HW137778   1.085   3.682   3.183 -0.3150  0.0995  0.2110
 8715SOL    HW237779   0.999   3.796   3.171 -0.2728 -2.9092 -0.1486
 8716SOL     OW37780   3.393   1.162   7.391 -0.1754  0.2636  0.4195
 8716SOL    HW137781   3.470   1.126   7.434 -1.1916 -1.7046  0.6401
 8716SOL    HW237782   3.340   1.082   7.381  0.1086  0.4298 -2.2842
 8717SOL     OW37783   0.815   2.200  13.645  0.5931  0.0903 -0.1443
 8717SOL    HW137784   0.777   2.155  13.721 -2.2838  2.7328 -0.0248
 8717SOL    HW237785   0.890   2.249  13.678 -0.9753  0.7322  2.5290
 8718SOL     OW37786   2.181   2.230   7.451  0.5073 -0.3822 -0.3760
 8718SOL    HW137787   2.160   2.188   7.367  2.1409 -0.9501 -0.5079
 8718SOL    HW237788   2.258   2.278   7.421 -0.0782  1.5395  1.2196
 8719SOL     OW37789   0.113   1.588  15.422 -0.1202  0.5900  0.0199
 8719SOL    HW137790   0.134   1.524  15.354  1.4932 -0.9116  1.9602
 8719SOL    HW237791   0.186   1.650  15.412 -0.1699  0.7040  0.3798
 8720SOL     OW37792   3.884   2.663   1.823  0.3826  0.1491 -0.1330
 8720SOL    HW137793   3.808   2.611   1.797  2.2330 -1.7565 -1.7788
 8720SOL    HW237794   3.917   2.592   1.880 -1.2625  0.7693  1.5808
 8721SOL     OW37795   0.956   3.641   6.923 -0.5723  0.5624 -0.1321
 8721SOL    HW137796   1.039   3.644   6.877 -0.9042  1.5935 -0.6628
 8721SOL    HW237797   0.997   3.624   7.008 -1.4319  2.0112  0.5717
 8722SOL     OW37798   1.241   0.945  16.809  0.3462 -0.0428 -0.1679
 8722SOL    HW137799   1.177   0.991  16.755  1.9326  3.0194  0.5340
 8722SOL    HW237800   1.310   1.011  16.823 -1.3274  1.0853  2.7959
 8723SOL     OW37801   4.181   0.808  16.864  0.0479 -0.1803  0.2064
 8723SOL    HW137802   4.220   0.872  16.924  0.7281 -1.2537  0.9123
 8723SOL    HW237803   4.134   0.746  16.920  0.9816  0.0835  1.2870
 8724SOL     OW37804   2.288   0.288   3.071 -0.4242 -0.6133  0.3252
 8724SOL    HW137805   2.362   0.236   3.103 -0.2433 -1.8258 -2.0651
 8724SOL    HW237806   2.226   0.273   3.143  0.6116  0.2375  1.4076
 8725SOL     OW37807   0.609   1.943   7.007 -0.3406 -0.1995  0.4347
 8725SOL    HW137808   0.592   1.959   7.100  0.3962  1.1758  0.3223
 8725SOL    HW237809   0.524   1.905   6.985  0.1875 -0.5929 -0.9102
 8726SOL     OW37810   0.060   3.362   4.764 -0.0200 -0.6528  0.4735
 8726SOL    HW137811   4.733   3.420   4.722 -0.8062 -2.3130 -0.6278
 8726SOL    HW237812   0.025   3.276   4.743 -0.2026 -0.3924 -0.2819
 8727SOL     OW37813   4.670   3.631  15.001 -0.1249 -0.1639 -0.6010
 8727SOL    HW137814   4.629   3.709  14.963 -1.1124  0.3450  1.5070
 8727SOL    HW237815   4.632   3.563  14.945 -1.5083  0.8010 -0.8431
 8728SOL     OW37816   0.435   3.275   4.740  0.0858 -0.3521  0.1980
 8728SOL    HW137817   0.500   3.218   4.781  0.4200 -0.0717  0.0541
 8728SOL    HW237818   0.358   3.256   4.795 -0.9141 -0.3349 -1.1820
 8729SOL     OW37819   0.045   3.501  10.135 -0.0922  0.1564 -0.0324
 8729SOL    HW137820   4.690   3.478  10.121 -0.3748  0.4444  1.3227
 8729SOL    HW237821   0.089   3.419  10.113 -1.1128 -0.9443  2.1367
 8730SOL     OW37822   4.159   3.458  10.847 -0.1377  0.0341  0.0470
 8730SOL    HW137823   4.253   3.450  10.827 -0.1428  0.5783 -0.1938
 8730SOL    HW237824   4.122   3.519  10.783 -0.8122 -1.8161 -1.3334
 8731SOL     OW37825   2.216   2.081   3.370 -0.0229 -0.0239 -0.1828
 8731SOL    HW137826   2.287   2.120   3.319 -1.7164  0.0417 -2.4966
 8731SOL    HW237827   2.145   2.075   3.306  0.7103 -0.8844 -0.9066
 8732SOL     OW37828   0.385   4.114  17.659 -0.1429 -0.2123 -0.6243
 8732SOL    HW137829   0.390   4.209  17.652 -1.7004 -0.1181 -0.6224
 8732SOL    HW237830   0.393   4.085  17.568  1.2387  0.3909 -0.6872
 8733SOL     OW37831   1.084   0.960   8.712 -0.6963 -0.1132  0.4594
 8733SOL    HW137832   1.044   1.026   8.768 -1.4748 -1.0131  0.9585
 8733SOL    HW237833   1.118   0.900   8.778  2.3673  1.9982  0.7921
 8734SOL     OW37834   2.911   1.118   7.608  0.0605  0.2947 -0.1059
 8734SOL    HW137835   2.933   1.143   7.518  2.7749  0.8721  0.7326
 8734SOL    HW237836   2.908   1.022   7.604 -1.0292  0.2896  0.8341
 8735SOL     OW37837   0.645   2.464   5.459  0.4916 -0.3259  0.3754
 8735SOL    HW137838   0.681   2.393   5.512 -0.8215 -1.3564 -0.0885
 8735SOL    HW237839   0.730   2.486   5.420 -0.0969  0.2890 -0.5477
 8736SOL     OW37840   2.252   1.773   4.313  0.3021  0.4830  0.6952
 8736SOL    HW137841   2.282   1.721   4.388  1.7504  0.8669  0.3870
 8736SOL    HW237842   2.288   1.860   4.329 -2.0996  1.9287 -1.8203
 8737SOL     OW37843   0.851   0.007   3.865  0.3079 -0.0276  0.8063
 8737SOL    HW137844   0.899   0.042   3.790 -0.1787 -0.3507  0.3429
 8737SOL    HW237845   0.812   0.082   3.910  0.2367  0.1816  0.3900
 8738SOL     OW37846   1.933   0.068   3.356 -0.5689 -0.4049 -0.0533
 8738SOL    HW137847   1.946   0.044   3.447 -2.3133  2.2783  0.8910
 8738SOL    HW237848   1.839   0.079   3.341 -0.5389  0.5277  0.4909
 8739SOL     OW37849   3.497   3.623   3.304  0.3976  0.4067  0.0447
 8739SOL    HW137850   3.533   3.619   3.215  0.7614 -1.3758  0.2776
 8739SOL    HW237851   3.577   3.631   3.356 -0.0380  0.1736  0.7445
 8740SOL     OW37852   3.972   4.088   3.730 -0.3127 -0.7896  0.3424
 8740SOL    HW137853   3.949   4.180   3.719  2.0274  0.1438  2.9950
 8740SOL    HW237854   3.885   4.049   3.729 -0.6186 -0.0421 -0.7772
 8741SOL     OW37855   1.316   1.921   2.289 -0.7919 -0.1613  0.0293
 8741SOL    HW137856   1.222   1.940   2.290 -0.8616 -0.3969 -2.3616
 8741SOL    HW237857   1.324   1.835   2.330 -2.2032 -1.0833 -1.6479
 8742SOL     OW37858   3.786   4.306   3.687  0.0226  0.0927 -0.1146
 8742SOL    HW137859   3.746   4.340   3.607  3.6179  5.4047  0.3758
 8742SOL    HW237860   3.848   4.378   3.696  1.5249 -1.2307  0.1763
 8743SOL     OW37861   1.923   4.609  12.339 -0.3163  0.3510 -0.1099
 8743SOL    HW137862   1.981   4.624  12.265 -1.9419  3.1994 -0.8312
 8743SOL    HW237863   1.974   4.543  12.386  0.3496  0.3567 -0.8299
 8744SOL     OW37864   2.104   4.513   9.902  0.0546 -0.3808  0.3140
 8744SOL    HW137865   2.174   4.484   9.960  0.5172  1.0081  0.4486
 8744SOL    HW237866   2.031   4.528   9.962 -0.2242 -0.5584  0.0220
 8745SOL     OW37867   0.660   4.366  15.082 -0.1834 -0.0665 -0.0522
 8745SOL    HW137868   0.588   4.429  15.072  0.1053  0.3419  0.4703
 8745SOL    HW237869   0.668   4.341  14.990  1.5911  1.4899 -0.3121
 8746SOL     OW37870   0.207   1.123   3.213  0.0167 -0.0119  0.1627
 8746SOL    HW137871   0.287   1.102   3.165 -1.2526 -0.2342 -1.8213
 8746SOL    HW237872   0.239   1.168   3.292 -0.3942  1.3800 -0.4688
 8747SOL     OW37873   1.615   0.636   2.795  0.0705 -0.1645  0.1206
 8747SOL    HW137874   1.688   0.646   2.734  0.0291 -1.3479 -0.1283
 8747SOL    HW237875   1.549   0.605   2.732 -2.4057  1.1721  2.0321
 8748SOL     OW37876   1.922   0.640  11.433  0.0884  0.0980 -0.0407
 8748SOL    HW137877   1.972   0.578  11.487  0.0677 -0.1555 -0.3173
 8748SOL    HW237878   1.986   0.637  11.362 -1.0896 -1.6794 -1.0034
 8749SOL     OW37879   3.985   1.649   3.416 -1.0242  0.4409 -0.3036
 8749SOL    HW137880   3.984   1.722   3.355 -0.2764 -0.0499 -0.8978
 8749SOL    HW237881   3.945   1.586   3.356 -1.4405 -1.4860  1.9978
 8750SOL     OW37882   0.796   3.940  10.467 -0.0780  0.0115 -0.5327
 8750SOL    HW137883   0.842   3.858  10.449  0.4041 -0.1571  1.5157
 8750SOL    HW237884   0.795   3.989  10.385 -1.8502  2.4837  0.9850
 8751SOL     OW37885   2.383   1.554   2.147 -0.2686  0.1962 -0.0547
 8751SOL    HW137886   2.470   1.525   2.175 -1.0658 -1.2144  0.9178
 8751SOL    HW237887   2.418   1.638   2.115 -0.8972  0.9767  1.2985
 8752SOL     OW37888   1.105   0.468   0.973 -0.1394  0.3571 -0.0252
 8752SOL    HW137889   1.112   0.373   0.981  2.4502  0.4347 -1.2465
 8752SOL    HW237890   1.014   0.475   1.000 -0.2798 -1.3298 -0.0744
 8753SOL     OW37891   3.351   3.992   0.066 -0.5527 -0.2671 -0.0914
 8753SOL    HW137892   3.381   4.038  17.732 -0.7095  0.1479  0.0961
 8753SOL    HW237893   3.420   4.016   0.128  1.3322 -0.7798 -1.9691
 8754SOL     OW37894   4.323   2.333   2.179 -0.2687  0.2426 -0.5934
 8754SOL    HW137895   4.313   2.298   2.091  1.2779 -2.5897  0.3561
 8754SOL    HW237896   4.239   2.370   2.206  0.3895  2.8198 -2.1152
 8755SOL     OW37897   4.733   1.866   9.868  0.2122  0.2106 -0.6094
 8755SOL    HW137898   4.731   1.940   9.928  0.3684 -0.0124 -0.3289
 8755SOL    HW237899   4.650   1.821   9.882 -0.4670  1.6026 -0.1879
 8756SOL     OW37900   4.327   3.905   9.013 -0.3064  0.1561  0.5222
 8756SOL    HW137901   4.277   3.909   9.094  0.7228  0.3588  1.1465
 8756SOL    HW237902   4.394   3.843   9.042  0.1935  0.6268  0.3685
 8757SOL     OW37903   3.944   1.904  17.147  0.3103  0.1684 -0.5642
 8757SOL    HW137904   3.866   1.958  17.137  0.4521  1.1125  3.5700
 8757SOL    HW237905   3.968   1.928  17.237 -0.0396  2.2433 -1.0298
 8758SOL     OW37906   1.410   0.645   8.067 -0.2616  0.0638 -0.1897
 8758SOL    HW137907   1.416   0.703   7.991  1.9807  1.2513  0.8980
 8758SOL    HW237908   1.488   0.670   8.117 -1.4393  0.6537  1.3598
 8759SOL     OW37909   2.696   4.320  10.415 -0.3016  0.3357 -0.2622
 8759SOL    HW137910   2.762   4.331  10.484  1.9313 -2.6944 -1.8903
 8759SOL    HW237911   2.630   4.272  10.465  0.5836  0.1568  0.7294
 8760SOL     OW37912   1.832   4.478   7.669  0.3910  0.3526  0.4443
 8760SOL    HW137913   1.794   4.561   7.639  0.6245 -0.2694 -1.5483
 8760SOL    HW237914   1.783   4.470   7.751 -0.3353 -1.8922 -0.2216
 8761SOL     OW37915   1.790   0.945   3.321 -0.3479  0.1917  0.1704
 8761SOL    HW137916   1.806   1.014   3.387 -2.3303  1.2441 -0.4610
 8761SOL    HW237917   1.833   0.978   3.242  0.1405  0.4357  0.5318
 8762SOL     OW37918   1.718   2.726   9.192 -0.2670  0.0319  0.0299
 8762SOL    HW137919   1.695   2.634   9.179  2.4769 -0.8853  1.5822
 8762SOL    HW237920   1.762   2.743   9.109 -0.7983  1.4573  0.0447
 8763SOL     OW37921   2.962   2.947   4.647 -0.2973 -0.0693 -0.4816
 8763SOL    HW137922   3.052   2.967   4.673 -0.9986  0.7538  1.3013
 8763SOL    HW237923   2.974   2.879   4.582 -0.6397 -0.7306  0.1507
 8764SOL     OW37924   0.115   1.920   1.991  0.2976 -1.0870  0.2508
 8764SOL    HW137925   0.091   1.863   1.918  2.0550 -1.6397  0.1090
 8764SOL    HW237926   0.174   1.981   1.945  0.5054 -0.5355  1.2612
 8765SOL     OW37927   3.571   4.524   5.091  0.7582  0.0249 -0.2765
 8765SOL    HW137928   3.633   4.577   5.041 -1.0389  2.8990  0.5581
 8765SOL    HW237929   3.598   4.434   5.071  0.5606  0.2676 -1.6431
 8766SOL     OW37930   1.987   1.062   9.219  0.9545 -0.2330 -0.3862
 8766SOL    HW137931   1.962   1.118   9.292  1.4358 -0.4342 -0.0634
 8766SOL    HW237932   1.941   0.982   9.244  1.3110  0.2536  1.8281
 8767SOL     OW37933   2.841   0.112   2.824 -0.0592  0.1766  0.7196
 8767SOL    HW137934   2.880   0.029   2.851  1.3954  0.0627 -1.6640
 8767SOL    HW237935   2.751   0.082   2.812 -0.8164  1.3851  3.5708
 8768SOL     OW37936   1.432   2.311   3.123 -0.4256  0.1865 -0.4613
 8768SOL    HW137937   1.342   2.343   3.135  0.2770  1.1996  1.9555
 8768SOL    HW237938   1.475   2.388   3.087  0.8180  0.9591  2.7232
 8769SOL     OW37939   3.796   4.608   8.440 -0.2557  0.5188  0.4606
 8769SOL    HW137940   3.807   4.576   8.530 -2.5532  0.5021  0.7408
 8769SOL    HW237941   3.856   4.682   8.433 -0.9110  1.0984  1.0142
 8770SOL     OW37942   1.357   0.327   2.591 -0.4961  0.1342  0.3693
 8770SOL    HW137943   1.387   0.414   2.566 -2.5351 -0.4660 -4.2248
 8770SOL    HW237944   1.286   0.349   2.651 -1.6181 -0.7108 -0.6486
 8771SOL     OW37945   1.612   0.249   6.666 -0.3904 -0.1360  0.0175
 8771SOL    HW137946   1.545   0.312   6.691  0.2350  0.8143 -0.7427
 8771SOL    HW237947   1.651   0.284   6.586  2.7043 -0.2578  1.4673
 8772SOL     OW37948   1.483   2.916   9.504  0.2830  0.0236  0.5448
 8772SOL    HW137949   1.423   2.843   9.497 -0.5129  0.6998  0.2563
 8772SOL    HW237950   1.426   2.988   9.531 -0.1593  0.0864 -0.5495
 8773SOL     OW37951   4.450   4.016   7.064  0.4301 -0.2829 -0.1601
 8773SOL    HW137952   4.415   4.017   6.975  0.6752  0.0510 -0.2524
 8773SOL    HW237953   4.367   4.018   7.112  0.2111 -1.3679 -0.4943
 8774SOL     OW37954   2.899   1.788  10.807 -0.2478  0.6918 -0.1592
 8774SOL    HW137955   2.817   1.746  10.782  1.1638 -2.2717  0.1124
 8774SOL    HW237956   2.908   1.753  10.896 -0.4992 -2.9816 -1.5600
 8775SOL     OW37957   0.469   2.486   3.009 -0.4873 -0.6672  0.4070
 8775SOL    HW137958   0.434   2.401   2.982 -2.8178  0.6875 -0.8400
 8775SOL    HW237959   0.514   2.509   2.928  1.4877 -1.4644  1.2767
 8776SOL     OW37960   1.495   2.932   6.123 -0.1996 -0.4376  0.2057
 8776SOL    HW137961   1.547   3.011   6.109 -0.3767 -0.1293  1.3003
 8776SOL    HW237962   1.495   2.940   6.218 -2.5283 -0.1137  0.1822
 8777SOL     OW37963   1.135   0.199   4.397  0.2031 -0.4227 -1.3693
 8777SOL    HW137964   1.147   0.269   4.333 -1.1033  0.2832 -0.8258
 8777SOL    HW237965   1.215   0.212   4.448 -0.7691 -0.8568  0.2892
 8778SOL     OW37966   1.230   0.601   8.257 -0.4458  0.1611  0.0176
 8778SOL    HW137967   1.296   0.568   8.317  0.7610  1.5419 -0.5374
 8778SOL    HW237968   1.287   0.606   8.180  1.2472 -2.2653  1.1238
 8779SOL     OW37969   1.735   0.875   5.994  0.2705 -0.1803  0.1567
 8779SOL    HW137970   1.669   0.907   6.056 -1.7216 -2.3407 -0.8607
 8779SOL    HW237971   1.676   0.829   5.934  1.1021  0.1034 -0.8833
 8780SOL     OW37972   2.782   1.160  15.361  0.6872 -0.3011  0.0683
 8780SOL    HW137973   2.862   1.142  15.411  0.2424 -0.9555  0.5404
 8780SOL    HW237974   2.724   1.189  15.431  1.1040  3.3012 -1.1064
 8781SOL     OW37975   1.172   0.747   5.711  1.2366  0.4965  0.0607
 8781SOL    HW137976   1.254   0.760   5.663  0.6174  2.5806 -0.4031
 8781SOL    HW237977   1.144   0.660   5.680 -1.6112  1.3415  0.2420
 8782SOL     OW37978   1.906   4.042   7.588 -0.4646 -0.6601 -0.0113
 8782SOL    HW137979   1.952   3.968   7.630  1.9172 -0.5040 -2.3597
 8782SOL    HW237980   1.910   4.102   7.662 -1.9228  0.1832 -0.6262
 8783SOL     OW37981   2.564   0.333  15.514  0.5749 -0.1255  0.5767
 8783SOL    HW137982   2.508   0.393  15.465  0.4772  0.9456  1.9963
 8783SOL    HW237983   2.565   0.255  15.459 -0.0004 -0.7194  1.3960
 8784SOL     OW37984   0.532   0.932  15.360 -0.6128 -0.6697 -0.0885
 8784SOL    HW137985   0.607   0.872  15.357 -0.0795 -0.1106  1.6720
 8784SOL    HW237986   0.571   1.020  15.352 -0.9932 -0.4771  0.1893
 8785SOL     OW37987   2.188   3.381  17.172  0.0360 -0.2668 -0.7229
 8785SOL    HW137988   2.111   3.332  17.200 -1.0963  2.2364  0.5651
 8785SOL    HW237989   2.140   3.449  17.124  1.2391  1.8314  1.0524
 8786SOL     OW37990   3.222   2.156   3.354 -0.2743 -0.2323 -0.0990
 8786SOL    HW137991   3.250   2.102   3.428 -0.2931 -1.0379 -0.6782
 8786SOL    HW237992   3.141   2.114   3.325 -0.8159  1.0352 -0.4104
 8787SOL     OW37993   2.684   0.695   3.417  0.4381  0.1401 -0.0469
 8787SOL    HW137994   2.745   0.746   3.472 -0.0483 -1.4332  1.9543
 8787SOL    HW237995   2.653   0.639   3.488 -0.0826  1.3978  0.7208
 8788SOL     OW37996   3.556   0.347   8.187  0.0018 -0.5858  0.2031
 8788SOL    HW137997   3.532   0.288   8.116 -2.3399  0.4620  0.0914
 8788SOL    HW237998   3.613   0.291   8.240  3.2816  2.1695 -0.4403
 8789SOL     OW37999   3.575   4.132  14.344 -0.0968 -0.2745  0.0885
 8789SOL    HW138000   3.582   4.213  14.293 -0.5167  1.0211  2.0858
 8789SOL    HW238001   3.598   4.173  14.428 -0.1478 -0.0487 -0.0065
 8790SOL     OW38002   3.579   4.350   2.492  0.0284 -0.4590 -0.1822
 8790SOL    HW138003   3.610   4.431   2.533 -0.3140  0.3819 -1.5662
 8790SOL    HW238004   3.651   4.289   2.505 -0.6464 -1.6262 -1.8321
 8791SOL     OW38005   2.340   3.990   5.410 -0.0627 -0.8034  0.4493
 8791SOL    HW138006   2.340   4.049   5.486  0.9389  0.2624 -0.3717
 8791SOL    HW238007   2.310   3.913   5.458 -2.0263 -0.2521  0.0966
 8792SOL     OW38008   1.572   0.817   4.844 -0.4058 -0.6782 -0.2596
 8792SOL    HW138009   1.581   0.858   4.930 -1.9754  0.5362 -0.6628
 8792SOL    HW238010   1.535   0.735   4.875 -1.1864 -0.1488  0.2106
 8793SOL     OW38011   2.023   1.575   5.367  0.3025  0.1719  0.6875
 8793SOL    HW138012   1.988   1.587   5.279  0.7898  1.4566  0.6732
 8793SOL    HW238013   1.971   1.642   5.411  0.3834  1.5525 -1.3463
 8794SOL     OW38014   3.793   1.755  12.878 -0.2275 -0.2962 -0.0971
 8794SOL    HW138015   3.874   1.719  12.842 -0.6434 -0.4460 -0.8912
 8794SOL    HW238016   3.830   1.822  12.934 -0.9774  0.8760 -1.0021
 8795SOL     OW38017   2.075   0.250   0.352 -0.2375 -0.0917  0.2613
 8795SOL    HW138018   2.038   0.169   0.388  0.1588  0.6262  2.2875
 8795SOL    HW238019   2.015   0.315   0.387 -0.2771 -0.1221  0.2489
 8796SOL     OW38020   4.048   3.050  10.821  0.4617  0.5913 -0.3749
 8796SOL    HW138021   4.032   3.129  10.769  0.5532  0.0952 -1.1559
 8796SOL    HW238022   4.121   3.069  10.880  2.7862 -3.9498 -1.8202
 8797SOL     OW38023   4.211   3.397   6.501  0.2280  0.0768 -0.4459
 8797SOL    HW138024   4.281   3.446   6.457 -0.1555 -0.0470 -1.2017
 8797SOL    HW238025   4.200   3.430   6.590  2.2918  1.9905 -0.9099
 8798SOL     OW38026   2.116   4.408  14.487 -0.4847  1.0202  0.4517
 8798SOL    HW138027   2.137   4.452  14.405 -0.8758 -1.5711 -1.0365
 8798SOL    HW238028   2.022   4.407  14.470 -0.1697 -3.4201 -1.0212
 8799SOL     OW38029   2.817   1.290   4.550  0.4834 -0.3653 -0.1434
 8799SOL    HW138030   2.853   1.328   4.630  2.1002  0.7643 -1.3869
 8799SOL    HW238031   2.874   1.336   4.488  0.0655 -1.4104 -1.3149
 8800SOL     OW38032   0.042   3.021   2.852  0.2607  0.3439  0.2853
 8800SOL    HW138033   0.104   2.969   2.800 -0.7597 -1.1724  0.5866
 8800SOL    HW238034   4.702   3.024   2.796 -0.2459  0.2906  0.9711
 8801SOL     OW38035   1.708   1.802  17.122 -0.1077 -0.0412  0.3784
 8801SOL    HW138036   1.678   1.855  17.048 -0.6885 -2.4011 -1.0629
 8801SOL    HW238037   1.803   1.804  17.120 -0.2067  3.0422 -2.0025
 8802SOL     OW38038   0.818   2.836   4.244 -0.0654  0.5493  0.2375
 8802SOL    HW138039   0.775   2.894   4.181 -0.2424 -0.9725 -1.0357
 8802SOL    HW238040   0.763   2.758   4.240  1.9213 -0.7854 -0.8887
 8803SOL     OW38041   2.069   0.757   4.937 -0.3151 -0.0646  0.2565
 8803SOL    HW138042   2.003   0.782   5.003  0.2565  0.4875  0.6194
 8803SOL    HW238043   2.139   0.730   4.997 -0.2535  0.0493  0.2364
 8804SOL     OW38044   4.694   2.932   7.426 -0.1228  0.4294 -0.3443
 8804SOL    HW138045   4.615   2.961   7.472 -1.0493  1.3582 -2.5542
 8804SOL    HW238046   4.716   3.008   7.373 -0.4507  1.5876  1.1761
 8805SOL     OW38047   4.720   3.779  13.313 -0.1563  0.5764  0.6755
 8805SOL    HW138048   0.038   3.831  13.254  1.0928  0.3464  1.6212
 8805SOL    HW238049   0.035   3.787  13.393  1.1581 -0.6371 -0.0560
 8806SOL     OW38050   1.617   2.050   1.227 -0.1022  0.0922 -0.3337
 8806SOL    HW138051   1.653   2.121   1.174 -1.0869  1.0853  0.3227
 8806SOL    HW238052   1.693   2.009   1.269 -0.5540 -0.1947  0.2077
 8807SOL     OW38053   1.877   0.775   1.571 -0.0167  0.4122 -0.7450
 8807SOL    HW138054   1.918   0.780   1.657 -0.9608  2.5159 -0.4037
 8807SOL    HW238055   1.838   0.861   1.552 -0.4181  0.7531  1.6132
 8808SOL     OW38056   3.127   4.144  17.543  0.1590  0.0853 -0.0597
 8808SOL    HW138057   3.123   4.051  17.521  1.0728  0.2667 -1.0167
 8808SOL    HW238058   3.062   4.164  17.476  0.8052  0.5838 -0.5394
 8809SOL     OW38059   3.106   1.314   7.166  0.7190  0.3718  0.1573
 8809SOL    HW138060   3.198   1.289   7.158  0.9283  1.1098  0.3121
 8809SOL    HW238061   3.073   1.308   7.076  2.0606 -2.4266 -0.1596
 8810SOL     OW38062   0.142   1.208   7.944  0.3199 -0.2210  0.3803
 8810SOL    HW138063   0.093   1.278   7.902  0.2126 -0.3428  0.3031
 8810SOL    HW238064   0.087   1.183   8.018 -1.9758  0.8114 -0.9842
 8811SOL     OW38065   0.892   3.718  11.993 -0.4217  0.3512 -0.9180
 8811SOL    HW138066   0.913   3.651  11.928  0.9971 -1.5817  1.5490
 8811SOL    HW238067   0.886   3.677  12.079 -0.7609  0.6222 -0.8114
 8812SOL     OW38068   4.259   2.998   4.673  0.4078  0.1967 -0.1810
 8812SOL    HW138069   4.193   2.985   4.741 -0.7360  0.8730 -1.1582
 8812SOL    HW238070   4.233   3.075   4.622  0.6169  1.0406  0.9751
 8813SOL     OW38071   2.032   4.571   4.336  0.0441  0.1582  0.0949
 8813SOL    HW138072   2.117   4.611   4.355  0.5168 -0.4284 -0.7424
 8813SOL    HW238073   2.056   4.478   4.340  2.1291  0.6469 -0.7461
 8814SOL     OW38074   1.746   3.415   9.834  0.5106 -0.4845  0.2659
 8814SOL    HW138075   1.660   3.403   9.793 -0.3666  1.0102  1.6669
 8814SOL    HW238076   1.756   3.510   9.843 -0.9664 -0.4418  1.4228
 8815SOL     OW38077   2.562   2.131   5.119  0.5085 -0.3192 -0.3285
 8815SOL    HW138078   2.567   2.226   5.125  1.3475 -0.3910  0.1268
 8815SOL    HW238079   2.545   2.105   5.210  1.3650 -0.9566 -0.3430
 8816SOL     OW38080   2.425   0.363  15.995  0.7015 -0.3970  0.4650
 8816SOL    HW138081   2.435   0.354  16.089 -0.4767  1.4650  0.7783
 8816SOL    HW238082   2.483   0.296  15.959 -1.4121 -1.8219 -0.3065
 8817SOL     OW38083   3.057   0.245  14.405 -0.1243  0.1120 -0.2535
 8817SOL    HW138084   3.053   0.164  14.455 -0.3461  0.8808  0.9695
 8817SOL    HW238085   2.967   0.275  14.413  0.3585  1.9189 -1.4875
 8818SOL     OW38086   1.956   3.302   2.380  0.1967  0.0892 -0.5204
 8818SOL    HW138087   1.928   3.218   2.417  0.5199  0.3816  0.3818
 8818SOL    HW238088   1.911   3.291   2.296  0.6876 -1.1656 -0.6229
 8819SOL     OW38089   2.712   3.520   6.244  0.2130  0.1112 -0.7469
 8819SOL    HW138090   2.720   3.615   6.257 -1.1473  0.1146  0.0075
 8819SOL    HW238091   2.793   3.480   6.275  0.1919 -1.5426 -2.8457
 8820SOL     OW38092   4.538   3.672  11.820  0.1342  0.2465 -0.0198
 8820SOL    HW138093   4.629   3.643  11.820 -0.3022 -1.1495 -2.3612
 8820SOL    HW238094   4.536   3.702  11.911 -0.8989 -0.0462  0.0472
 8821SOL     OW38095   1.435   0.356   2.032 -0.4499 -0.3449  0.5419
 8821SOL    HW138096   1.530   0.351   2.040 -0.5732 -1.3362  1.6030
 8821SOL    HW238097   1.418   0.450   2.025  2.4993  0.3270  2.7412
 8822SOL     OW38098   1.874   1.803   4.106 -0.3366 -0.0155  0.0025
 8822SOL    HW138099   1.949   1.755   4.142 -0.5438 -0.4450 -0.1424
 8822SOL    HW238100   1.926   1.872   4.065 -0.4290  1.2272  1.9870
 8823SOL     OW38101   0.340   2.208   4.085  0.0071  0.0306 -0.2129
 8823SOL    HW138102   0.319   2.125   4.041 -0.1854  1.1269 -2.2057
 8823SOL    HW238103   0.270   2.263   4.051 -1.5979 -2.5421 -1.0769
 8824SOL     OW38104   1.757   4.586   3.569  0.1757  0.8238  0.3479
 8824SOL    HW138105   1.736   4.649   3.500 -0.9333  0.2181  0.1276
 8824SOL    HW238106   1.757   4.633   3.652  0.5158 -0.0951  0.8704
 8825SOL     OW38107   4.399   2.102   1.254 -0.2634 -0.0727 -0.1996
 8825SOL    HW138108   4.344   2.024   1.243  0.3612 -0.5180 -0.1403
 8825SOL    HW238109   4.351   2.162   1.197 -0.8601 -0.3156  0.0508
 8826SOL     OW38110   2.833   2.284   5.186  0.1639 -0.5592  0.5091
 8826SOL    HW138111   2.745   2.321   5.182  0.1918 -0.7535 -1.5462
 8826SOL    HW238112   2.891   2.357   5.207  0.8602 -0.4933 -1.6953
 8827SOL     OW38113   0.080   3.572   5.793 -0.4921 -0.4076 -0.0654
 8827SOL    HW138114   0.065   3.548   5.702  2.8009  2.1846 -1.2656
 8827SOL    HW238115   0.129   3.493   5.815  0.3292 -0.1256 -0.8945
 8828SOL     OW38116   0.793   1.951   5.690 -0.4835 -0.0626  0.7487
 8828SOL    HW138117   0.839   1.913   5.615  0.3606  1.5426  0.4515
 8828SOL    HW238118   0.827   1.885   5.751  0.5300 -0.0221  0.2258
 8829SOL     OW38119   4.186   0.775   7.750  0.3350  0.0377 -0.5253
 8829SOL    HW138120   4.245   0.843   7.719  0.1678 -1.1792 -3.4709
 8829SOL    HW238121   4.101   0.809   7.723 -1.4331 -1.9297  2.4537
 8830SOL     OW38122   4.534   3.482  15.249  0.1558 -0.1321  0.0429
 8830SOL    HW138123   4.566   3.560  15.204  0.5057  0.2137  0.8919
 8830SOL    HW238124   4.447   3.478  15.209  0.0941 -1.8132  0.3515
 8831SOL     OW38125   3.014   2.120  16.686 -0.1080 -0.2235  0.2059
 8831SOL    HW138126   3.047   2.032  16.702 -1.9080 -1.0439 -0.5243
 8831SOL    HW238127   3.075   2.157  16.623  1.2125 -2.6344  0.0938
 8832SOL     OW38128   3.143   1.717   4.102  0.1255 -0.2502 -0.3402
 8832SOL    HW138129   3.067   1.769   4.130  2.2909  1.9844  1.3889
 8832SOL    HW238130   3.185   1.704   4.187 -0.2939 -1.7090 -0.3582
 8833SOL     OW38131   2.207   0.998   8.466 -0.2981 -0.5757 -0.0603
 8833SOL    HW138132   2.210   1.043   8.551 -2.5082  2.2042 -1.4461
 8833SOL    HW238133   2.122   1.024   8.431  0.6528 -0.8500 -2.5355
 8834SOL     OW38134   4.244   3.969  16.851 -0.0262 -0.2085 -0.4656
 8834SOL    HW138135   4.317   3.981  16.911 -0.2786  0.8192 -0.3529
 8834SOL    HW238136   4.173   3.990  16.912 -2.5383  1.0748 -3.7962
 8835SOL     OW38137   0.544   3.640   0.929  0.4106  0.4690  0.1558
 8835SOL    HW138138   0.457   3.600   0.922  0.7940  0.0493 -2.1087
 8835SOL    HW238139   0.528   3.721   0.881  2.6886  1.3843  0.9844
 8836SOL     OW38140   4.262   2.159   5.979  0.4031  0.3872 -0.1754
 8836SOL    HW138141   4.272   2.066   5.959  0.1208  0.3690 -0.2372
 8836SOL    HW238142   4.320   2.162   6.055  0.2297  1.6276 -0.0824
 8837SOL     OW38143   1.897   4.520   5.338  0.1040 -0.6973 -0.7790
 8837SOL    HW138144   1.989   4.534   5.362 -0.1030 -0.5206 -0.1133
 8837SOL    HW238145   1.914   4.465   5.261  0.2891 -1.6023 -0.0947
 8838SOL     OW38146   0.069   1.959   4.496  0.3297 -0.2191  0.3733
 8838SOL    HW138147   0.149   1.990   4.454 -0.3140 -0.8156 -1.2688
 8838SOL    HW238148   0.016   1.937   4.419  0.2079 -1.5425  0.8372
 8839SOL     OW38149   0.762   1.495   5.196 -0.3014  0.2763 -0.5906
 8839SOL    HW138150   0.770   1.401   5.205  0.3746  0.2592 -1.2878
 8839SOL    HW238151   0.834   1.528   5.251 -1.5991 -2.1850  2.5353
 8840SOL     OW38152   3.296   4.678  17.013 -0.5559  0.2939 -0.1513
 8840SOL    HW138153   3.339   4.692  16.929 -3.2087  3.1488 -1.0173
 8840SOL    HW238154   3.374   4.671  17.069 -1.1113 -2.0847  0.3129
 8841SOL     OW38155   4.455   1.556   5.580  0.0852  0.2175  0.4748
 8841SOL    HW138156   4.454   1.480   5.523 -0.1244  1.0270 -0.6064
 8841SOL    HW238157   4.390   1.523   5.642  0.4401  1.7661  1.6840
 8842SOL     OW38158   3.133   1.903   8.879 -0.0400  0.1658 -0.2632
 8842SOL    HW138159   3.107   1.900   8.971  0.4342 -2.6990 -0.2055
 8842SOL    HW238160   3.114   1.813   8.853 -2.0137  0.3959  0.4249
 8843SOL     OW38161   1.087   0.865   8.241  0.0617 -0.2134  0.0138
 8843SOL    HW138162   1.150   0.897   8.176  0.7253 -0.1457  0.6953
 8843SOL    HW238163   1.108   0.771   8.241 -1.5512 -0.5614  1.2061
 8844SOL     OW38164   3.486   3.068  15.379  0.1025 -0.5451  0.0225
 8844SOL    HW138165   3.426   3.062  15.453  1.4297  0.7059  1.2215
 8844SOL    HW238166   3.571   3.061  15.422  0.0033  0.2426  0.3456
 8845SOL     OW38167   2.850   3.896   8.004  0.3731 -0.5170 -0.5044
 8845SOL    HW138168   2.922   3.894   8.067 -0.0558  1.0470  0.0359
 8845SOL    HW238169   2.878   3.823   7.949  3.2813  0.3345 -0.1512
 8846SOL     OW38170   0.253   2.892   7.987 -0.5051 -0.6959 -0.1758
 8846SOL    HW138171   0.272   2.832   7.915 -0.4287 -2.0322  0.9628
 8846SOL    HW238172   0.162   2.867   8.001  0.3398 -3.4366  0.6024
 8847SOL     OW38173   3.128   0.977   8.018 -0.2435  0.0398  0.2782
 8847SOL    HW138174   3.055   0.968   8.080 -1.4754  1.1596 -0.9963
 8847SOL    HW238175   3.120   1.066   7.983 -3.5714 -1.5085 -2.9526
 8848SOL     OW38176   0.165   1.781   6.099  0.0380 -0.1518  0.2069
 8848SOL    HW138177   0.148   1.687   6.094 -2.4673  0.3803 -1.4773
 8848SOL    HW238178   0.083   1.817   6.135  0.1112 -1.8443  2.0371
 8849SOL     OW38179   1.733   3.739   5.934  0.4099 -0.3920 -0.5556
 8849SOL    HW138180   1.814   3.771   5.974 -0.1611  1.0295 -0.5298
 8849SOL    HW238181   1.664   3.803   5.949  1.2799  0.2744  0.6185
 8850SOL     OW38182   3.783   2.463  15.798 -0.0442 -0.0437 -0.0910
 8850SOL    HW138183   3.712   2.519  15.828 -1.0722 -0.1671 -2.2811
 8850SOL    HW238184   3.778   2.454  15.703  0.9891  0.2039 -0.1731
 8851SOL     OW38185   3.681   1.113   3.101  0.3835  0.0920 -0.5466
 8851SOL    HW138186   3.770   1.112   3.135  0.2589 -2.0727 -0.2925
 8851SOL    HW238187   3.628   1.104   3.180  1.5147  0.2197  0.2254
 8852SOL     OW38188   4.593   2.501   8.855 -0.1261  0.5389  0.2267
 8852SOL    HW138189   4.546   2.584   8.841  0.5405  0.6138 -1.5764
 8852SOL    HW238190   4.658   2.505   8.784  0.7380 -0.1487  0.9865
 8853SOL     OW38191   1.459   0.350  15.452 -0.3341 -0.0795  0.1164
 8853SOL    HW138192   1.376   0.346  15.404 -0.6736 -2.7595  0.9593
 8853SOL    HW238193   1.507   0.316  15.376  1.5049  0.2238  1.1415
 8854SOL     OW38194   2.162   1.730  17.240 -0.7864  0.2935 -0.3252
 8854SOL    HW138195   2.195   1.816  17.267  0.9156 -0.6617  0.6501
 8854SOL    HW238196   2.245   1.684  17.249 -0.3386  0.7389 -2.1367
 8855SOL     OW38197   4.441   4.711   3.101 -0.2987  0.1772  0.2533
 8855SOL    HW138198   4.358   0.000   3.062  0.4621 -0.7206 -1.9560
 8855SOL    HW238199   4.504   0.036   3.064  1.4611 -0.9942  1.3123
 8856SOL     OW38200   3.257   2.035  16.903 -0.0768 -0.1524 -0.3686
 8856SOL    HW138201   3.241   1.945  16.930 -1.3118  0.3268  0.5513
 8856SOL    HW238202   3.185   2.081  16.948  0.5517  0.2888  0.1970
 8857SOL     OW38203   4.096   2.061   0.145  0.4033  0.5496  0.0660
 8857SOL    HW138204   4.185   2.029   0.130  0.6311  0.8887  0.6913
 8857SOL    HW238205   4.069   2.010   0.222  0.6821 -0.2085 -0.3341
 8858SOL     OW38206   0.530   1.444   6.173  0.1851  0.2206  0.2257
 8858SOL    HW138207   0.556   1.472   6.261 -0.3248  0.6097  0.2531
 8858SOL    HW238208   0.522   1.349   6.178  2.1720 -0.0889 -2.7281
 8859SOL     OW38209   3.228   1.670   9.114 -0.3814  0.3317 -0.7671
 8859SOL    HW138210   3.268   1.681   9.028 -1.9678  0.4197 -1.4858
 8859SOL    HW238211   3.205   1.761   9.132  1.6452  0.5983  0.5271
 8860SOL     OW38212   0.422   3.950  10.986 -0.0188 -0.0748 -0.1918
 8860SOL    HW138213   0.342   3.910  10.951 -0.3442  2.2552 -2.1180
 8860SOL    HW238214   0.399   4.043  10.987  0.8432  0.1370 -0.1630
 8861SOL     OW38215   1.357   1.368   6.618 -0.7115  0.1316  0.8357
 8861SOL    HW138216   1.376   1.409   6.703  2.3782  1.4143 -0.4774
 8861SOL    HW238217   1.431   1.407   6.570 -0.3296  0.0395  1.3541
 8862SOL     OW38218   3.456   0.076   3.202  0.3096  0.0770  0.7368
 8862SOL    HW138219   3.453   0.018   3.278  0.6120 -1.8893 -0.7449
 8862SOL    HW238220   3.410   0.157   3.226  0.4429 -0.1658  1.8288
 8863SOL     OW38221   0.373   3.750  13.814  0.2967  0.0412 -0.2891
 8863SOL    HW138222   0.448   3.783  13.764  0.8993  1.3984  1.5046
 8863SOL    HW238223   0.329   3.704  13.743 -0.4570 -1.1234  0.9299
 8864SOL     OW38224   1.900   3.027   6.976 -0.3097  0.3507 -0.0268
 8864SOL    HW138225   1.950   3.106   6.998  1.3246 -0.3091 -1.3581
 8864SOL    HW238226   1.965   2.957   6.982  0.3429  0.6533 -3.0632
 8865SOL     OW38227   4.305   2.220  14.517 -0.0816 -0.0986 -0.7180
 8865SOL    HW138228   4.394   2.209  14.484  0.2368 -1.8038  0.7566
 8865SOL    HW238229   4.305   2.183  14.605 -0.2189  0.4434 -0.4897
 8866SOL     OW38230   3.967   3.159   7.348 -0.1891 -0.4955  0.8431
 8866SOL    HW138231   3.994   3.249   7.331  0.7334 -1.0604 -0.5859
 8866SOL    HW238232   3.889   3.147   7.294  1.5910  0.4299 -1.8668
 8867SOL     OW38233   3.459   3.882   8.095  0.5367  0.2561 -0.0736
 8867SOL    HW138234   3.395   3.818   8.064 -1.4834  2.5538 -0.7011
 8867SOL    HW238235   3.484   3.920   8.010 -0.0389  1.4345  0.2746
 8868SOL     OW38236   0.588   2.154   3.037 -0.4488 -0.2224  0.5502
 8868SOL    HW138237   0.658   2.121   2.981  0.0868 -0.9509  1.6443
 8868SOL    HW238238   0.538   2.075   3.060  1.6198 -0.9313  2.6761
 8869SOL     OW38239   1.731   2.695   1.244 -0.0015 -0.3140  0.2804
 8869SOL    HW138240   1.707   2.768   1.302 -0.1404 -1.4110  1.5909
 8869SOL    HW238241   1.658   2.636   1.264 -0.7720  1.0593  1.5547
 8870SOL     OW38242   4.727   2.785   9.446  0.1102  0.1109  0.3365
 8870SOL    HW138243   4.661   2.812   9.510 -1.6869  1.9122 -2.3209
 8870SOL    HW238244   4.735   2.870   9.404  1.5069 -0.2790 -0.1870
 8871SOL     OW38245   1.285   4.104   7.399 -0.2946  0.2487 -0.1205
 8871SOL    HW138246   1.209   4.061   7.438 -0.9156 -0.1856 -1.8235
 8871SOL    HW238247   1.246   4.127   7.315 -0.0712 -1.4478 -0.6908
 8872SOL     OW38248   4.365   2.190   6.231  0.1470 -0.3132 -0.3541
 8872SOL    HW138249   4.401   2.109   6.266 -0.3022 -0.0654  0.6727
 8872SOL    HW238250   4.416   2.258   6.275  1.1945  0.1890 -2.3188
 8873SOL     OW38251   1.918   3.352   7.746  0.3763 -0.0654 -0.3733
 8873SOL    HW138252   1.901   3.417   7.814  0.2141  1.7259 -2.0965
 8873SOL    HW238253   1.838   3.299   7.740 -1.0741  2.3599 -2.8368
 8874SOL     OW38254   0.956   0.141   3.630  0.1145 -0.5541 -0.3451
 8874SOL    HW138255   1.030   0.175   3.581  0.0011 -0.1549 -0.2356
 8874SOL    HW238256   0.893   0.112   3.564 -2.4937  4.3722 -0.0438
 8875SOL     OW38257   0.711   1.199   8.789  0.2743  0.3589  0.3774
 8875SOL    HW138258   0.691   1.141   8.716 -0.8641 -0.8793  1.6737
 8875SOL    HW238259   0.675   1.152   8.865 -1.6746  1.7414  0.2933
 8876SOL     OW38260   2.783   0.106   8.991 -0.3618  0.4889  0.5117
 8876SOL    HW138261   2.753   0.135   8.905 -0.7863 -0.0162  0.4859
 8876SOL    HW238262   2.733   0.165   9.046  0.0977 -0.5932  2.0956
 8877SOL     OW38263   3.936   2.322   2.527 -0.2074  0.3741 -0.3812
 8877SOL    HW138264   3.996   2.271   2.582  2.9348  3.4950 -0.8541
 8877SOL    HW238265   3.862   2.334   2.586  0.1724  2.4831 -0.3121
 8878SOL     OW38266   2.085   1.285   1.469 -0.4806  0.0927  0.7359
 8878SOL    HW138267   2.003   1.251   1.434 -1.9833  4.5380  0.0411
 8878SOL    HW238268   2.074   1.259   1.561  0.7956 -0.3782  0.7683
 8879SOL     OW38269   0.255   2.028   0.572 -0.0232  0.2035 -0.4041
 8879SOL    HW138270   0.172   2.032   0.619  0.1353 -1.2734  0.0230
 8879SOL    HW238271   0.211   2.017   0.489 -0.3260  0.2741 -0.2517
 8880SOL     OW38272   1.606   1.680   5.977  0.6192 -0.0469  0.5441
 8880SOL    HW138273   1.689   1.722   5.997  0.0873  1.4274 -0.3941
 8880SOL    HW238274   1.541   1.744   6.006 -1.2959 -1.1609 -1.2935
 8881SOL     OW38275   0.174   3.554   4.926  0.3175  0.1079  0.1761
 8881SOL    HW138276   0.152   3.465   4.896 -2.0456  1.3580 -1.7862
 8881SOL    HW238277   0.128   3.600   4.856 -1.9164 -1.1725  0.8087
 8882SOL     OW38278   4.415   0.457  11.151 -0.5936 -0.5407  0.1265
 8882SOL    HW138279   4.460   0.468  11.068  1.0059 -1.5803  0.8601
 8882SOL    HW238280   4.369   0.378  11.124 -2.5062  1.1390 -1.4776
 8883SOL     OW38281   3.026   1.084   2.760  0.0791  0.6570 -0.0482
 8883SOL    HW138282   3.019   1.169   2.716  1.9411 -0.7031 -3.0089
 8883SOL    HW238283   3.037   1.112   2.851 -0.1291  2.2693 -0.5154
 8884SOL     OW38284   2.266   4.149   2.878 -0.3239 -0.3272  0.0408
 8884SOL    HW138285   2.273   4.055   2.889  1.2648 -0.1948  0.1685
 8884SOL    HW238286   2.340   4.167   2.820 -0.5198 -1.5747 -0.5916
 8885SOL     OW38287   2.940   4.214  10.511 -0.1326  0.2760  0.0276
 8885SOL    HW138288   2.976   4.247  10.428 -0.8279 -0.0229 -0.3932
 8885SOL    HW238289   3.012   4.159  10.542 -0.9001 -0.5110  0.4088
 8886SOL     OW38290   4.592   3.737   5.410  0.1411  0.0648  0.0961
 8886SOL    HW138291   4.678   3.700   5.431  0.2310  0.3504  0.2246
 8886SOL    HW238292   4.536   3.702   5.479 -0.0892 -0.4623 -0.3580
 8887SOL     OW38293   0.501   3.887   7.653  0.0655  0.3722 -0.1563
 8887SOL    HW138294   0.429   3.933   7.610  0.7945  0.6174 -1.0969
 8887SOL    HW238295   0.533   3.961   7.705 -0.1719 -0.2993  0.9491
 8888SOL     OW38296   4.271   1.020  17.452 -0.4619 -0.0644 -0.6158
 8888SOL    HW138297   4.268   0.958  17.379 -1.5462 -1.1398  0.3217
 8888SOL    HW238298   4.254   0.966  17.530 -0.2501  2.2223  1.0223
 8889SOL     OW38299   4.287   1.882   5.279  0.4184 -0.1503 -0.1611
 8889SOL    HW138300   4.312   1.904   5.369  1.6880 -1.3395 -0.2254
 8889SOL    HW238301   4.351   1.930   5.226  1.1770  1.5556  2.2800
 8890SOL     OW38302   0.621   0.125   7.021 -0.1705  0.0842  0.4552
 8890SOL    HW138303   0.714   0.132   7.000 -0.2511 -2.0508 -0.7174
 8890SOL    HW238304   0.575   0.175   6.954 -0.4523 -0.0406  0.5562
 8891SOL     OW38305   0.286   1.048   3.712 -0.6142  0.0208 -0.2436
 8891SOL    HW138306   0.255   1.134   3.739 -0.0891 -0.6336  2.4305
 8891SOL    HW238307   0.220   0.986   3.741  0.8635 -0.5879  1.8229
 8892SOL     OW38308   2.454   3.043   2.986 -0.2641  0.0918  0.2399
 8892SOL    HW138309   2.529   3.049   2.926 -0.7939  1.0158 -0.3325
 8892SOL    HW238310   2.489   3.108   3.047 -0.1503  0.8701 -0.6487
 8893SOL     OW38311   3.502   1.092   9.331  0.6430 -0.6893 -0.6709
 8893SOL    HW138312   3.486   1.039   9.253 -2.6785 -1.7313  0.6995
 8893SOL    HW238313   3.419   1.078   9.377  0.7941  0.6618 -0.0103
 8894SOL     OW38314   2.251   0.395   7.959  0.1115 -0.0872 -0.1359
 8894SOL    HW138315   2.332   0.371   8.006 -1.2183 -1.9493  1.2063
 8894SOL    HW238316   2.280   0.371   7.871 -0.8723  1.6987 -0.9345
 8895SOL     OW38317   0.060   3.846   7.262 -0.6624 -0.2636 -0.4735
 8895SOL    HW138318   0.011   3.840   7.180 -0.4151  0.1763 -0.6524
 8895SOL    HW238319   4.728   3.818   7.322  0.3179  0.0334  0.7776
 8896SOL     OW38320   4.724   3.072   5.868  0.6952 -0.0908 -0.2714
 8896SOL    HW138321   0.076   3.073   5.831  0.6334 -0.9951 -0.4531
 8896SOL    HW238322   4.704   2.978   5.869  0.4849 -0.0503 -1.2496
 8897SOL     OW38323   3.097   1.806   6.930  0.1046  0.0334 -0.0163
 8897SOL    HW138324   3.089   1.887   6.880 -1.1299 -0.6244 -0.8928
 8897SOL    HW238325   3.079   1.844   7.016  1.8078 -0.6192  0.6419
 8898SOL     OW38326   0.158   3.494   8.240  0.4462 -0.0788 -0.4434
 8898SOL    HW138327   0.247   3.487   8.276 -0.4406  1.4187  2.0729
 8898SOL    HW238328   0.150   3.565   8.178  1.5729  0.8064  0.4160
 8899SOL     OW38329   1.024   1.710   4.423  0.2605  0.2444  0.0039
 8899SOL    HW138330   1.106   1.740   4.463  0.3330  1.0085 -0.7141
 8899SOL    HW238331   1.060   1.624   4.402 -2.1645  0.3035 -4.4310
 8900SOL     OW38332   1.565   3.429   6.180 -0.0425 -0.3553  0.0779
 8900SOL    HW138333   1.656   3.447   6.156  0.0249 -1.4395 -0.5224
 8900SOL    HW238334   1.573   3.376   6.259 -1.8495  2.7646  2.3532
 8901SOL     OW38335   3.156   1.080  15.744  0.2047 -0.5349  0.1771
 8901SOL    HW138336   3.248   1.059  15.762  0.1987 -0.4125  0.3451
 8901SOL    HW238337   3.114   1.012  15.798 -0.9284  0.1642  0.1666
 8902SOL     OW38338   4.605   4.197  14.269  0.4177  0.2094 -0.6437
 8902SOL    HW138339   4.537   4.264  14.261  1.8889  1.9757  1.7194
 8902SOL    HW238340   4.675   4.242  14.223  0.5222  0.3314 -0.3664
 8903SOL     OW38341   2.351   0.509   9.439 -0.4543  0.1161 -0.3634
 8903SOL    HW138342   2.308   0.562   9.506  0.8491  0.1393  0.4632
 8903SOL    HW238343   2.443   0.537   9.435 -0.1772 -0.8703 -1.0920
 8904SOL     OW38344   1.344   1.720  16.799  0.4048 -0.6520  0.2839
 8904SOL    HW138345   1.293   1.763  16.867  1.5329 -2.2774  2.1702
 8904SOL    HW238346   1.320   1.628  16.810  2.6034 -1.3768 -0.8327
 8905SOL     OW38347   0.041   4.209   6.638 -0.1245 -0.2337 -0.3668
 8905SOL    HW138348   0.057   4.225   6.731  1.3931 -3.8674 -0.0004
 8905SOL    HW238349   0.032   4.114   6.647  1.0473 -0.3499 -0.4340
 8906SOL     OW38350   4.541   0.924   7.329 -0.0643  0.1835 -0.0710
 8906SOL    HW138351   4.448   0.903   7.325  0.2278 -1.2431  0.7042
 8906SOL    HW238352   4.573   0.834   7.331  3.5568  1.4429 -0.3817
 8907SOL     OW38353   0.152   1.970   3.638  0.0269 -0.6544 -0.1531
 8907SOL    HW138354   0.081   1.950   3.699 -1.4686  0.1396 -1.6092
 8907SOL    HW238355   0.170   2.061   3.661 -0.8519 -0.9645  1.7185
 8908SOL     OW38356   2.715   0.222   2.493  0.0398  0.1912  0.1501
 8908SOL    HW138357   2.780   0.287   2.519 -1.6490  1.8443  0.2203
 8908SOL    HW238358   2.652   0.234   2.564 -1.5651 -0.1893 -1.2176
 8909SOL     OW38359   4.310   4.131   9.313  0.4279  0.0140 -0.1535
 8909SOL    HW138360   4.300   4.106   9.405 -0.2917 -0.4140 -0.3517
 8909SOL    HW238361   4.402   4.108   9.300  0.4160 -0.1447  0.0504
 8910SOL     OW38362   1.283   2.471  10.378 -0.1170  0.1578 -0.4799
 8910SOL    HW138363   1.315   2.444  10.292 -1.2720  0.2115 -0.9216
 8910SOL    HW238364   1.346   2.543  10.372  0.5334 -0.3147  0.5714
 8911SOL     OW38365   2.509   4.276   0.168 -0.1980 -0.4372 -0.0589
 8911SOL    HW138366   2.476   4.187   0.186 -2.0447  0.3011  0.1698
 8911SOL    HW238367   2.437   4.307   0.115  1.1781  2.3394 -0.2647
 8912SOL     OW38368   3.028   0.268   8.998 -0.4171  0.0316 -0.0124
 8912SOL    HW138369   2.945   0.238   9.035 -0.9857 -0.4544 -1.7230
 8912SOL    HW238370   2.996   0.338   8.941 -1.4628 -1.2985 -1.0609
 8913SOL     OW38371   2.830   1.705   2.639  1.0287 -0.1935 -0.1157
 8913SOL    HW138372   2.900   1.739   2.583  2.0719 -0.5328  0.9735
 8913SOL    HW238373   2.756   1.719   2.581 -0.1475 -1.9692  0.9398
 8914SOL     OW38374   4.335   3.923   6.302  0.1197  0.2017 -0.2489
 8914SOL    HW138375   4.400   3.987   6.276  2.0046 -1.7939 -0.4422
 8914SOL    HW238376   4.270   3.928   6.232 -0.6156 -0.6660  0.3548
 8915SOL     OW38377   1.543   3.540   5.921  0.0682  0.7530  0.6027
 8915SOL    HW138378   1.622   3.593   5.910  1.4937 -1.7322 -1.1590
 8915SOL    HW238379   1.533   3.523   6.014 -0.9199  0.2529  0.4056
 8916SOL     OW38380   2.930   4.700  17.523  0.0201 -0.2255  0.3959
 8916SOL    HW138381   3.010   4.668  17.564 -1.2034 -1.5619  1.7225
 8916SOL    HW238382   2.957   4.696  17.431  0.2880 -2.3659  0.5574
 8917SOL     OW38383   0.993   1.232  10.704  0.0770  0.1740  0.6546
 8917SOL    HW138384   1.021   1.141  10.716  0.0049  0.1385  0.5511
 8917SOL    HW238385   0.929   1.240  10.775  1.4850 -1.0302  2.0638
 8918SOL     OW38386   1.185   4.383   9.131  0.4846 -0.5781  0.2391
 8918SOL    HW138387   1.250   4.427   9.185 -0.7573  0.3211  0.9872
 8918SOL    HW238388   1.181   4.298   9.177 -1.0426  0.2009  1.5561
 8919SOL     OW38389   4.319   1.297   7.173 -0.1193 -0.2503  0.0723
 8919SOL    HW138390   4.404   1.273   7.211 -1.4333 -3.6209  0.8816
 8919SOL    HW238391   4.324   1.389   7.199 -0.2697 -0.1793 -0.1564
 8920SOL     OW38392   1.685   4.346   9.218 -0.3487 -0.5634  0.2685
 8920SOL    HW138393   1.739   4.319   9.292  0.5830 -1.8446 -0.8752
 8920SOL    HW238394   1.699   4.440   9.232  1.0354 -0.5536 -1.2530
 8921SOL     OW38395   3.370   2.232   4.625  0.4634 -0.2045  0.2586
 8921SOL    HW138396   3.326   2.237   4.710  2.0714 -4.0325  1.3054
 8921SOL    HW238397   3.457   2.199   4.646  1.1005  0.3943 -1.4747
 8922SOL     OW38398   2.776   0.425   4.461  0.7783 -0.4294  0.7588
 8922SOL    HW138399   2.790   0.462   4.548  1.7333 -0.9447  0.8161
 8922SOL    HW238400   2.765   0.501   4.403  0.8783 -1.5949 -0.7701
 8923SOL     OW38401   2.015   4.020  11.883 -1.2183  0.2581 -0.5027
 8923SOL    HW138402   2.040   3.929  11.900 -0.5692 -0.3948 -4.8094
 8923SOL    HW238403   2.012   4.017  11.787 -0.0835 -2.5119 -0.4516
 8924SOL     OW38404   0.679   3.546   4.331 -0.3709 -0.2126 -0.1247
 8924SOL    HW138405   0.667   3.638   4.357  2.2792  0.0735  0.0478
 8924SOL    HW238406   0.766   3.521   4.361 -0.6940 -0.5381  0.5457
 8925SOL     OW38407   0.903   2.858  13.007  0.1042  0.5300  0.1182
 8925SOL    HW138408   0.822   2.827  13.048 -0.2688  2.7022  1.0633
 8925SOL    HW238409   0.956   2.779  13.003 -1.7091 -0.7930  2.0929
 8926SOL     OW38410   4.275   2.634   8.216  0.1182  0.6409  0.0961
 8926SOL    HW138411   4.220   2.708   8.240  1.0163  0.4467  2.7066
 8926SOL    HW238412   4.251   2.565   8.278  0.3687 -1.7426 -2.4197
 8927SOL     OW38413   4.144   2.205   8.845 -0.0414 -0.2782  0.3295
 8927SOL    HW138414   4.075   2.236   8.786 -0.7470 -4.8707 -1.2365
 8927SOL    HW238415   4.222   2.235   8.798 -0.0070  1.3380  1.4271
 8928SOL     OW38416   3.652   0.557  14.144  0.2893 -0.0297 -0.0663
 8928SOL    HW138417   3.599   0.524  14.072 -0.3203  4.7807 -1.7989
 8928SOL    HW238418   3.671   0.476  14.191 -0.5339 -0.2505 -0.1119
 8929SOL     OW38419   3.158   2.989   3.333  0.6699 -0.4329  0.5045
 8929SOL    HW138420   3.098   2.916   3.342  0.1680 -0.3057 -1.9651
 8929SOL    HW238421   3.173   3.005   3.240 -0.0175 -1.9282  0.1576
 8930SOL     OW38422   3.229   2.814  16.713 -0.1704 -0.1314 -0.2536
 8930SOL    HW138423   3.273   2.733  16.737 -0.3654 -0.0052  0.5335
 8930SOL    HW238424   3.187   2.844  16.793  0.5873  1.6743 -0.5192
 8931SOL     OW38425   1.061   1.510  17.420 -0.1324 -0.1470  0.3164
 8931SOL    HW138426   1.093   1.468  17.500 -0.2437  0.6687  0.7948
 8931SOL    HW238427   0.978   1.464  17.406 -0.1703  0.4932 -1.5786
 8932SOL     OW38428   3.157   2.483   0.697 -0.5227 -0.2507 -0.1421
 8932SOL    HW138429   3.130   2.447   0.781 -0.4130  0.3389  0.1383
 8932SOL    HW238430   3.094   2.551   0.672 -0.8452 -0.7830 -0.8228
 8933SOL     OW38431   3.536   2.009   5.234 -0.5066  0.2399 -0.1979
 8933SOL    HW138432   3.560   1.955   5.309  0.4042  0.7496 -0.1167
 8933SOL    HW238433   3.554   2.096   5.270 -0.2714  0.6994 -1.4365
 8934SOL     OW38434   0.990   2.264   8.762  0.2140  0.3694 -0.1308
 8934SOL    HW138435   0.953   2.252   8.850 -0.0744  0.3660 -0.2507
 8934SOL    HW238436   1.006   2.357   8.777 -1.1203  0.6004 -0.1042
 8935SOL     OW38437   0.447   3.630   2.485  0.8962  0.0140 -0.1764
 8935SOL    HW138438   0.358   3.641   2.451  0.3888 -1.3424  0.7292
 8935SOL    HW238439   0.435   3.543   2.524  0.4104 -0.2850 -0.9928
 8936SOL     OW38440   3.134   3.859   5.131 -0.0077  1.0299  0.4718
 8936SOL    HW138441   3.066   3.819   5.077 -0.6155  1.3646  0.9933
 8936SOL    HW238442   3.206   3.848   5.069 -0.3351  0.1308  0.2678
 8937SOL     OW38443   1.449   0.694  14.962  0.3357  0.2837 -0.1078
 8937SOL    HW138444   1.530   0.646  14.942 -0.1173  0.6448 -2.7845
 8937SOL    HW238445   1.414   0.655  15.043  1.5007 -0.2895  0.1298
 8938SOL     OW38446   2.054   0.298  14.876  0.6522  0.0861 -0.2872
 8938SOL    HW138447   1.995   0.347  14.934  2.0211 -0.1670  1.3062
 8938SOL    HW238448   2.010   0.310  14.791  0.9165  0.6147 -0.3472
 8939SOL     OW38449   1.592   4.033   3.034 -0.1215  0.5986  0.0833
 8939SOL    HW138450   1.666   4.029   3.094  0.3105 -2.7503 -0.6345
 8939SOL    HW238451   1.584   3.944   2.999 -3.1311  0.1936  1.7205
 8940SOL     OW38452   2.541   0.585   1.625  1.1353  0.1226 -0.3086
 8940SOL    HW138453   2.537   0.528   1.548  0.2741  0.1691 -0.3014
 8940SOL    HW238454   2.540   0.665   1.572  0.6424  1.1284  1.2206
 8941SOL     OW38455   1.573   1.413   6.467  0.2359  0.1818  0.2116
 8941SOL    HW138456   1.580   1.331   6.416 -1.5756 -1.1367  2.1037
 8941SOL    HW238457   1.584   1.483   6.403  0.1450  0.9238  1.0148
 8942SOL     OW38458   1.374   2.778   5.579 -0.0880 -0.2598  0.0208
 8942SOL    HW138459   1.422   2.710   5.627 -1.1024 -1.7155 -1.0077
 8942SOL    HW238460   1.343   2.827   5.655 -1.5057  1.4182 -1.6399
 8943SOL     OW38461   0.757   3.812  15.627 -0.1426  0.2941  0.3517
 8943SOL    HW138462   0.669   3.840  15.602 -0.7979 -1.6630  0.4734
 8943SOL    HW238463   0.753   3.846  15.717  3.0371  0.2297  0.5169
 8944SOL     OW38464   2.994   0.204   3.288 -0.0124 -0.3734  0.6175
 8944SOL    HW138465   3.069   0.164   3.244  1.8164  2.8144  0.8722
 8944SOL    HW238466   2.959   0.257   3.216 -0.0706 -0.1995  0.7714
 8945SOL     OW38467   0.370   0.734   6.564  0.0483 -0.2352  0.1416
 8945SOL    HW138468   0.458   0.747   6.600  1.1730  0.4654 -2.7936
 8945SOL    HW238469   0.382   0.639   6.557 -1.3501 -0.2467 -2.1561
 8946SOL     OW38470   2.467   3.433   2.200  0.4369 -0.4700 -0.7134
 8946SOL    HW138471   2.555   3.410   2.228  1.6088  1.5452 -2.7802
 8946SOL    HW238472   2.443   3.483   2.279 -0.0475 -1.5082 -0.2004
 8947SOL     OW38473   0.060   1.492   3.849 -0.4728  0.0589 -0.2413
 8947SOL    HW138474   0.013   1.558   3.899  0.3479  1.6038 -1.5253
 8947SOL    HW238475   0.012   1.421   3.892  0.8859 -1.0756 -0.6224
 8948SOL     OW38476   2.918   3.689   8.530 -0.2508 -1.1359  0.0075
 8948SOL    HW138477   2.957   3.776   8.526 -0.1071 -1.1088  2.2666
 8948SOL    HW238478   2.839   3.693   8.475 -0.8608  1.4627  1.0605
 8949SOL     OW38479   3.560   1.836  16.655 -0.1534  0.1326 -0.3032
 8949SOL    HW138480   3.582   1.860  16.565 -2.2245  4.1800  0.2757
 8949SOL    HW238481   3.544   1.742  16.655  0.2066  0.0786  2.4333
 8950SOL     OW38482   1.240   3.687  10.232  0.1572  0.2263  0.3587
 8950SOL    HW138483   1.268   3.674  10.141 -1.9756 -2.7103  0.1364
 8950SOL    HW238484   1.322   3.678  10.280 -1.4065  1.2937  3.2188
 8951SOL     OW38485   0.221   3.813   4.687 -0.0407  0.3869 -0.0568
 8951SOL    HW138486   0.132   3.845   4.703 -0.3441 -1.1644  1.4113
 8951SOL    HW238487   0.220   3.767   4.603  2.3431 -0.1410  0.1931
 8952SOL     OW38488   0.417   0.791  11.246  0.0700 -0.2848 -0.6984
 8952SOL    HW138489   0.454   0.758  11.165  0.9927  0.5910 -0.6251
 8952SOL    HW238490   0.479   0.751  11.307  0.0565 -0.5484 -0.8559
 8953SOL     OW38491   1.070   3.457   0.962  0.3888  0.2975 -1.0846
 8953SOL    HW138492   1.105   3.546   0.968 -2.8202  1.4816  0.0749
 8953SOL    HW238493   0.975   3.469   0.968  0.1940 -0.6143 -2.3520
 8954SOL     OW38494   4.422   2.635   2.266  0.4261  0.2312 -0.1532
 8954SOL    HW138495   4.395   2.552   2.227  0.4481  0.1327  0.0428
 8954SOL    HW238496   4.380   2.693   2.202  0.3372  0.6151  0.2470
 8955SOL     OW38497   1.641   3.473   5.441  0.2121  0.8809  0.2755
 8955SOL    HW138498   1.613   3.382   5.446  0.9472  0.7404  1.9014
 8955SOL    HW238499   1.614   3.500   5.529  2.6010 -1.3853  1.6941
 8956SOL     OW38500   2.872   1.616   8.383 -0.1923 -0.2514 -0.0256
 8956SOL    HW138501   2.956   1.657   8.405 -1.1573  2.7550 -1.8200
 8956SOL    HW238502   2.898   1.571   8.303 -0.8353 -1.7478  0.6096
 8957SOL     OW38503   3.707   4.444   3.444 -0.2489 -0.1499  0.0856
 8957SOL    HW138504   3.671   4.446   3.356  1.5593 -2.9375 -0.6893
 8957SOL    HW238505   3.736   4.535   3.451 -1.8535  0.3708  0.0411
 8958SOL     OW38506   2.093   3.292   0.617 -0.4859 -0.0594  0.0025
 8958SOL    HW138507   2.122   3.276   0.707  0.5780 -0.8601 -0.4822
 8958SOL    HW238508   2.077   3.208   0.574  0.5605 -0.6452  0.7552
 8959SOL     OW38509   0.013   3.668   3.049 -0.3113 -0.1788 -0.2609
 8959SOL    HW138510   0.044   3.623   2.970  0.8874 -2.7334  1.6640
 8959SOL    HW238511   4.654   3.656   3.046 -0.1727 -1.1648 -0.7301
 8960SOL     OW38512   0.476   2.098  12.445 -0.1297 -0.6411 -0.1442
 8960SOL    HW138513   0.416   2.107  12.371  0.0833  1.6870 -0.0132
 8960SOL    HW238514   0.422   2.151  12.504 -1.4988 -1.6802 -0.4573
 8961SOL     OW38515   4.504   0.591   6.252 -0.1833 -0.6020  0.3352
 8961SOL    HW138516   4.478   0.658   6.314 -0.6284 -0.4459 -0.0240
 8961SOL    HW238517   4.472   0.503   6.272 -1.1378 -0.4057 -0.3357
 8962SOL     OW38518   3.485   4.241  12.855  0.0590  0.0325  0.6425
 8962SOL    HW138519   3.424   4.169  12.871  1.3384 -1.1031  0.3915
 8962SOL    HW238520   3.571   4.209  12.881  0.8519  1.0583 -0.7352
 8963SOL     OW38521   0.355   3.491   6.978  0.3467  0.9256  0.1201
 8963SOL    HW138522   0.313   3.545   7.045 -0.6520  0.0507  0.1918
 8963SOL    HW238523   0.421   3.447   7.032 -0.1449 -0.0230 -0.0539
 8964SOL     OW38524   1.283   1.744   3.888 -0.1977 -0.2381 -0.2536
 8964SOL    HW138525   1.344   1.817   3.878 -0.4838  0.3844  2.4948
 8964SOL    HW238526   1.241   1.742   3.803 -2.4587  0.5467  0.8549
 8965SOL     OW38527   1.514   3.364   9.713 -0.4684 -0.1991 -0.0840
 8965SOL    HW138528   1.470   3.359   9.629  1.9068  2.2035 -1.4755
 8965SOL    HW238529   1.448   3.334   9.774 -0.3486 -0.6950 -0.2000
 8966SOL     OW38530   0.142   2.316  12.990 -0.0591 -0.7648  0.2035
 8966SOL    HW138531   0.130   2.356  13.076 -0.1458 -2.8733  1.1891
 8966SOL    HW238532   0.191   2.379  12.938 -0.6138 -0.3927  0.1373
 8967SOL     OW38533   4.064   2.415   3.863  0.1538  0.4943  0.4673
 8967SOL    HW138534   4.153   2.441   3.840 -0.3343  1.5163 -0.2956
 8967SOL    HW238535   4.078   2.385   3.953 -2.9984 -2.7239 -0.1018
 8968SOL     OW38536   1.542   0.338   4.802  0.1990 -0.1526  0.1167
 8968SOL    HW138537   1.526   0.338   4.708 -0.1715  0.4926  0.1792
 8968SOL    HW238538   1.563   0.248   4.827 -1.5274 -0.4495  0.4835
 8969SOL     OW38539   0.048   1.569  10.113  0.0977  0.8645  0.2998
 8969SOL    HW138540   0.031   1.652  10.068  1.6211 -0.8426 -3.4750
 8969SOL    HW238541   0.144   1.559  10.111 -0.1753 -1.9331  0.8555
 8970SOL     OW38542   0.795   1.787  13.950  0.3151  0.1058 -0.0319
 8970SOL    HW138543   0.765   1.773  14.040  0.5066 -0.5346 -0.0691
 8970SOL    HW238544   0.709   1.815  13.919 -0.4798  0.5948  2.6052
 8971SOL     OW38545   1.673   0.855   1.258  0.0559  0.3448  0.0930
 8971SOL    HW138546   1.611   0.797   1.302 -0.6970  1.7079  0.8325
 8971SOL    HW238547   1.616   0.909   1.203  0.2978 -1.5956 -2.0316
 8972SOL     OW38548   3.928   3.441  15.408 -0.2212 -0.4586  0.0058
 8972SOL    HW138549   3.843   3.416  15.444  0.7241 -2.6301  0.7386
 8972SOL    HW238550   3.903   3.460  15.318 -1.6173 -0.2908  0.4256
 8973SOL     OW38551   3.301   2.158   7.871 -0.0687 -0.1592  0.0170
 8973SOL    HW138552   3.351   2.211   7.809  0.6873 -1.9342 -0.9153
 8973SOL    HW238553   3.340   2.183   7.955  0.0093 -0.5012  0.0860
 8974SOL     OW38554   0.639   3.602  17.602 -0.0301  0.0155 -0.0695
 8974SOL    HW138555   0.595   3.523  17.568  0.2108 -1.2143  2.4644
 8974SOL    HW238556   0.730   3.575  17.612 -0.7904 -3.5159 -2.4040
 8975SOL     OW38557   4.249   0.539   7.907 -0.3106  0.5581  0.0618
 8975SOL    HW138558   4.222   0.614   7.855  0.8645  1.1572  0.3178
 8975SOL    HW238559   4.180   0.479   7.878 -0.9632  1.2019  0.2693
 8976SOL     OW38560   2.100   0.658   8.511  0.5329  0.0753  0.5658
 8976SOL    HW138561   2.029   0.720   8.492  0.0371 -0.5227  0.4810
 8976SOL    HW238562   2.046   0.590   8.551  0.1344 -1.4069 -2.5056
 8977SOL     OW38563   0.591   1.053  13.956 -0.2396 -0.0296  0.1491
 8977SOL    HW138564   0.647   1.103  14.015 -0.8229  0.8629 -0.0515
 8977SOL    HW238565   0.520   1.114  13.935  0.2544  0.1103 -1.1511
 8978SOL     OW38566   1.657   2.657  10.287  0.1037  0.4584  0.5625
 8978SOL    HW138567   1.625   2.704  10.211 -0.3063  1.3047  1.2611
 8978SOL    HW238568   1.724   2.711  10.328  0.7483 -0.8335  1.2280
 8979SOL     OW38569   4.546   0.828  17.624 -0.1648 -0.6385  0.4380
 8979SOL    HW138570   4.606   0.765  17.663  0.1986  0.5758  1.8748
 8979SOL    HW238571   4.539   0.784  17.540 -0.5495 -2.3278  1.3464
 8980SOL     OW38572   2.600   1.685   6.076 -0.0372 -0.5886  0.0101
 8980SOL    HW138573   2.548   1.637   6.140  3.2603 -2.4812  1.2477
 8980SOL    HW238574   2.614   1.768   6.122  1.8667 -0.9414  0.0606
 8981SOL     OW38575   3.038   2.194   5.454  0.1358 -0.1463 -0.2918
 8981SOL    HW138576   2.943   2.186   5.450  0.1533 -1.2647  2.0320
 8981SOL    HW238577   3.070   2.105   5.445 -0.9856 -0.7196  1.4729
 8982SOL     OW38578   2.988   3.389   1.626 -0.3022 -0.3561  0.7037
 8982SOL    HW138579   3.063   3.441   1.654 -0.1487  0.7045 -1.6381
 8982SOL    HW238580   3.015   3.358   1.539 -1.5323 -0.3193  0.2942
 8983SOL     OW38581   4.247   1.886  10.930  0.2489 -0.1677  0.0062
 8983SOL    HW138582   4.244   1.977  10.958  1.1438  0.1794 -1.0168
 8983SOL    HW238583   4.245   1.837  11.012 -0.0336 -3.4383 -1.9389
 8984SOL     OW38584   2.187   2.154  17.703 -0.4449 -0.3204 -0.5218
 8984SOL    HW138585   2.131   2.080  17.682 -1.6743 -0.0895  1.9375
 8984SOL    HW238586   2.203   2.138   0.051  0.6893 -1.4888 -0.9105
 8985SOL     OW38587   3.471   2.618   5.478 -0.0479 -0.2845  0.1110
 8985SOL    HW138588   3.543   2.581   5.529 -0.6126 -1.1312  0.2958
 8985SOL    HW238589   3.502   2.697   5.434  2.0156 -0.3974  1.3962
 8986SOL     OW38590   1.396   2.779   1.820  0.0710 -0.2206 -0.0622
 8986SOL    HW138591   1.421   2.871   1.828 -1.1301  0.3873 -3.2627
 8986SOL    HW238592   1.303   2.787   1.798  0.0592  1.0107  0.4010
 8987SOL     OW38593   1.618   0.412   7.578 -0.2540 -0.0821  0.0817
 8987SOL    HW138594   1.584   0.502   7.576  0.2001  0.0540 -1.3928
 8987SOL    HW238595   1.587   0.382   7.664 -0.8362  2.0625  0.6171
 8988SOL     OW38596   3.148   0.087   3.088 -0.4114  0.1724 -0.5500
 8988SOL    HW138597   3.201   0.094   3.009  0.0122 -1.0541 -0.3808
 8988SOL    HW238598   3.155   4.729   3.105 -1.0098  0.3419  0.6371
 8989SOL     OW38599   2.630   0.913  16.172  0.3568  0.1764  0.0827
 8989SOL    HW138600   2.635   0.825  16.210  3.9838  0.4239  0.1691
 8989SOL    HW238601   2.676   0.973  16.230 -1.0657  0.2738  1.1128
 8990SOL     OW38602   3.798   4.513   4.130  0.0209  0.0005 -0.4541
 8990SOL    HW138603   3.873   4.497   4.188 -0.1328 -0.6708 -0.4350
 8990SOL    HW238604   3.784   4.428   4.088 -0.6284 -0.7910  1.3806
 8991SOL     OW38605   4.660   3.966   4.025  0.5599 -0.2204  0.0767
 8991SOL    HW138606   4.711   3.891   4.056 -2.8525 -2.4472  0.2220
 8991SOL    HW238607   4.622   4.021   4.094  0.1054 -0.6252  0.1434
 8992SOL     OW38608   3.508   2.500  15.852  0.5378 -0.0973  0.0842
 8992SOL    HW138609   3.499   2.576  15.910  0.4281 -0.3529  0.4030
 8992SOL    HW238610   3.439   2.522  15.789  0.6327 -0.8732 -0.2843
 8993SOL     OW38611   1.226   1.865   9.569 -0.7292 -0.6546  0.0688
 8993SOL    HW138612   1.140   1.871   9.527  0.2147 -0.3984 -1.8438
 8993SOL    HW238613   1.246   1.958   9.576 -1.3535 -0.5786  0.8112
 8994SOL     OW38614   3.375   1.758   2.028  0.0748 -0.1752  0.5052
 8994SOL    HW138615   3.379   1.808   2.110  0.4025 -1.0362  1.0206
 8994SOL    HW238616   3.413   1.679   2.067 -3.5598 -1.1074  2.1773
 8995SOL     OW38617   2.965   1.353   6.667 -0.4852 -0.9397 -0.8411
 8995SOL    HW138618   2.978   1.370   6.574 -1.4136 -0.2440 -0.8411
 8995SOL    HW238619   2.966   1.445   6.695 -1.7365 -0.4186 -2.5103
 8996SOL     OW38620   1.451   0.962   4.650  0.2112  0.0052 -0.5806
 8996SOL    HW138621   1.399   0.883   4.635  0.8230 -0.8468  1.6540
 8996SOL    HW238622   1.512   0.930   4.718 -0.8498  1.0996  0.8846
 8997SOL     OW38623   4.726   4.424  15.375  0.3818  0.1925 -0.1119
 8997SOL    HW138624   4.642   4.412  15.418  0.7190  1.4829  0.9218
 8997SOL    HW238625   0.044   4.357  15.415 -1.1606 -0.5749  0.7113
 8998SOL     OW38626   0.047   0.444   3.324  0.3188  0.8419 -0.2456
 8998SOL    HW138627   0.038   0.539   3.333 -0.0719  0.9337 -1.4935
 8998SOL    HW238628   4.729   0.432   3.246  1.4491  0.3048 -0.9566
 8999SOL     OW38629   1.152   3.117  16.257 -0.8484 -0.5807 -0.8423
 8999SOL    HW138630   1.170   3.023  16.255 -0.0449 -0.4832  1.3887
 8999SOL    HW238631   1.145   3.119  16.353 -0.7593  0.8355 -0.8660
 9000SOL     OW38632   3.124   2.730   4.150  0.1995  0.1756 -0.7160
 9000SOL    HW138633   3.139   2.643   4.187  2.7060  0.1248 -1.8571
 9000SOL    HW238634   3.168   2.727   4.065  0.1466  1.2177 -0.7828
 9001SOL     OW38635   1.226   1.293   7.987 -0.9941  0.1099 -0.3945
 9001SOL    HW138636   1.217   1.319   8.078 -1.6096 -0.8762 -0.1800
 9001SOL    HW238637   1.134   1.290   7.962 -0.7032  1.6122 -1.6897
 9002SOL     OW38638   3.716   1.743   6.239 -0.2052 -0.1572  0.0189
 9002SOL    HW138639   3.659   1.723   6.165 -0.4099  0.0604  0.1176
 9002SOL    HW238640   3.689   1.676   6.301  0.0978  1.5515  1.9814
 9003SOL     OW38641   3.260   1.164   1.966 -0.3082 -0.8730  0.4145
 9003SOL    HW138642   3.293   1.197   1.882 -0.9883 -1.5572 -0.1148
 9003SOL    HW238643   3.198   1.098   1.935  1.9410 -3.1352  0.7474
 9004SOL     OW38644   3.216   0.219   1.472  0.3850 -0.2985 -0.4685
 9004SOL    HW138645   3.247   0.168   1.397  1.7336 -2.2551  1.4227
 9004SOL    HW238646   3.262   0.302   1.460  2.3106 -1.0794  1.4542
 9005SOL     OW38647   2.009   0.427   8.067  0.1101 -0.4480 -0.2449
 9005SOL    HW138648   2.093   0.425   8.023  0.8395  1.5940  1.0597
 9005SOL    HW238649   2.022   0.366   8.140 -0.3711 -0.7720 -0.4249
 9006SOL     OW38650   0.305   0.007   6.395  0.3369  0.2647 -0.0795
 9006SOL    HW138651   0.210   0.015   6.389  0.5558  1.8203 -1.3406
 9006SOL    HW238652   0.328   0.055   6.315 -1.3441 -0.1841 -0.8309
 9007SOL     OW38653   0.633   0.596   9.750  0.3147 -0.0800 -1.1007
 9007SOL    HW138654   0.704   0.535   9.772 -1.6160 -1.7787  0.4450
 9007SOL    HW238655   0.566   0.550   9.700 -0.2634 -0.8184  0.3708
 9008SOL     OW38656   4.629   4.227  14.559  0.1346 -0.1689  0.6117
 9008SOL    HW138657   4.671   4.184  14.485  1.5932  1.1192  0.7024
 9008SOL    HW238658   4.539   4.234  14.525  0.5528  1.4539 -0.1915
 9009SOL     OW38659   0.889   2.374   6.545 -0.4640  0.6394  0.2584
 9009SOL    HW138660   0.887   2.411   6.633 -0.5435 -1.1741  1.0208
 9009SOL    HW238661   0.940   2.437   6.493  0.0780  1.2345  1.5041
 9010SOL     OW38662   3.414   2.903   2.841 -0.4099 -0.0124  0.0753
 9010SOL    HW138663   3.401   2.874   2.932 -0.6233  1.8601  0.6535
 9010SOL    HW238664   3.510   2.895   2.839 -0.4271  0.3954 -2.2581
 9011SOL     OW38665   0.822   0.008  16.354  0.3120 -0.2604 -0.1171
 9011SOL    HW138666   0.848   0.097  16.333  0.0154 -0.4939 -1.4524
 9011SOL    HW238667   0.732   0.018  16.385 -0.0800 -0.2799 -1.2625
 9012SOL     OW38668   4.403   4.110   8.300  0.0762  0.4422 -0.6911
 9012SOL    HW138669   4.373   4.030   8.257 -1.1979  1.2045 -1.2024
 9012SOL    HW238670   4.398   4.098   8.394  0.0064  2.1458 -0.4771
 9013SOL     OW38671   4.483   2.875   0.254  0.2499 -0.3609 -0.2897
 9013SOL    HW138672   4.518   2.923   0.329  2.7040 -1.4922 -0.6983
 9013SOL    HW238673   4.423   2.810   0.290 -0.7432  1.2837  1.0432
 9014SOL     OW38674   1.094   0.552   2.019 -0.3446 -0.0049 -0.0834
 9014SOL    HW138675   1.021   0.510   2.065 -0.6402  0.3387 -0.2419
 9014SOL    HW238676   1.070   0.644   2.010 -0.4267 -0.0839 -0.7027
 9015SOL     OW38677   2.602   0.622   2.754  0.7159 -0.5203  0.1634
 9015SOL    HW138678   2.688   0.595   2.785 -0.1492 -0.6205  2.4230
 9015SOL    HW238679   2.546   0.561   2.802 -1.6299  2.2739  0.9937
 9016SOL     OW38680   0.311   0.506   3.025  0.6138 -0.3059  0.4256
 9016SOL    HW138681   0.294   0.594   3.060 -0.4309  0.1782 -1.2554
 9016SOL    HW238682   0.402   0.508   3.055  0.1574 -2.5865  1.9250
 9017SOL     OW38683   1.179   4.344   3.118  0.5348 -0.0191 -0.3209
 9017SOL    HW138684   1.210   4.359   3.029 -0.1584 -1.4281 -0.8044
 9017SOL    HW238685   1.260   4.297   3.141  0.5162 -0.6146 -1.5218
 9018SOL     OW38686   0.539   2.146  11.558  0.5011 -0.0270  0.5372
 9018SOL    HW138687   0.456   2.194  11.558  0.5036 -0.0248  0.1559
 9018SOL    HW238688   0.599   2.212  11.593 -1.0610 -0.1813  3.5431
 9019SOL     OW38689   4.618   3.175   7.240 -0.2183 -0.1104 -0.4119
 9019SOL    HW138690   4.586   3.181   7.330  0.2751 -0.5277 -0.2071
 9019SOL    HW238691   4.540   3.188   7.186 -0.0489  0.3257 -0.5545
 9020SOL     OW38692   2.351   4.326   5.542  0.0649  0.0264  0.4709
 9020SOL    HW138693   2.430   4.272   5.549  0.0929  0.4011  3.1630
 9020SOL    HW238694   2.393   4.411   5.557  0.3647 -0.0463  0.0464
 9021SOL     OW38695   1.692   2.349  15.045  0.0349  0.7783 -0.2386
 9021SOL    HW138696   1.765   2.290  15.064  0.3567  0.2731 -3.0496
 9021SOL    HW238697   1.729   2.437  15.054  0.4672  0.3942  1.7963
 9022SOL     OW38698   2.903   3.006   5.621  0.0784 -0.0690 -0.2299
 9022SOL    HW138699   2.871   3.014   5.711  1.0694 -0.9712  0.1938
 9022SOL    HW238700   2.871   3.086   5.578  0.5106 -0.2415 -0.8661
 9023SOL     OW38701   0.357   3.140   7.181  0.2130  0.2151 -0.3558
 9023SOL    HW138702   0.414   3.212   7.209  0.5404  0.5202 -1.8345
 9023SOL    HW238703   0.270   3.172   7.206 -0.6406 -0.9831 -1.7576
 9024SOL     OW38704   0.780   4.174  16.514  0.7016  0.0938 -0.1655
 9024SOL    HW138705   0.801   4.174  16.420 -0.3427 -0.3445 -0.3963
 9024SOL    HW238706   0.709   4.238  16.508  1.3919  0.9225  0.5381
 9025SOL     OW38707   4.641   0.574  12.124  0.3766 -0.2136 -0.2011
 9025SOL    HW138708   4.680   0.635  12.187  0.1220  0.9657 -1.1859
 9025SOL    HW238709   4.554   0.605  12.150 -0.0030 -0.5058 -1.1318
 9026SOL     OW38710   1.736   4.093  11.065  0.7538  0.2266  0.2282
 9026SOL    HW138711   1.661   4.146  11.093 -0.2020  0.9296 -3.6356
 9026SOL    HW238712   1.814   4.148  11.077  0.4541  0.5024  0.9273
 9027SOL     OW38713   3.094   1.739   2.183  0.2966  0.6888  0.2079
 9027SOL    HW138714   3.033   1.740   2.110  1.6462 -0.2672 -0.9217
 9027SOL    HW238715   3.172   1.695   2.150  0.2317 -0.0230  0.9921
 9028SOL     OW38716   0.036   3.617   0.667  0.2395 -0.3075 -0.2662
 9028SOL    HW138717   0.024   3.665   0.585 -1.7448  1.6256  1.1544
 9028SOL    HW238718   0.086   3.542   0.633 -0.3738  0.0826 -2.0406
 9029SOL     OW38719   3.190   0.217   5.610  0.0645 -0.0163 -0.4177
 9029SOL    HW138720   3.111   0.163   5.616  0.1801 -0.2485 -0.9784
 9029SOL    HW238721   3.162   0.249   5.524 -3.6881  1.6187  1.3919
 9030SOL     OW38722   2.025   2.690   7.400 -0.4511 -0.3154  0.1841
 9030SOL    HW138723   2.008   2.779   7.367 -0.9075 -0.5113 -0.1095
 9030SOL    HW238724   1.990   2.698   7.488  0.2841  1.5045  0.3101
 9031SOL     OW38725   4.650   3.767   8.215  0.0485 -0.2792  0.2423
 9031SOL    HW138726   4.622   3.844   8.165 -0.8420  1.1478  2.9430
 9031SOL    HW238727   4.710   3.730   8.150 -0.3398 -1.9052  0.8176
 9032SOL     OW38728   2.432   0.835   9.048 -0.5897  0.4402 -0.0739
 9032SOL    HW138729   2.417   0.907   9.109  0.4131 -0.5472  1.3493
 9032SOL    HW238730   2.511   0.854   8.998  0.1153 -3.4057 -0.4446
 9033SOL     OW38731   2.036   0.303   2.955  0.5297 -1.1894  0.0365
 9033SOL    HW138732   2.104   0.291   3.020  1.0415  1.3268 -0.0233
 9033SOL    HW238733   2.058   0.384   2.908 -0.0454 -1.5575 -0.8608
 9034SOL     OW38734   3.217   0.213   3.517 -0.1000 -0.2505 -0.1511
 9034SOL    HW138735   3.138   0.264   3.538 -0.7887 -1.6947  0.7777
 9034SOL    HW238736   3.189   0.127   3.549 -0.9071  0.3054  0.6562
 9035SOL     OW38737   1.308   1.396   2.799  0.0894 -0.1699  0.3329
 9035SOL    HW138738   1.273   1.405   2.888  0.1801 -0.7181  0.4251
 9035SOL    HW238739   1.245   1.333   2.765 -0.1130 -0.0462  0.4792
 9036SOL     OW38740   2.924   0.856   5.846 -0.2010 -0.3028  0.0761
 9036SOL    HW138741   2.849   0.913   5.860 -0.7328 -0.9240 -0.2509
 9036SOL    HW238742   2.880   0.771   5.858  0.7507 -0.5368  2.0364
 9037SOL     OW38743   2.654   1.141   7.410 -0.5467  0.0432  0.3163
 9037SOL    HW138744   2.607   1.065   7.444 -0.3197  0.9907  2.7594
 9037SOL    HW238745   2.742   1.104   7.416 -1.5619 -2.0642  2.1898
 9038SOL     OW38746   0.829   0.323   6.075  0.2702 -0.4001  0.7472
 9038SOL    HW138747   0.897   0.323   6.142 -0.4920  4.5168  1.5498
 9038SOL    HW238748   0.774   0.249   6.100 -1.1575  0.3016 -0.2905
 9039SOL     OW38749   1.994   3.603   2.865 -0.6689  0.6600 -0.3064
 9039SOL    HW138750   1.913   3.554   2.854 -0.0562 -1.0163  2.8209
 9039SOL    HW238751   2.020   3.592   2.957 -2.5031 -1.1060  0.0041
 9040SOL     OW38752   1.970   1.245   8.668 -0.3617  0.5787  0.0655
 9040SOL    HW138753   2.025   1.173   8.700 -0.7928 -0.4317 -1.4783
 9040SOL    HW238754   2.039   1.308   8.647 -0.0264 -0.4615 -1.9756
 9041SOL     OW38755   0.313   4.547  16.367  0.7508 -0.2727 -0.4554
 9041SOL    HW138756   0.301   4.582  16.455  0.3499  0.2581 -0.7263
 9041SOL    HW238757   0.293   4.454  16.380  1.9043 -0.5101 -0.3556
 9042SOL     OW38758   3.954   4.635   1.821  0.1363 -0.1888 -0.0713
 9042SOL    HW138759   3.957   4.724   1.854  0.9360  0.4067 -1.7611
 9042SOL    HW238760   3.864   4.608   1.842 -0.1678 -2.0197 -3.6647
 9043SOL     OW38761   0.764   3.018   8.145  0.4107  0.2459  0.3307
 9043SOL    HW138762   0.671   3.039   8.145  0.6397  1.2053  2.1633
 9043SOL    HW238763   0.760   2.942   8.086 -0.8593  0.9123 -0.4287
 9044SOL     OW38764   4.510   1.574   6.539  0.2667 -0.3089 -0.2039
 9044SOL    HW138765   4.458   1.508   6.585 -0.5013  1.1940  1.1274
 9044SOL    HW238766   4.580   1.522   6.501  1.3095  1.1781 -0.3297
 9045SOL     OW38767   3.032   4.305  16.998  0.8265 -0.2180 -0.4244
 9045SOL    HW138768   3.026   4.349  17.083  1.7492  0.2459 -0.5953
 9045SOL    HW238769   2.952   4.331  16.954 -0.5357 -0.5930  1.8508
 9046SOL     OW38770   2.568   0.026  14.092  0.3459 -0.5219 -0.3000
 9046SOL    HW138771   2.560   0.122  14.091  2.1062 -0.3414  1.6492
 9046SOL    HW238772   2.638   0.013  14.028  2.4781 -1.1522  2.1480
 9047SOL     OW38773   2.158   2.422   4.178 -0.1471 -0.1403 -0.3447
 9047SOL    HW138774   2.113   2.398   4.097 -1.6178 -2.4341  1.1477
 9047SOL    HW238775   2.097   2.384   4.241  0.7162 -1.3275 -0.2195
 9048SOL     OW38776   2.344   3.920   0.772 -0.4708  0.1864  0.7346
 9048SOL    HW138777   2.419   3.868   0.745 -0.8475 -0.7774  1.5169
 9048SOL    HW238778   2.370   4.002   0.732  0.8234 -0.1743  0.8352
 9049SOL     OW38779   1.463   1.041   9.942  0.2677  0.1620  0.4676
 9049SOL    HW138780   1.521   1.037  10.018 -0.6004  1.5059  1.1910
 9049SOL    HW238781   1.500   1.119   9.902 -1.1588  0.6379  0.0750
 9050SOL     OW38782   1.136   2.191  10.104  0.0777 -0.2317  0.3042
 9050SOL    HW138783   1.217   2.242  10.106  0.5228 -0.7371 -3.6702
 9050SOL    HW238784   1.160   2.121  10.043 -0.2896 -0.4364  0.3930
 9051SOL     OW38785   2.966   1.945   4.193  0.3812 -0.6439  0.6357
 9051SOL    HW138786   2.982   2.033   4.227  0.9093 -0.2366 -0.6706
 9051SOL    HW238787   2.904   1.915   4.260 -1.4885 -0.7893 -1.1280
 9052SOL     OW38788   1.927   1.068  13.899  0.2035 -0.0260 -0.4003
 9052SOL    HW138789   1.924   1.005  13.827  0.8401 -0.0202 -0.4320
 9052SOL    HW238790   1.962   1.141  13.848  1.7048  0.6551  1.5948
 9053SOL     OW38791   1.283   4.290  13.434  0.2485  0.1360 -1.2804
 9053SOL    HW138792   1.200   4.297  13.480  0.3093 -0.6864 -1.0413
 9053SOL    HW238793   1.299   4.199  13.458 -2.3311  0.2667  0.8778
 9054SOL     OW38794   1.711   1.511   3.873  0.4617  0.2375  0.7174
 9054SOL    HW138795   1.693   1.418   3.874 -1.5361  0.6109 -1.1875
 9054SOL    HW238796   1.670   1.544   3.953  2.1527  2.7492  0.5863
 9055SOL     OW38797   3.750   1.551   0.765  0.2031 -0.4687  0.3214
 9055SOL    HW138798   3.843   1.558   0.785  0.5657  0.9775 -1.7694
 9055SOL    HW238799   3.740   1.456   0.766  0.1050 -0.4377  1.4783
 9056SOL     OW38800   1.200   1.376   8.237 -0.2001 -0.3502  0.1296
 9056SOL    HW138801   1.159   1.463   8.236 -1.2255 -0.7995  2.4706
 9056SOL    HW238802   1.117   1.330   8.232 -0.2058 -0.1661 -1.3967
 9057SOL     OW38803   0.577   2.992   1.355  0.4445 -0.2830  0.3479
 9057SOL    HW138804   0.522   3.070   1.353  0.4633 -0.2522  0.9699
 9057SOL    HW238805   0.647   3.018   1.294 -0.8995  1.8938 -0.2606
 9058SOL     OW38806   4.085   4.459   5.098 -0.0192 -0.4591 -0.2644
 9058SOL    HW138807   4.102   4.541   5.144  0.4141  0.5618 -2.2956
 9058SOL    HW238808   4.163   4.404   5.106  0.7767  0.6254 -0.6227
 9059SOL     OW38809   1.281   2.484  13.227 -0.4336  1.2462 -0.0976
 9059SOL    HW138810   1.261   2.398  13.191 -2.3706  0.3178  3.1945
 9059SOL    HW238811   1.285   2.458  13.319 -0.0697  0.6137 -0.2936
 9060SOL     OW38812   1.675   1.171  14.550  0.4557 -0.0541 -0.0450
 9060SOL    HW138813   1.645   1.086  14.521 -0.2911 -0.4057  1.7499
 9060SOL    HW238814   1.760   1.179  14.506  0.0660  2.8456 -0.2791
 9061SOL     OW38815   0.672   2.427   7.808 -0.2808  0.3391  0.3017
 9061SOL    HW138816   0.753   2.472   7.782  0.8645 -1.2850  1.0841
 9061SOL    HW238817   0.709   2.380   7.883  1.8988  0.9471 -0.4037
 9062SOL     OW38818   4.562   2.787  17.722  0.2193 -0.7976  0.2421
 9062SOL    HW138819   4.517   2.832   0.049  0.9397 -4.4415  2.9534
 9062SOL    HW238820   4.619   2.859  17.695 -0.7504  0.7577  2.2906
 9063SOL     OW38821   1.062   3.068   6.649  0.1930  0.4437  0.0595
 9063SOL    HW138822   1.153   3.091   6.630  0.4935 -1.5457 -0.9836
 9063SOL    HW238823   1.020   3.154   6.654  0.5274  0.6195 -0.1684
 9064SOL     OW38824   0.410   1.252   4.028 -0.1768  0.0284 -0.3709
 9064SOL    HW138825   0.342   1.276   4.091  0.1618 -1.2938  0.5042
 9064SOL    HW238826   0.416   1.159   4.049 -0.5550  0.1298  0.1957
 9065SOL     OW38827   1.425   0.685   1.756 -0.4043  0.8101  0.7487
 9065SOL    HW138828   1.400   0.668   1.847  2.1995 -3.3927  0.6560
 9065SOL    HW238829   1.367   0.630   1.702  1.2213 -0.6029  0.4461
 9066SOL     OW38830   3.950   1.293  13.245 -0.4330 -0.5431  0.0199
 9066SOL    HW138831   3.917   1.218  13.293 -0.2657 -0.1915  0.6937
 9066SOL    HW238832   4.021   1.318  13.305  0.6968 -0.6090 -1.2894
 9067SOL     OW38833   2.474   2.105   8.928 -0.3568  0.2805  0.6876
 9067SOL    HW138834   2.425   2.042   8.981  0.2153  0.4036  1.3687
 9067SOL    HW238835   2.522   2.055   8.862 -1.3356 -0.2570  0.3911
 9068SOL     OW38836   2.413   2.709   4.454 -0.4685  0.1013 -0.2926
 9068SOL    HW138837   2.468   2.726   4.378 -0.6178 -0.5242 -0.5385
 9068SOL    HW238838   2.324   2.711   4.417 -1.9901 -0.7805  3.3230
 9069SOL     OW38839   0.022   1.475   1.597 -0.0736  0.2758 -0.0075
 9069SOL    HW138840   4.696   1.533   1.640 -1.8219 -1.8048  0.2415
 9069SOL    HW238841   4.708   1.462   1.517  0.2369 -1.5821  0.1103
 9070SOL     OW38842   1.015   1.664  15.750 -0.1063  0.2410  0.2069
 9070SOL    HW138843   1.041   1.747  15.710 -0.2238 -0.4436 -1.2890
 9070SOL    HW238844   1.069   1.664  15.830  0.1239  0.1317  0.0519
 9071SOL     OW38845   4.682   0.887   9.917  0.6028 -0.4333  0.0493
 9071SOL    HW138846   4.671   0.906   9.824 -0.2587 -0.2666  0.1880
 9071SOL    HW238847   0.028   0.930   9.941 -0.7772  1.6225  1.0731
 9072SOL     OW38848   1.809   1.642   8.360 -0.1845  0.1667 -0.1838
 9072SOL    HW138849   1.785   1.555   8.328  1.9604 -0.8224  0.9269
 9072SOL    HW238850   1.731   1.664   8.411 -0.5126  2.5470 -1.7001
 9073SOL     OW38851   4.154   0.358   6.899 -0.1453  0.4461  0.4716
 9073SOL    HW138852   4.110   0.383   6.980 -2.1594 -0.2787 -0.4100
 9073SOL    HW238853   4.090   0.296   6.864  0.0007 -0.5065  1.8568
 9074SOL     OW38854   0.575   2.839   9.737  0.0808  0.0133 -0.9676
 9074SOL    HW138855   0.554   2.856   9.829  0.0210  0.5970 -1.0867
 9074SOL    HW238856   0.510   2.885   9.684 -1.3961  0.2716  1.0484
 9075SOL     OW38857   1.490   0.848  14.416 -0.1045 -0.8684  0.3284
 9075SOL    HW138858   1.427   0.796  14.465 -0.7859  1.4828  1.9545
 9075SOL    HW238859   1.439   0.874  14.340 -0.5604 -0.9383  0.6154
 9076SOL     OW38860   0.999   3.635   2.297  0.5569 -1.2612 -0.3031
 9076SOL    HW138861   0.943   3.557   2.297  0.0132 -0.8663  0.6015
 9076SOL    HW238862   0.970   3.697   2.229  0.5147 -0.1971  0.6918
 9077SOL     OW38863   1.234   1.723   5.213 -0.1794 -0.2998 -0.4548
 9077SOL    HW138864   1.245   1.814   5.186 -1.8275  0.0498  0.0433
 9077SOL    HW238865   1.313   1.714   5.265 -0.4932 -1.5744 -0.2086
 9078SOL     OW38866   2.602   0.176  16.728 -0.5405  0.4745  0.5291
 9078SOL    HW138867   2.693   0.178  16.695 -1.6728  0.5845 -2.6461
 9078SOL    HW238868   2.599   0.250  16.789 -0.9556 -0.5168  1.6868
 9079SOL     OW38869   0.798   2.573   0.540 -0.1016 -0.1507  0.0454
 9079SOL    HW138870   0.849   2.647   0.571  0.4004 -0.9717  1.1608
 9079SOL    HW238871   0.735   2.573   0.611 -1.2802  1.4841 -1.0063
 9080SOL     OW38872   0.987   1.060  14.927 -0.7578 -0.4253  0.3303
 9080SOL    HW138873   0.994   0.976  14.881 -1.6763  0.6791 -1.7819
 9080SOL    HW238874   0.904   1.096  14.897  0.3796  0.3888 -1.7671
 9081SOL     OW38875   3.895   2.997   1.925  0.2375 -0.1812 -0.8431
 9081SOL    HW138876   3.903   2.939   2.001  0.6946  2.8523  1.4064
 9081SOL    HW238877   3.851   3.072   1.964 -0.6767 -2.4803  2.5327
 9082SOL     OW38878   1.632   3.252  10.754 -0.2411  0.6309 -0.2691
 9082SOL    HW138879   1.649   3.322  10.692 -0.1732  1.4237  0.6529
 9082SOL    HW238880   1.544   3.235  10.721 -0.3455 -0.9433  0.8049
 9083SOL     OW38881   0.250   0.224   7.963  0.2285  0.3139  0.2499
 9083SOL    HW138882   0.253   0.308   7.917 -1.5209  0.5137  0.4948
 9083SOL    HW238883   0.320   0.172   7.923  0.9127  1.1337  0.3774
 9084SOL     OW38884   1.597   1.846  12.389 -0.2681  0.0634  0.1275
 9084SOL    HW138885   1.534   1.904  12.432  1.5517  0.8030  1.7644
 9084SOL    HW238886   1.659   1.914  12.362 -1.7289  1.6479  0.7923
 9085SOL     OW38887   0.014   0.023  14.271 -0.1795 -0.1224 -0.1765
 9085SOL    HW138888   4.714   0.004  14.357  1.6642  0.5168  0.7673
 9085SOL    HW238889   0.068   4.683  14.249  1.6492  1.9414 -2.9108
 9086SOL     OW38890   2.575   0.727  12.060  0.1231 -0.2592 -0.3614
 9086SOL    HW138891   2.509   0.688  12.117  0.1754 -0.6432 -0.5641
 9086SOL    HW238892   2.588   0.800  12.121 -2.6109  0.3551 -0.5278
 9087SOL     OW38893   0.209   4.005  13.658 -0.4986  0.3296  0.2230
 9087SOL    HW138894   0.166   3.922  13.636 -2.0317  0.9741  0.8093
 9087SOL    HW238895   0.290   4.003  13.607 -0.5554 -1.8726  0.2294
 9088SOL     OW38896   0.293   3.387   5.151  0.2256  0.5293  0.0549
 9088SOL    HW138897   0.333   3.473   5.141  2.0232 -0.3725 -0.5502
 9088SOL    HW238898   0.373   3.334   5.158 -0.0981  0.3109  2.0591
 9089SOL     OW38899   1.440   3.935   3.718 -0.1204 -0.1329  0.7664
 9089SOL    HW138900   1.464   3.843   3.735  0.7305  0.5374  3.1522
 9089SOL    HW238901   1.397   3.935   3.633 -0.0323  1.9886  0.7420
 9090SOL     OW38902   0.112   1.030   2.467 -0.1346 -0.0721 -0.7961
 9090SOL    HW138903   0.069   1.077   2.395  0.1314  2.9822  1.0607
 9090SOL    HW238904   0.205   1.045   2.453  0.2969 -2.1127 -0.0629
 9091SOL     OW38905   0.708   3.482   6.398  0.3304  0.4023 -0.3793
 9091SOL    HW138906   0.708   3.389   6.417  0.1385 -0.0563 -2.6098
 9091SOL    HW238907   0.616   3.511   6.402  0.8528  1.9565  0.5505
 9092SOL     OW38908   4.508   3.278   0.507 -0.2948  0.0664  0.0260
 9092SOL    HW138909   4.596   3.286   0.545 -1.1398  2.4412  1.4523
 9092SOL    HW238910   4.514   3.188   0.473  0.8268  0.7658 -1.5782
 9093SOL     OW38911   0.860   4.331  16.746  0.4919 -0.3979 -0.4132
 9093SOL    HW138912   0.950   4.300  16.750  1.2810  1.8368 -1.0219
 9093SOL    HW238913   0.832   4.269  16.679  0.2557  0.3332 -0.9937
 9094SOL     OW38914   3.292   2.769   2.231  0.2070  0.4272 -0.0216
 9094SOL    HW138915   3.385   2.754   2.249 -0.6274 -1.6484  2.5410
 9094SOL    HW238916   3.254   2.700   2.285 -0.4363  0.7484 -0.0716
 9095SOL     OW38917   0.375   0.917   7.335 -0.6078  0.0285  0.1639
 9095SOL    HW138918   0.333   0.833   7.355 -0.9466  0.6512  2.0342
 9095SOL    HW238919   0.319   0.953   7.267  0.1346  0.4216 -0.2413
 9096SOL     OW38920   1.407   0.431   5.704 -0.4647 -0.3219 -0.0990
 9096SOL    HW138921   1.369   0.496   5.644 -0.4219  0.5688  0.8407
 9096SOL    HW238922   1.456   0.482   5.769 -0.3902  1.0806 -1.2619
 9097SOL     OW38923   3.692   0.915   4.406  0.5794 -0.8380 -0.2195
 9097SOL    HW138924   3.778   0.950   4.427  0.6190  0.3492 -2.3998
 9097SOL    HW238925   3.646   0.926   4.489  0.0524  3.2667 -1.0508
 9098SOL     OW38926   0.630   3.746   6.630  0.4678  0.2138 -0.0696
 9098SOL    HW138927   0.652   3.683   6.698  0.9167  1.7281  1.1766
 9098SOL    HW238928   0.698   3.718   6.568  0.2292 -0.0142 -0.2297
 9099SOL     OW38929   0.891   2.285   9.033  0.3643 -0.0608 -0.8119
 9099SOL    HW138930   0.883   2.378   9.053  0.2250  0.6411 -4.1655
 9099SOL    HW238931   0.840   2.246   9.105 -0.0704 -1.0690 -1.6603
 9100SOL     OW38932   2.823   1.372  15.148  0.1364 -0.0365 -0.2718
 9100SOL    HW138933   2.816   1.322  15.066  0.7036 -0.1537 -0.2458
 9100SOL    HW238934   2.801   1.298  15.206  0.5355 -2.5705 -3.3293
 9101SOL     OW38935   3.695   3.363   1.721  0.2057 -0.3353 -0.0415
 9101SOL    HW138936   3.737   3.315   1.650  0.5084 -0.2033  0.0506
 9101SOL    HW238937   3.657   3.435   1.671 -0.0783  0.4522  1.3101
 9102SOL     OW38938   0.096   1.958   5.849 -0.5342 -0.2489  0.2359
 9102SOL    HW138939   0.037   2.030   5.872 -1.1185 -0.3975 -0.8095
 9102SOL    HW238940   0.141   1.941   5.932  1.4972 -2.3721 -1.3279
 9103SOL     OW38941   0.854   0.776   5.786 -0.0374  0.0109 -0.1125
 9103SOL    HW138942   0.835   0.704   5.846  2.7198  0.6203  1.5287
 9103SOL    HW238943   0.938   0.804   5.823 -0.0021  0.7158 -0.7198
 9104SOL     OW38944   1.076   1.734   7.420  0.0199  0.4954  0.6388
 9104SOL    HW138945   1.086   1.671   7.492  2.0256 -0.0044 -0.0786
 9104SOL    HW238946   1.149   1.705   7.366 -1.6038  0.4333 -1.5217
 9105SOL     OW38947   1.361   3.952   6.789  0.0629  0.2263 -0.5080
 9105SOL    HW138948   1.415   3.881   6.825  1.8025  1.2116 -1.1425
 9105SOL    HW238949   1.429   4.014   6.760  1.6252 -0.5893  1.3589
 9106SOL     OW38950   1.941   3.186   7.482 -0.3858  0.0833  0.1469
 9106SOL    HW138951   1.869   3.244   7.459 -1.1898  0.0661  2.6133
 9106SOL    HW238952   1.946   3.198   7.577 -0.9718  1.5681 -0.0287
 9107SOL     OW38953   2.320   4.382   8.561  0.1597 -0.2365 -0.2549
 9107SOL    HW138954   2.412   4.410   8.559  0.7586 -2.0968  0.4852
 9107SOL    HW238955   2.280   4.469   8.569 -0.8680 -0.5078 -2.4092
 9108SOL     OW38956   2.563   0.199   4.669 -0.1427 -0.1745 -0.0269
 9108SOL    HW138957   2.545   0.292   4.683  0.7571 -0.0802  0.5352
 9108SOL    HW238958   2.655   0.206   4.695  0.5730 -3.1661 -1.7528
 9109SOL     OW38959   4.467   1.280  17.594  0.6492 -0.9325  0.7211
 9109SOL    HW138960   4.405   1.312  17.528 -0.9192 -1.3598  1.9970
 9109SOL    HW238961   4.526   1.353  17.611 -1.1392  0.5144  0.6679
 9110SOL     OW38962   4.353   0.927  16.691 -0.1715  0.2279 -0.5369
 9110SOL    HW138963   4.340   0.882  16.608 -1.6707  0.8694 -0.6436
 9110SOL    HW238964   4.282   0.884  16.738  0.0165  0.4322 -0.0584
 9111SOL     OW38965   3.151   0.499  15.968  0.0217  0.3199  0.1388
 9111SOL    HW138966   3.075   0.479  16.022 -0.3094 -0.3510 -0.5790
 9111SOL    HW238967   3.205   0.424  15.993 -0.2632  0.3497  0.8488
 9112SOL     OW38968   2.827   2.243   6.026 -0.6193  0.6015  0.0218
 9112SOL    HW138969   2.857   2.163   6.069 -0.4928  0.5302 -0.1992
 9112SOL    HW238970   2.910   2.280   5.995 -0.6234  0.2584 -0.3931
 9113SOL     OW38971   0.210   0.622  15.469 -0.3402  0.3704 -0.4592
 9113SOL    HW138972   0.114   0.632  15.471 -0.4054 -0.5174  0.9199
 9113SOL    HW238973   0.229   0.658  15.556 -0.6099  0.2853 -0.3616
 9114SOL     OW38974   4.715   2.994  17.607 -0.0707  0.3407 -0.5186
 9114SOL    HW138975   4.685   2.989  17.516  0.4008  1.0735 -0.7094
 9114SOL    HW238976   4.682   3.083  17.620  1.6280  0.8147  0.5078
 9115SOL     OW38977   4.335   4.538   8.076  0.0696  0.0185  0.3723
 9115SOL    HW138978   4.385   4.582   8.008  1.6328 -0.8532  0.9695
 9115SOL    HW238979   4.392   4.467   8.104 -0.5548 -1.1280 -1.2242
 9116SOL     OW38980   1.237   2.874   8.178 -0.7205 -0.3614  0.6652
 9116SOL    HW138981   1.180   2.854   8.253  1.0837 -1.0130  1.8631
 9116SOL    HW238982   1.185   2.841   8.105 -1.4227 -0.8967  1.3987
 9117SOL     OW38983   0.358   2.534   7.000  0.3609 -0.4641  0.1983
 9117SOL    HW138984   0.421   2.488   6.945  0.6133  0.3679 -0.2020
 9117SOL    HW238985   0.377   2.622   6.966 -1.5464  1.0820  3.1157
 9118SOL     OW38986   3.111   4.234  14.599 -0.2716 -0.0333 -0.4123
 9118SOL    HW138987   3.158   4.157  14.631 -1.3804 -0.3073  0.5529
 9118SOL    HW238988   3.029   4.197  14.567  0.7595 -1.6690 -1.1627
 9119SOL     OW38989   3.687   3.444   4.467  0.5565 -0.2646 -0.1945
 9119SOL    HW138990   3.650   3.509   4.407  3.0977  2.0603  0.7428
 9119SOL    HW238991   3.630   3.369   4.451  1.1729 -0.7213 -0.2733
 9120SOL     OW38992   1.306   4.353   4.849  0.0896  0.1187  0.0178
 9120SOL    HW138993   1.307   4.342   4.945 -1.2838  0.7193  0.1103
 9120SOL    HW238994   1.313   4.265   4.814  2.0826 -0.4615  1.8741
 9121SOL     OW38995   4.563   2.271   7.007 -0.1215  0.2963 -0.4385
 9121SOL    HW138996   4.609   2.331   7.065 -0.3386  0.6120 -0.5972
 9121SOL    HW238997   4.635   2.216   6.974 -1.6325 -2.1048  0.2708
 9122SOL     OW38998   0.011   3.539   7.389 -0.2302  0.1574  0.4775
 9122SOL    HW138999   4.663   3.500   7.366  0.3160 -0.5120 -0.3704
 9122SOL    HW239000   4.715   3.615   7.439  1.6838  3.2107 -2.9102
 9123SOL     OW39001   0.924   1.799  16.079 -0.3274  0.4689 -0.5655
 9123SOL    HW139002   0.909   1.706  16.096 -0.9522  0.4025 -1.4188
 9123SOL    HW239003   0.835   1.834  16.069 -0.5518 -0.0449 -0.3780
 9124SOL     OW39004   3.411   2.794   7.788  0.2496 -0.1705 -0.0370
 9124SOL    HW139005   3.406   2.883   7.822 -1.9408 -0.3984  0.2177
 9124SOL    HW239006   3.482   2.808   7.725 -0.7862  2.0322 -0.6948
 9125SOL     OW39007   0.996   4.320   5.652 -0.0555  0.7100 -0.7012
 9125SOL    HW139008   1.058   4.367   5.596  0.8146  0.5541  0.1196
 9125SOL    HW239009   0.916   4.336   5.603 -0.6534  1.5996  0.5786
 9126SOL     OW39010   2.699   2.335   3.969 -0.1537 -0.4320  0.5059
 9126SOL    HW139011   2.745   2.269   3.918 -0.3533  0.0660 -0.3191
 9126SOL    HW239012   2.703   2.412   3.912 -1.0883 -0.8367 -0.1019
 9127SOL     OW39013   0.794   2.271   5.581 -0.1215  0.4866  0.5123
 9127SOL    HW139014   0.887   2.253   5.567 -0.0407  0.3778  1.1810
 9127SOL    HW239015   0.761   2.224   5.504 -2.1506 -0.8414  2.1848
 9128SOL     OW39016   3.246   4.682   8.470 -0.4651  0.3004 -0.3543
 9128SOL    HW139017   3.271   4.633   8.549 -1.6933 -1.0038 -0.7677
 9128SOL    HW239018   3.152   4.667   8.464  0.0080 -2.6379 -0.4083
 9129SOL     OW39019   0.745   3.693   4.973 -0.0125  0.6518 -0.2281
 9129SOL    HW139020   0.768   3.718   5.063 -0.5527  0.1777  0.0420
 9129SOL    HW239021   0.696   3.611   4.978 -1.0464  1.3565  1.0022
 9130SOL     OW39022   3.655   3.270   3.081  0.4375  0.1038 -0.1323
 9130SOL    HW139023   3.610   3.353   3.062 -1.1001 -0.5110  0.8567
 9130SOL    HW239024   3.572   3.228   3.101  0.4246 -0.6745 -1.8605
 9131SOL     OW39025   1.858   4.098   5.695  0.4562 -0.1479 -0.2417
 9131SOL    HW139026   1.800   4.134   5.762  1.9143  2.5681 -0.4134
 9131SOL    HW239027   1.909   4.039   5.750 -0.2929  0.0676  0.6824
 9132SOL     OW39028   0.340   0.023   3.372 -0.0517 -0.0403  0.3813
 9132SOL    HW139029   0.362   0.109   3.335  0.1319 -1.5774 -3.0304
 9132SOL    HW239030   0.247   0.017   3.350  0.2812  0.9026 -1.2578
 9133SOL     OW39031   4.551   2.789  11.749  0.1589 -0.3091 -0.1043
 9133SOL    HW139032   4.497   2.772  11.826  0.2994  1.1272  0.3143
 9133SOL    HW239033   4.515   2.722  11.691 -0.1942 -0.7379  0.6132
 9134SOL     OW39034   1.970   3.031  12.443 -0.9331  0.0773 -0.4301
 9134SOL    HW139035   1.981   2.937  12.460 -0.2131  0.3968  0.7978
 9134SOL    HW239036   1.951   3.061  12.531 -0.3382  0.4700 -0.4315
 9135SOL     OW39037   0.751   2.858   2.721 -0.1447  0.1121 -0.5754
 9135SOL    HW139038   0.700   2.779   2.743  0.8608  0.1232  1.8787
 9135SOL    HW239039   0.791   2.834   2.638 -1.4204  0.3065 -1.2444
 9136SOL     OW39040   4.603   4.638  11.960 -0.0982  0.4916 -0.2952
 9136SOL    HW139041   4.602   4.544  11.945  0.7739 -0.0844  3.1588
 9136SOL    HW239042   4.544   4.654  12.033 -1.0611 -2.1672 -0.5034
 9137SOL     OW39043   0.548   4.693  16.384 -0.5400  0.1978 -0.0959
 9137SOL    HW139044   0.507   0.028  16.432  0.2098  1.1503 -0.8583
 9137SOL    HW239045   0.478   4.642  16.344 -0.6249 -1.7700  2.5501
 9138SOL     OW39046   3.477   2.719  15.600  0.1236  0.0449  0.0510
 9138SOL    HW139047   3.436   2.786  15.654 -1.5577 -1.3194  0.4694
 9138SOL    HW239048   3.405   2.656  15.602 -2.5650  3.1061  0.2067
 9139SOL     OW39049   0.737   2.583   2.742  0.5681 -0.4321 -0.5024
 9139SOL    HW139050   0.652   2.550   2.714 -1.2031  1.2115  2.9107
 9139SOL    HW239051   0.790   2.522   2.691  1.3994 -0.8501  0.8628
 9140SOL     OW39052   3.156   2.761  17.372 -0.2389 -1.0431 -0.2308
 9140SOL    HW139053   3.231   2.740  17.428  1.5889  3.7654 -0.8954
 9140SOL    HW239054   3.182   2.743  17.282  3.6593  0.0369  0.6778
 9141SOL     OW39055   1.329   0.653  17.421  0.0944  0.7591  0.7260
 9141SOL    HW139056   1.327   0.710  17.344 -1.4391 -1.2048 -0.6881
 9141SOL    HW239057   1.405   0.596  17.411  0.4340  1.7841 -2.5072
 9142SOL     OW39058   0.696   3.769   2.460 -0.3370  0.1664 -0.4982
 9142SOL    HW139059   0.703   3.745   2.552 -1.8916  0.2199 -0.3668
 9142SOL    HW239060   0.616   3.719   2.442 -1.5524  1.7475  0.5621
 9143SOL     OW39061   4.408   4.554   1.497 -0.2270 -0.5874 -0.0129
 9143SOL    HW139062   4.387   4.462   1.483  0.1638 -0.7760  0.6675
 9143SOL    HW239063   4.491   4.566   1.450 -0.0625 -3.0760 -0.3289
 9144SOL     OW39064   3.837   0.058   2.554 -0.2792  0.3235  0.5904
 9144SOL    HW139065   3.882   0.069   2.470  1.0254 -0.7940  1.1454
 9144SOL    HW239066   3.907   0.094   2.608 -0.9050 -1.3086  2.5271
 9145SOL     OW39067   2.438   1.801  17.056 -0.2011 -0.5998 -0.1192
 9145SOL    HW139068   2.460   1.726  17.111  3.4434 -0.9023 -1.9629
 9145SOL    HW239069   2.477   1.873  17.106  0.6812 -1.6616  0.7227
 9146SOL     OW39070   4.174   4.466  10.498  0.1125 -0.0082 -0.4722
 9146SOL    HW139071   4.258   4.510  10.482 -0.2429  1.2714  1.1850
 9146SOL    HW239072   4.147   4.448  10.408 -0.9997  1.8077 -0.5064
 9147SOL     OW39073   0.993   0.410   9.511  0.2100  0.3965  0.8613
 9147SOL    HW139074   1.060   0.343   9.503  0.1664  0.1910  2.4023
 9147SOL    HW239075   1.041   0.477   9.561  0.2084  2.2407 -1.5552
 9148SOL     OW39076   0.631   0.563  17.720 -0.3798  0.0857  0.2094
 9148SOL    HW139077   0.645   0.468  17.723 -0.5985 -0.0638 -2.7817
 9148SOL    HW239078   0.608   0.584   0.066 -0.1738  0.4657  0.1724
 9149SOL     OW39079   0.750   0.137   2.694 -0.1443  0.2311 -0.6291
 9149SOL    HW139080   0.777   0.124   2.602  0.3030  0.6636 -0.5638
 9149SOL    HW239081   0.666   0.180   2.681 -0.0941  1.1125  2.0160
 9150SOL     OW39082   0.382   4.553   8.492  0.4813  0.5851  0.0813
 9150SOL    HW139083   0.366   4.488   8.423 -1.2067 -1.2203  2.1567
 9150SOL    HW239084   0.295   4.582   8.519  0.7859  1.3062  0.2826
 9151SOL     OW39085   3.782   0.728  12.088 -0.4190  0.3085 -0.3776
 9151SOL    HW139086   3.734   0.780  12.153 -0.1104  0.3879 -0.2138
 9151SOL    HW239087   3.874   0.749  12.103 -0.4013 -0.2417  0.2735
 9152SOL     OW39088   0.664   4.683   6.682 -0.3263  0.0899 -0.3939
 9152SOL    HW139089   0.641   4.603   6.730  0.2440 -0.4151 -0.9683
 9152SOL    HW239090   0.705   4.734   6.752  2.1553 -1.0655 -1.0008
 9153SOL     OW39091   4.323   0.704   5.178 -0.6184 -0.2262  0.2867
 9153SOL    HW139092   4.355   0.791   5.153 -1.7530  1.5065  4.7444
 9153SOL    HW239093   4.346   0.703   5.271 -0.1110 -0.6102  0.1578
 9154SOL     OW39094   1.211   1.712  12.472 -0.6094  0.2131 -0.4845
 9154SOL    HW139095   1.241   1.801  12.489  1.0846 -0.4951  0.2461
 9154SOL    HW239096   1.235   1.711  12.379  2.5038 -0.7658  0.3276
 9155SOL     OW39097   2.510   2.188   9.710  0.0207  0.1029 -0.9632
 9155SOL    HW139098   2.580   2.126   9.732  0.9838  0.4577 -3.1002
 9155SOL    HW239099   2.516   2.258   9.775 -2.3419  0.2491 -0.8876
 9156SOL     OW39100   3.842   3.283   2.230  0.2844 -0.6553  0.1858
 9156SOL    HW139101   3.871   3.243   2.148 -4.3932  0.7617 -2.2288
 9156SOL    HW239102   3.773   3.348   2.212  0.4839 -0.8494 -1.3001
 9157SOL     OW39103   0.721   2.252   9.270 -0.4211 -0.2460 -0.3548
 9157SOL    HW139104   0.627   2.234   9.271 -0.6403  1.0936  3.6107
 9157SOL    HW239105   0.737   2.311   9.343  0.7900 -1.1937  0.1501
 9158SOL     OW39106   1.070   2.017   7.370 -0.2977  0.7462 -0.2968
 9158SOL    HW139107   1.099   1.979   7.287  0.4414 -2.1146  1.3078
 9158SOL    HW239108   1.104   1.944   7.420 -1.0730  0.8607  0.4020
 9159SOL     OW39109   3.012   0.887   7.202  0.1534  0.0708 -0.0314
 9159SOL    HW139110   3.083   0.946   7.228  1.6268 -0.3366 -3.1709
 9159SOL    HW239111   2.975   0.944   7.135  0.1309  0.0012 -0.0783
 9160SOL     OW39112   0.923   0.474   6.601  0.0251 -0.1461 -0.1188
 9160SOL    HW139113   1.010   0.446   6.573  0.6014  0.6532  0.8649
 9160SOL    HW239114   0.890   0.523   6.526  0.8833  2.5725  1.2586
 9161SOL     OW39115   1.925   2.373   2.753  0.2594  0.1801  1.1091
 9161SOL    HW139116   1.845   2.377   2.805 -1.4030  0.1577 -1.3999
 9161SOL    HW239117   1.894   2.410   2.670  0.3452 -3.2163 -0.4316
 9162SOL     OW39118   2.318   4.104   7.313  0.3521 -0.3056  0.1663
 9162SOL    HW139119   2.302   4.178   7.372 -4.0057 -1.1951  0.1409
 9162SOL    HW239120   2.264   4.032   7.347 -0.6012  0.0308 -0.6203
 9163SOL     OW39121   0.887   4.331   3.076 -0.0283 -0.4973  0.5191
 9163SOL    HW139122   0.973   4.372   3.086 -0.9499  1.3784  0.5949
 9163SOL    HW239123   0.897   4.243   3.115 -1.3820 -1.8561 -2.2465
 9164SOL     OW39124   1.241   4.099   7.949 -0.2350  0.4375 -0.4354
 9164SOL    HW139125   1.297   4.147   7.887  1.3714 -1.2674 -0.2996
 9164SOL    HW239126   1.255   4.009   7.922 -1.9583 -0.3415  1.2642
 9165SOL     OW39127   2.041   4.576  16.684 -0.2806 -0.3944 -0.1790
 9165SOL    HW139128   1.947   4.557  16.686 -0.3777  0.0779 -0.1951
 9165SOL    HW239129   2.039   4.672  16.682 -2.2757 -0.3985  1.2089
 9166SOL     OW39130   1.579   0.496  15.639 -0.2952 -0.0367 -0.1573
 9166SOL    HW139131   1.521   0.445  15.582  0.7468  0.1109 -1.3611
 9166SOL    HW239132   1.572   0.586  15.607 -2.0301  0.1862  0.8680
 9167SOL     OW39133   3.609   4.352   8.862  0.3541  0.4414  0.0140
 9167SOL    HW139134   3.571   4.265   8.851 -0.9371  0.7871  1.6125
 9167SOL    HW239135   3.576   4.413   8.796  0.3451 -0.2573 -0.6144
 9168SOL     OW39136   1.681   3.863   3.894  0.1532 -0.0043 -0.3092
 9168SOL    HW139137   1.736   3.886   3.969  0.0406  0.2426 -0.3030
 9168SOL    HW239138   1.672   3.940   3.837 -1.7912  1.4723  2.0306
 9169SOL     OW39139   0.505   3.016   5.683  0.5531 -0.1359  0.1647
 9169SOL    HW139140   0.538   3.071   5.754 -0.2079  0.7179 -0.1485
 9169SOL    HW239141   0.537   3.067   5.608  0.0851 -0.5474 -0.3093
 9170SOL     OW39142   4.394   3.586   6.850 -0.3649 -0.7139 -0.1241
 9170SOL    HW139143   4.425   3.497   6.829  1.9229  0.4169 -1.5080
 9170SOL    HW239144   4.305   3.584   6.816 -0.0190  0.5005 -1.0953
 9171SOL     OW39145   1.254   3.135  12.312 -0.3264  0.1078 -0.2566
 9171SOL    HW139146   1.341   3.109  12.284 -0.3838 -1.4705  1.0732
 9171SOL    HW239147   1.261   3.185  12.394  2.0524 -0.3861 -0.1739
 9172SOL     OW39148   0.912   3.795   6.232 -1.0270 -0.1994 -0.2692
 9172SOL    HW139149   0.922   3.886   6.260 -1.8352 -0.4548  0.8315
 9172SOL    HW239150   0.870   3.809   6.147 -0.0003  0.2041 -0.7117
 9173SOL     OW39151   0.370   1.125   2.426 -0.4245  0.0201  0.5729
 9173SOL    HW139152   0.377   1.220   2.414  0.3418  0.1368  1.9793
 9173SOL    HW239153   0.393   1.088   2.340  1.8075  2.8385 -0.0496
 9174SOL     OW39154   0.450   3.433   9.213 -0.7421 -0.0066  0.0027
 9174SOL    HW139155   0.489   3.428   9.125  0.2533  1.5898  0.3524
 9174SOL    HW239156   0.427   3.343   9.234  2.1635 -0.8031 -0.2347
 9175SOL     OW39157   4.083   0.940   2.896 -0.1586 -0.0787  0.0109
 9175SOL    HW139158   4.089   1.009   2.830  0.6168  0.0959  0.2642
 9175SOL    HW239159   4.174   0.913   2.905 -0.7233 -1.4563  1.5977
 9176SOL     OW39160   0.256   3.627   7.187 -0.3323  0.0020  0.6119
 9176SOL    HW139161   0.289   3.581   7.264  0.2042 -0.0118  0.3760
 9176SOL    HW239162   0.175   3.668   7.217 -2.5866 -1.9219 -2.8149
 9177SOL     OW39163   3.591   4.083  10.408 -0.1243 -0.4585  0.2036
 9177SOL    HW139164   3.606   4.053  10.318 -0.0431  1.0133 -0.2746
 9177SOL    HW239165   3.506   4.116  10.379  0.4596 -0.0782 -1.0950
 9178SOL     OW39166   2.603   3.372   3.618  0.1403 -0.3468  0.2505
 9178SOL    HW139167   2.668   3.392   3.685  0.0586 -2.4379  0.9452
 9178SOL    HW239168   2.650   3.313   3.559 -1.7912 -2.3261  0.7027
 9179SOL     OW39169   2.716   0.310   7.224 -0.2636  0.1572  0.3113
 9179SOL    HW139170   2.674   0.279   7.304 -0.9710 -1.3827 -0.6550
 9179SOL    HW239171   2.738   0.403   7.232 -0.3699  0.0389  1.9058
 9180SOL     OW39172   2.417   0.161   9.903 -0.3397  0.0644 -0.3311
 9180SOL    HW139173   2.443   0.109   9.979 -0.9433 -1.5202 -1.2121
 9180SOL    HW239174   2.477   0.136   9.833  0.1876 -1.0921  0.5157
 9181SOL     OW39175   2.174   1.766   8.785 -0.2341  0.0652  0.1403
 9181SOL    HW139176   2.163   1.697   8.850  1.5660  0.8727  1.3006
 9181SOL    HW239177   2.151   1.726   8.701 -2.4134 -1.5640  1.5129
 9182SOL     OW39178   1.363   3.307   9.925 -0.0148  0.4458  0.0933
 9182SOL    HW139179   1.293   3.270   9.870  1.7315  0.5676 -2.2084
 9182SOL    HW239180   1.411   3.230   9.957  0.4491  0.1926 -1.1847
 9183SOL     OW39181   0.570   2.910   2.134 -0.3015  0.2689 -0.0531
 9183SOL    HW139182   0.502   2.976   2.146  0.4023  0.5786  2.2972
 9183SOL    HW239183   0.648   2.948   2.174 -1.7776  2.5137  0.6684
 9184SOL     OW39184   3.388   3.641   2.447 -0.2262  0.5730 -0.4526
 9184SOL    HW139185   3.409   3.732   2.463 -0.4230  0.4725  0.3857
 9184SOL    HW239186   3.475   3.601   2.453 -0.0457  1.1618  0.7277
 9185SOL     OW39187   3.909   0.320   0.467 -0.1033 -0.2465  0.5214
 9185SOL    HW139188   3.936   0.249   0.525  0.6812 -0.0897  0.3424
 9185SOL    HW239189   3.877   0.378   0.536  3.0172  1.6523  0.3566
 9186SOL     OW39190   2.845   4.345   7.904  0.1449  0.0700 -0.7308
 9186SOL    HW139191   2.912   4.293   7.949 -1.1355 -0.4104  0.6205
 9186SOL    HW239192   2.804   4.270   7.862 -0.4067 -1.0791  1.8480
 9187SOL     OW39193   1.699   0.125   6.896  0.2841  0.6596 -0.3862
 9187SOL    HW139194   1.682   0.176   6.816 -0.2797 -0.1693 -0.8044
 9187SOL    HW239195   1.793   0.142   6.898 -0.2639  3.7902 -1.5053
 9188SOL     OW39196   1.069   1.442   9.738 -0.4354 -0.2084  0.1099
 9188SOL    HW139197   1.140   1.496   9.703 -0.8684  0.6070  0.5125
 9188SOL    HW239198   1.039   1.406   9.654  3.3260 -2.0293 -0.4472
 9189SOL     OW39199   0.811   3.883   6.910 -0.9490 -0.8707  0.1110
 9189SOL    HW139200   0.783   3.862   6.821 -0.1929  0.1447 -0.3677
 9189SOL    HW239201   0.879   3.817   6.921  0.4440  0.4512 -0.4730
 9190SOL     OW39202   3.069   4.296  11.867  0.2605  0.1163  0.2904
 9190SOL    HW139203   2.981   4.333  11.874  0.8952  1.5083  0.6834
 9190SOL    HW239204   3.050   4.227  11.803  0.4726  1.3932 -1.1320
 9191SOL     OW39205   3.377   2.129   3.933 -0.1444  0.2271 -0.5163
 9191SOL    HW139206   3.306   2.077   3.897  0.2402 -2.1028  2.1129
 9191SOL    HW239207   3.336   2.215   3.946 -1.3546 -0.8784  3.1403
 9192SOL     OW39208   1.835   3.559   6.507 -0.5220  0.3895  0.4230
 9192SOL    HW139209   1.898   3.544   6.578 -2.1265 -2.2349  1.3327
 9192SOL    HW239210   1.843   3.471   6.470  0.7239  1.6336 -2.1896
 9193SOL     OW39211   1.791   4.601   6.974  0.0392  0.2703  0.1831
 9193SOL    HW139212   1.869   4.652   6.994  0.3108 -0.9613  2.2650
 9193SOL    HW239213   1.752   4.664   6.914  0.9950  1.0362  0.3772
 9194SOL     OW39214   4.048   0.927   6.400  0.5543  0.2689 -0.0878
 9194SOL    HW139215   4.045   1.022   6.390 -1.8145  0.4320  1.9921
 9194SOL    HW239216   4.143   0.919   6.397  0.5157 -0.8383  1.1581
 9195SOL     OW39217   2.909   2.836   2.290 -0.1947  0.0014  0.0181
 9195SOL    HW139218   2.907   2.749   2.251  0.2805  0.4515 -1.0009
 9195SOL    HW239219   2.817   2.859   2.301 -0.1086  0.1397  0.4399
 9196SOL     OW39220   1.971   0.044   0.522  0.0646  0.3302  0.0615
 9196SOL    HW139221   2.018   4.698   0.514  1.4928  0.7970  3.4952
 9196SOL    HW239222   1.880   0.014   0.521 -0.3790  1.6672  0.3268
 9197SOL     OW39223   1.006   4.470   2.461 -0.0642 -0.4559  0.0940
 9197SOL    HW139224   0.994   4.376   2.474  0.6865 -0.8677 -2.3648
 9197SOL    HW239225   0.916   4.495   2.482  1.0006  0.7805  3.2604
 9198SOL     OW39226   0.590   3.737   7.144 -0.2005 -0.3993 -0.4077
 9198SOL    HW139227   0.678   3.713   7.172 -0.4647  0.2099  0.9515
 9198SOL    HW239228   0.552   3.651   7.128  0.5724 -0.6945 -0.6774
 9199SOL     OW39229   1.621   4.254  10.054  0.6368 -0.4267 -0.4525
 9199SOL    HW139230   1.693   4.198  10.082  0.7833 -0.4582 -0.8980
 9199SOL    HW239231   1.576   4.265  10.138 -0.2655  1.2472 -1.1534
 9200SOL     OW39232   4.390   2.694   3.093  0.5767 -0.1157 -0.5882
 9200SOL    HW139233   4.384   2.603   3.064  0.5599  0.1106 -1.2840
 9200SOL    HW239234   4.355   2.740   3.017 -0.4993 -2.3604 -1.4238
 9201SOL     OW39235   0.619   1.579   9.192  0.1589 -0.1356 -0.2451
 9201SOL    HW139236   0.610   1.541   9.104 -1.7928 -1.8906  0.7177
 9201SOL    HW239237   0.571   1.661   9.181  1.6076  0.7750  0.1953
 9202SOL     OW39238   1.241   2.361   1.944  0.0843  0.0831 -0.0261
 9202SOL    HW139239   1.247   2.359   1.849 -0.5739 -2.0404 -0.0343
 9202SOL    HW239240   1.332   2.337   1.963 -0.1127  0.5926  1.5933
 9203SOL     OW39241   4.184   3.647   6.226 -0.1894  0.8347  0.4489
 9203SOL    HW139242   4.130   3.593   6.168 -0.5955  1.9271 -0.1983
 9203SOL    HW239243   4.118   3.683   6.285 -3.7678  0.5149 -3.3151
 9204SOL     OW39244   3.279   3.141  15.981 -0.3947  0.1228  0.4853
 9204SOL    HW139245   3.267   3.193  15.902  2.3514  0.9651  0.6344
 9204SOL    HW239246   3.189   3.111  16.000 -0.1957  1.5231  3.7081
 9205SOL     OW39247   4.477   0.517   8.044 -0.0372 -0.0687  0.3975
 9205SOL    HW139248   4.394   0.526   7.997  0.3084 -2.0241 -0.5568
 9205SOL    HW239249   4.521   0.456   7.985  2.0870  2.2230 -0.3995
 9206SOL     OW39250   0.581   4.620  14.407 -0.1053 -0.1207 -0.1333
 9206SOL    HW139251   0.570   4.528  14.430 -0.7415 -0.7568 -2.9657
 9206SOL    HW239252   0.491   4.641  14.383 -0.0159 -0.8959 -1.1757
 9207SOL     OW39253   0.891   3.411  17.390  0.0025 -0.0718  0.2273
 9207SOL    HW139254   0.959   3.372  17.335 -0.4668  0.6823 -0.8851
 9207SOL    HW239255   0.824   3.457  17.339  0.3352 -0.7679 -0.8526
 9208SOL     OW39256   3.928   2.115  15.316 -0.0925  0.3180 -0.3193
 9208SOL    HW139257   3.951   2.180  15.249 -0.7573  2.0733  1.1518
 9208SOL    HW239258   4.016   2.088  15.339 -0.1899  0.2049 -0.0756
 9209SOL     OW39259   0.365   2.360  12.171  0.8395  0.1701 -0.0112
 9209SOL    HW139260   0.435   2.416  12.136  2.3562 -0.9117  1.2720
 9209SOL    HW239261   0.350   2.406  12.254  0.1336 -1.8977  1.0232
 9210SOL     OW39262   2.379   1.184   5.967 -0.7937  0.4830 -0.2162
 9210SOL    HW139263   2.440   1.124   5.925  0.7647  0.4676  2.1329
 9210SOL    HW239264   2.359   1.234   5.887 -0.6736 -0.8531 -1.0926
 9211SOL     OW39265   3.676   1.659   6.861 -0.1249 -0.7885  0.5225
 9211SOL    HW139266   3.765   1.645   6.892 -0.3973  2.0126  2.6216
 9211SOL    HW239267   3.633   1.685   6.943 -0.0120  2.5262 -0.4894
 9212SOL     OW39268   2.742   3.718   1.654  0.3015 -0.3009  0.4013
 9212SOL    HW139269   2.737   3.670   1.737 -1.0834  1.3909  1.2954
 9212SOL    HW239270   2.662   3.770   1.661 -0.1051 -1.1767  2.4068
 9213SOL     OW39271   4.205   4.298   6.894  0.9416 -0.3721 -0.2316
 9213SOL    HW139272   4.125   4.282   6.945  1.1849  0.9268  0.5587
 9213SOL    HW239273   4.261   4.242   6.947 -0.3393 -1.4791 -0.0589
 9214SOL     OW39274   0.829   4.226   2.792  0.2763  0.1350  0.4898
 9214SOL    HW139275   0.753   4.177   2.823 -1.1369  0.7750 -2.0339
 9214SOL    HW239276   0.863   4.255   2.877 -0.4567  1.0227  0.4877
 9215SOL     OW39277   2.832   4.330   4.291 -0.0089 -0.3431 -0.8226
 9215SOL    HW139278   2.883   4.404   4.258  1.9402 -1.0191  0.7210
 9215SOL    HW239279   2.905   4.276   4.321 -0.9800 -0.2150  1.7028
 9216SOL     OW39280   3.252   3.106   6.329  0.0584  0.0394  0.1472
 9216SOL    HW139281   3.265   3.076   6.419  3.7901  1.7137  0.2018
 9216SOL    HW239282   3.332   3.073   6.287 -0.4056 -0.2005 -0.5517
 9217SOL     OW39283   3.661   3.806   4.321 -0.0531  0.1905 -0.7755
 9217SOL    HW139284   3.658   3.871   4.250  0.1790  0.3303 -0.6572
 9217SOL    HW239285   3.756   3.795   4.322 -0.1951 -0.9114  0.0425
 9218SOL     OW39286   3.993   4.097   4.967  0.1484 -0.2516 -0.2715
 9218SOL    HW139287   3.990   4.024   4.906 -2.2253 -1.5248  1.3641
 9218SOL    HW239288   4.052   4.158   4.924  0.1443  0.5190  0.8139
 9219SOL     OW39289   0.748   1.112   3.595  0.3438  0.2979  0.5926
 9219SOL    HW139290   0.663   1.109   3.638  0.9410  0.9287  1.8434
 9219SOL    HW239291   0.805   1.104   3.672  0.1635  1.5354  0.8574
 9220SOL     OW39292   3.899   0.502  11.798 -0.3061 -0.5191  0.5085
 9220SOL    HW139293   3.851   0.419  11.794 -4.6008  1.9426  0.5288
 9220SOL    HW239294   3.840   0.554  11.853 -0.7808 -0.5844  0.0645
 9221SOL     OW39295   0.751   0.698  12.193 -0.2691  0.7018 -0.0156
 9221SOL    HW139296   0.693   0.770  12.219 -2.6588 -1.4403  0.6458
 9221SOL    HW239297   0.813   0.697  12.266  0.4724 -2.7149 -0.6934
 9222SOL     OW39298   3.996   1.672   6.457  0.2690 -0.2504 -0.2258
 9222SOL    HW139299   4.007   1.578   6.474 -1.1203 -0.2367  0.7031
 9222SOL    HW239300   4.070   1.701   6.510 -1.2733  3.3136 -0.0193
 9223SOL     OW39301   2.513   1.144   1.204  0.0037 -0.0506  0.2243
 9223SOL    HW139302   2.459   1.223   1.213 -1.1459 -0.8614  0.3602
 9223SOL    HW239303   2.520   1.122   1.296 -0.1734 -1.7434 -0.1753
 9224SOL     OW39304   3.837   2.194  15.573 -0.7110 -0.6432 -0.1757
 9224SOL    HW139305   3.822   2.288  15.561  0.1533 -0.4528  0.2277
 9224SOL    HW239306   3.887   2.180  15.492 -1.1755  2.5193 -1.0041
 9225SOL     OW39307   2.884   2.075  14.435 -0.0285 -0.3670  0.2710
 9225SOL    HW139308   2.820   2.127  14.385 -1.7216 -1.2298  1.5267
 9225SOL    HW239309   2.934   2.054  14.356  0.7089 -0.2455  0.7183
 9226SOL     OW39310   1.662   0.601   1.588  0.0477  0.2503  0.0510
 9226SOL    HW139311   1.607   0.650   1.649 -0.9410  0.6077 -1.1225
 9226SOL    HW239312   1.729   0.667   1.569 -0.7957  0.7938 -1.0478
 9227SOL     OW39313   4.340   2.605   3.952 -0.3420  0.2918 -0.3288
 9227SOL    HW139314   4.327   2.577   3.861  1.2073 -1.0784 -0.1148
 9227SOL    HW239315   4.307   2.695   3.955  0.8637  0.8269 -3.3958
 9228SOL     OW39316   4.463   3.336   1.858  0.2649 -0.4971  0.2918
 9228SOL    HW139317   4.488   3.247   1.883 -1.2619 -0.7301  0.9659
 9228SOL    HW239318   4.420   3.325   1.773  0.6914 -0.2166  0.0430
 9229SOL     OW39319   1.516   3.379   8.643 -0.5057 -0.0796  0.0940
 9229SOL    HW139320   1.504   3.459   8.591  2.5068  1.3979  1.6985
 9229SOL    HW239321   1.433   3.374   8.690  0.9231 -0.1307  2.5773
 9230SOL     OW39322   2.433   3.454   5.530 -0.6419  0.8287 -0.7684
 9230SOL    HW139323   2.447   3.365   5.499 -0.5243  0.7778 -0.5694
 9230SOL    HW239324   2.347   3.470   5.491 -0.7494  0.0661 -0.8398
 9231SOL     OW39325   0.899   3.121  16.909 -0.1168 -0.3247  0.4666
 9231SOL    HW139326   0.995   3.116  16.901 -0.1255 -0.2957  0.3543
 9231SOL    HW239327   0.895   3.216  16.924  0.0396 -0.1386 -0.6529
 9232SOL     OW39328   0.907   0.263  10.274 -0.5006 -0.0815  0.0330
 9232SOL    HW139329   0.957   0.294  10.349  0.4939 -0.9271 -0.2760
 9232SOL    HW239330   0.960   0.188  10.250 -0.9223  0.2264 -1.8596
 9233SOL     OW39331   3.393   4.709  17.563 -0.2939 -0.1008 -0.2285
 9233SOL    HW139332   3.382   0.055  17.610  2.5407 -0.4559  1.0952
 9233SOL    HW239333   3.484   4.705  17.533 -0.2233  0.4628 -0.0797
 9234SOL     OW39334   0.107   2.751   4.549  0.2056 -0.4396 -0.3780
 9234SOL    HW139335   0.117   2.841   4.581  1.5064  0.5020 -3.4051
 9234SOL    HW239336   0.191   2.750   4.504 -0.6899  1.2239 -2.0850
 9235SOL     OW39337   4.407   3.133   4.120 -0.0293  0.1622  0.3933
 9235SOL    HW139338   4.381   3.087   4.201  0.5374  0.3870  0.7017
 9235SOL    HW239339   4.329   3.174   4.083  0.0068  2.0973  2.4758
 9236SOL     OW39340   2.206   1.381   1.921 -0.0601  0.0765 -0.3144
 9236SOL    HW139341   2.286   1.328   1.928 -0.9122 -1.1474  0.0635
 9236SOL    HW239342   2.133   1.337   1.963  0.7244  0.9245  1.9514
 9237SOL     OW39343   3.518   3.944   1.159  0.3996 -0.9556  0.1002
 9237SOL    HW139344   3.434   3.900   1.146 -0.1523  0.4745 -1.2038
 9237SOL    HW239345   3.577   3.872   1.136 -1.4681 -1.8310 -2.0381
 9238SOL     OW39346   2.155   4.323   1.745  0.2361 -0.1942  0.4680
 9238SOL    HW139347   2.061   4.333   1.732  0.5419 -1.0204 -2.5154
 9238SOL    HW239348   2.193   4.379   1.677  1.5795  0.7320  1.9821
 9239SOL     OW39349   3.314   1.351   1.738 -0.1764  0.3615  0.0977
 9239SOL    HW139350   3.399   1.363   1.781 -0.8761  1.4630  1.1824
 9239SOL    HW239351   3.326   1.268   1.692 -0.8455  0.1119  0.3832
 9240SOL     OW39352   1.326   0.273  10.439  0.3883  0.0132 -0.1249
 9240SOL    HW139353   1.405   0.219  10.447  0.4960  0.4079  1.4948
 9240SOL    HW239354   1.361   0.356  10.469  1.2004 -0.5775  0.5656
 9241SOL     OW39355   3.464   1.572  13.728  0.2108 -0.4294 -0.3507
 9241SOL    HW139356   3.434   1.485  13.754  0.2493  0.2375  1.9702
 9241SOL    HW239357   3.385   1.611  13.691 -1.1754 -1.4422  1.5944
 9242SOL     OW39358   1.833   2.026   9.598 -0.1854  0.0026  0.0258
 9242SOL    HW139359   1.868   2.109   9.629  1.6425 -0.3458 -1.0826
 9242SOL    HW239360   1.901   1.966   9.630 -1.3118 -1.5751 -0.5095
 9243SOL     OW39361   3.398   0.395   2.245 -0.0382 -0.6474 -0.6501
 9243SOL    HW139362   3.489   0.367   2.234  0.1327 -0.5332  0.5574
 9243SOL    HW239363   3.347   0.315   2.237  0.8830 -1.0902 -2.1963
 9244SOL     OW39364   4.136   2.225   9.463 -0.6159 -0.8881 -0.1794
 9244SOL    HW139365   4.132   2.155   9.398  0.8173  0.6106 -1.8954
 9244SOL    HW239366   4.222   2.260   9.438  0.0691 -3.1903 -1.0657
 9245SOL     OW39367   3.865   3.140  15.227 -0.1666 -0.0356  0.2247
 9245SOL    HW139368   3.889   3.054  15.191  2.6324  0.7578  0.2069
 9245SOL    HW239369   3.825   3.110  15.308 -1.9373  0.9559 -0.2888
 9246SOL     OW39370   0.344   1.527   5.648  0.7903  0.3349  0.3722
 9246SOL    HW139371   0.422   1.570   5.613  0.9400 -1.3501 -1.3987
 9246SOL    HW239372   0.359   1.546   5.741  0.6206 -0.3809  0.5501
 9247SOL     OW39373   3.336   4.104  17.079 -0.0544 -0.6408 -0.2222
 9247SOL    HW139374   3.426   4.102  17.047 -0.8295  0.2225 -2.4675
 9247SOL    HW239375   3.310   4.191  17.051 -0.5237  0.1933  2.8846
 9248SOL     OW39376   4.466   3.103   5.542 -0.0798 -0.1702 -0.1487
 9248SOL    HW139377   4.516   3.022   5.532 -2.3508 -1.3288 -1.9328
 9248SOL    HW239378   4.429   3.111   5.455 -2.5565  0.2888  0.9410
 9249SOL     OW39379   2.403   1.984   0.271 -0.4464 -0.2177 -0.1549
 9249SOL    HW139380   2.466   1.924   0.231 -0.0832  0.5709 -0.7636
 9249SOL    HW239381   2.460   2.054   0.302 -3.0095  1.5818  0.5891
 9250SOL     OW39382   4.646   3.849   7.038 -0.1127 -0.7555  0.3510
 9250SOL    HW139383   4.582   3.916   7.060 -2.2200 -2.8919  0.7302
 9250SOL    HW239384   4.699   3.882   6.965 -0.8185 -0.7535 -0.1625
 9251SOL     OW39385   2.342   2.123   2.435 -0.1343 -0.3059 -0.3478
 9251SOL    HW139386   2.255   2.159   2.416 -0.2757  0.1879  1.2103
 9251SOL    HW239387   2.345   2.044   2.381  0.9244 -1.2443  1.0808
 9252SOL     OW39388   4.503   1.740   9.970  0.3359 -0.4082 -0.1889
 9252SOL    HW139389   4.513   1.659  10.021  3.9331  0.7362  0.8794
 9252SOL    HW239390   4.412   1.752   9.998  0.0646 -1.5858 -0.5566
 9253SOL     OW39391   2.057   0.332  16.825 -0.3857  0.7452 -0.3244
 9253SOL    HW139392   2.029   0.421  16.803  0.2549  0.7296 -1.1677
 9253SOL    HW239393   2.024   0.330  16.915  0.9813  0.8883  0.1687
 9254SOL     OW39394   2.871   2.691  15.440  0.0011  0.0281  0.4934
 9254SOL    HW139395   2.837   2.751  15.373 -0.1237 -2.0316 -1.3195
 9254SOL    HW239396   2.793   2.684  15.495 -1.4560  1.0762 -1.4121
 9255SOL     OW39397   3.191   0.216  14.183 -0.3749  0.0385  0.1140
 9255SOL    HW139398   3.117   0.203  14.124 -0.6247 -1.2695  0.7324
 9255SOL    HW239399   3.142   0.240  14.261  0.6034  0.7982  0.5033
 9256SOL     OW39400   2.754   0.946   9.357 -0.3940 -0.4562 -0.3445
 9256SOL    HW139401   2.771   0.872   9.300 -0.2621 -1.1979  0.6554
 9256SOL    HW239402   2.692   1.004   9.312  1.0765  2.2559  1.0933
 9257SOL     OW39403   1.908   2.766   7.660 -0.5456 -0.3579 -0.3529
 9257SOL    HW139404   1.949   2.686   7.692 -0.4468 -0.0625  0.2591
 9257SOL    HW239405   1.956   2.836   7.704  1.3544 -2.7289  1.3008
 9258SOL     OW39406   1.192   3.459   3.896 -0.5765  0.8299  0.2304
 9258SOL    HW139407   1.123   3.392   3.891  0.2361 -0.1865  2.8340
 9258SOL    HW239408   1.189   3.501   3.810 -0.4251  1.5710  0.5850
 9259SOL     OW39409   0.492   2.121   3.657 -0.5892  0.2351  0.5651
 9259SOL    HW139410   0.529   2.175   3.727 -0.8188  1.8989 -0.6059
 9259SOL    HW239411   0.464   2.192   3.599  2.0308 -0.6327 -1.7860
 9260SOL     OW39412   4.500   3.292   2.256 -0.3528 -1.0855 -0.0316
 9260SOL    HW139413   4.558   3.229   2.212  0.9901 -0.6742  1.1536
 9260SOL    HW239414   4.556   3.368   2.270  1.4682 -2.6340  1.0563
 9261SOL     OW39415   0.007   4.069   1.286 -0.1274  0.1541 -0.6574
 9261SOL    HW139416   4.721   3.979   1.309 -0.2389 -0.0808 -1.6815
 9261SOL    HW239417   4.661   4.115   1.270 -0.7619 -0.9111 -0.5138
 9262SOL     OW39418   1.431   1.554   8.294  0.2790 -0.0729  0.0511
 9262SOL    HW139419   1.354   1.498   8.302  1.2672 -1.4647 -0.0976
 9262SOL    HW239420   1.475   1.528   8.376  0.8031 -1.5420 -0.6909
 9263SOL     OW39421   1.076   3.063   8.505  0.1629 -0.6243 -0.8489
 9263SOL    HW139422   1.032   3.114   8.437  0.1970  1.7141  0.8897
 9263SOL    HW239423   1.029   3.107   8.576 -0.0105 -1.6230 -0.3284
 9264SOL     OW39424   3.130   2.996   4.295  0.5349 -0.4322 -0.0154
 9264SOL    HW139425   3.125   3.010   4.201 -0.3507  0.9571  0.2351
 9264SOL    HW239426   3.224   2.991   4.308  0.1896 -1.4780  2.0903
 9265SOL     OW39427   0.492   0.823  13.390  0.5687  0.4202 -0.1398
 9265SOL    HW139428   0.545   0.803  13.467 -0.7886  3.2661  1.5433
 9265SOL    HW239429   0.478   0.740  13.344 -2.6998  0.0846  1.4504
 9266SOL     OW39430   2.607   1.617   4.873 -0.0089  0.1595  0.4778
 9266SOL    HW139431   2.542   1.556   4.908  0.6425 -1.4223 -1.0524
 9266SOL    HW239432   2.573   1.701   4.903 -0.2231 -0.2928  1.4864
 9267SOL     OW39433   4.438   2.554   2.690  0.1452 -0.4288  0.1558
 9267SOL    HW139434   4.380   2.590   2.623 -0.8410  0.1994  1.3523
 9267SOL    HW239435   4.444   2.465   2.656 -1.9681 -0.5947  0.2311
 9268SOL     OW39436   3.442   3.391  17.557 -0.6009  0.6429  0.2489
 9268SOL    HW139437   3.398   3.454  17.500 -1.1128 -0.6859 -0.8060
 9268SOL    HW239438   3.389   3.314  17.537  1.5507 -0.9402  0.6543
 9269SOL     OW39439   3.649   3.187   6.072 -0.5794 -0.1887  0.3306
 9269SOL    HW139440   3.617   3.213   5.986 -1.3896 -0.1305  0.6492
 9269SOL    HW239441   3.743   3.173   6.058 -0.7604 -1.2668  0.2142
 9270SOL     OW39442   0.649   1.703   1.679 -0.5620  0.1013  0.4535
 9270SOL    HW139443   0.624   1.781   1.728 -1.1543  0.0728  0.2039
 9270SOL    HW239444   0.679   1.649   1.752  0.5039  1.5384  1.0730
 9271SOL     OW39445   3.907   2.727  17.143  0.2705  0.5138  0.1149
 9271SOL    HW139446   3.995   2.752  17.112 -1.3272  2.2231 -3.0589
 9271SOL    HW239447   3.889   2.799  17.203  1.5551  0.9661 -0.0455
 9272SOL     OW39448   2.895   3.976  17.379  0.3130  0.2159 -0.3090
 9272SOL    HW139449   2.808   3.955  17.345 -0.7308  1.8025  1.4049
 9272SOL    HW239450   2.904   4.060  17.333 -1.0019  0.7409  0.3911
 9273SOL     OW39451   0.389   2.954   8.279 -0.3168  0.5486  0.5090
 9273SOL    HW139452   0.419   2.958   8.188 -1.9976 -0.9731 -0.1038
 9273SOL    HW239453   0.398   2.861   8.296  0.0819  0.5673  0.4152
 9274SOL     OW39454   2.820   4.699   2.543  0.2710 -0.1175  0.2416
 9274SOL    HW139455   2.783   0.046   2.517 -0.2909 -0.2858  0.5028
 9274SOL    HW239456   2.739   4.651   2.555 -0.0361  0.8030  1.8344
 9275SOL     OW39457   4.684   4.681   4.768 -0.1174 -0.3629  0.2044
 9275SOL    HW139458   4.700   4.592   4.798 -0.2800 -0.1024  1.0804
 9275SOL    HW239459   4.721   4.677   4.680  0.3625 -1.1748  0.4490
 9276SOL     OW39460   2.194   1.093   2.668 -0.2629  0.8604 -0.5197
 9276SOL    HW139461   2.125   1.111   2.732 -0.5856  2.5630 -1.3546
 9276SOL    HW239462   2.210   1.181   2.634 -0.6742  0.7942 -0.8785
 9277SOL     OW39463   4.423   4.658  14.404 -0.1216  0.0382 -0.0404
 9277SOL    HW139464   4.347   4.647  14.461  0.0048 -0.2225  0.0768
 9277SOL    HW239465   4.463   0.003  14.437 -1.0208  0.4771 -0.0173
 9278SOL     OW39466   0.867   1.910   8.351 -0.4508  0.0110  0.0582
 9278SOL    HW139467   0.922   1.943   8.421  0.6647 -2.2270  0.2307
 9278SOL    HW239468   0.885   1.969   8.277 -2.8817  0.0210 -0.5167
 9279SOL     OW39469   3.352   4.298   8.696  0.0091 -0.1576 -0.7001
 9279SOL    HW139470   3.357   4.207   8.727  1.3922  0.5602  1.1833
 9279SOL    HW239471   3.422   4.302   8.631  0.6556  0.2785  0.0241
 9280SOL     OW39472   0.324   4.081   0.177 -0.3617  0.4259 -0.1534
 9280SOL    HW139473   0.343   4.091   0.084  1.3423 -0.1443  0.1386
 9280SOL    HW239474   0.230   4.064   0.171  0.3961 -4.1265  0.4377
 9281SOL     OW39475   3.773   2.618   4.691 -0.1089  0.0116  0.5535
 9281SOL    HW139476   3.850   2.592   4.641  0.1806  1.0558  0.4492
 9281SOL    HW239477   3.716   2.642   4.618  0.6056 -0.6900 -0.2278
 9282SOL     OW39478   1.767   2.273   3.028  0.3199 -0.4522  0.2682
 9282SOL    HW139479   1.717   2.268   3.109 -1.2065  1.5284 -0.5596
 9282SOL    HW239480   1.812   2.357   3.039  1.1147 -0.8464 -0.0086
 9283SOL     OW39481   3.021   1.712   5.922 -0.2038  0.4103 -0.3129
 9283SOL    HW139482   3.101   1.681   5.965 -0.3325 -1.3774 -1.3506
 9283SOL    HW239483   3.001   1.777   5.989 -1.1741 -0.2228  0.0047
 9284SOL     OW39484   0.513   3.532   4.751 -0.3978  0.5314  0.4864
 9284SOL    HW139485   0.487   3.442   4.730  0.0787  0.9039 -1.6383
 9284SOL    HW239486   0.434   3.580   4.724 -0.0794 -0.1759 -1.6508
 9285SOL     OW39487   0.472   0.235   2.746 -0.7734 -0.3690  0.3284
 9285SOL    HW139488   0.481   0.211   2.838  0.3639 -0.4081  0.2084
 9285SOL    HW239489   0.500   0.327   2.749 -2.7501  0.2215  1.0082
 9286SOL     OW39490   1.690   4.647  15.019  0.6590 -0.0290  0.0390
 9286SOL    HW139491   1.764   4.708  15.023  1.5398 -1.0857 -0.3684
 9286SOL    HW239492   1.697   4.624  14.927 -0.0543  0.7341 -0.2045
 9287SOL     OW39493   3.107   2.427   5.613 -0.4505 -0.7465  0.0266
 9287SOL    HW139494   3.124   2.478   5.534 -2.6524 -2.7543 -1.7327
 9287SOL    HW239495   3.082   2.343   5.575 -1.2174 -0.1488 -0.7930
 9288SOL     OW39496   0.292   1.130   6.324 -0.3540 -0.0312  0.0807
 9288SOL    HW139497   0.253   1.119   6.411 -0.4169 -1.2652 -0.1177
 9288SOL    HW239498   0.286   1.038   6.299 -2.2060  0.1383 -0.0859
 9289SOL     OW39499   3.369   0.586   2.434  0.0628  0.3239  0.2651
 9289SOL    HW139500   3.392   0.520   2.369  0.4887 -1.5532  2.3519
 9289SOL    HW239501   3.305   0.637   2.384  0.7405 -1.8172 -2.7901
 9290SOL     OW39502   0.147   3.088   5.563 -0.2599  0.5006  0.0130
 9290SOL    HW139503   0.231   3.082   5.517 -0.3258  1.3552 -0.2235
 9290SOL    HW239504   0.095   3.011   5.537  0.7108  0.2882 -1.3241
 9291SOL     OW39505   2.022   2.516   4.777 -0.5581 -0.3705  0.8296
 9291SOL    HW139506   2.039   2.481   4.865  1.3422 -2.5427 -0.3990
 9291SOL    HW239507   1.982   2.601   4.794 -0.6842 -0.5096  1.2409
 9292SOL     OW39508   1.817   3.195   8.093 -0.6568 -0.2432 -0.4420
 9292SOL    HW139509   1.792   3.124   8.034  0.5084 -0.4631 -0.6813
 9292SOL    HW239510   1.786   3.163   8.177 -0.0663  0.6090  0.0978
 9293SOL     OW39511   0.217   4.418   5.986 -0.0954 -0.1768 -0.3891
 9293SOL    HW139512   0.150   4.398   6.051  0.7544 -1.9920 -0.0479
 9293SOL    HW239513   0.222   4.331   5.946 -0.3887 -0.5297  0.3612
 9294SOL     OW39514   2.640   0.992   2.990 -0.4945  0.2713 -0.3868
 9294SOL    HW139515   2.595   0.952   3.063  2.2737  1.5333  2.0072
 9294SOL    HW239516   2.714   1.034   3.034  1.7338 -3.5429 -0.4995
 9295SOL     OW39517   2.289   4.401   6.989 -0.4785  0.0363 -0.3552
 9295SOL    HW139518   2.273   4.436   6.901 -2.1631  1.0097  0.3419
 9295SOL    HW239519   2.234   4.322   6.988 -0.7895  0.2409  0.9453
 9296SOL     OW39520   0.778   2.801   8.519  0.5139 -0.3523  0.3945
 9296SOL    HW139521   0.784   2.845   8.435 -1.6175  0.2075  0.5472
 9296SOL    HW239522   0.689   2.821   8.548  0.2802 -0.7713 -0.0405
 9297SOL     OW39523   1.383   3.323   2.407  0.3811 -0.3694 -0.5431
 9297SOL    HW139524   1.467   3.287   2.436  0.4748  0.4220  0.1907
 9297SOL    HW239525   1.336   3.331   2.490 -1.3763  1.4805 -1.7251
 9298SOL     OW39526   4.084   2.480  11.871 -0.2208 -0.3785  0.0265
 9298SOL    HW139527   4.115   2.478  11.962  1.2817  1.9776 -0.4460
 9298SOL    HW239528   4.167   2.500  11.827 -0.0900 -0.3290  0.2918
 9299SOL     OW39529   2.157   0.216   2.532  0.5118 -0.3833  0.7765
 9299SOL    HW139530   2.188   0.193   2.620  0.0712 -1.2908  0.6965
 9299SOL    HW239531   2.192   0.141   2.484  0.0806  0.1478 -0.3461
 9300SOL     OW39532   1.018   2.153   2.186 -0.2190  0.6444 -0.6559
 9300SOL    HW139533   1.042   2.142   2.278 -0.9693  0.4125 -0.4881
 9300SOL    HW239534   1.007   2.060   2.167  0.4780  0.6870 -1.2410
 9301SOL     OW39535   0.786   0.828   3.544 -0.1017 -0.0100  0.2885
 9301SOL    HW139536   0.745   0.913   3.528 -0.1533  0.0721  0.8780
 9301SOL    HW239537   0.723   0.799   3.610  2.1330 -4.1841  0.6115
 9302SOL     OW39538   3.931   3.998   5.849 -0.7817  0.0256 -0.5154
 9302SOL    HW139539   4.020   4.032   5.863 -0.5305 -1.8735  2.4441
 9302SOL    HW239540   3.896   4.028   5.933 -2.1806 -1.9040 -0.4104
 9303SOL     OW39541   1.258   0.379  15.267  0.5469  0.8889  0.2048
 9303SOL    HW139542   1.267   0.474  15.260  1.4694  0.8324  0.7295
 9303SOL    HW239543   1.302   0.352  15.186  0.3531 -1.3805  0.8372
 9304SOL     OW39544   1.882   1.435   9.106  0.5349 -0.3916  0.1620
 9304SOL    HW139545   1.809   1.488   9.074 -0.6170 -1.2948  1.3120
 9304SOL    HW239546   1.906   1.482   9.185  1.5519  0.2736 -0.5475
 9305SOL     OW39547   0.374   1.246  13.990  0.5465 -0.0291 -0.2192
 9305SOL    HW139548   0.394   1.319  13.931 -1.8044  0.5223 -0.3310
 9305SOL    HW239549   0.313   1.286  14.052 -0.2366  0.0448 -1.0367
 9306SOL     OW39550   4.250   3.280   0.958 -0.6157  0.0699 -0.2349
 9306SOL    HW139551   4.183   3.333   0.917  0.4806  1.7588  0.1488
 9306SOL    HW239552   4.208   3.257   1.041 -1.3117  0.5839 -0.4454
 9307SOL     OW39553   2.400   3.216   2.559 -0.4307  0.6187 -0.4249
 9307SOL    HW139554   2.337   3.200   2.489  0.1821 -1.1282 -0.5782
 9307SOL    HW239555   2.363   3.278   2.621 -1.7425 -1.0985  0.4958
 9308SOL     OW39556   3.212   1.519   6.434  0.2343 -0.1212  0.3766
 9308SOL    HW139557   3.245   1.590   6.489 -2.8209  0.5450  1.3718
 9308SOL    HW239558   3.116   1.527   6.432  0.0851 -1.6721  1.1358
 9309SOL     OW39559   3.689   0.061   1.698  0.0322 -0.2744 -0.3848
 9309SOL    HW139560   3.620   0.001   1.727 -0.2429 -0.4182 -1.3124
 9309SOL    HW239561   3.666   0.067   1.605  0.1928 -0.8647 -0.4619
 9310SOL     OW39562   0.597   3.102   2.402  0.0310 -0.4637 -0.5284
 9310SOL    HW139563   0.688   3.078   2.419 -0.1605 -0.0756  1.0254
 9310SOL    HW239564   0.561   3.091   2.490  1.7522  3.3734  0.6634
 9311SOL     OW39565   0.649   4.066   5.206 -0.6172 -0.2495 -0.3740
 9311SOL    HW139566   0.635   4.072   5.111  1.4374  1.1768 -0.5848
 9311SOL    HW239567   0.561   4.032   5.220 -0.6550 -0.8352 -2.1192
 9312SOL     OW39568   2.461   1.353   0.213 -0.3724 -0.0290  0.5958
 9312SOL    HW139569   2.546   1.315   0.236 -1.1239 -2.6066 -0.9367
 9312SOL    HW239570   2.403   1.300   0.267 -0.2654  0.2221  0.9555
 9313SOL     OW39571   1.427   0.982   6.130 -0.0462 -0.0929  0.0429
 9313SOL    HW139572   1.483   0.992   6.208 -0.1007  1.1363 -0.0824
 9313SOL    HW239573   1.336   0.976   6.157  0.1724 -0.5533  0.6746
 9314SOL     OW39574   2.332   3.818   5.039 -0.0498  0.0263  0.7468
 9314SOL    HW139575   2.250   3.805   5.088 -0.2646 -0.4276  0.2602
 9314SOL    HW239576   2.396   3.785   5.101  0.4939  0.9738  0.6924
 9315SOL     OW39577   0.076   2.994   7.758 -0.6915  0.9063  0.0900
 9315SOL    HW139578   0.021   3.043   7.820 -2.5534 -0.0393 -0.7895
 9315SOL    HW239579   0.069   3.054   7.683 -0.1724  0.3869 -0.3641
 9316SOL     OW39580   1.925   2.797   5.217  0.5019 -0.2286 -0.2081
 9316SOL    HW139581   1.850   2.784   5.158  1.3976  2.8033 -2.0355
 9316SOL    HW239582   1.901   2.884   5.249  0.0907 -0.6004  0.4872
 9317SOL     OW39583   3.505   1.556   4.996 -0.1013 -0.0236  0.0103
 9317SOL    HW139584   3.529   1.470   4.960  1.1373 -0.0066  0.7922
 9317SOL    HW239585   3.585   1.602   4.972  1.2003 -2.2169  0.1243
 9318SOL     OW39586   0.710   3.346   3.647 -0.0948 -0.3344 -0.7889
 9318SOL    HW139587   0.795   3.364   3.687 -0.1785 -1.3204 -0.1749
 9318SOL    HW239588   0.668   3.291   3.713 -2.3361  1.1008 -1.0128
 9319SOL     OW39589   2.121   0.260   3.304  0.9119 -0.3660 -0.1532
 9319SOL    HW139590   2.042   0.206   3.312 -0.6484  1.6081 -2.1413
 9319SOL    HW239591   2.163   0.243   3.388  0.3009  0.3388  0.2935
 9320SOL     OW39592   0.357   1.368   5.099  0.1743 -0.0552  0.5033
 9320SOL    HW139593   0.393   1.359   5.187 -2.5207  0.0659  1.6268
 9320SOL    HW239594   0.422   1.431   5.068  0.0911  0.8178  2.0763
 9321SOL     OW39595   0.155   0.730   3.550 -0.4012 -0.4225 -0.3174
 9321SOL    HW139596   0.176   0.672   3.624 -1.0825  2.4126  2.0764
 9321SOL    HW239597   0.059   0.725   3.551 -0.3407 -1.6858 -0.7173
 9322SOL     OW39598   2.182   2.595  15.442 -0.0843 -0.2202  0.2693
 9322SOL    HW139599   2.127   2.545  15.503  0.3818  0.5733  1.3298
 9322SOL    HW239600   2.220   2.524  15.391  0.6116 -0.3351  0.9508
 9323SOL     OW39601   4.220   1.411  16.820  0.1687  0.5231  0.6817
 9323SOL    HW139602   4.207   1.503  16.845 -0.6442  0.2534  1.2241
 9323SOL    HW239603   4.267   1.360  16.886  0.2926 -1.0503 -0.6204
 9324SOL     OW39604   0.684   2.633   9.590 -0.4796  0.3079 -0.4307
 9324SOL    HW139605   0.673   2.685   9.669 -1.7434  0.7965 -0.9171
 9324SOL    HW239606   0.710   2.709   9.537 -0.4933  0.9812  0.5358
 9325SOL     OW39607   3.165   2.472   4.213 -0.0782  0.0199  0.2193
 9325SOL    HW139608   3.074   2.474   4.245 -0.1060  1.2809  0.0367
 9325SOL    HW239609   3.205   2.402   4.266  0.5628  0.1089 -0.1541
 9326SOL     OW39610   1.872   2.537   6.704  0.3900 -0.0774 -0.0874
 9326SOL    HW139611   1.818   2.575   6.774  0.6893  0.3367 -0.0810
 9326SOL    HW239612   1.957   2.535   6.748  1.3366  0.9061 -1.8897
 9327SOL     OW39613   2.675   4.729  10.458  0.0587  0.4259 -0.0087
 9327SOL    HW139614   2.628   0.068  10.424 -0.6211 -0.3415 -0.7459
 9327SOL    HW239615   2.740   0.036  10.514 -0.0589  0.8099 -0.1702
 9328SOL     OW39616   4.145   2.888   2.179 -0.3002 -0.3822  0.7037
 9328SOL    HW139617   4.160   2.848   2.094 -0.3744  1.7819 -0.3325
 9328SOL    HW239618   4.050   2.878   2.183 -0.5087 -0.0148 -2.7823
 9329SOL     OW39619   3.517   3.383   7.252 -0.1822 -0.0332 -0.4810
 9329SOL    HW139620   3.452   3.326   7.293  1.1556 -2.2978 -1.4827
 9329SOL    HW239621   3.463   3.398   7.175 -0.2451 -1.3980 -0.7119
 9330SOL     OW39622   3.546   4.594   1.336  0.7454  0.0027 -0.1168
 9330SOL    HW139623   3.571   4.651   1.263 -0.2146 -0.3578 -0.7269
 9330SOL    HW239624   3.625   4.544   1.353  1.4653  1.0239 -0.4433
 9331SOL     OW39625   3.502   4.482   0.921 -0.2346  0.0389 -0.4601
 9331SOL    HW139626   3.501   4.416   0.990  0.2283  0.6773  0.1598
 9331SOL    HW239627   3.456   4.435   0.851  0.3182  0.9271 -1.4079
 9332SOL     OW39628   4.534   1.391   4.403 -0.4121  0.3505  0.0563
 9332SOL    HW139629   4.616   1.439   4.413 -0.3627 -0.1970  2.1930
 9332SOL    HW239630   4.476   1.467   4.400 -2.1446 -0.9047  2.0177
 9333SOL     OW39631   0.534   2.226   8.478 -0.0692  0.1154  0.4315
 9333SOL    HW139632   0.623   2.214   8.509  0.0073 -2.0830 -0.6573
 9333SOL    HW239633   0.499   2.144   8.443 -1.3836  0.7093  0.3201
 9334SOL     OW39634   0.219   4.378  14.342 -0.2130  0.1243  0.9129
 9334SOL    HW139635   0.220   4.450  14.405 -0.5626  1.1264 -0.2391
 9334SOL    HW239636   0.163   4.412  14.273 -1.5869 -2.3849  0.7561
 9335SOL     OW39637   1.331   1.791   6.373 -0.1605 -0.0081 -0.1118
 9335SOL    HW139638   1.250   1.789   6.322 -0.6305 -0.0487  0.6420
 9335SOL    HW239639   1.299   1.859   6.433  0.9251  0.1834  0.2414
 9336SOL     OW39640   1.011   3.528   3.114 -0.5251  0.3026  0.6495
 9336SOL    HW139641   1.046   3.459   3.170 -0.9401  0.3984  1.0303
 9336SOL    HW239642   0.919   3.512   3.136 -0.7235  2.8101  1.6533
 9337SOL     OW39643   3.895   3.004   8.678 -0.2995 -0.3414 -0.5608
 9337SOL    HW139644   3.975   2.992   8.627 -0.2255 -0.1078 -0.5003
 9337SOL    HW239645   3.906   3.093   8.712 -0.9106 -0.5717  0.2447
 9338SOL     OW39646   0.865   1.119  11.390 -0.4701  0.4759  0.4138
 9338SOL    HW139647   0.873   1.062  11.467  0.0616 -0.1438 -0.1082
 9338SOL    HW239648   0.947   1.105  11.343 -0.6998 -1.5744  0.6484
 9339SOL     OW39649   3.119   2.137   7.075  0.1519 -0.1528  0.2908
 9339SOL    HW139650   3.180   2.204   7.045  0.1924 -0.5407 -0.4991
 9339SOL    HW239651   3.148   2.085   6.999 -0.0864 -0.9921  0.7697
 9340SOL     OW39652   2.853   3.395   7.293  0.0860 -0.1429 -0.2209
 9340SOL    HW139653   2.836   3.487   7.315  0.6616  0.2708 -1.4985
 9340SOL    HW239654   2.923   3.370   7.354  0.5571  1.3363 -0.1307
 9341SOL     OW39655   2.996   1.432   3.604  0.5796  0.5961  0.6632
 9341SOL    HW139656   3.066   1.372   3.630 -0.9394 -1.1329  0.7669
 9341SOL    HW239657   2.922   1.384   3.641 -0.5023  1.0700 -0.8844
 9342SOL     OW39658   2.949   1.254   3.362  0.2555  0.0187  0.0890
 9342SOL    HW139659   2.909   1.245   3.449  0.5670  0.7567  0.3084
 9342SOL    HW239660   3.014   1.184   3.367 -1.3456 -1.4792 -0.2145
 9343SOL     OW39661   2.053   2.783  15.107  0.5033  0.2509 -0.3261
 9343SOL    HW139662   2.070   2.861  15.055 -2.0963  0.8510 -0.2650
 9343SOL    HW239663   2.079   2.808  15.195  0.6631 -1.4619  0.1107
 9344SOL     OW39664   4.166   1.586  15.689 -0.2937 -0.4227 -0.3856
 9344SOL    HW139665   4.262   1.588  15.695 -0.4357 -1.1087  1.8427
 9344SOL    HW239666   4.142   1.647  15.759  0.1723 -0.6094 -0.0587
 9345SOL     OW39667   0.963   3.829   2.938 -0.7584  0.5731 -0.1323
 9345SOL    HW139668   0.994   3.919   2.938 -1.1525  0.7091 -0.2963
 9345SOL    HW239669   0.870   3.851   2.935 -1.1053 -0.6361  1.5844
 9346SOL     OW39670   0.239   4.437   1.506  0.3925  0.1042  0.5413
 9346SOL    HW139671   0.185   4.359   1.495  0.7927 -0.3265  1.6317
 9346SOL    HW239672   0.171   4.499   1.532  1.3043  0.9323  0.9410
 9347SOL     OW39673   3.461   4.727   2.214 -0.4700 -0.2751 -0.3290
 9347SOL    HW139674   3.401   4.654   2.204 -0.4112 -0.0101 -2.8760
 9347SOL    HW239675   3.443   0.027   2.127 -0.1421 -1.5167 -0.9141
 9348SOL     OW39676   1.594   4.356  17.517 -0.2284  0.0705 -0.2609
 9348SOL    HW139677   1.643   4.284  17.476  1.6493  0.7118  0.8152
 9348SOL    HW239678   1.658   4.426  17.503 -2.0918  1.4754 -1.6392
 9349SOL     OW39679   0.775   1.897   0.947  0.1030 -0.0420  0.0748
 9349SOL    HW139680   0.801   1.956   1.018  3.1862  2.1493 -2.8301
 9349SOL    HW239681   0.857   1.888   0.898  0.6808  1.8739  0.6888
 9350SOL     OW39682   3.785   3.671   3.379 -0.4273  0.3627 -0.0423
 9350SOL    HW139683   3.856   3.720   3.338 -0.2573  1.5684  1.7061
 9350SOL    HW239684   3.735   3.742   3.419  0.3662  1.2749 -0.6806
 9351SOL     OW39685   0.547   0.091   8.855  0.1750  0.2385  0.3384
 9351SOL    HW139686   0.472   0.136   8.894 -0.7338 -1.6920  0.8008
 9351SOL    HW239687   0.608   0.086   8.929  2.5250 -0.1800 -1.5938
 9352SOL     OW39688   4.299   3.197   6.827 -0.6476 -0.8267 -0.1529
 9352SOL    HW139689   4.305   3.162   6.739 -3.3735  0.2355 -0.7880
 9352SOL    HW239690   4.203   3.192   6.826 -0.5438 -3.3373  1.2742
 9353SOL     OW39691   2.641   1.088   4.474  0.5412 -0.5426  0.3391
 9353SOL    HW139692   2.715   1.146   4.490  0.0480  0.1993 -0.0630
 9353SOL    HW239693   2.573   1.119   4.534  0.6072 -1.1168  0.7111
 9354SOL     OW39694   3.725   4.327   9.460 -0.6563 -0.0273  0.8119
 9354SOL    HW139695   3.767   4.413   9.458 -0.4262 -0.1744 -0.5310
 9354SOL    HW239696   3.757   4.298   9.375  0.4313  3.0979  0.1398
 9355SOL     OW39697   3.310   3.410   7.053  0.1080  0.3838 -0.0475
 9355SOL    HW139698   3.259   3.467   7.111 -2.7593 -1.6247 -0.5915
 9355SOL    HW239699   3.274   3.438   6.969 -1.8016  1.2918  1.0661
 9356SOL     OW39700   1.617   2.646   6.526  0.2431 -0.3587 -0.3145
 9356SOL    HW139701   1.625   2.740   6.508 -0.1464 -0.5025 -1.2294
 9356SOL    HW239702   1.663   2.646   6.610  1.1616 -3.5008 -0.8260
 9357SOL     OW39703   2.783   1.881   4.402  0.6767  0.1049  0.2331
 9357SOL    HW139704   2.746   1.966   4.425 -1.1201 -0.5288 -0.3728
 9357SOL    HW239705   2.753   1.823   4.471 -0.6075 -0.9761 -1.2210
 9358SOL     OW39706   3.718   3.117   5.188 -0.7341 -0.4920  0.1380
 9358SOL    HW139707   3.803   3.075   5.202 -1.4726 -1.8974  0.4464
 9358SOL    HW239708   3.741   3.210   5.192  1.5623 -1.0053 -1.4850
 9359SOL     OW39709   2.657   1.383   5.752 -0.4727  0.2586 -0.8058
 9359SOL    HW139710   2.586   1.400   5.814 -0.3728 -0.6566 -0.4504
 9359SOL    HW239711   2.707   1.459   5.782 -1.2241  0.8663 -1.1047
 9360SOL     OW39712   2.098   2.701   4.045  0.7899  0.2496  0.0620
 9360SOL    HW139713   2.009   2.673   4.069  0.5277  1.8545  0.9378
 9360SOL    HW239714   2.131   2.620   4.007 -0.4162  0.0027 -0.4612
 9361SOL     OW39715   2.657   2.290   7.629 -0.3386  0.2740 -0.5368
 9361SOL    HW139716   2.697   2.276   7.543  1.1650  0.8992  0.0658
 9361SOL    HW239717   2.731   2.270   7.686  0.0667  2.5602 -0.2716
 9362SOL     OW39718   4.179   1.812   7.985  0.4377  0.2824 -0.1380
 9362SOL    HW139719   4.197   1.718   7.993  0.7917  0.3017 -0.7019
 9362SOL    HW239720   4.097   1.820   8.034  1.6943 -1.9462  2.3441
 9363SOL     OW39721   2.613   1.816   3.059 -0.1486  0.3245  0.5681
 9363SOL    HW139722   2.580   1.902   3.085  0.5213  1.2104 -1.5366
 9363SOL    HW239723   2.607   1.820   2.964 -1.0776  0.6731  0.6424
 9364SOL     OW39724   0.462   3.498   8.563 -0.1988 -0.0270 -0.3225
 9364SOL    HW139725   0.524   3.571   8.566  0.2558 -0.3957 -0.7514
 9364SOL    HW239726   0.498   3.437   8.628  0.2014  0.9080  0.3343
 9365SOL     OW39727   1.636   1.447   1.944  0.5483 -0.1969  0.2598
 9365SOL    HW139728   1.577   1.462   2.018  0.1549 -1.1089  0.1375
 9365SOL    HW239729   1.638   1.533   1.901  2.6801 -0.7943 -0.8326
 9366SOL     OW39730   1.474   1.731  14.882  0.2829  0.9654 -0.7141
 9366SOL    HW139731   1.388   1.758  14.851 -0.7129 -1.4949 -0.0952
 9366SOL    HW239732   1.535   1.718  14.810 -0.3906  0.1151 -1.1285
 9367SOL     OW39733   3.328   1.374  17.719  0.2907  0.2391  0.5305
 9367SOL    HW139734   3.251   1.430  17.728  0.4088  0.8342 -2.1793
 9367SOL    HW239735   3.345   1.343   0.064 -0.2986 -0.1782  0.5038
 9368SOL     OW39736   2.775   0.561   7.202  0.2007  0.2447  0.7164
 9368SOL    HW139737   2.744   0.588   7.116 -0.5675 -2.5206  0.1161
 9368SOL    HW239738   2.753   0.634   7.259 -1.0554 -0.8789  1.6886
 9369SOL     OW39739   1.760   3.551  12.058 -0.6199 -0.2034 -0.3097
 9369SOL    HW139740   1.697   3.492  12.017 -0.2212 -1.7540  1.3151
 9369SOL    HW239741   1.798   3.507  12.134 -0.8536  1.8197  1.0031
 9370SOL     OW39742   3.085   3.182  16.992  0.4890  0.2909  0.2081
 9370SOL    HW139743   2.998   3.197  17.029  0.6333 -2.1894  1.4947
 9370SOL    HW239744   3.141   3.197  17.068  1.1059  0.9146 -0.3553
 9371SOL     OW39745   0.938   2.235   1.399  0.4230 -0.5179  0.5026
 9371SOL    HW139746   0.972   2.303   1.458 -0.6403  0.3933  0.0668
 9371SOL    HW239747   1.002   2.167   1.420 -0.1843 -0.6225  1.9818
 9372SOL     OW39748   4.362   2.513   6.046  0.1830  0.0179 -0.1753
 9372SOL    HW139749   4.319   2.596   6.029 -0.4245  0.0992  1.7192
 9372SOL    HW239750   4.331   2.449   5.982  2.4876 -0.7374 -0.5535
 9373SOL     OW39751   3.814   3.245  14.284 -0.2249  0.0645 -0.7101
 9373SOL    HW139752   3.845   3.156  14.271  0.8093  0.2638  0.4203
 9373SOL    HW239753   3.799   3.237  14.378  1.7615  0.5321 -0.3571
 9374SOL     OW39754   0.764   1.286   4.255 -0.3996 -0.3184 -0.4341
 9374SOL    HW139755   0.812   1.309   4.335 -1.2791 -0.6009  0.1806
 9374SOL    HW239756   0.793   1.198   4.233 -1.0461 -0.7426  0.3676
 9375SOL     OW39757   1.319   0.451   7.321  0.7669 -0.1317  0.1200
 9375SOL    HW139758   1.268   0.475   7.398  2.1120  0.2842  0.8759
 9375SOL    HW239759   1.277   0.503   7.253  0.4138  0.8418  1.0957
 9376SOL     OW39760   2.360   3.837   3.410  0.0868 -0.5636  0.2725
 9376SOL    HW139761   2.278   3.885   3.404  0.1566 -0.9075 -3.2506
 9376SOL    HW239762   2.399   3.879   3.487 -0.8445 -1.4799  1.2449
 9377SOL     OW39763   0.109   4.677   8.617  0.2165 -0.7468 -0.4891
 9377SOL    HW139764   0.126   4.602   8.675 -0.2700  0.0725  0.7035
 9377SOL    HW239765   0.022   4.650   8.588  0.7154 -1.4633 -1.3430
 9378SOL     OW39766   4.537   1.091  12.356  0.4820 -0.4697 -0.0895
 9378SOL    HW139767   4.557   1.184  12.355 -0.3281 -0.3017 -0.2384
 9378SOL    HW239768   4.625   1.059  12.378  0.6243 -0.6610 -0.9239
 9379SOL     OW39769   3.151   4.264   6.718 -0.0922 -0.7563  0.4618
 9379SOL    HW139770   3.060   4.266   6.688 -0.1944  3.5817  1.1165
 9379SOL    HW239771   3.160   4.169   6.712 -2.1765 -1.0198  1.3763
 9380SOL     OW39772   0.443   3.402   2.605 -0.1638 -0.3624 -0.1222
 9380SOL    HW139773   0.460   3.378   2.696 -0.5265 -2.1074 -0.5037
 9380SOL    HW239774   0.388   3.329   2.576  1.5533 -1.5914 -0.2541
 9381SOL     OW39775   0.395   2.446   5.717  0.5761 -0.2503  0.1309
 9381SOL    HW139776   0.305   2.415   5.728  0.4545 -0.4626 -1.4831
 9381SOL    HW239777   0.425   2.395   5.642 -0.5084  0.2086 -0.6257
 9382SOL     OW39778   3.601   0.947   6.987  0.1397 -0.2178  0.2550
 9382SOL    HW139779   3.506   0.947   6.988  0.1349 -0.5832 -0.2056
 9382SOL    HW239780   3.613   1.016   6.922  0.5093  0.0029  0.5515
 9383SOL     OW39781   3.712   1.084   8.302 -0.1315  0.1167 -0.5154
 9383SOL    HW139782   3.762   1.012   8.264 -2.0244 -1.3261 -0.2546
 9383SOL    HW239783   3.756   1.092   8.387 -1.5437 -1.6258  0.3621
 9384SOL     OW39784   0.996   4.554   7.299 -0.2858 -0.1212 -0.3037
 9384SOL    HW139785   0.958   4.589   7.218 -0.6683 -0.0797 -0.1049
 9384SOL    HW239786   1.084   4.531   7.269 -0.7270 -0.5393 -1.2984
 9385SOL     OW39787   3.448   4.374   3.643  0.1752 -0.1202  0.2472
 9385SOL    HW139788   3.364   4.387   3.599  0.2874 -4.8453 -1.4072
 9385SOL    HW239789   3.496   4.331   3.572 -0.6743 -0.7746  0.0649
 9386SOL     OW39790   1.777   1.032   9.926 -0.1875  0.1948 -0.0028
 9386SOL    HW139791   1.867   1.035   9.894 -0.2579 -0.5901 -0.2795
 9386SOL    HW239792   1.769   0.995  10.014 -0.2664 -2.7836 -1.2401
 9387SOL     OW39793   0.070   0.179   7.613  0.2650 -0.3532  0.1227
 9387SOL    HW139794   4.724   0.225   7.597  0.0696 -0.3296  1.1822
 9387SOL    HW239795   0.121   0.255   7.583  1.7937 -0.3905  2.5388
 9388SOL     OW39796   0.658   1.374   1.537  0.3551  0.6413 -0.1658
 9388SOL    HW139797   0.670   1.458   1.581  0.4591  1.8936 -2.5979
 9388SOL    HW239798   0.570   1.348   1.563  0.5058  2.9303  2.6227
 9389SOL     OW39799   3.600   3.099   1.026 -0.4171  0.0035 -0.2559
 9389SOL    HW139800   3.595   3.006   1.050  0.3043  0.6494  2.3957
 9389SOL    HW239801   3.530   3.137   1.079  0.2923 -0.7724  1.2672
 9390SOL     OW39802   1.055   3.807   7.549 -0.3726  0.3518 -0.2909
 9390SOL    HW139803   1.105   3.878   7.589 -1.1517  1.2634 -0.9544
 9390SOL    HW239804   1.030   3.849   7.467 -0.1983  1.8356  0.4185
 9391SOL     OW39805   3.344   2.443   5.241  0.1841  0.5936 -0.1213
 9391SOL    HW139806   3.350   2.491   5.323 -1.0341  0.0859  0.2562
 9391SOL    HW239807   3.313   2.515   5.186 -1.1173 -0.7200 -1.0987
 9392SOL     OW39808   1.027   4.658   6.204  0.0233  0.7848  0.0987
 9392SOL    HW139809   1.052   4.579   6.252 -2.7834  0.2256  0.6741
 9392SOL    HW239810   1.106   4.705   6.230  2.2817 -1.8428 -1.9303
 9393SOL     OW39811   0.611   2.205   3.302 -0.1401  0.0978 -0.4622
 9393SOL    HW139812   0.577   2.204   3.212  0.1417  0.9521 -0.5842
 9393SOL    HW239813   0.652   2.292   3.304  0.6489 -0.3129  0.9222
 9394SOL     OW39814   4.253   2.435   3.456  0.1290 -0.0161  0.7019
 9394SOL    HW139815   4.183   2.457   3.394  0.8637  0.1221 -0.0767
 9394SOL    HW239816   4.302   2.364   3.416  0.1222  2.8990 -4.4601
 9395SOL     OW39817   4.040   0.445   3.039 -0.1508  0.0416  0.2205
 9395SOL    HW139818   4.051   0.500   2.961  0.2498 -0.1431  0.1472
 9395SOL    HW239819   3.958   0.403   3.012 -0.8642 -0.4340  3.1751
 9396SOL     OW39820   1.394   3.634   2.063 -0.5364 -0.2804  0.5504
 9396SOL    HW139821   1.305   3.632   2.028 -0.9785  1.9961  1.5113
 9396SOL    HW239822   1.387   3.712   2.119  1.7725  1.0066 -0.9378
 9397SOL     OW39823   3.086   1.024   1.793 -0.4195 -0.1956 -0.8151
 9397SOL    HW139824   3.100   1.052   1.703 -0.2624  1.5964 -0.2195
 9397SOL    HW239825   3.013   1.085   1.800 -0.8298 -0.5686 -1.7702
 9398SOL     OW39826   3.881   0.073  10.866  0.2388  0.0810 -0.0352
 9398SOL    HW139827   3.892   4.735  10.807 -0.2420  1.5013 -1.9265
 9398SOL    HW239828   3.867   0.149  10.809  2.2297  0.7434  0.3795
 9399SOL     OW39829   2.543   2.105   7.335  0.2095  0.6338  0.0680
 9399SOL    HW139830   2.604   2.177   7.351 -1.8129  2.3614 -0.0379
 9399SOL    HW239831   2.558   2.093   7.241  1.5947 -1.0557  0.4916
 9400SOL     OW39832   0.451   2.688  11.791  0.0861 -0.3761  0.3308
 9400SOL    HW139833   0.405   2.731  11.863 -0.5950 -1.0752  0.3058
 9400SOL    HW239834   0.458   2.763  11.731  0.6766 -0.0834  0.7562
 9401SOL     OW39835   3.962   2.849   0.644  0.0323 -0.6954 -0.3512
 9401SOL    HW139836   3.869   2.853   0.624 -0.5012 -1.6606  1.8941
 9401SOL    HW239837   3.977   2.758   0.670  0.6590 -0.2396  0.9025
 9402SOL     OW39838   1.199   2.854  16.317 -0.7513 -0.0793  0.1324
 9402SOL    HW139839   1.260   2.782  16.331  0.2790  0.9555  1.0253
 9402SOL    HW239840   1.173   2.858  16.410 -2.0364  0.3379 -0.2376
 9403SOL     OW39841   4.301   3.607  13.057 -1.2732 -0.3113  0.0851
 9403SOL    HW139842   4.285   3.615  12.963  1.1090  1.0497 -0.1958
 9403SOL    HW239843   4.354   3.683  13.080  2.9519 -3.2156 -0.0337
 9404SOL     OW39844   0.608   3.949   4.060  0.5511  0.7310  0.2771
 9404SOL    HW139845   0.614   3.967   3.966 -1.5313 -1.8751 -0.3449
 9404SOL    HW239846   0.556   4.024   4.089 -0.7476 -0.2626  0.5294
 9405SOL     OW39847   1.510   2.598   8.230 -0.1413 -0.5120 -0.2496
 9405SOL    HW139848   1.442   2.549   8.183 -1.2868  0.7145  0.1463
 9405SOL    HW239849   1.580   2.533   8.238 -1.5693 -2.1367 -1.0714
 9406SOL     OW39850   1.593   3.355  11.932 -0.2300 -0.2934  0.8455
 9406SOL    HW139851   1.499   3.354  11.913  0.1549  1.1441 -1.1308
 9406SOL    HW239852   1.594   3.288  12.001 -0.0801 -0.4426  0.6971
 9407SOL     OW39853   4.117   4.086   7.463 -0.0195  0.6271 -0.6315
 9407SOL    HW139854   4.174   4.102   7.538  2.8395  2.0900 -3.1451
 9407SOL    HW239855   4.072   4.009   7.498 -0.3380  1.4489  0.7333
 9408SOL     OW39856   3.915   2.737   2.982  0.2334 -0.7270 -0.3517
 9408SOL    HW139857   3.980   2.673   2.955  2.0932  0.4407  1.3718
 9408SOL    HW239858   3.970   2.780   3.048  0.0654  0.0996 -0.7550
 9409SOL     OW39859   0.069   3.643   5.175  0.6002 -0.0472 -0.5118
 9409SOL    HW139860   4.733   3.581   5.179  0.0645  0.7387  1.9502
 9409SOL    HW239861   0.089   3.614   5.086 -1.4019 -3.8489  0.2888
 9410SOL     OW39862   1.802   3.757   2.283 -0.3825  0.0479  0.1062
 9410SOL    HW139863   1.816   3.694   2.353  0.2512 -0.6716 -0.6708
 9410SOL    HW239864   1.718   3.796   2.308 -0.0143 -0.2251  1.7341
 9411SOL     OW39865   1.756   3.485   2.866 -0.3860  0.3646 -0.0680
 9411SOL    HW139866   1.681   3.519   2.817 -0.6952  1.2893  1.0624
 9411SOL    HW239867   1.720   3.400   2.893 -0.8121 -0.0168 -1.8723
 9412SOL     OW39868   1.008   0.379  12.740  0.4596 -0.3834  0.3567
 9412SOL    HW139869   1.001   0.473  12.760 -0.0228  0.0365 -1.8359
 9412SOL    HW239870   0.992   0.340  12.826  0.0231 -0.2120  0.3538
 9413SOL     OW39871   3.485   2.215  16.772 -0.2290  0.2611 -0.1503
 9413SOL    HW139872   3.400   2.247  16.804  0.5789 -0.1375  2.3903
 9413SOL    HW239873   3.544   2.268  16.825 -1.9206 -0.4817  2.5001
 9414SOL     OW39874   3.721   4.241   9.184  0.1031  0.2861  0.1609
 9414SOL    HW139875   3.754   4.316   9.135 -1.5252  0.0980 -1.2279
 9414SOL    HW239876   3.791   4.179   9.165  0.3764  0.7684 -0.3720
 9415SOL     OW39877   1.204   3.706  15.437  0.1597  0.2957 -0.1156
 9415SOL    HW139878   1.111   3.728  15.445  0.3949  0.7632  1.3573
 9415SOL    HW239879   1.245   3.779  15.390 -1.1243 -0.1630 -1.9623
 9416SOL     OW39880   2.479   0.117   3.219  0.2054 -0.0712  0.3772
 9416SOL    HW139881   2.547   0.166   3.174  0.2104 -0.1435  0.3071
 9416SOL    HW239882   2.511   0.118   3.310 -0.7043 -0.3526  0.7008
 9417SOL     OW39883   1.575   1.779   6.475 -0.4488  0.1377 -0.6430
 9417SOL    HW139884   1.611   1.717   6.411  0.3650  0.3300 -0.3638
 9417SOL    HW239885   1.488   1.781   6.436 -0.3992  0.4275 -0.7448
 9418SOL     OW39886   3.001   2.074   7.909  0.1084  0.0294 -0.2809
 9418SOL    HW139887   3.027   1.982   7.913 -0.4734 -0.0682  1.4019
 9418SOL    HW239888   3.087   2.114   7.920  1.0221 -2.2660  0.8610
 9419SOL     OW39889   3.265   3.237   2.931 -0.7796  0.2197  0.3175
 9419SOL    HW139890   3.333   3.302   2.949 -0.6009 -0.7367  2.9977
 9419SOL    HW239891   3.275   3.239   2.836 -0.4264 -1.1614  0.3270
 9420SOL     OW39892   3.672   2.842  13.310  0.3003  0.0092  0.4487
 9420SOL    HW139893   3.581   2.864  13.331 -0.1591  0.4301 -1.9497
 9420SOL    HW239894   3.648   2.784  13.238 -2.1047  1.5617 -0.0147
 9421SOL     OW39895   4.101   4.532   7.157  0.4985  0.0264 -0.1547
 9421SOL    HW139896   4.144   4.473   7.095 -1.6329 -0.4062 -1.2327
 9421SOL    HW239897   4.142   4.616   7.135 -1.9116  1.0867 -0.5388
 9422SOL     OW39898   2.293   2.512   8.479  0.7098  0.0786 -0.4194
 9422SOL    HW139899   2.274   2.595   8.436 -2.7148  0.7065  2.2927
 9422SOL    HW239900   2.258   2.450   8.415  3.2212 -1.3521 -0.4325
 9423SOL     OW39901   0.667   3.419   2.024 -0.6518  0.0953 -0.7059
 9423SOL    HW139902   0.630   3.475   2.091 -0.2646 -0.7398  0.2117
 9423SOL    HW239903   0.598   3.354   2.011  0.3983 -1.0259 -0.8093
 9424SOL     OW39904   2.069   4.141   9.983  0.6992 -0.2659  0.2651
 9424SOL    HW139905   2.105   4.229   9.971  3.0783 -1.7931 -3.5949
 9424SOL    HW239906   2.006   4.140   9.912 -2.0883  2.2075  2.6793
 9425SOL     OW39907   0.904   0.927  10.974 -0.1187  0.2058 -0.0780
 9425SOL    HW139908   0.982   0.936  10.919  1.1431  0.1325  1.6923
 9425SOL    HW239909   0.912   0.842  11.017  0.5094 -0.0585 -0.7280
 9426SOL     OW39910   1.695   3.953   8.329 -0.5789  0.1794  0.6438
 9426SOL    HW139911   1.690   3.985   8.419  0.3313 -2.4607  1.6370
 9426SOL    HW239912   1.669   3.861   8.334 -0.4779 -0.0647 -3.0284
 9427SOL     OW39913   3.672   0.618   3.175 -0.6838  0.7624  0.1958
 9427SOL    HW139914   3.716   0.645   3.094  0.9704 -0.8405  0.5495
 9427SOL    HW239915   3.581   0.636   3.151 -0.6486  1.1200  0.3341
 9428SOL     OW39916   0.958   0.525   3.731 -0.3865 -0.2392  0.4385
 9428SOL    HW139917   0.979   0.433   3.744 -1.3460 -0.4795  0.2746
 9428SOL    HW239918   0.875   0.532   3.778 -0.1640  1.8282  0.5356
 9429SOL     OW39919   4.137   0.389   8.932 -0.0117  0.2582 -0.0073
 9429SOL    HW139920   4.052   0.421   8.902  0.6358  1.9643 -0.0299
 9429SOL    HW239921   4.136   0.409   9.025  0.9544  1.1814 -0.1964
 9430SOL     OW39922   4.288   1.582   1.647 -0.2033 -0.2047 -0.4136
 9430SOL    HW139923   4.206   1.574   1.599 -1.9018 -1.3461  2.7204
 9430SOL    HW239924   4.350   1.586   1.574 -0.7666 -0.6359 -0.9226
 9431SOL     OW39925   2.741   3.147  10.718 -0.5211  0.3336 -0.1063
 9431SOL    HW139926   2.712   3.237  10.704  0.1426  0.5998  0.2556
 9431SOL    HW239927   2.652   3.111  10.716 -0.4734  0.2969 -1.6174
 9432SOL     OW39928   2.526   3.092   3.557 -0.3709 -0.8558 -0.2040
 9432SOL    HW139929   2.471   3.168   3.541  0.4607 -0.4454 -1.1440
 9432SOL    HW239930   2.470   3.017   3.577  0.5703 -2.0057 -1.8456
 9433SOL     OW39931   3.144   1.758  14.668 -0.3422 -0.5703  0.0781
 9433SOL    HW139932   3.145   1.820  14.741 -1.6273 -0.4908  0.0161
 9433SOL    HW239933   3.206   1.695  14.706 -1.6936 -1.5953  0.5949
 9434SOL     OW39934   0.616   2.142   5.774  0.5865 -0.5486 -0.3310
 9434SOL    HW139935   0.627   2.221   5.722 -0.6041 -1.4746 -1.9921
 9434SOL    HW239936   0.691   2.089   5.746  1.2019  0.0565  0.1779
 9435SOL     OW39937   0.782   1.742   6.986  0.2786 -0.3065 -0.2378
 9435SOL    HW139938   0.821   1.755   6.900  1.3844  0.9125  0.4516
 9435SOL    HW239939   0.717   1.813   6.982  2.3724  1.6793  1.0252
 9436SOL     OW39940   1.718   2.253   3.771  0.1484  0.1456 -0.2126
 9436SOL    HW139941   1.799   2.241   3.723  0.8655  1.3246  0.6750
 9436SOL    HW239942   1.700   2.161   3.789  0.0166  0.3703  0.8676
 9437SOL     OW39943   2.931   1.405   4.773  0.0179 -0.3339 -0.1629
 9437SOL    HW139944   3.002   1.340   4.771 -0.9944 -1.6331  5.3758
 9437SOL    HW239945   2.973   1.491   4.762  1.7932 -1.6562 -3.7850
 9438SOL     OW39946   4.239   1.993   2.353  0.4668 -0.0437 -0.7397
 9438SOL    HW139947   4.202   1.994   2.264 -0.6053  2.8372 -0.2458
 9438SOL    HW239948   4.160   1.988   2.407  0.5429  0.2548 -0.6028
 9439SOL     OW39949   3.734   1.559   4.791  0.0415 -0.0176 -0.1912
 9439SOL    HW139950   3.826   1.577   4.772  0.0739 -1.1459 -1.0802
 9439SOL    HW239951   3.740   1.473   4.834 -0.1917  0.7163  1.3143
 9440SOL     OW39952   2.225   4.388   5.275 -0.4303  0.1773 -0.1723
 9440SOL    HW139953   2.295   4.371   5.337 -0.8168 -0.5851  0.0562
 9440SOL    HW239954   2.166   4.329   5.322 -3.0954  1.8365 -1.4012
 9441SOL     OW39955   0.468   1.875   4.699  0.2074 -0.2769 -0.5107
 9441SOL    HW139956   0.526   1.888   4.774  0.1405 -1.3118 -0.2761
 9441SOL    HW239957   0.385   1.890   4.745  0.0917 -0.0694 -0.7920
 9442SOL     OW39958   4.233   0.513   5.784  0.1782  0.6874  0.1528
 9442SOL    HW139959   4.154   0.549   5.743 -1.1292 -1.0864  1.1598
 9442SOL    HW239960   4.224   0.538   5.876 -1.5664 -1.0311  0.4486
 9443SOL     OW39961   1.572   3.393   7.678  0.1745 -0.2891 -0.5053
 9443SOL    HW139962   1.539   3.304   7.665  0.6352 -0.3753 -1.1195
 9443SOL    HW239963   1.607   3.378   7.765 -1.1478  0.1277  0.1027
 9444SOL     OW39964   0.192   2.925   2.068  0.5018  0.3247 -0.2131
 9444SOL    HW139965   0.205   2.868   1.992 -0.4401 -0.9198  0.5562
 9444SOL    HW239966   0.108   2.897   2.106  1.5298  0.2108  1.9930
 9445SOL     OW39967   4.229   0.021  12.381 -0.3672 -0.1930  0.0134
 9445SOL    HW139968   4.139   0.026  12.412 -0.8748 -2.0325 -1.1912
 9445SOL    HW239969   4.236   0.094  12.319 -0.1220  0.7373  1.1388
 9446SOL     OW39970   3.873   1.998   4.233 -0.0331 -0.0414  0.1134
 9446SOL    HW139971   3.872   2.046   4.151 -1.9515 -0.5968 -0.1948
 9446SOL    HW239972   3.962   1.963   4.225 -0.1095  0.0219 -0.9144
 9447SOL     OW39973   2.153   1.577   7.444  0.5311 -0.9975  0.1140
 9447SOL    HW139974   2.114   1.648   7.496  1.2112 -0.2196 -0.4301
 9447SOL    HW239975   2.246   1.598   7.458  0.0657  0.5494  0.8907
 9448SOL     OW39976   2.785   4.205   6.730  0.0497 -0.2591  0.1742
 9448SOL    HW139977   2.808   4.221   6.639  0.7206 -0.1376  0.3656
 9448SOL    HW239978   2.810   4.293   6.761  0.4971  0.0013 -0.9384
 9449SOL     OW39979   2.214   2.296   9.339 -0.4462 -0.6001  0.6126
 9449SOL    HW139980   2.244   2.385   9.359  0.8164 -0.8202 -0.2713
 9449SOL    HW239981   2.292   2.241   9.337  1.4754  2.1797 -0.8360
 9450SOL     OW39982   4.561   2.099   4.101 -0.1111  0.0235 -0.1275
 9450SOL    HW139983   4.619   2.168   4.068 -0.4124 -0.5291 -1.8369
 9450SOL    HW239984   4.509   2.090   4.021  1.8840  1.6191 -1.6181
 9451SOL     OW39985   3.305   3.103   2.280 -0.1307  0.4935 -0.5111
 9451SOL    HW139986   3.224   3.153   2.289 -0.4386 -0.5510  2.4544
 9451SOL    HW239987   3.260   3.019   2.275 -0.5218  0.6764 -0.0241
 9452SOL     OW39988   2.594   1.661   8.357  0.0758  0.5861  0.3551
 9452SOL    HW139989   2.543   1.583   8.379  1.1635 -0.0186  0.7250
 9452SOL    HW239990   2.682   1.640   8.388  1.0844  3.0303 -0.7920
 9453SOL     OW39991   0.620   1.335   7.851 -0.4787  0.5962  0.4911
 9453SOL    HW139992   0.565   1.330   7.930  0.1378 -0.3328  0.8591
 9453SOL    HW239993   0.552   1.313   7.787  0.9659 -1.8472 -0.2158
 9454SOL     OW39994   2.800   0.482   0.415 -0.1492  0.0666  0.2547
 9454SOL    HW139995   2.813   0.530   0.497  2.4893  0.1178 -0.1999
 9454SOL    HW239996   2.796   0.392   0.449 -1.2176  0.5892  1.5393
 9455SOL     OW39997   1.155   3.844   3.968 -0.5839  0.2880 -0.5738
 9455SOL    HW139998   1.247   3.870   3.974 -0.5061 -0.7483  2.7590
 9455SOL    HW239999   1.153   3.777   4.036  2.5326 -0.5966 -1.3445
 9456SOL     OW40000   1.973   4.408   4.856 -0.3775 -0.0966 -0.5093
 9456SOL    HW140001   2.004   4.495   4.881 -0.0073  0.1955 -1.9797
 9456SOL    HW240002   1.907   4.441   4.795  1.6338  1.1504 -2.0334
 9457SOL     OW40003   2.538   3.791   8.719 -0.4376  0.4253  0.5188
 9457SOL    HW140004   2.516   3.700   8.738  1.9147  0.4416  3.4846
 9457SOL    HW240005   2.634   3.797   8.727 -0.4017  1.3450 -0.7046
 9458SOL     OW40006   4.446   3.618  16.266  0.2753  0.4046  0.7617
 9458SOL    HW140007   4.426   3.666  16.186 -0.4069  0.5548  1.0249
 9458SOL    HW240008   4.448   3.689  16.330  0.6554  0.9132  0.1893
 9459SOL     OW40009   1.423   3.829   4.008  0.1309 -0.0832  0.2042
 9459SOL    HW140010   1.508   3.841   3.967 -0.7455 -0.5702 -1.7837
 9459SOL    HW240011   1.421   3.733   4.000  0.6042 -0.1898  1.3065
 9460SOL     OW40012   2.099   4.283   8.211 -0.1661 -0.7638  0.3386
 9460SOL    HW140013   2.113   4.216   8.145 -0.4073 -1.2215  0.7498
 9460SOL    HW240014   2.066   4.222   8.277 -0.4882  0.6636  1.5167
 9461SOL     OW40015   4.665   3.494   3.750 -0.3739  0.5442 -0.2007
 9461SOL    HW140016   4.643   3.586   3.767  0.5166  0.1228  3.1882
 9461SOL    HW240017   4.580   3.459   3.776  2.0687 -4.3613  1.0431
 9462SOL     OW40018   1.394   0.413   8.650 -0.0200 -0.0372  0.2606
 9462SOL    HW140019   1.404   0.506   8.629 -1.0236 -0.9313 -4.2658
 9462SOL    HW240020   1.343   0.411   8.731 -0.7384 -1.5433 -0.2330
 9463SOL     OW40021   2.111   0.639  13.006  0.0462 -0.4305  0.1895
 9463SOL    HW140022   2.166   0.576  12.959  0.5868 -2.6906  3.9301
 9463SOL    HW240023   2.054   0.661  12.932 -0.7537  1.0062  1.2341
 9464SOL     OW40024   2.032   3.292   4.391 -0.2315  0.2651  0.0485
 9464SOL    HW140025   2.056   3.257   4.476  0.0029 -1.7244 -0.8500
 9464SOL    HW240026   1.940   3.268   4.383  0.6812 -3.9880  2.5865
 9465SOL     OW40027   3.320   1.361  12.974  0.5841 -0.1985  0.4570
 9465SOL    HW140028   3.261   1.435  12.991  0.1515 -0.9903  2.3893
 9465SOL    HW240029   3.369   1.386  12.896  1.9343 -0.8626  1.0913
 9466SOL     OW40030   4.062   4.456   9.388 -0.3939 -0.0823 -0.1408
 9466SOL    HW140031   4.081   4.455   9.482  1.7692 -0.1763 -0.5737
 9466SOL    HW240032   4.000   4.528   9.374 -0.0574 -0.2139 -2.3258
 9467SOL     OW40033   0.573   3.476  15.865 -0.0271  0.3752  0.0888
 9467SOL    HW140034   0.530   3.391  15.865  1.9799 -0.6538  1.6688
 9467SOL    HW240035   0.557   3.509  15.777  2.2363 -1.5139 -1.0309
 9468SOL     OW40036   1.700   3.486  14.269 -0.0161  0.0231 -0.1023
 9468SOL    HW140037   1.665   3.560  14.220  1.8630  0.2224 -1.1328
 9468SOL    HW240038   1.681   3.519  14.357 -0.4660  0.0669 -0.2134
 9469SOL     OW40039   4.666   3.042   0.436  0.6690 -0.6040  0.0185
 9469SOL    HW140040   4.711   2.975   0.488  2.8716 -0.1956 -1.3213
 9469SOL    HW240041   0.003   3.075   0.383  0.7778 -0.7649  0.0699
 9470SOL     OW40042   0.230   2.825  11.486 -0.1709 -0.1715  0.7013
 9470SOL    HW140043   0.310   2.848  11.533 -0.0276 -0.1220  0.4334
 9470SOL    HW240044   0.183   2.790  11.561 -2.4040 -1.2855 -1.2286
 9471SOL     OW40045   1.998   2.309   1.443 -0.1847  0.4067 -0.1961
 9471SOL    HW140046   1.998   2.366   1.520 -0.0841 -0.6682  0.6118
 9471SOL    HW240047   1.947   2.362   1.382  0.3070  0.9645 -0.1125
 9472SOL     OW40048   0.755   4.027   8.259  0.5509 -0.0102 -0.2173
 9472SOL    HW140049   0.745   4.114   8.222  3.8270  0.1968 -0.6048
 9472SOL    HW240050   0.848   4.017   8.241 -0.1092 -2.4663 -2.2455
 9473SOL     OW40051   4.295   3.947   2.324  0.3851 -0.5993  0.3642
 9473SOL    HW140052   4.385   3.981   2.332 -0.4095  1.9493 -1.3237
 9473SOL    HW240053   4.308   3.868   2.273 -1.1882  0.4862 -1.6941
 9474SOL     OW40054   1.666   2.540  15.577  0.2930 -0.5727  0.0536
 9474SOL    HW140055   1.703   2.460  15.540 -1.9815 -2.5827  2.0698
 9474SOL    HW240056   1.736   2.580  15.629  0.7001  1.4005 -2.0335
 9475SOL     OW40057   3.911   3.210  17.384  0.4907 -0.4261  0.5028
 9475SOL    HW140058   3.900   3.304  17.397 -2.5356 -0.4717 -1.8543
 9475SOL    HW240059   3.822   3.181  17.401 -0.4473  2.1432 -0.0962
 9476SOL     OW40060   4.239   4.254   4.889  0.0495  0.1588 -0.1135
 9476SOL    HW140061   4.240   4.311   4.812 -0.6384  1.5642  0.9278
 9476SOL    HW240062   4.269   4.310   4.960  0.3540  1.1539 -1.0260
 9477SOL     OW40063   0.663   0.863   7.202  0.4004 -0.1417 -0.6250
 9477SOL    HW140064   0.698   0.916   7.273  1.6854 -0.6580 -0.8852
 9477SOL    HW240065   0.570   0.854   7.225  0.4987 -0.9080 -0.5526
 9478SOL     OW40066   3.793   3.395   4.974 -0.5089 -0.4078  0.6289
 9478SOL    HW140067   3.721   3.391   5.037 -0.7044 -0.1937  0.4195
 9478SOL    HW240068   3.791   3.489   4.957  0.5214 -0.7401 -1.2466
 9479SOL     OW40069   1.288   4.708   3.757 -0.3028  0.6360  0.0065
 9479SOL    HW140070   1.259   4.714   3.666 -0.3785  1.5693  0.0879
 9479SOL    HW240071   1.213   4.672   3.804 -0.6951  0.6759 -0.6008
 9480SOL     OW40072   1.235   3.391   8.994 -0.3286 -0.5704  0.1999
 9480SOL    HW140073   1.216   3.400   9.088  1.0309  0.3551  0.3821
 9480SOL    HW240074   1.329   3.383   9.010 -0.2962 -2.3034 -0.8717
 9481SOL     OW40075   4.685   4.492  16.099 -0.4464  0.6496  0.4714
 9481SOL    HW140076   4.719   4.446  16.176 -2.4933 -0.0276  0.9847
 9481SOL    HW240077   4.686   4.423  16.033  1.7786 -0.2620  1.4493
 9482SOL     OW40078   2.483   4.517   6.625  0.2719  0.0739 -0.1170
 9482SOL    HW140079   2.451   4.427   6.634 -0.3883  0.4024  0.7035
 9482SOL    HW240080   2.559   4.517   6.684 -1.3350  1.5078  1.9206
 9483SOL     OW40081   3.514   4.232  14.763 -0.1780 -0.3586  0.1854
 9483SOL    HW140082   3.494   4.325  14.751 -0.7880 -0.6792 -1.2123
 9483SOL    HW240083   3.577   4.217  14.693  1.5600  1.7106  1.2877
 9484SOL     OW40084   2.178   1.044   1.893  0.4262 -0.3051  0.1089
 9484SOL    HW140085   2.253   1.103   1.901  0.8930 -0.7949 -0.6707
 9484SOL    HW240086   2.149   1.053   1.984  2.0548 -0.7416  0.6620
 9485SOL     OW40087   1.772   2.106  12.421 -0.2781  0.1480  0.5787
 9485SOL    HW140088   1.773   2.089  12.515 -0.3976 -0.0046  0.5518
 9485SOL    HW240089   1.728   2.191  12.415 -0.2237  0.2037  0.9663
 9486SOL     OW40090   1.461   2.658   7.083 -0.2927 -0.5720  0.5225
 9486SOL    HW140091   1.486   2.734   7.136 -0.0668 -0.9039  0.8980
 9486SOL    HW240092   1.503   2.593   7.140  0.2896 -0.0569  0.6816
 9487SOL     OW40093   1.725   0.371   8.726 -0.6068  0.3452  0.3322
 9487SOL    HW140094   1.714   0.319   8.806 -0.0791 -0.1884  0.0555
 9487SOL    HW240095   1.634   0.398   8.712  0.1179  2.5370 -0.1742
 9488SOL     OW40096   0.648   2.641   6.371  0.0099  0.4389 -0.0665
 9488SOL    HW140097   0.613   2.709   6.428  0.2999  1.0611 -0.6416
 9488SOL    HW240098   0.644   2.566   6.431 -1.4548 -1.0931 -2.0808
 9489SOL     OW40099   4.401   2.237   3.372 -0.4437  0.0025  0.4838
 9489SOL    HW140100   4.435   2.156   3.412 -0.1457 -1.1578 -2.0786
 9489SOL    HW240101   4.467   2.260   3.307  0.7124 -0.4404  1.4923
 9490SOL     OW40102   4.526   3.800   6.759  0.5819 -0.1537 -0.1292
 9490SOL    HW140103   4.446   3.806   6.708  1.2731  2.7291 -0.8615
 9490SOL    HW240104   4.518   3.723   6.816 -1.1803 -0.5031 -0.8608
 9491SOL     OW40105   1.000   0.372  15.363 -0.0066 -1.0070 -0.4512
 9491SOL    HW140106   0.999   0.456  15.410 -1.9757 -0.4861 -1.4593
 9491SOL    HW240107   1.079   0.380  15.309 -0.3018  1.7336 -0.4985
 9492SOL     OW40108   1.572   4.461   6.437 -0.2644  0.2314 -0.1343
 9492SOL    HW140109   1.554   4.381   6.387  3.0298  0.4887 -1.7530
 9492SOL    HW240110   1.593   4.518   6.362  1.8913 -1.1847 -0.5946
 9493SOL     OW40111   2.434   0.651  15.968 -0.0598 -0.4850 -0.2954
 9493SOL    HW140112   2.421   0.557  15.982 -1.0159 -0.3210 -0.1292
 9493SOL    HW240113   2.431   0.646  15.873  0.5251 -0.1901 -0.3322
 9494SOL     OW40114   2.853   0.263  12.707  0.2592  0.1542  0.3771
 9494SOL    HW140115   2.809   0.312  12.637 -0.5154 -0.9200  0.1125
 9494SOL    HW240116   2.908   0.219  12.641  0.0762  1.1707 -0.4649
 9495SOL     OW40117   2.491   1.909   5.915 -0.2667 -0.5157 -0.2425
 9495SOL    HW140118   2.497   1.839   5.850 -6.3222  0.4062 -1.8445
 9495SOL    HW240119   2.403   1.895   5.950 -0.6595  0.3819 -0.8688
 9496SOL     OW40120   3.092   4.074   5.406  0.6373 -0.6163 -0.1075
 9496SOL    HW140121   3.175   4.115   5.381  1.7731 -2.5628  0.4631
 9496SOL    HW240122   3.117   3.982   5.398 -1.9020 -1.4339  1.4101
 9497SOL     OW40123   0.041   4.335   8.137 -0.0178  0.6345 -0.3047
 9497SOL    HW140124   0.073   4.246   8.124 -2.0337 -0.2783  0.9699
 9497SOL    HW240125   4.691   4.329   8.097 -0.8275 -1.2047  1.7198
 9498SOL     OW40126   0.712   3.807   4.468 -0.2295 -0.6216 -0.2397
 9498SOL    HW140127   0.775   3.770   4.530  1.4487  1.6472 -0.5551
 9498SOL    HW240128   0.640   3.843   4.520  0.1820  0.2166 -0.2450
 9499SOL     OW40129   1.494   4.664   3.116 -0.8424 -0.3165  0.2382
 9499SOL    HW140130   1.449   4.649   3.199 -0.7133  1.9169  0.7085
 9499SOL    HW240131   1.467   0.015   3.089  1.7526  0.2789 -0.4116
 9500SOL     OW40132   2.648   4.541   5.904  0.3015  0.4586 -0.1520
 9500SOL    HW140133   2.699   4.543   5.985 -1.0201  2.2596  0.6549
 9500SOL    HW240134   2.684   4.470   5.851  0.4064  0.8712 -0.6392
 9501SOL     OW40135   2.037   0.255   8.328 -0.4843 -0.0401  0.1504
 9501SOL    HW140136   2.013   0.303   8.407  2.6164  2.1137 -0.1949
 9501SOL    HW240137   1.960   0.200   8.316 -1.3361  1.1539  0.1603
 9502SOL     OW40138   1.349   2.858   9.075  0.5283 -0.4788 -0.0446
 9502SOL    HW140139   1.384   2.863   8.986  1.2321 -2.7388  0.0877
 9502SOL    HW240140   1.428   2.870   9.127  0.2242  1.2304  0.0045
 9503SOL     OW40141   2.330   2.142   4.582  0.3918  0.1001  0.0894
 9503SOL    HW140142   2.299   2.232   4.574  0.0276  0.1276  1.8059
 9503SOL    HW240143   2.274   2.122   4.657  1.8102  0.1350  1.1434
 9504SOL     OW40144   4.217   2.583   9.846 -0.2644 -0.2947 -0.6767
 9504SOL    HW140145   4.235   2.521   9.917  1.7604 -0.2412 -1.1474
 9504SOL    HW240146   4.282   2.557   9.782  2.4108  0.1276  1.8517
 9505SOL     OW40147   2.966   2.761   4.868  0.6844 -0.0687  0.3825
 9505SOL    HW140148   2.973   2.833   4.931 -0.7563 -0.4594  0.9902
 9505SOL    HW240149   2.975   2.808   4.785 -0.7105 -0.3531  0.0719
 9506SOL     OW40150   0.779   0.630  13.942 -0.4083  0.0620 -0.2408
 9506SOL    HW140151   0.700   0.662  13.899  0.8128  1.8003 -1.1543
 9506SOL    HW240152   0.830   0.708  13.919 -1.2715  1.0738  1.2274
 9507SOL     OW40153   2.012   2.485  13.565  0.6079  0.4232 -0.2707
 9507SOL    HW140154   2.062   2.417  13.520  0.3267 -1.7848  2.7785
 9507SOL    HW240155   1.925   2.454  13.539  0.6845  1.8410 -2.2525
 9508SOL     OW40156   2.413   1.639   2.982  0.1535  0.3846 -0.0126
 9508SOL    HW140157   2.392   1.702   2.912  1.8897 -0.0464 -0.9333
 9508SOL    HW240158   2.473   1.695   3.032 -0.3575  0.8701  0.0563
 9509SOL     OW40159   2.889   0.415   6.649 -0.0143 -0.2078  0.6406
 9509SOL    HW140160   2.867   0.452   6.735 -2.1451 -1.7673  0.7755
 9509SOL    HW240161   2.976   0.378   6.662  0.6743  1.4364  0.6706
 9510SOL     OW40162   0.975   1.419   7.205  0.0875  0.0992  0.1681
 9510SOL    HW140163   1.006   1.346   7.151  0.1819 -0.2169  0.6472
 9510SOL    HW240164   1.050   1.478   7.213  0.1042  0.0535  0.3628
 9511SOL     OW40165   4.060   4.263   3.435  0.1907 -0.1131  0.5080
 9511SOL    HW140166   4.110   4.331   3.390 -0.3031  0.3447  0.6386
 9511SOL    HW240167   4.067   4.296   3.525  3.1741  1.8991 -0.4868
 9512SOL     OW40168   2.650   3.166   2.394  0.1614  0.3931 -0.0234
 9512SOL    HW140169   2.642   3.073   2.374  2.3662  0.2345 -0.2296
 9512SOL    HW240170   2.570   3.178   2.444 -0.0806 -3.0244  0.4485
 9513SOL     OW40171   0.744   2.130   6.868  0.2407  0.3064  0.3173
 9513SOL    HW140172   0.785   2.062   6.816 -0.1341  0.3617 -0.0473
 9513SOL    HW240173   0.715   2.072   6.939  0.2343 -2.4292 -1.9365
 9514SOL     OW40174   2.149   1.088   2.181 -0.2450 -0.2740  0.1514
 9514SOL    HW140175   2.111   1.080   2.269  2.3067 -3.1656  1.0016
 9514SOL    HW240176   2.237   1.055   2.199 -1.1179 -2.4952  0.3510
 9515SOL     OW40177   1.991   3.538   4.248  0.4233 -0.1616  0.0742
 9515SOL    HW140178   2.010   3.453   4.287 -1.4932  0.4846  2.4268
 9515SOL    HW240179   1.990   3.520   4.154  2.4217 -2.5655  0.5084
 9516SOL     OW40180   2.628   2.457   8.800 -0.4713 -0.2024  0.1242
 9516SOL    HW140181   2.558   2.397   8.774 -1.1273  0.0879  1.2251
 9516SOL    HW240182   2.675   2.486   8.722  1.2048  1.5049  1.7579
 9517SOL     OW40183   0.151   4.227  17.512  0.4041  0.8624 -0.1898
 9517SOL    HW140184   0.176   4.304  17.460  2.3529 -1.6417 -2.8862
 9517SOL    HW240185   0.065   4.250  17.549  1.0582  0.0459  1.7999
 9518SOL     OW40186   2.994   3.867   6.781  0.0527 -0.2732  0.1052
 9518SOL    HW140187   3.015   3.803   6.712 -2.1993 -0.3581 -0.5246
 9518SOL    HW240188   2.909   3.827   6.804 -1.2003  0.2546 -3.5451
 9519SOL     OW40189   3.986   3.562   3.104  0.1956 -0.1860 -0.5270
 9519SOL    HW140190   3.923   3.598   3.043  0.3275  3.2127  1.3162
 9519SOL    HW240191   4.000   3.638   3.161 -0.3222 -0.4457 -0.0506
 9520SOL     OW40192   2.394   0.039   7.129  0.3618 -0.5188  0.2490
 9520SOL    HW140193   2.387   0.085   7.213 -0.4948 -0.9644  0.4119
 9520SOL    HW240194   2.301   0.020   7.122  0.2657  0.0960 -0.1821
 9521SOL     OW40195   2.507   2.290   8.484 -0.4086  0.0323 -0.0848
 9521SOL    HW140196   2.435   2.321   8.429 -1.2017 -0.5093  0.6610
 9521SOL    HW240197   2.577   2.337   8.438  0.5841  1.8168  3.3034
 9522SOL     OW40198   1.234   2.741   3.353  0.4386  0.0736  0.4812
 9522SOL    HW140199   1.264   2.803   3.287 -0.3985 -0.2791 -0.2184
 9522SOL    HW240200   1.169   2.687   3.309  0.8501 -0.7264  0.8544
 9523SOL     OW40201   1.207   0.207   1.611  0.1911 -0.5944 -0.2010
 9523SOL    HW140202   1.119   0.173   1.596  0.2516 -0.9974  0.3598
 9523SOL    HW240203   1.205   0.273   1.680  0.8735 -0.6060 -0.1683
 9524SOL     OW40204   4.143   2.718   3.224 -0.6829 -0.0074 -0.4121
 9524SOL    HW140205   4.235   2.710   3.197  0.6161  3.7818  2.7387
 9524SOL    HW240206   4.131   2.813   3.223  1.6738  0.3089  1.2036
 9525SOL     OW40207   2.081   4.411  12.403 -0.0580  0.2480  0.0109
 9525SOL    HW140208   2.089   4.350  12.476  0.5165 -2.0442 -1.9605
 9525SOL    HW240209   2.160   4.389  12.354 -1.7765  1.2053 -3.1772
 9526SOL     OW40210   1.676   2.820   8.408  0.3832  0.0799 -0.3184
 9526SOL    HW140211   1.765   2.793   8.429  0.0822 -1.3111 -0.8566
 9526SOL    HW240212   1.641   2.738   8.373  1.3786  0.2833 -1.7925
 9527SOL     OW40213   0.652   0.213  16.470 -0.4628 -0.2774 -0.1765
 9527SOL    HW140214   0.618   0.198  16.558 -0.6468  1.5309  0.0656
 9527SOL    HW240215   0.639   0.307  16.455  2.0342  0.2434  0.8864
 9528SOL     OW40216   1.648   1.315   3.086  0.0020 -0.6412 -0.1808
 9528SOL    HW140217   1.605   1.273   3.160  0.6708 -2.6900 -0.9348
 9528SOL    HW240218   1.675   1.402   3.115 -0.7526  0.7422 -3.5610
 9529SOL     OW40219   2.215   2.690   8.289  0.3114 -0.2026 -0.6936
 9529SOL    HW140220   2.138   2.734   8.252  0.7019  0.8115 -0.3068
 9529SOL    HW240221   2.277   2.695   8.216  0.5747  2.6724 -0.2678
 9530SOL     OW40222   1.007   0.569  11.555  0.5608 -0.2463  0.1464
 9530SOL    HW140223   1.086   0.613  11.523 -0.2249  1.0516  0.0302
 9530SOL    HW240224   0.978   0.518  11.480 -1.5855  0.1470  0.7065
 9531SOL     OW40225   4.300   4.293   5.650 -0.1023  0.4037  0.2683
 9531SOL    HW140226   4.330   4.291   5.559  0.4454  0.7410  0.4410
 9531SOL    HW240227   4.380   4.316   5.697  0.2862  0.7478 -0.5607
 9532SOL     OW40228   3.037   4.094   8.950  0.1729 -0.1190 -0.5310
 9532SOL    HW140229   3.095   4.020   8.931 -0.3823 -1.4248  2.8204
 9532SOL    HW240230   3.101   4.150   8.994  2.2869 -1.2513 -2.1869
 9533SOL     OW40231   0.475   1.347   3.567 -0.2941 -0.0883  0.0785
 9533SOL    HW140232   0.419   1.360   3.644  0.5346 -2.3747  1.0458
 9533SOL    HW240233   0.457   1.425   3.513  1.2754 -1.4821 -2.4594
 9534SOL     OW40234   3.331   0.228  14.518  0.8772  0.5706 -0.5347
 9534SOL    HW140235   3.253   0.282  14.503  0.4745 -0.0189 -0.5622
 9534SOL    HW240236   3.358   0.215  14.427  0.5850  0.7591 -0.6495
 9535SOL     OW40237   3.387   0.217  17.192 -0.2771  0.1501 -0.3325
 9535SOL    HW140238   3.292   0.228  17.197 -0.0627  2.1651 -0.5583
 9535SOL    HW240239   3.383   0.133  17.146  2.1367  0.2018 -0.6617
 9536SOL     OW40240   1.779   3.163   4.374 -0.2984  0.3997 -0.4815
 9536SOL    HW140241   1.730   3.119   4.444  0.7273  0.2907  0.1791
 9536SOL    HW240242   1.787   3.097   4.305 -0.4720 -1.4753  1.2932
 9537SOL     OW40243   0.614   0.830  13.804  0.2977 -0.3074  0.4964
 9537SOL    HW140244   0.654   0.899  13.857 -1.0248 -0.1671  1.2938
 9537SOL    HW240245   0.521   0.853  13.798  0.3117 -0.1502  0.9528
 9538SOL     OW40246   0.453   1.939   8.036  0.1254  0.2252  0.2792
 9538SOL    HW140247   0.426   2.002   7.970 -2.9538  0.0517  1.4120
 9538SOL    HW240248   0.548   1.936   8.021 -0.1823 -0.3880 -1.5918
 9539SOL     OW40249   4.010   3.369  15.103 -0.3485 -0.6008 -0.1429
 9539SOL    HW140250   3.959   3.357  15.023  0.3724 -1.8369 -0.4259
 9539SOL    HW240251   3.966   3.297  15.149  1.3203 -0.4606  1.6704
 9540SOL     OW40252   1.109   4.077   5.745 -0.1269  0.0304 -0.4623
 9540SOL    HW140253   1.091   4.170   5.733  1.3547  0.6137  1.7862
 9540SOL    HW240254   1.026   4.045   5.710  0.1035  0.4267 -1.3575
 9541SOL     OW40255   0.046   0.563   4.600  0.0160 -0.5013 -0.4452
 9541SOL    HW140256   0.041   0.494   4.666 -1.6136  1.0375  1.0389
 9541SOL    HW240257   4.721   0.529   4.536  0.7271  1.3274 -2.0904
 9542SOL     OW40258   4.350   4.177   7.670 -0.0836 -0.2323  0.7441
 9542SOL    HW140259   4.395   4.204   7.590  0.4198 -2.4860  0.2475
 9542SOL    HW240260   4.301   4.256   7.690 -0.3504  0.0455 -0.9615
 9543SOL     OW40261   3.105   4.054  16.906 -0.1696  0.5583 -0.2756
 9543SOL    HW140262   3.070   4.125  16.961 -1.2467 -0.0990 -0.1136
 9543SOL    HW240263   3.093   3.980  16.965 -1.1099  0.3930 -0.6604
 9544SOL     OW40264   0.487   0.380   5.052  0.2884 -0.2681 -0.4138
 9544SOL    HW140265   0.579   0.405   5.053  1.1777 -3.6181 -0.1602
 9544SOL    HW240266   0.454   0.470   5.043 -1.7639 -0.9300  0.5356
 9545SOL     OW40267   4.255   4.206  12.383 -0.5947 -0.1176 -0.3033
 9545SOL    HW140268   4.162   4.216  12.403 -0.5765  0.4218 -0.4862
 9545SOL    HW240269   4.290   4.294  12.396 -0.5427  0.2490 -2.8270
 9546SOL     OW40270   2.633   1.190   6.762  0.0335  0.4835 -0.2554
 9546SOL    HW140271   2.635   1.131   6.838 -0.2170 -0.4614 -0.9896
 9546SOL    HW240272   2.607   1.275   6.797 -2.4205 -0.4043  0.0514
 9547SOL     OW40273   1.277   1.299  10.253 -0.3969  0.7272  0.4709
 9547SOL    HW140274   1.286   1.216  10.206  2.5449  0.6212  1.2660
 9547SOL    HW240275   1.338   1.355  10.205 -0.5984  0.0423 -0.5898
 9548SOL     OW40276   2.727   0.046   5.746 -0.1179  0.3538  0.5476
 9548SOL    HW140277   2.721   0.014   5.836 -3.4956 -1.7493 -0.4432
 9548SOL    HW240278   2.764   4.709   5.697 -2.3808 -0.8311  0.6162
 9549SOL     OW40279   2.546   0.742   8.608 -0.4550  0.1287  0.0861
 9549SOL    HW140280   2.470   0.699   8.646 -0.7870  1.7281  1.2183
 9549SOL    HW240281   2.521   0.762   8.517 -1.6728 -1.4356  0.0883
 9550SOL     OW40282   1.089   4.135   7.195 -0.5957  0.2907  0.6690
 9550SOL    HW140283   1.083   4.225   7.163 -0.7257  0.0674  0.0695
 9550SOL    HW240284   1.096   4.088   7.112 -0.2535  0.7098  0.4621
 9551SOL     OW40285   0.575   3.420   7.126  0.1561 -0.2717 -0.1331
 9551SOL    HW140286   0.609   3.418   7.216  2.0841 -0.0849 -0.8606
 9551SOL    HW240287   0.614   3.339   7.093 -0.4825 -1.0189  0.9443
 9552SOL     OW40288   2.835   0.117   1.693 -0.4826 -0.6769  0.1072
 9552SOL    HW140289   2.879   0.196   1.659 -1.1384 -0.4147 -0.1352
 9552SOL    HW240290   2.783   0.146   1.768 -1.3291  0.4218 -0.9074
 9553SOL     OW40291   0.758   2.309  11.601  0.9231 -0.1271 -0.0485
 9553SOL    HW140292   0.805   2.342  11.678 -1.1484  0.0841  1.1158
 9553SOL    HW240293   0.829   2.263  11.556  0.6938 -0.2085 -0.3241
 9554SOL     OW40294   1.057   2.672  12.923  0.0134 -0.1252  0.1404
 9554SOL    HW140295   1.146   2.642  12.942  0.5217  0.4250 -1.3553
 9554SOL    HW240296   1.055   2.645  12.831 -2.3263 -2.1698  0.8026
 9555SOL     OW40297   0.993   0.065   2.077 -0.0293  0.6246  0.4448
 9555SOL    HW140298   1.003   4.720   2.127  2.6054  0.9872  0.5469
 9555SOL    HW240299   1.084   0.082   2.053 -0.0214 -0.5652 -0.3922
 9556SOL     OW40300   1.477   3.454  15.673 -0.4224  0.2296 -0.7190
 9556SOL    HW140301   1.439   3.440  15.586 -0.1101 -1.6194 -0.5457
 9556SOL    HW240302   1.542   3.386  15.682 -0.1803  0.8532  2.0734
 9557SOL     OW40303   2.220   3.520   7.054  0.1346 -0.4024  0.6809
 9557SOL    HW140304   2.180   3.436   7.029 -0.5135 -0.4650  1.9226
 9557SOL    HW240305   2.286   3.485   7.114  1.1592  1.1803  0.4605
 9558SOL     OW40306   0.624   1.756   3.595  0.3643  0.0933 -0.8644
 9558SOL    HW140307   0.563   1.801   3.536 -2.1738 -1.1932  0.7434
 9558SOL    HW240308   0.570   1.682   3.625  1.0606 -0.8050 -1.8504
 9559SOL     OW40309   1.872   0.228   5.772 -0.1286  0.2547  0.2057
 9559SOL    HW140310   1.862   0.293   5.842  0.2149 -1.5008  1.8809
 9559SOL    HW240311   1.813   0.162   5.808 -0.5877 -0.2308 -1.4704
 9560SOL     OW40312   1.079   0.582   6.216  0.1404  0.0537  0.2258
 9560SOL    HW140313   1.153   0.603   6.273  1.8941 -0.5547 -1.8342
 9560SOL    HW240314   1.054   0.501   6.260 -0.7092 -0.9199 -2.0457
 9561SOL     OW40315   2.308   0.931   5.600 -0.6168 -0.7511 -0.0681
 9561SOL    HW140316   2.276   0.934   5.510 -0.8119  1.5061  0.0729
 9561SOL    HW240317   2.241   0.982   5.645 -1.8543 -0.9275 -1.7065
 9562SOL     OW40318   0.810   3.727  17.051 -0.3868  0.3126  0.1696
 9562SOL    HW140319   0.753   3.652  17.072 -0.0334  0.0001 -0.0026
 9562SOL    HW240320   0.797   3.732  16.957 -1.6187 -0.9049  0.2633
 9563SOL     OW40321   0.709   3.515  17.205 -0.3231 -0.4463 -0.0484
 9563SOL    HW140322   0.704   3.428  17.167 -1.9516 -0.7461  0.9032
 9563SOL    HW240323   0.618   3.540  17.218 -0.8126 -0.8298 -2.6552
 9564SOL     OW40324   2.703   3.480  15.155 -0.3655  0.2384 -0.2173
 9564SOL    HW140325   2.611   3.496  15.178 -0.0459  2.0959 -0.2628
 9564SOL    HW240326   2.737   3.436  15.233 -1.0594  0.6009  0.2973
 9565SOL     OW40327   0.189   1.409   7.682 -0.2455  0.0958  0.9327
 9565SOL    HW140328   0.103   1.390   7.719 -1.8480  1.1881 -2.2746
 9565SOL    HW240329   0.169   1.475   7.616 -0.9929  0.0392  1.1021
 9566SOL     OW40330   4.628   4.631   1.348 -0.3653 -0.5750  0.1737
 9566SOL    HW140331   4.654   4.720   1.326  3.4447 -1.3384  1.5757
 9566SOL    HW240332   4.647   4.581   1.268  1.3478  0.5508 -0.1377
 9567SOL     OW40333   3.010   4.405   0.075  0.3184 -0.0142  0.2929
 9567SOL    HW140334   2.915   4.420   0.073 -0.0039 -2.4541 -2.9489
 9567SOL    HW240335   3.043   4.493   0.057 -1.7105  0.6518 -0.1575
 9568SOL     OW40336   0.322   3.071   9.683  0.2020 -0.0504  0.2311
 9568SOL    HW140337   0.391   3.124   9.643  1.1194 -0.9429  0.6295
 9568SOL    HW240338   0.312   3.009   9.611 -0.4410  1.2509 -0.7966
 9569SOL     OW40339   2.871   2.641  14.807  0.7547 -0.3321 -0.8019
 9569SOL    HW140340   2.849   2.660  14.716 -1.2008  0.4529 -0.1619
 9569SOL    HW240341   2.955   2.598  14.791  0.4377 -0.3945 -2.2524
 9570SOL     OW40342   4.641   3.340  15.939  0.2654  0.1759 -0.0733
 9570SOL    HW140343   4.655   3.308  16.028 -0.3556 -0.7200 -0.3027
 9570SOL    HW240344   4.644   3.435  15.954  1.9547  0.1829 -0.5129
 9571SOL     OW40345   1.552   1.399  12.115 -0.4520  0.1497  0.3466
 9571SOL    HW140346   1.561   1.464  12.185  0.1662  0.2029  0.2151
 9571SOL    HW240347   1.644   1.385  12.095 -0.7347 -1.1709 -0.0265
   4.73647   4.73647  17.74437
