Membrane in water
40347
    1TMC1    C1    1   1.686   4.222  11.464 -0.1977  0.7776  0.5806
    1TMC1    C2    2   1.730   4.265  11.342  0.2614 -0.7397 -0.3433
    1TMC1    C3    3   1.831   4.359  11.349  0.3285  0.2768  0.4911
    1TMC1    C4    4   1.733   4.276  11.583  0.2980  0.7875 -0.4123
    1TMC1    C5    5   1.836   4.370  11.580  0.3709 -0.5196  0.6100
    1TMC1    C6    6   1.890   4.412  11.464  0.1602 -0.5454 -0.3593
    1TMC1     C    7   1.605   4.098  11.463 -0.1158  0.0210 -0.1217
    1TMC1     O    8   1.537   4.084  11.363  0.0458 -0.5740 -0.2631
    1TMC1     H    9   1.698   4.209  11.255 -1.6069  0.8209 -0.6504
    1TMC1    H1   10   1.680   4.259  11.676  1.4663  0.0625  0.1126
    1TMC1    H2   11   1.971   4.483  11.471  0.1086 -0.5241  0.0221
    1TMC1    C7   12   1.857   4.451  11.695  0.4677  0.2221  0.2902
    1TMC1    C8   13   1.905   4.385  11.224 -0.0802 -0.4456 -0.2883
    1TMC1    O1   14   1.866   4.570  11.686  0.5817  0.6735 -0.7563
    1TMC1    O2   15   2.023   4.415  11.229 -0.6923 -0.2636 -0.4301
    1TMC1    O3   16   1.916   4.371  11.785 -0.2017  0.2898 -0.9155
    1TMC1    H3   17   1.922   4.275  11.767 -0.7932  0.6599 -3.0444
    1TMC1    O5   18   1.850   4.328  11.118 -0.7351 -0.6080 -0.5041
    1TMC1    H5   19   1.753   4.338  11.116 -0.4710  2.4623  2.1722
    2MPD2     C   20   1.553   3.624  11.631 -0.1626  0.5368  0.7521
    2MPD2    C1   21   1.481   3.693  11.542 -0.2332 -0.0183  0.1325
    2MPD2    C2   22   1.511   3.823  11.521 -0.0895  0.3154 -0.1585
    2MPD2    C3   23   1.617   3.882  11.584 -0.4384 -0.0983  0.2460
    2MPD2    C4   24   1.685   3.809  11.671  0.5365  0.1181 -0.5062
    2MPD2    C5   25   1.657   3.678  11.693  0.5377  0.6336  0.1977
    2MPD2     H   26   1.451   3.875  11.446  0.6534 -0.5916 -1.3754
    2MPD2    H1   27   1.771   3.851  11.722 -0.5101  2.6221 -0.7822
    2MPD2    H2   28   1.531   3.521  11.657 -1.7206  0.5841 -0.4172
    2MPD2    H3   29   1.723   3.629  11.765 -0.8177 -2.2992 -0.5594
    2MPD2     N   30   1.659   4.012  11.562 -0.1492  0.4924 -0.7681
    2MPD2    H5   31   1.738   4.045  11.617 -1.7097 -2.0691  2.9796
    2MPD2    N1   32   1.359   3.642  11.483  0.4026  0.2836  0.6174
    2MPD2    H7   33   1.299   3.713  11.441  0.2615 -0.3359 -0.2289
    3TMC1    C1   34   0.812   4.182  10.408 -0.8476 -0.0431 -0.4822
    3TMC1    C2   35   0.913   4.263  10.372 -0.4341 -0.2175 -0.6282
    3TMC1    C3   36   0.993   4.223  10.264  0.5147 -0.2989 -0.1244
    3TMC1    C4   37   0.784   4.061  10.347 -0.4954 -0.1562  0.8691
    3TMC1    C5   38   0.865   4.030  10.245 -0.6191  0.9274  0.9347
    3TMC1    C6   39   0.971   4.102  10.199 -0.2839  0.0937 -0.2487
    3TMC1     C   40   0.695   4.238  10.468  0.4559  0.4132 -0.5587
    3TMC1     O   41   0.593   4.186  10.430  0.0406 -0.0897  0.0479
    3TMC1     H   42   0.925   4.360  10.418  0.5372 -1.4140  1.6594
    3TMC1    H1   43   0.698   3.997  10.368  1.5417 -2.7465  1.3121
    3TMC1    H2   44   1.026   4.069  10.111  0.4140  3.0265 -0.9147
    3TMC1    C7   45   0.832   3.904  10.176 -0.5389 -0.2483 -0.4364
    3TMC1    C8   46   1.069   4.319  10.195  0.7709  0.1112  0.1287
    3TMC1    O1   47   0.819   3.801  10.238 -0.0402 -0.3571 -0.1468
    3TMC1    O2   48   1.051   4.438  10.219 -0.1140 -0.4534 -0.0480
    3TMC1    O3   49   0.842   3.924  10.040  0.1405 -0.0749  0.0680
    3TMC1    H3   50   0.837   4.019  10.015 -0.8925  0.5395  2.5246
    3TMC1    O5   51   1.184   4.261  10.164 -0.2982  0.2306  0.4575
    3TMC1    H5   52   1.196   4.168  10.193 -0.3966 -0.4744 -1.7382
    4MPD2     C   53   0.396   4.512  10.762 -0.0048  0.0341  0.1482
    4MPD2    C1   54   0.508   4.588  10.736  1.1340  0.9599 -0.2229
    4MPD2    C2   55   0.616   4.533  10.671 -0.3743 -0.3683  0.0020
    4MPD2    C3   56   0.609   4.400  10.630 -0.4775 -0.1666  1.0009
    4MPD2    C4   57   0.494   4.330  10.645  0.5428 -0.3101 -0.3554
    4MPD2    C5   58   0.387   4.383  10.715 -0.7926 -0.2358 -0.0430
    4MPD2     H   59   0.710   4.585  10.660  1.4615 -3.8370 -0.6824
    4MPD2    H1   60   0.483   4.225  10.620 -2.9694  0.1895 -0.8022
    4MPD2    H2   61   0.317   4.562  10.816 -1.9347 -1.5808 -1.1845
    4MPD2    H3   62   0.299   4.323  10.734 -0.0145 -1.7206 -1.1322
    4MPD2     N   63   0.718   4.348  10.555 -0.1081  0.0754  0.4732
    4MPD2    H5   64   0.810   4.389  10.552 -0.7947  1.5601 -0.7553
    4MPD2    N1   65   0.521   4.725  10.779 -0.1332  0.5084 -0.6557
    4MPD2    H7   66   0.603   0.034  10.747  0.0458 -0.2712 -1.4086
    5TCq1    O1   67   0.396   1.911  11.096 -0.3372 -0.9516 -0.2869
    5TCq1    C1   68   0.516   1.967  11.086 -0.2291 -0.1530 -0.1727
    5TCq1    O2   69   0.567   2.004  10.984  0.2378 -0.2597 -0.6113
    5TCq1    C2   70   0.583   1.962  11.213 -0.2236  0.1577  0.2532
    5TCq1    C3   71   0.509   1.968  11.327  0.1441 -0.0598  0.2670
    5TCq1    C4   72   0.580   1.961  11.450 -0.0662  0.3153  0.3715
    5TCq1    C5   73   0.711   1.939  11.449  1.1521  0.3029  0.5602
    5TCq1    C6   74   0.783   1.919  11.334 -0.2358  0.1748 -0.3089
    5TCq1    C7   75   0.716   1.928  11.215  0.3073 -0.3404 -0.8500
    5TCq1    C8   76   0.905   1.839  11.325 -0.0720 -0.0865 -0.0308
    5TCq1    O4   77   0.929   1.777  11.225  0.2257  0.0425  0.6050
    5TCq1    C9   78   0.509   1.976  11.575  0.0498  0.3135  0.3876
    5TCq1    O5   79   0.393   2.026  11.572  0.1719 -0.0377 -0.5272
    5TCq1    O6   80   0.572   1.972  11.680 -0.2978  0.5180 -0.3420
    5TCq1    H1   81   0.383   1.883  11.189 -1.4980  0.6617  0.0186
    5TCq1    H2   82   0.402   1.985  11.335  0.0051 -1.1577  0.8534
    5TCq1    H3   83   0.756   1.928  11.547  0.7604  1.0295  0.8306
    5TCq1    H4   84   0.770   1.918  11.122 -0.1009  3.1416 -1.4857
    6MPD2     C   85   1.115   1.751  11.602  0.0137 -0.0644  0.1215
    6MPD2    C1   86   1.075   1.756  11.470  0.5103  0.2712  0.6076
    6MPD2    C2   87   1.151   1.679  11.376 -0.4342  0.7122  0.4372
    6MPD2    C3   88   1.265   1.610  11.416  0.6264 -0.8144 -0.2888
    6MPD2    C4   89   1.305   1.604  11.542  0.0430  0.9567  0.4703
    6MPD2    C5   90   1.230   1.682  11.633 -0.6853 -0.1678  0.8206
    6MPD2     H   91   1.127   1.688  11.271  0.6757 -0.2788  0.1059
    6MPD2    H1   92   1.393   1.558  11.585 -0.4054 -1.4996 -1.2460
    6MPD2    H2   93   1.077   1.812  11.684 -1.1261  0.3267 -0.6899
    6MPD2    H3   94   1.266   1.680  11.735  0.5707 -3.0567  0.3016
    6MPD2     N   95   1.344   1.544  11.315  0.0349 -0.4547 -0.7265
    6MPD2    H5   96   1.308   1.543  11.220 -1.0420  0.4081 -0.3377
    6MPD2    N1   97   0.968   1.844  11.444  0.0240 -0.0764 -0.5080
    6MPD2    H7   98   0.943   1.908  11.519 -2.1839  1.7367 -2.7740
    7TCq1    O1   99   3.957   1.247  13.271  0.0601  0.1960  0.1046
    7TCq1    C1  100   3.982   1.120  13.306  0.2517  0.2269 -0.0418
    7TCq1    O2  101   4.070   1.082  13.382  0.2985  0.0441 -0.9340
    7TCq1    C2  102   3.864   1.039  13.289  0.4251  0.0504  0.7258
    7TCq1    C3  103   3.776   1.081  13.196 -0.0066 -0.0900  0.1403
    7TCq1    C4  104   3.668   1.003  13.167  0.4321 -0.2217 -0.3671
    7TCq1    C5  105   3.643   0.890  13.237  0.4781 -0.3605  0.2516
    7TCq1    C6  106   3.730   0.851  13.327  0.1811 -0.0227 -0.3125
    7TCq1    C7  107   3.846   0.917  13.353  0.3783 -0.3999 -0.6428
    7TCq1    C8  108   3.695   0.740  13.418  0.2191  0.0324 -0.2831
    7TCq1    O4  109   3.612   0.662  13.368  0.4078  0.3069 -0.0381
    7TCq1    C9  110   3.565   1.045  13.081 -0.3810  0.5476 -0.2210
    7TCq1    O5  111   3.460   0.974  13.084  1.0472  0.3475  0.0524
    7TCq1    O6  112   3.570   1.164  13.030 -0.4079  0.8510  0.1402
    7TCq1    H1  113   3.878   1.252  13.213  0.3737 -0.5954 -0.3928
    7TCq1    H2  114   3.776   1.182  13.155  2.9348 -1.6314 -3.6687
    7TCq1    H3  115   3.550   0.835  13.230  0.5625 -0.2622 -1.7985
    7TCq1    H4  116   3.920   0.896  13.429  2.0863  0.1617 -2.1514
    8MPD2     C  117   3.773   0.474  13.844 -0.5483 -0.6341 -0.3681
    8MPD2    C1  118   3.704   0.440  13.729  0.1187 -0.0417  0.2653
    8MPD2    C2  119   3.695   0.536  13.628 -0.9514  0.3111  0.1258
    8MPD2    C3  120   3.757   0.658  13.647  0.7434  0.7215  0.1749
    8MPD2    C4  121   3.821   0.690  13.763 -0.7129  0.4891  0.0434
    8MPD2    C5  122   3.833   0.594  13.857 -0.3450 -0.2721 -0.4077
    8MPD2     H  123   3.651   0.516  13.531 -1.5534  2.1016  0.0226
    8MPD2    H1  124   3.868   0.785  13.784 -0.7530  0.9030 -1.6850
    8MPD2    H2  125   3.790   0.399  13.920  1.4832  0.1780 -0.0282
    8MPD2    H3  126   3.899   0.615  13.941  1.2598 -0.6099 -1.5992
    8MPD2     N  127   3.760   0.754  13.537  0.4500 -0.4900 -0.5850
    8MPD2    H5  128   3.816   0.836  13.560 -0.6663  0.5260 -1.4525
    8MPD2    N1  129   3.639   0.315  13.720  0.3490 -0.1564  0.2762
    8MPD2    H7  130   3.634   0.253  13.800  0.0990  0.1299  0.4798
    9TMC1    C1  131   1.830   4.557  10.858  0.1736 -0.2129 -0.2612
    9TMC1    C2  132   1.746   4.545  10.746  0.1570  0.5410  0.5183
    9TMC1    C3  133   1.776   4.455  10.655  0.0365 -0.6849  0.5580
    9TMC1    C4  134   1.954   4.497  10.867 -0.4166  0.2216  0.4404
    9TMC1    C5  135   1.980   4.415  10.768  0.4767  0.0816 -0.4138
    9TMC1    C6  136   1.893   4.387  10.665  0.3584 -0.5670  0.1024
    9TMC1     C  137   1.799   4.664  10.950  0.3243 -0.5731  0.5393
    9TMC1     O  138   1.895   4.726  10.995  0.2397 -0.1709  0.1676
    9TMC1     H  139   1.653   4.600  10.734  0.2659  0.2929 -1.4540
    9TMC1    H1  140   2.029   4.505  10.945  0.3469 -1.2640 -0.1311
    9TMC1    H2  141   1.923   4.306  10.599 -2.3573 -1.0556 -0.5367
    9TMC1    C7  142   2.063   4.299  10.798  0.3661  0.4335  0.3487
    9TMC1    C8  143   1.680   4.417  10.559  0.1547  1.2230  0.8064
    9TMC1    O1  144   2.115   4.238  10.704  0.3330 -0.2830 -0.2849
    9TMC1    O2  145   1.716   4.359  10.459  0.0263  0.0861  0.6411
    9TMC1    O3  146   1.989   4.244  10.894  0.3111 -0.4184 -0.1702
    9TMC1    H3  147   1.940   4.300  10.958 -1.3983 -0.5226 -1.3992
    9TMC1    O5  148   1.580   4.376  10.645  0.0479 -0.8055  0.0040
    9TMC1    H5  149   1.572   4.416  10.734 -2.2689 -0.5088 -0.3504
   10MPD2     C  150   1.660   0.137  11.091 -0.0178  0.0412  0.4279
   10MPD2    C1  151   1.602   0.023  11.057  0.3334 -0.0648  0.1336
   10MPD2    C2  152   1.470   4.730  11.091 -0.4514  0.3278  0.7312
   10MPD2    C3  153   1.410   0.069  11.183 -0.0492  0.0931  0.7442
   10MPD2    C4  154   1.474   0.179  11.230  0.2880 -0.6036  0.0514
   10MPD2    C5  155   1.603   0.212  11.183 -0.2660  0.7327 -0.0757
   10MPD2     H  156   1.433   4.644  11.037  1.4207 -0.1222  0.1496
   10MPD2    H1  157   1.424   0.246  11.299 -0.9364 -0.2384 -1.1849
   10MPD2    H2  158   1.755   0.168  11.049 -0.0300  0.7567  0.9285
   10MPD2    H3  159   1.646   0.304  11.221  0.1944  1.9343 -3.4156
   10MPD2     N  160   1.300   0.026  11.261 -0.0930  0.2880  0.4332
   10MPD2    H5  161   1.299   0.067  11.354 -1.9515  0.6366  0.2688
   10MPD2    N1  162   1.666   4.667  10.981 -0.3736 -0.7716 -0.1165
   10MPD2    H7  163   1.611   4.587  10.951  0.9367 -0.8167 -2.3129
   11TCq1    O1  164   1.130   3.750  14.643 -0.5586  0.1797  0.5315
   11TCq1    C1  165   1.045   3.645  14.628 -0.2623 -0.6701  0.1717
   11TCq1    O2  166   0.922   3.640  14.634  0.4622 -0.3509 -0.0974
   11TCq1    C2  167   1.121   3.561  14.538  0.5079  0.5661  0.2440
   11TCq1    C3  168   1.255   3.544  14.558 -0.9490  0.4859  0.3496
   11TCq1    C4  169   1.336   3.496  14.459 -0.2671 -0.0122  0.5523
   11TCq1    C5  170   1.283   3.480  14.332 -0.2345 -0.1420 -0.0962
   11TCq1    C6  171   1.149   3.497  14.311 -0.3589  0.6122 -0.1996
   11TCq1    C7  172   1.074   3.540  14.414 -0.3945  0.2050  0.0622
   11TCq1    C8  173   1.092   3.513  14.179 -0.4672  0.1643 -0.2495
   11TCq1    O4  174   0.987   3.571  14.162 -0.0864  0.5214 -0.4880
   11TCq1    C9  175   1.476   3.463  14.476  0.5158 -0.0563  0.0866
   11TCq1    O5  176   1.535   3.426  14.372  0.4378 -0.3572  0.6660
   11TCq1    O6  177   1.529   3.482  14.586 -0.2220  0.4774  0.1481
   11TCq1    H1  178   1.223   3.731  14.617 -0.4267 -0.0846  1.2174
   11TCq1    H2  179   1.302   3.562  14.654 -3.1432  0.9790  1.3246
   11TCq1    H3  180   1.349   3.455  14.250 -0.3806  1.3944 -0.6713
   11TCq1    H4  181   0.969   3.564  14.402 -0.5988  0.3125  2.1389
   12MPD2     C  182   1.008   3.428  13.912 -0.3821 -0.2768  0.9619
   12MPD2    C1  183   1.113   3.378  13.974  0.3029 -0.2410 -0.2897
   12MPD2    C2  184   1.184   3.271  13.918  0.1743 -0.2933  0.4066
   12MPD2    C3  185   1.156   3.221  13.800 -0.2560 -0.5252 -1.0357
   12MPD2    C4  186   1.053   3.280  13.728 -0.7010 -0.2501  0.4392
   12MPD2    C5  187   0.977   3.379  13.787 -0.7901  0.2710  0.3709
   12MPD2     H  188   1.266   3.228  13.974  0.4761  0.5708  0.6340
   12MPD2    H1  189   1.026   3.247  13.628  2.1856  0.6949 -0.6475
   12MPD2    H2  190   0.956   3.517  13.946 -1.2222 -0.1027 -0.7988
   12MPD2    H3  191   0.903   3.429  13.725  0.3126  1.6574  0.1754
   12MPD2     N  192   1.215   3.107  13.750  0.5180  0.0903 -0.4118
   12MPD2    H5  193   1.188   3.075  13.658 -0.8681 -0.2792  0.1243
   12MPD2    N1  194   1.170   3.438  14.086 -0.8174 -0.3394  0.3584
   12MPD2    H7  195   1.263   3.407  14.111 -0.8385 -0.3833  0.3839
   13TCq1    O1  196   1.410   3.908  11.220  0.1079  0.1753 -0.1476
   13TCq1    C1  197   1.426   3.890  11.089  0.0358 -0.5800 -0.1309
   13TCq1    O2  198   1.423   3.780  11.032  0.0771  0.3668 -0.1074
   13TCq1    C2  199   1.408   4.016  11.025 -0.3738  0.2192  0.9292
   13TCq1    C3  200   1.479   4.130  11.039  0.0133 -0.3250  0.0457
   13TCq1    C4  201   1.447   4.235  10.962  1.0271  0.5632 -0.0096
   13TCq1    C5  202   1.333   4.242  10.884 -0.4240  0.1183  0.2955
   13TCq1    C6  203   1.262   4.129  10.875 -0.3525 -0.2390  0.2423
   13TCq1    C7  204   1.299   4.014  10.941  0.4087 -0.3714 -0.4915
   13TCq1    C8  205   1.129   4.149  10.836  0.0897 -0.4094  0.0573
   13TCq1    O4  206   1.082   4.261  10.833  0.9620 -0.3000 -0.3532
   13TCq1    C9  207   1.538   4.355  10.961  0.2713 -0.6782 -0.3071
   13TCq1    O5  208   1.521   4.448  10.880 -0.6607 -0.2480  1.3860
   13TCq1    O6  209   1.608   4.362  11.067 -0.2394  0.1294  0.0323
   13TCq1    H1  210   1.434   4.001  11.241 -0.1581  0.0336  0.8104
   13TCq1    H2  211   1.570   4.129  11.099  0.0544 -0.3669 -0.0173
   13TCq1    H3  212   1.312   4.334  10.830  1.1484 -0.0505 -0.5929
   13TCq1    H4  213   1.243   3.923  10.926 -0.2933 -0.1656  0.8632
   14MPD2     C  214   0.888   3.920  10.670 -0.1345 -0.5053 -0.0383
   14MPD2    C1  215   0.932   4.016  10.764 -0.9390  1.1235 -0.6513
   14MPD2    C2  216   0.836   4.084  10.832 -0.6388  1.0157 -0.6063
   14MPD2    C3  217   0.697   4.066  10.815 -0.1271 -0.3428  0.3306
   14MPD2    C4  218   0.659   3.973  10.720  1.0500  0.5306  0.0548
   14MPD2    C5  219   0.753   3.901  10.655 -0.3185 -0.4316  0.4814
   14MPD2     H  220   0.867   4.152  10.910 -0.9457 -0.8693  1.1650
   14MPD2    H1  221   0.555   3.962  10.693  0.8495  0.4543  0.8595
   14MPD2    H2  222   0.957   3.853  10.620 -0.0472  0.2664 -0.9440
   14MPD2    H3  223   0.720   3.830  10.580  1.4165 -1.3113  0.5494
   14MPD2     N  224   0.604   4.144  10.884 -0.0898 -0.2876  0.2562
   14MPD2    H5  225   0.648   4.215  10.942  0.1672 -2.7562  3.0313
   14MPD2    N1  226   1.071   4.026  10.799  0.7446  0.3586  0.7177
   14MPD2    H7  227   1.136   3.954  10.768  0.7562  0.4755  0.4722
   15TCq1    O1  228   2.780   3.071   1.571 -0.1644 -0.8028 -0.1344
   15TCq1    C1  229   2.879   2.979   1.573  0.2687 -0.1472 -0.6221
   15TCq1    O2  230   2.993   2.992   1.534 -0.0811 -0.5514  0.0380
   15TCq1    C2  231   2.814   2.848   1.564  0.4458  0.0314 -0.8703
   15TCq1    C3  232   2.715   2.816   1.659  0.0742 -0.3417 -0.2738
   15TCq1    C4  233   2.679   2.684   1.666  0.8790  0.3902 -0.2989
   15TCq1    C5  234   2.754   2.580   1.605 -0.1969  0.5506 -0.1295
   15TCq1    C6  235   2.865   2.617   1.525 -0.0305  0.7134  0.4291
   15TCq1    C7  236   2.881   2.746   1.495 -0.0275  0.4040 -0.3556
   15TCq1    C8  237   2.931   2.526   1.440 -0.1704 -0.3876  0.3101
   15TCq1    O4  238   3.042   2.557   1.398  0.5267  0.4154  0.1552
   15TCq1    C9  239   2.558   2.642   1.743  0.4801 -0.6725  0.7199
   15TCq1    O5  240   2.535   2.516   1.730  0.1954  0.8556 -0.1303
   15TCq1    O6  241   2.526   2.715   1.839  0.1077 -0.0132  0.2706
   15TCq1    H1  242   2.692   3.030   1.587 -0.5811 -0.4769 -1.5669
   15TCq1    H2  243   2.666   2.896   1.713  0.6750 -0.4034  0.3537
   15TCq1    H3  244   2.742   2.473   1.617  0.4383  0.4019 -0.8098
   15TCq1    H4  245   2.957   2.770   1.421  0.1147  0.8452 -0.0644
   16MPD2     C  246   2.794   2.222   1.292 -0.5085 -0.4461 -0.2622
   16MPD2    C1  247   2.876   2.339   1.294  0.0570 -0.1687 -0.5294
   16MPD2    C2  248   2.974   2.358   1.201 -0.3519  0.0556 -0.0758
   16MPD2    C3  249   3.003   2.258   1.108  0.7884 -0.4048  0.5278
   16MPD2    C4  250   2.917   2.145   1.102  0.2497  0.4596 -0.1693
   16MPD2    C5  251   2.819   2.127   1.194  0.6474 -0.1966 -0.0646
   16MPD2     H  252   3.040   2.444   1.212 -1.3524  0.9382 -1.0459
   16MPD2    H1  253   2.929   2.069   1.026  1.1959  0.3705  0.0631
   16MPD2    H2  254   2.711   2.202   1.358  0.9415 -0.7600  1.4546
   16MPD2    H3  255   2.757   2.039   1.185 -0.7546  0.7748 -0.0364
   16MPD2     N  256   3.109   2.286   1.015 -0.0136 -0.0822  0.8877
   16MPD2    H5  257   3.157   2.374   1.027  1.1200 -0.8976  2.3603
   16MPD2    N1  258   2.848   2.422   1.407  0.1082  1.0218  0.3812
   16MPD2    H7  259   2.760   2.407   1.456 -0.3044  0.4757 -0.5106
   17TMC1    C1  260   0.397   3.547  11.502 -0.2488  0.4381  0.0464
   17TMC1    C2  261   0.452   3.556  11.626 -0.1117 -0.0508 -0.3634
   17TMC1    C3  262   0.376   3.559  11.736 -0.3143 -0.8586  0.9320
   17TMC1    C4  263   0.261   3.545  11.488  0.1376  0.5349  0.3431
   17TMC1    C5  264   0.184   3.546  11.600  0.1172 -0.0442 -0.7387
   17TMC1    C6  265   0.239   3.548  11.727  0.4128  0.0451  0.2001
   17TMC1     C  266   0.487   3.570  11.384 -0.0870 -0.6568  0.2601
   17TMC1     O  267   0.609   3.578  11.401 -0.2392  0.4850  0.8607
   17TMC1     H  268   0.559   3.575  11.632 -0.7122  2.8275  1.1205
   17TMC1    H1  269   0.212   3.533  11.392  1.0847 -2.0925  0.2041
   17TMC1    H2  270   0.183   3.509  11.812 -0.2181  0.0538 -0.2106
   17TMC1    C7  271   0.045   3.513  11.584 -0.2402  0.0153 -0.2727
   17TMC1    C8  272   0.432   3.505  11.859 -0.4550  0.0782  0.4085
   17TMC1    O1  273   4.740   3.446  11.492  0.0374 -0.0770  0.1454
   17TMC1    O2  274   0.350   3.483  11.947  0.2029 -0.2334  0.5558
   17TMC1    O3  275   4.717   3.594  11.668  0.6034  0.1129  0.4233
   17TMC1    H3  276   0.038   3.640  11.727  0.8495 -0.1328  0.3561
   17TMC1    O5  277   0.506   3.403  11.804  0.3240 -0.2804 -0.3267
   17TMC1    H5  278   0.565   3.440  11.735 -0.8614  0.0522 -1.1666
   18MPD2     C  279   0.399   3.657  11.037 -0.7817 -0.2809 -0.4802
   18MPD2    C1  280   0.478   3.610  11.137  0.8906 -0.0283  0.1492
   18MPD2    C2  281   0.611   3.586  11.113 -0.1167 -0.1893  0.0470
   18MPD2    C3  282   0.668   3.616  10.986 -0.5192  0.0468 -0.4938
   18MPD2    C4  283   0.586   3.669  10.893  0.2456  0.3647  0.2704
   18MPD2    C5  284   0.450   3.690  10.914  0.8360 -0.4883 -0.0762
   18MPD2     H  285   0.669   3.532  11.188  0.0026  0.6986  0.5883
   18MPD2    H1  286   0.640   3.685  10.801  0.3344  0.8730  0.4107
   18MPD2    H2  287   0.291   3.666  11.047 -0.4135 -0.3119  3.3470
   18MPD2    H3  288   0.381   3.731  10.841 -1.5017 -1.3747  1.6370
   18MPD2     N  289   0.803   3.593  10.951  0.3148  0.6459 -0.2199
   18MPD2    H5  290   0.820   3.634  10.860 -0.5961  2.5663  0.4738
   18MPD2    N1  291   0.419   3.592  11.265  0.4823  0.1267  0.0069
   18MPD2    H7  292   0.319   3.605  11.279  0.5666  1.0708 -0.2848
   19TMC2    C1  293   2.779   3.521  14.133 -0.2970 -0.1309 -0.5805
   19TMC2    C2  294   2.679   3.612  14.135 -0.0640  0.4964 -0.5071
   19TMC2    C3  295   2.561   3.586  14.078  0.5606 -0.2627  0.0797
   19TMC2    C4  296   2.753   3.389  14.106  0.6057  1.4214 -0.7790
   19TMC2    C5  297   2.623   3.358  14.069 -0.2807 -0.6223  0.0287
   19TMC2    C6  298   2.525   3.455  14.056 -0.6025  0.0906 -0.1753
   19TMC2     C  299   2.905   3.571  14.181 -0.3630  0.3186 -0.0116
   19TMC2     O  300   2.950   3.681  14.150 -0.8031 -0.0504 -0.0735
   19TMC2     H  301   2.713   3.714  14.152 -1.4014  0.7968  0.3380
   19TMC2    H1  302   2.827   3.310  14.113  1.6521  2.6076  1.4293
   19TMC2    H2  303   2.423   3.424  14.038 -1.3328  2.6383 -0.4262
   19TMC2    C7  304   2.600   3.226  14.020  0.2877  0.1360 -0.7024
   19TMC2    C8  305   2.449   3.669  14.109 -0.6687 -0.2462 -0.0335
   19TMC2    O1  306   2.658   3.131  14.076  0.0623 -0.0991  0.4054
   19TMC2    O2  307   2.342   3.640  14.061  0.1400  0.2425 -0.1096
   19TMC2    O5  308   2.472   3.722  14.238 -0.2700  0.4311 -0.2479
   19TMC2    H5  309   2.555   3.706  14.286  0.1889  1.2985 -0.7533
   20MPD2     C  310   3.150   3.585  14.344  0.4249  0.3722  0.4365
   20MPD2    C1  311   3.069   3.472  14.340 -0.1697  0.7328 -0.3941
   20MPD2    C2  312   3.110   3.357  14.407 -0.3371 -0.0383 -0.3205
   20MPD2    C3  313   3.229   3.348  14.470 -0.4658  1.0073  0.3636
   20MPD2    C4  314   3.309   3.465  14.476  0.1049 -0.3015 -0.1826
   20MPD2    C5  315   3.264   3.582  14.421  0.2914 -0.0133  0.3960
   20MPD2     H  316   3.032   3.282  14.418 -2.2859  1.6670 -2.5069
   20MPD2    H1  317   3.405   3.465  14.526 -0.5163  0.4506  1.0090
   20MPD2    H2  318   3.134   3.678  14.291  1.1821 -0.6001 -1.5023
   20MPD2    H3  319   3.321   3.674  14.414 -1.7430  1.1764 -0.7074
   20MPD2     N  320   3.275   3.235  14.524 -0.2694  0.4612 -0.4218
   20MPD2    H5  321   3.361   3.238  14.578  0.1934 -3.3145 -0.9158
   20MPD2    N1  322   2.952   3.466  14.258  0.7752  0.3044  0.3154
   20MPD2    H7  323   2.902   3.378  14.265  0.9292  0.2251  0.4093
   21TMC2    C1  324   0.404   3.610  14.651  0.0422  0.2958 -0.0104
   21TMC2    C2  325   0.434   3.600  14.784  0.0323  0.4379 -0.1343
   21TMC2    C3  326   0.423   3.715  14.854  0.3064 -0.5365 -0.2189
   21TMC2    C4  327   0.405   3.731  14.591  0.1601  0.5200  0.0910
   21TMC2    C5  328   0.413   3.842  14.667 -0.0898  0.2801 -0.2702
   21TMC2    C6  329   0.419   3.841  14.805  0.7362 -0.1368  0.2377
   21TMC2     C  330   0.410   3.490  14.574  0.6763  0.4174 -0.0404
   21TMC2     O  331   0.452   3.387  14.632 -0.4877  0.5324 -0.1179
   21TMC2     H  332   0.444   3.502  14.830 -0.8573  1.0628  1.4087
   21TMC2    H1  333   0.381   3.729  14.485 -1.8362 -1.4802  0.5800
   21TMC2    H2  334   0.428   3.932  14.863 -1.7010 -0.8069  1.6624
   21TMC2    C7  335   0.391   3.971  14.610  0.1063 -0.4155  0.3314
   21TMC2    C8  336   0.469   3.723  14.996  0.6640  0.5629  0.1523
   21TMC2    O1  337   0.451   4.064  14.657  0.1166 -0.2206  0.4019
   21TMC2    O2  338   0.547   3.806  15.037 -0.2742  0.5676 -0.1038
   21TMC2    O5  339   0.436   3.609  15.057  0.6461 -0.4030  0.2643
   21TMC2    H5  340   0.363   3.562  15.010  1.4265  0.3094 -1.6725
   22MPD2     C  341   0.358   3.269  14.119 -0.3436 -0.6602 -0.0911
   22MPD2    C1  342   0.466   3.268  14.202 -0.0112  0.8753 -0.1802
   22MPD2    C2  343   0.462   3.338  14.324  0.3730  0.6085 -0.5918
   22MPD2    C3  344   0.352   3.414  14.347 -0.0563  0.0664  0.5941
   22MPD2    C4  345   0.251   3.430  14.255 -0.6790  0.5354 -0.0328
   22MPD2    C5  346   0.252   3.344  14.152  0.1008 -0.2337  0.5094
   22MPD2     H  347   0.547   3.344  14.392  0.6316  1.6149 -1.0045
   22MPD2    H1  348   0.167   3.498  14.266 -1.8428 -1.0926  1.1353
   22MPD2    H2  349   0.350   3.203  14.034  0.1358 -1.1409  0.2363
   22MPD2    H3  350   0.171   3.340  14.080  2.0161  0.6882 -1.6854
   22MPD2     N  351   0.349   3.504  14.456 -0.2326 -0.6535 -0.9167
   22MPD2    H5  352   0.277   3.575  14.443 -0.2423 -0.3926  0.6051
   22MPD2    N1  353   0.587   3.219  14.161 -0.3223  0.1372 -0.9019
   22MPD2    H7  354   0.662   3.216  14.230 -0.4332 -0.6602 -0.8184
   23TMC2    C1  355   1.118   4.242  14.633  0.1753 -0.1541  0.2392
   23TMC2    C2  356   1.045   4.357  14.657  0.2357 -0.0326  0.0939
   23TMC2    C3  357   0.911   4.352  14.640 -0.4557 -0.3817 -0.7274
   23TMC2    C4  358   1.056   4.127  14.592 -0.0202  1.0487  0.3842
   23TMC2    C5  359   0.921   4.132  14.566 -0.1996 -0.1312 -0.1697
   23TMC2    C6  360   0.849   4.242  14.603  0.2812  0.0159  0.4011
   23TMC2     C  361   1.259   4.239  14.668 -0.0066  0.3291  0.7308
   23TMC2     O  362   1.310   4.135  14.700 -0.1357 -0.1295 -0.1179
   23TMC2     H  363   1.086   4.441  14.711 -0.2412  0.1066  0.2452
   23TMC2    H1  364   1.114   4.036  14.580  0.5776  1.1404  2.6978
   23TMC2    H2  365   0.741   4.245  14.593  0.3751  0.9750 -0.3195
   23TMC2    C7  366   0.861   4.019  14.493  0.3924 -0.4108 -0.0196
   23TMC2    C8  367   0.837   4.454  14.709  0.5655 -0.3298 -0.3517
   23TMC2    O1  368   0.942   3.924  14.480 -0.2164  0.6267  0.0912
   23TMC2    O2  369   0.806   4.558  14.659 -0.1608 -0.4654 -0.4481
   23TMC2    O5  370   0.771   4.389  14.799 -0.2197 -0.9326  0.0794
   23TMC2    H5  371   0.822   4.315  14.838  1.1191  0.2654  0.5978
   24MPD2     C  372   1.719   4.447  14.662  0.4224 -0.4990 -0.5478
   24MPD2    C1  373   1.673   4.335  14.730  0.4961  0.2620 -0.1906
   24MPD2    C2  374   1.535   4.308  14.728  0.1482 -0.3956 -0.1656
   24MPD2    C3  375   1.454   4.394  14.663  0.9896  0.4665  0.1305
   24MPD2    C4  376   1.500   4.509  14.604  0.0539 -0.3892  0.6403
   24MPD2    C5  377   1.634   4.537  14.604 -0.4665 -0.0631  0.1644
   24MPD2     H  378   1.489   4.226  14.783  1.6014 -1.4762 -0.5635
   24MPD2    H1  379   1.431   4.574  14.552  1.5749  0.4961 -0.2575
   24MPD2    H2  380   1.827   4.463  14.658  0.4592 -0.4721  0.5373
   24MPD2    H3  381   1.683   4.619  14.553  0.2833 -0.0596  0.8895
   24MPD2     N  382   1.317   4.360  14.641  0.1345 -0.5559  1.0143
   24MPD2    H5  383   1.259   4.435  14.604 -0.2011  0.5654  3.7466
   24MPD2    N1  384   1.752   4.255  14.815 -0.1321  0.6447 -0.3129
   24MPD2    H7  385   1.703   4.195  14.882 -0.8311  1.9311  0.3261
   25TMC2    C1  386   0.920   2.914  11.435  0.3946  0.1813 -0.1517
   25TMC2    C2  387   1.017   2.887  11.531  0.2436  0.0847 -0.6556
   25TMC2    C3  388   1.010   2.942  11.650 -0.2694 -0.0817  0.0604
   25TMC2    C4  389   0.818   3.008  11.449  0.3712  0.3463  0.0198
   25TMC2    C5  390   0.821   3.068  11.576 -0.3503  0.6985 -0.1427
   25TMC2    C6  391   0.911   3.028  11.673 -0.0788  0.3581  0.3392
   25TMC2     C  392   0.928   2.831  11.319  0.3691 -0.6587 -0.5197
   25TMC2     O  393   1.035   2.780  11.297  0.4032  0.1874  0.2924
   25TMC2     H  394   1.095   2.814  11.515  1.3224  1.3388 -1.0853
   25TMC2    H1  395   0.748   3.030  11.370  0.4035  1.4173  0.2865
   25TMC2    H2  396   0.904   3.069  11.773 -2.2721 -2.6248  1.4162
   25TMC2    C7  397   0.694   3.136  11.630  0.7882  0.2165 -0.4936
   25TMC2    C8  398   1.127   3.006  11.687  0.4690 -0.6630  0.0789
   25TMC2    O1  399   0.664   3.114  11.746 -0.5907 -0.3628 -0.6078
   25TMC2    O2  400   1.135   3.122  11.723  0.0986 -0.0983  0.3049
   25TMC2    O5  401   1.219   2.911  11.723  0.4852 -0.0115 -0.1025
   25TMC2    H5  402   1.202   2.818  11.694 -0.1015 -0.1358  0.6396
   26MPD2     C  403   0.756   2.578  10.893 -0.6136 -0.1505  0.1714
   26MPD2    C1  404   0.646   2.618  10.970  0.3394 -0.1853 -0.7329
   26MPD2    C2  405   0.666   2.686  11.092 -0.3443 -0.0998  0.2960
   26MPD2    C3  406   0.793   2.721  11.139  0.1384  0.4138 -0.4587
   26MPD2    C4  407   0.895   2.668  11.066 -0.4314  0.1341 -0.5358
   26MPD2    C5  408   0.871   2.608  10.947 -0.6731  0.8414  0.7555
   26MPD2     H  409   0.580   2.716  11.150 -0.4293  0.5126 -0.1490
   26MPD2    H1  410   1.000   2.681  11.088 -1.0928  0.4403  2.4197
   26MPD2    H2  411   0.738   2.523  10.801 -0.2183 -2.3638  1.4182
   26MPD2    H3  412   0.953   2.561  10.895 -0.9389 -0.0055  1.1087
   26MPD2     N  413   0.803   2.799  11.259  0.2400  0.2507  0.2429
   26MPD2    H5  414   0.717   2.833  11.300  0.5385 -0.1848  1.2150
   26MPD2    N1  415   0.517   2.598  10.917  0.3284 -0.5171 -0.4520
   26MPD2    H7  416   0.510   2.563  10.822  1.0666 -0.9834 -0.3317
   27TMC2    C1  417   4.610   0.332  12.172 -0.8788 -0.0341  0.1564
   27TMC2    C2  418   4.671   0.425  12.097 -0.1180 -1.1867  0.3539
   27TMC2    C3  419   0.043   0.472  12.157 -0.1399 -0.3814  0.0822
   27TMC2    C4  420   4.660   0.273  12.284 -1.5611 -0.1842 -0.4092
   27TMC2    C5  421   0.045   0.308  12.333 -0.4650  0.8232 -0.5904
   27TMC2    C6  422   0.101   0.419  12.277 -0.5881 -0.1309 -0.1678
   27TMC2     C  423   4.497   0.271  12.105 -0.5387 -0.2022 -0.3156
   27TMC2     O  424   4.482   0.287  11.985 -0.2908  0.1001 -0.0583
   27TMC2     H  425   4.639   0.454  11.998 -0.0364 -3.8620 -0.4578
   27TMC2    H1  426   4.598   0.200  12.335 -0.6967 -0.0786  0.7853
   27TMC2    H2  427   0.185   0.473  12.319  1.2735 -2.6494 -0.6636
   27TMC2    C7  428   0.075   0.247  12.458 -0.8482 -0.6969 -0.7141
   27TMC2    C8  429   0.139   0.542  12.080 -0.3821  0.0821 -0.2366
   27TMC2    O1  430   0.007   0.146  12.478  0.0313  0.5052 -0.0133
   27TMC2    O2  431   0.256   0.529  12.104  0.0628 -0.2201  0.3253
   27TMC2    O5  432   0.080   0.598  11.973  0.1569  0.4110  0.0284
   27TMC2    H5  433   4.728   0.609  12.003 -0.2066  0.2090 -1.0148
   28MPD2     C  434   4.161   4.631  12.124 -1.1707  0.5171 -0.2292
   28MPD2    C1  435   4.172   4.680  12.254  0.7746  0.3442 -0.2311
   28MPD2    C2  436   4.255   0.051  12.271  0.8038  0.1806 -0.1771
   28MPD2    C3  437   4.328   0.111  12.169  0.2652  0.2290 -0.1378
   28MPD2    C4  438   4.320   0.052  12.046 -0.6059 -0.5604 -0.2592
   28MPD2    C5  439   4.235   4.686  12.020  0.0519  0.0346 -0.6379
   28MPD2     H  440   4.261   0.099  12.368 -0.0273  0.2605 -0.1718
   28MPD2    H1  441   4.366   0.097  11.959  0.5030  0.1746  0.7104
   28MPD2    H2  442   4.089   4.558  12.088 -0.8216 -0.0790  0.2869
   28MPD2    H3  443   4.238   4.637  11.923  0.7373  0.4646 -0.8351
   28MPD2     N  444   4.419   0.210  12.198 -0.2744 -0.4596 -0.6416
   28MPD2    H5  445   4.424   0.243  12.294 -0.2398  0.9238 -1.1243
   28MPD2    N1  446   4.093   4.615  12.355 -0.5232  0.1605  0.5557
   28MPD2    H7  447   4.036   4.536  12.327  2.1947 -1.8652  0.6918
   29TMC2    C1  448   3.861   1.963  14.957  0.3768  0.8111 -0.4651
   29TMC2    C2  449   3.782   1.903  15.053  0.1611  0.0369 -0.2206
   29TMC2    C3  450   3.685   1.973  15.119  0.1708 -0.0804  0.1228
   29TMC2    C4  451   3.839   2.096  14.934  0.0341 -0.0001 -0.7718
   29TMC2    C5  452   3.738   2.163  14.999 -0.0028 -0.5234  0.4547
   29TMC2    C6  453   3.652   2.101  15.082  0.4482 -0.2071  0.0577
   29TMC2     C  454   3.899   1.888  14.835 -0.5238 -0.4434 -0.5185
   29TMC2     O  455   3.874   1.768  14.839 -0.0214  0.3232 -0.3832
   29TMC2     H  456   3.810   1.802  15.082 -1.9207 -1.2408 -2.7016
   29TMC2    H1  457   3.898   2.161  14.871 -0.4992 -0.0417 -1.3186
   29TMC2    H2  458   3.569   2.151  15.129 -0.2483 -0.0325 -1.3369
   29TMC2    C7  459   3.686   2.282  14.929 -0.2493 -0.3103 -0.5912
   29TMC2    C8  460   3.607   1.919  15.217 -0.1367  0.1073 -0.1434
   29TMC2    O1  461   3.572   2.284  14.891  0.0430 -0.0460  0.2891
   29TMC2    O2  462   3.661   1.908  15.328 -0.8902 -0.5032  0.1052
   29TMC2    O5  463   3.536   1.824  15.154  0.4028  0.8493 -0.7777
   29TMC2    H5  464   3.532   1.839  15.057 -1.3609 -0.1015 -0.8445
   30MPD2     C  465   4.109   1.867  14.369 -0.5518 -0.3464 -0.4792
   30MPD2    C1  466   4.109   1.774  14.475  0.4087  0.1907 -0.2813
   30MPD2    C2  467   4.038   1.805  14.590  0.0973 -0.1263 -0.5722
   30MPD2    C3  468   3.972   1.927  14.599 -0.6828 -0.0992 -0.0501
   30MPD2    C4  469   3.974   2.021  14.501  0.3673 -0.3398 -0.4441
   30MPD2    C5  470   4.050   1.993  14.385 -0.5365 -0.7098 -0.2769
   30MPD2     H  471   4.033   1.740  14.677 -0.7242 -0.7212 -1.0597
   30MPD2    H1  472   3.937   2.123  14.509  1.5021  0.0669 -0.3719
   30MPD2    H2  473   4.141   1.851  14.266 -2.0580 -1.4049 -0.7733
   30MPD2    H3  474   4.066   2.061  14.302 -0.8638 -4.5621 -3.4851
   30MPD2     N  475   3.901   1.966  14.715  0.2022 -0.4888 -0.1014
   30MPD2    H5  476   3.882   2.065  14.727  0.2220 -0.4609 -0.3109
   30MPD2    N1  477   4.153   1.638  14.451  0.1402  0.0757  0.5983
   30MPD2    H7  478   4.125   1.571  14.522  0.4392  1.2201  1.7971
   31TMC2    C1  479   1.207   0.579  14.351 -0.3574  0.3306 -0.0864
   31TMC2    C2  480   1.090   0.558  14.278 -0.2291 -0.0788 -0.3463
   31TMC2    C3  481   0.978   0.510  14.343 -0.4739 -0.3767  0.0104
   31TMC2    C4  482   1.206   0.566  14.487  0.4786  0.3114  0.0485
   31TMC2    C5  483   1.089   0.523  14.544  0.1699  0.1808  0.1281
   31TMC2    C6  484   0.979   0.493  14.478  1.2895 -0.3590  0.4717
   31TMC2     C  485   1.301   0.670  14.291 -0.8419  0.6132 -0.1497
   31TMC2     O  486   1.252   0.744  14.205 -0.5098 -0.3295  0.9562
   31TMC2     H  487   1.091   0.579  14.172  0.1752  0.9380 -0.1369
   31TMC2    H1  488   1.294   0.587  14.546 -0.7611 -0.3460  2.1466
   31TMC2    H2  489   0.893   0.455  14.532  1.1997  0.9457  1.2455
   31TMC2    C7  490   1.103   0.490  14.685 -0.3619  0.3773 -0.3000
   31TMC2    C8  491   0.852   0.569  14.309  0.0347 -0.0040 -0.1774
   31TMC2    O1  492   1.217   0.456  14.711 -0.2870  0.2582  0.2039
   31TMC2    O2  493   0.804   0.654  14.381  0.1422 -0.0775  0.4325
   31TMC2    O5  494   0.865   0.584  14.179  0.3529  0.1219 -0.6567
   31TMC2    H5  495   0.915   0.506  14.146 -1.8185 -1.0909 -1.0787
   32MPD2     C  496   1.754   0.931  14.333 -0.5248 -0.2602  0.6275
   32MPD2    C1  497   1.632   0.967  14.268 -0.0544 -0.8158  0.3264
   32MPD2    C2  498   1.528   0.876  14.274  0.2716 -0.1304 -0.2913
   32MPD2    C3  499   1.531   0.753  14.335 -0.3718 -0.1512 -0.6188
   32MPD2    C4  500   1.652   0.725  14.403 -0.3413 -0.4109  0.8235
   32MPD2    C5  501   1.765   0.811  14.401  0.1170  0.1368 -0.1324
   32MPD2     H  502   1.431   0.912  14.241 -0.3966 -1.0701  0.6481
   32MPD2    H1  503   1.655   0.640  14.470  1.7090 -0.3301  0.8316
   32MPD2    H2  504   1.835   1.003  14.318  0.6441 -1.4477  1.2502
   32MPD2    H3  505   1.851   0.778  14.458 -1.1906  0.4787  2.0459
   32MPD2     N  506   1.423   0.665  14.344  0.0057  0.4923  0.4558
   32MPD2    H5  507   1.438   0.589  14.408 -0.4646  0.9321  1.0929
   32MPD2    N1  508   1.622   1.090  14.197 -0.0606  0.4470 -0.0234
   32MPD2    H7  509   1.710   1.139  14.182 -0.9608  2.5645  1.5524
   33TMC2    C1  510   1.283   4.344  10.473 -0.4612 -0.2549 -0.0106
   33TMC2    C2  511   1.181   4.403  10.541 -0.3458 -0.3705  0.6611
   33TMC2    C3  512   1.173   4.539  10.528  0.3096  0.9431 -0.4432
   33TMC2    C4  513   1.373   4.410  10.405  0.2379  0.1583  0.5876
   33TMC2    C5  514   1.357   4.546  10.379  0.4667  0.3837 -0.0599
   33TMC2    C6  515   1.252   4.610  10.444  0.1333 -0.2446 -0.1667
   33TMC2     C  516   1.303   4.211  10.507 -0.4340  0.2484 -0.3518
   33TMC2     O  517   1.200   4.144  10.515  0.0508 -0.0864 -1.0174
   33TMC2     H  518   1.118   4.356  10.615 -2.1134 -1.7697 -1.7183
   33TMC2    H1  519   1.435   4.350  10.338 -0.9707 -0.2441 -0.1658
   33TMC2    H2  520   1.247   4.717  10.426  0.6430  0.0063  1.2662
   33TMC2    C7  521   1.445   4.614  10.288 -0.2096  0.3518 -0.1114
   33TMC2    C8  522   1.053   4.598  10.591  0.2943  0.2558 -0.1962
   33TMC2    O1  523   1.558   4.568  10.270  0.8029 -0.4615  0.4068
   33TMC2    O2  524   0.946   4.545  10.568 -0.3511  0.9594 -0.2751
   33TMC2    O5  525   1.065   4.725  10.558  0.3517  0.1358  0.5616
   33TMC2    H5  526   1.150   0.025  10.584  0.2466  1.2752 -0.9461
   34MPD2     C  527   1.587   3.795  10.629  0.0809  0.0576 -0.4212
   34MPD2    C1  528   1.448   3.809  10.642 -0.0376 -0.0823  0.4714
   34MPD2    C2  529   1.398   3.931  10.595 -0.9413 -0.2113  0.6519
   34MPD2    C3  530   1.480   4.034  10.546 -0.3862  0.3933 -0.3397
   34MPD2    C4  531   1.614   4.015  10.543 -0.1481 -0.0280  0.4340
   34MPD2    C5  532   1.660   3.896  10.580  0.0312  0.8921 -0.0629
   34MPD2     H  533   1.296   3.957  10.621 -1.1449 -0.8831  0.5185
   34MPD2    H1  534   1.682   4.093  10.510 -1.3378  1.5137  1.5920
   34MPD2    H2  535   1.630   3.700  10.658 -0.5787 -0.8611 -2.4661
   34MPD2    H3  536   1.767   3.885  10.587 -0.1136  0.8492  1.8682
   34MPD2     N  537   1.437   4.164  10.515  0.2128 -0.0308 -0.2011
   34MPD2    H5  538   1.513   4.230  10.505 -0.9654  1.0637 -1.9624
   34MPD2    N1  539   1.369   3.704  10.696 -0.4167  0.0054  0.0714
   34MPD2    H7  540   1.421   3.625  10.733  0.1126 -0.5326 -1.8143
   35TMC2    C1  541   3.387   0.285  11.474  0.0540  0.2081 -0.2435
   35TMC2    C2  542   3.402   0.415  11.507 -0.1121 -0.2571 -0.0167
   35TMC2    C3  543   3.321   0.453  11.609 -0.5652 -0.6096 -0.4501
   35TMC2    C4  544   3.304   0.198  11.529 -0.3995  0.9871 -0.5265
   35TMC2    C5  545   3.231   0.244  11.638  0.2467 -0.0513  0.1972
   35TMC2    C6  546   3.238   0.375  11.681  0.3954  0.2382 -0.1424
   35TMC2     C  547   3.471   0.239  11.364  0.6300 -0.8395  0.0273
   35TMC2     O  548   3.510   0.326  11.285  0.2363 -0.6261  0.0445
   35TMC2     H  549   3.474   0.482  11.461  1.0358 -0.5780  1.3140
   35TMC2    H1  550   3.310   0.093  11.500  0.7731  0.6264  0.9784
   35TMC2    H2  551   3.197   0.413  11.775 -0.9139 -1.3524 -0.0648
   35TMC2    C7  552   3.142   0.160  11.703 -0.1757  0.2063 -0.0987
   35TMC2    C8  553   3.372   0.579  11.663  0.4976 -0.7818  0.5296
   35TMC2    O1  554   3.172   0.042  11.703  0.6845  0.5305  0.4513
   35TMC2    O2  555   3.481   0.593  11.707  0.2576 -0.2828 -0.1073
   35TMC2    O5  556   3.259   0.637  11.712 -0.5584  0.3910  0.2557
   35TMC2    H5  557   3.173   0.618  11.668 -0.1900  1.0482 -0.7404
   36MPD2     C  558   3.754   4.609  11.152 -0.0977  0.0486 -0.4410
   36MPD2    C1  559   3.719   4.572  11.282 -0.1090 -0.1501  0.2168
   36MPD2    C2  560   3.631   4.649  11.353 -0.1721 -0.0711  0.1683
   36MPD2    C3  561   3.594   0.029  11.301  0.4216  0.4061  0.6103
   36MPD2    C4  562   3.627   0.069  11.171 -0.0420 -0.0410  0.0892
   36MPD2    C5  563   3.702   4.721  11.100 -0.0805  0.6295 -0.3002
   36MPD2     H  564   3.600   4.626  11.454 -1.5864  0.3900 -0.1650
   36MPD2    H1  565   3.599   0.164  11.127 -0.5546 -0.1461  0.1869
   36MPD2    H2  566   3.818   4.552  11.086  0.8371  0.3396  0.2114
   36MPD2    H3  567   3.732   0.003  10.998 -0.9819  1.8329 -0.2934
   36MPD2     N  568   3.511   0.112  11.383  0.1801  0.7924 -0.1876
   36MPD2    H5  569   3.479   0.077  11.474 -1.0753  0.2438 -0.8353
   36MPD2    N1  570   3.796   4.467  11.343 -0.2341  0.2729 -0.2492
   36MPD2    H7  571   3.890   4.446  11.312  0.5336 -1.2627  3.1268
   37TMC2    C1  572   0.254   0.892  11.293 -0.6545 -0.2926  0.1645
   37TMC2    C2  573   0.189   0.981  11.212  0.0998  0.1381 -0.4988
   37TMC2    C3  574   0.244   1.104  11.199 -0.0977  0.3074  0.3353
   37TMC2    C4  575   0.382   0.918  11.335  0.0993 -0.2445  0.0231
   37TMC2    C5  576   0.435   1.040  11.320  0.1454 -1.2432  0.6362
   37TMC2    C6  577   0.364   1.138  11.255 -0.1042 -0.2635  0.7250
   37TMC2     C  578   0.219   0.749  11.281  0.2970  1.4320 -0.6447
   37TMC2     O  579   0.125   0.738  11.205  0.4197 -0.4287 -0.4138
   37TMC2     H  580   0.094   0.956  11.166  0.5010  0.8781 -1.7475
   37TMC2    H1  581   0.439   0.858  11.405 -0.8285  0.5968  1.5100
   37TMC2    H2  582   0.417   1.229  11.228 -0.7645 -0.8358 -2.5626
   37TMC2    C7  583   0.584   1.052  11.309 -0.5292 -0.5379  0.1063
   37TMC2    C8  584   0.154   1.214  11.177 -0.1766 -0.0903 -0.5958
   37TMC2    O1  585   0.643   0.946  11.309 -0.2813  0.1167 -0.6002
   37TMC2    O2  586   0.036   1.198  11.204 -0.4938 -0.2892 -0.2271
   37TMC2    O5  587   0.191   1.289  11.068 -0.3485 -0.2833  0.3471
   37TMC2    H5  588   0.280   1.271  11.031 -0.6968 -2.2857  0.4879
   38MPD2     C  589   0.242   0.244  11.310 -1.0534  0.0902  0.6973
   38MPD2    C1  590   0.293   0.293  11.432 -1.1535 -0.5828  1.1458
   38MPD2    C2  591   0.303   0.427  11.455 -0.1194 -0.3541 -0.6416
   38MPD2    C3  592   0.263   0.518  11.356 -0.1760  0.5418 -0.4384
   38MPD2    C4  593   0.214   0.464  11.233 -0.7010  0.2985 -0.8669
   38MPD2    C5  594   0.199   0.329  11.212  0.0621  0.2918  1.2499
   38MPD2     H  595   0.332   0.462  11.554 -0.5259 -0.0762 -0.6226
   38MPD2    H1  596   0.173   0.523  11.152  0.6593  1.1941 -0.9014
   38MPD2    H2  597   0.231   0.139  11.286 -1.5876  0.4581 -0.6536
   38MPD2    H3  598   0.154   0.285  11.124 -1.0520  0.7976  1.5679
   38MPD2     N  599   0.270   0.661  11.372 -0.1858 -0.4957  0.0025
   38MPD2    H5  600   0.323   0.695  11.451  0.2220  0.8124 -0.8409
   38MPD2    N1  601   0.336   0.210  11.539  0.3692 -0.4585  0.1449
   38MPD2    H7  602   0.372   0.249  11.626 -0.1746  2.1054 -0.7891
   39TMC2    C1  603   3.809   2.136   1.172  0.3003  0.4317 -0.0438
   39TMC2    C2  604   3.729   2.226   1.240 -0.2429 -0.3772  0.4979
   39TMC2    C3  605   3.793   2.303   1.330  0.2145  0.3968  0.4409
   39TMC2    C4  606   3.946   2.133   1.189  0.6921 -0.3779  0.2692
   39TMC2    C5  607   4.003   2.215   1.280 -0.0016  0.0454  0.3102
   39TMC2    C6  608   3.928   2.304   1.354 -0.1678 -0.0996  0.5866
   39TMC2     C  609   3.740   2.058   1.064 -0.3788 -0.3784 -0.2094
   39TMC2     O  610   3.624   2.089   1.042 -0.1158 -0.2463  0.3174
   39TMC2     H  611   3.622   2.232   1.221 -0.0095  2.2476  0.0609
   39TMC2    H1  612   4.016   2.067   1.139  1.2478  1.6228 -1.5648
   39TMC2    H2  613   3.978   2.374   1.420 -3.1554  0.7295  1.9406
   39TMC2    C7  614   4.154   2.208   1.281 -0.0633  0.1771  0.0082
   39TMC2    C8  615   3.713   2.388   1.409  0.5756  0.2914 -0.1307
   39TMC2    O1  616   4.212   2.124   1.215  0.6047  0.4305  0.3282
   39TMC2    O2  617   3.729   2.507   1.422 -0.2152  0.3408 -0.0463
   39TMC2    O5  618   3.616   2.313   1.453 -0.2425 -0.0074  0.3560
   39TMC2    H5  619   3.635   2.217   1.445 -1.2127 -0.1985  0.3816
   40MPD2     C  620   3.873   1.849   0.779 -0.1259 -0.2246 -0.0098
   40MPD2    C1  621   3.777   1.892   0.876  1.0894 -0.7786  0.0166
   40MPD2    C2  622   3.643   1.859   0.856 -0.1485  0.7195 -0.3416
   40MPD2    C3  623   3.594   1.792   0.741  0.2443  0.2115 -0.7251
   40MPD2    C4  624   3.689   1.748   0.651  0.6189  0.4341 -0.5027
   40MPD2    C5  625   3.827   1.782   0.674 -0.1854  0.1012  0.9161
   40MPD2     H  626   3.565   1.899   0.918  0.0404  0.7557 -0.1288
   40MPD2    H1  627   3.665   1.692   0.562  0.8432 -3.7452  2.0638
   40MPD2    H2  628   3.978   1.870   0.799  0.0949 -1.4864  0.1302
   40MPD2    H3  629   3.897   1.762   0.594  0.6482 -0.1822  1.7187
   40MPD2     N  630   3.458   1.771   0.711 -0.2835 -0.1163  0.1577
   40MPD2    H5  631   3.442   1.728   0.621 -1.2282  0.7159 -0.0714
   40MPD2    N1  632   3.819   1.974   0.983  0.6376  0.0124 -0.3450
   40MPD2    H7  633   3.917   1.968   1.008  0.8269  1.6905 -0.7048
   41TMC2    C1  634   2.804   0.354  13.888  0.0763  0.2331 -0.1868
   41TMC2    C2  635   2.895   0.399  13.983  0.0780 -0.7851  0.3749
   41TMC2    C3  636   2.977   0.497  13.950  0.4008  0.0431 -0.4845
   41TMC2    C4  637   2.791   0.415  13.768 -0.7366  0.1254  1.1623
   41TMC2    C5  638   2.883   0.517  13.749  0.1772 -0.1957 -0.1531
   41TMC2    C6  639   2.961   0.568  13.840 -0.0645 -0.2426  0.0971
   41TMC2     C  640   2.714   0.246  13.922  0.1409  0.1133  0.1085
   41TMC2     O  641   2.736   0.183  14.025  0.3828  0.1152  0.9243
   41TMC2     H  642   2.900   0.362  14.085 -0.7071  0.5949  0.9131
   41TMC2    H1  643   2.711   0.403  13.696  0.8120  1.0175 -0.7094
   41TMC2    H2  644   3.023   0.651  13.812 -0.7118  0.6756  1.3821
   41TMC2    C7  645   2.869   0.586  13.622 -0.2528 -0.2139 -0.6946
   41TMC2    C8  646   3.068   0.529  14.052  0.6235 -0.1365 -0.2250
   41TMC2    O1  647   2.872   0.709  13.634  0.3371  0.4244 -0.5730
   41TMC2    O2  648   3.094   0.463  14.150 -0.6554 -0.0739 -0.4089
   41TMC2    O5  649   3.133   0.648  14.022 -0.0333 -0.3503  0.4095
   41TMC2    H5  650   3.102   0.695  13.941 -2.0129 -2.7736 -0.2488
   42MPD2     C  651   2.450   0.066  13.735  0.2071  0.2999  0.2440
   42MPD2    C1  652   2.525   0.103  13.845 -0.6366  0.8072 -0.1014
   42MPD2    C2  653   2.486   0.081  13.971  0.2245  0.3887  0.9703
   42MPD2    C3  654   2.372   0.005  13.995 -0.4318 -0.5265  0.0270
   42MPD2    C4  655   2.310   4.685  13.891  0.3047 -0.6143  0.5480
   42MPD2    C5  656   2.344   4.720  13.758 -0.0379  0.2856  0.7432
   42MPD2     H  657   2.530   0.121  14.062  2.3773 -0.8666  0.4899
   42MPD2    H1  658   2.219   4.630  13.913 -1.8196  2.4117 -0.6567
   42MPD2    H2  659   2.487   0.091  13.636  0.2538 -2.4403 -0.4371
   42MPD2    H3  660   2.294   4.677  13.671  2.1670 -0.9003  0.0849
   42MPD2     N  661   2.321   4.724  14.128 -0.2449  0.1198 -0.2351
   42MPD2    H5  662   2.245   4.657  14.135  0.9995 -1.3502 -1.0610
   42MPD2    N1  663   2.633   0.189  13.820 -0.0049  0.0006 -0.3868
   42MPD2    H7  664   2.652   0.215  13.724  4.3175  0.6474  0.6356
   43TMC2    C1  665   4.355   3.207   0.877  0.2038 -0.1863 -0.3385
   43TMC2    C2  666   4.249   3.283   0.838  0.3182  0.7749  0.2331
   43TMC2    C3  667   4.200   3.365   0.934 -0.9394 -0.3197  0.9162
   43TMC2    C4  668   4.413   3.203   1.001  0.2564  0.0464  0.2464
   43TMC2    C5  669   4.372   3.299   1.090 -0.1394 -0.2788 -0.1762
   43TMC2    C6  670   4.267   3.385   1.050  0.8688 -0.3156 -0.4578
   43TMC2     C  671   4.425   3.127   0.772 -0.1622  0.1644  0.6441
   43TMC2     O  672   4.546   3.111   0.788 -0.1410 -0.3655  0.7647
   43TMC2     H  673   4.201   3.281   0.741  0.5364 -0.0770  0.1426
   43TMC2    H1  674   4.499   3.140   1.020 -0.2036  0.0789  2.4771
   43TMC2    H2  675   4.231   3.471   1.105  1.4368 -0.4218  0.0705
   43TMC2    C7  676   4.460   3.322   1.207  0.3305  1.0499  0.2468
   43TMC2    C8  677   4.092   3.456   0.900  0.0761  0.2213  0.2512
   43TMC2    O1  678   4.557   3.247   1.219  0.2168  0.1905 -0.0923
   43TMC2    O2  679   4.044   3.534   0.986 -0.2315  0.5853 -0.2364
   43TMC2    O5  680   4.124   3.510   0.784 -0.4726 -0.8696 -0.8611
   43TMC2    H5  681   4.176   3.457   0.721  3.7543  0.8012  1.2218
   44MPD2     C  682   4.426   2.880   0.323 -0.2222 -0.5044  0.0815
   44MPD2    C1  683   4.533   2.928   0.397 -0.5268  0.0400  0.0178
   44MPD2    C2  684   4.501   2.983   0.520  0.2171  0.5867 -0.5809
   44MPD2    C3  685   4.372   3.016   0.559 -0.3134 -1.2182  0.3245
   44MPD2    C4  686   4.269   2.960   0.491 -0.1342 -0.1466  0.3994
   44MPD2    C5  687   4.298   2.896   0.370 -0.1714  0.5430 -0.3120
   44MPD2     H  688   4.588   3.017   0.575  0.0103 -0.5233  0.4313
   44MPD2    H1  689   4.163   2.971   0.511  0.2268  2.6451  0.7097
   44MPD2    H2  690   4.437   2.845   0.221  0.0647  0.3156 -0.1713
   44MPD2    H3  691   4.210   2.866   0.315  0.0015 -0.1427 -0.2181
   44MPD2     N  692   4.338   3.092   0.671  0.2363  0.1518 -0.0653
   44MPD2    H5  693   4.239   3.113   0.676  0.2524  0.2378 -0.1119
   44MPD2    N1  694   4.666   2.928   0.360 -0.5011  0.8982  0.8180
   44MPD2    H7  695   4.741   2.953   0.425  0.7321 -0.8070  0.0520
   45TMC2    C1  696   0.020   0.611   9.747 -0.3531 -0.2939 -0.2792
   45TMC2    C2  697   0.147   0.587   9.781  0.1078  0.3097  0.1896
   45TMC2    C3  698   0.230   0.701   9.797  0.2626  0.0909 -0.2146
   45TMC2    C4  699   4.701   0.735   9.743  0.0985 -0.0704 -0.2519
   45TMC2    C5  700   0.042   0.846   9.770 -0.6956  0.7338  0.1911
   45TMC2    C6  701   0.179   0.832   9.793  0.3875  0.3783  0.1668
   45TMC2     C  702   4.693   0.492   9.694  0.0195 -0.1772 -0.1529
   45TMC2     O  703   4.705   0.383   9.750 -0.2607  0.2322 -0.0365
   45TMC2     H  704   0.180   0.485   9.798 -0.3905  0.1596  0.2647
   45TMC2    H1  705   4.603   0.747   9.699 -1.0529 -0.3759  2.2365
   45TMC2    H2  706   0.243   0.918   9.802  1.3368 -0.2683 -0.3439
   45TMC2    C7  707   4.739   0.986   9.765  0.4281 -0.2877  0.2350
   45TMC2    C8  708   0.377   0.696   9.768  0.0387  0.5830 -0.2563
   45TMC2    O1  709   0.089   1.063   9.766 -0.3131 -0.1978  0.0696
   45TMC2    O2  710   0.457   0.790   9.763  0.2830  0.1851 -0.2276
   45TMC2    O5  711   0.421   0.566   9.761 -0.0813 -0.3850 -0.0187
   45TMC2    H5  712   0.359   0.497   9.794 -0.5892  0.7824  1.4697
   46MPD2     C  713   4.477   0.311   9.558 -0.3873 -0.0382 -0.5084
   46MPD2    C1  714   4.499   0.442   9.530 -0.4472 -0.2227 -0.0657
   46MPD2    C2  715   4.403   0.514   9.461 -0.0176  0.4747 -0.8599
   46MPD2    C3  716   4.286   0.458   9.416  0.1784  0.1937  0.2617
   46MPD2    C4  717   4.265   0.320   9.439  0.2184 -0.4679  0.0562
   46MPD2    C5  718   4.366   0.248   9.508 -0.2876 -0.0663  0.8306
   46MPD2     H  719   4.415   0.622   9.460 -1.3910  0.6323 -0.9336
   46MPD2    H1  720   4.184   0.257   9.406 -0.7179  0.9328 -0.3356
   46MPD2    H2  721   4.550   0.253   9.613 -0.3980 -0.0877 -0.5463
   46MPD2    H3  722   4.341   0.143   9.521 -0.1484 -0.3301 -0.9591
   46MPD2     N  723   4.190   0.545   9.355  1.0165  0.1963  0.4674
   46MPD2    H5  724   4.204   0.645   9.340  0.4480  0.3392  0.8782
   46MPD2    N1  725   4.601   0.520   9.594 -0.1797  0.3025 -0.4859
   46MPD2    H7  726   4.615   0.613   9.557  1.4300  0.2495 -0.0220
   47TMC2    C1  727   2.582   1.662   9.179 -0.8564 -0.8186  0.6671
   47TMC2    C2  728   2.604   1.583   9.075 -0.3905  0.1546 -0.4618
   47TMC2    C3  729   2.516   1.596   8.963  0.2747 -0.2616 -0.5771
   47TMC2    C4  730   2.481   1.751   9.181  0.1274  0.3279  0.1955
   47TMC2    C5  731   2.390   1.755   9.081  0.0188 -0.4934  0.7046
   47TMC2    C6  732   2.413   1.683   8.966  0.0081  0.7117 -0.3194
   47TMC2     C  733   2.666   1.654   9.297  0.0313  0.4062 -0.0504
   47TMC2     O  734   2.671   1.752   9.366 -0.4626  0.1895 -0.2175
   47TMC2     H  735   2.698   1.531   9.062 -1.8634 -2.1439 -1.9990
   47TMC2    H1  736   2.467   1.817   9.266 -2.1005 -0.4844  0.4801
   47TMC2    H2  737   2.355   1.689   8.874  0.6664  0.8395 -0.7343
   47TMC2    C7  738   2.273   1.849   9.092  0.4497 -0.3335 -0.4511
   47TMC2    C8  739   2.539   1.526   8.833 -0.6165  0.7669 -0.4318
   47TMC2    O1  740   2.276   1.926   9.185  0.0326 -0.3174  0.0720
   47TMC2    O2  741   2.477   1.554   8.732 -0.2410 -0.1089  0.4907
   47TMC2    O5  742   2.604   1.405   8.849 -0.4486  0.5531  0.1949
   47TMC2    H5  743   2.654   1.390   8.932 -1.2400  2.2157  0.9764
   48MPD2     C  744   2.821   1.578   9.535  0.0451  0.3253  0.3665
   48MPD2    C1  745   2.796   1.496   9.425 -0.0777  0.7198 -0.0440
   48MPD2    C2  746   2.848   1.368   9.429  0.1197 -0.0837 -0.1963
   48MPD2    C3  747   2.909   1.313   9.538 -0.4696  0.4830 -1.0418
   48MPD2    C4  748   2.936   1.392   9.645 -0.2864  0.5075 -0.1968
   48MPD2    C5  749   2.898   1.526   9.636 -0.5227 -0.0377 -0.0646
   48MPD2     H  750   2.844   1.304   9.342  1.2637  1.2426 -1.2258
   48MPD2    H1  751   2.988   1.351   9.731  1.1558 -0.8208 -1.7019
   48MPD2    H2  752   2.789   1.682   9.541  0.8538  0.5580  0.5815
   48MPD2    H3  753   2.923   1.597   9.713 -0.7900 -0.2464  0.2142
   48MPD2     N  754   2.940   1.176   9.526  0.1958 -0.2177  0.1630
   48MPD2    H5  755   2.902   1.143   9.437 -1.9515  1.5372  0.4240
   48MPD2    N1  756   2.722   1.536   9.310  0.4124  0.5090  0.1255
   48MPD2    H7  757   2.704   1.471   9.234 -0.0010 -0.0877  0.7372
   49TMC2    C1  758   0.992   3.490   9.957  0.4245 -0.2685 -0.2467
   49TMC2    C2  759   1.038   3.615   9.997  0.2247 -0.1045  0.6574
   49TMC2    C3  760   1.172   3.641   9.994  0.1267 -0.2696  0.0249
   49TMC2    C4  761   1.076   3.402   9.891  0.4390 -0.2578 -0.6030
   49TMC2    C5  762   1.212   3.435   9.882  1.1008 -0.4292 -0.0052
   49TMC2    C6  763   1.261   3.553   9.932  0.1265  0.2813  0.2357
   49TMC2     C  764   0.850   3.458   9.958  0.5064  0.3616  0.5158
   49TMC2     O  765   0.809   3.345   9.932  0.0042  0.0267 -0.6751
   49TMC2     H  766   0.980   3.684  10.057  0.4959  1.5127 -0.9585
   49TMC2    H1  767   1.035   3.311   9.849 -1.8421  0.3757  0.2641
   49TMC2    H2  768   1.368   3.567   9.920 -0.0516  0.3636 -1.2676
   49TMC2    C7  769   1.306   3.349   9.814  0.2058 -0.1908 -0.4438
   49TMC2    C8  770   1.217   3.770  10.027 -0.0546 -0.9444 -0.8221
   49TMC2    O1  771   1.418   3.396   9.793  0.1237  0.3051 -0.1339
   49TMC2    O2  772   1.334   3.796  10.045  0.0756  0.0587  0.0579
   49TMC2    O5  773   1.125   3.862   9.989 -0.3876 -0.0839 -0.0843
   49TMC2    H5  774   1.036   3.825   9.971 -1.0870  1.9666 -0.8560
   50MPD2     C  775   0.547   3.452   9.978  0.2762  0.3109 -0.3644
   50MPD2    C1  776   0.628   3.557  10.004  0.0144  0.2920  0.3866
   50MPD2    C2  777   0.564   3.669  10.050  0.0347 -0.3830 -0.5212
   50MPD2    C3  778   0.427   3.673  10.067 -1.1026 -0.2455  0.3235
   50MPD2    C4  779   0.357   3.556  10.042  0.5476 -0.5088  0.1267
   50MPD2    C5  780   0.419   3.441  10.001  0.0475  0.3533 -0.0749
   50MPD2     H  781   0.624   3.755  10.077  1.4079 -1.4871 -0.0532
   50MPD2    H1  782   0.250   3.551  10.058  0.7501 -0.0813  1.6579
   50MPD2    H2  783   0.591   3.362   9.937  0.5680  1.0329 -1.6621
   50MPD2    H3  784   0.371   3.347   9.977  0.3830  0.5322 -1.3944
   50MPD2     N  785   0.356   3.777  10.127  0.5383  0.2146  0.0558
   50MPD2    H5  786   0.256   3.764  10.142  0.2488 -1.0111 -2.9711
   50MPD2    N1  787   0.772   3.566   9.989 -0.3208  0.1503 -0.1884
   50MPD2    H7  788   0.812   3.655  10.018  2.4269 -1.6763  1.6586
   51TMC2    C1  789   0.843   1.024   0.767  0.3250  0.0689  0.1766
   51TMC2    C2  790   0.718   1.046   0.820  1.1148 -0.3901 -0.0272
   51TMC2    C3  791   0.650   1.162   0.794  0.1465 -0.1856 -0.6225
   51TMC2    C4  792   0.893   1.116   0.683 -0.2213 -0.7145 -0.0341
   51TMC2    C5  793   0.828   1.234   0.663 -0.4068  0.0809 -0.3696
   51TMC2    C6  794   0.698   1.254   0.713 -0.2784  0.1559 -0.1685
   51TMC2     C  795   0.936   0.921   0.817  0.4118  0.6228  0.2284
   51TMC2     O  796   1.041   0.913   0.758 -1.0040 -0.2926  0.4977
   51TMC2     H  797   0.672   0.964   0.874  1.1912  1.0825  2.2579
   51TMC2    H1  798   0.999   1.110   0.661 -0.1057 -1.4479  0.7095
   51TMC2    H2  799   0.642   1.343   0.683  1.2096  1.2199  0.2467
   51TMC2    C7  800   0.907   1.344   0.611 -0.6355 -0.4177 -0.1242
   51TMC2    C8  801   0.520   1.192   0.861  1.2297 -0.0830  0.7158
   51TMC2    O1  802   1.018   1.312   0.569 -0.2157 -0.3447  0.5817
   51TMC2    O2  803   0.447   1.277   0.813  0.8870 -0.4626  0.2827
   51TMC2    O5  804   0.489   1.108   0.960  0.3585 -0.4746 -0.3518
   51TMC2    H5  805   0.563   1.053   0.993 -0.0779 -1.6324 -1.2975
   52MPD2     C  806   1.041   0.563   1.175  0.3346 -0.0044  0.1823
   52MPD2    C1  807   1.101   0.591   1.055  0.6360  0.1639 -0.6701
   52MPD2    C2  808   1.054   0.693   0.973  0.1977  0.1083  0.2996
   52MPD2    C3  809   0.937   0.758   1.004 -0.1343 -0.8871 -0.2317
   52MPD2    C4  810   0.869   0.721   1.122 -0.2832 -0.3416 -0.1177
   52MPD2    C5  811   0.923   0.631   1.208 -0.1210  0.6414 -0.2220
   52MPD2     H  812   1.096   0.712   0.875 -1.7918 -0.1318 -0.6107
   52MPD2    H1  813   0.769   0.760   1.139  0.4784  0.8869  1.5186
   52MPD2    H2  814   1.085   0.503   1.254  0.6487  0.4090  0.3149
   52MPD2    H3  815   0.874   0.609   1.302 -0.2445 -0.3296 -0.5150
   52MPD2     N  816   0.885   0.864   0.931 -0.0524 -0.6277  0.4003
   52MPD2    H5  817   0.801   0.902   0.973 -2.0315 -3.2301 -1.2185
   52MPD2    N1  818   1.226   0.528   1.023  0.1561 -0.1773  0.4479
   52MPD2    H7  819   1.285   0.571   0.952  0.9661  1.5368  2.1409
   53TMC2    C1  820   1.303   0.963  11.419 -0.3400  0.0340 -0.3841
   53TMC2    C2  821   1.437   0.960  11.405 -0.1250 -0.0287  0.1429
   53TMC2    C3  822   1.496   0.842  11.428 -0.1626 -0.2544 -0.0747
   53TMC2    C4  823   1.229   0.852  11.450  1.0579  0.4306  0.0274
   53TMC2    C5  824   1.303   0.739  11.479  0.6267 -0.5071 -0.2778
   53TMC2    C6  825   1.434   0.732  11.479  0.6675  0.0563 -0.1365
   53TMC2     C  826   1.238   1.091  11.398 -0.7435 -0.7506  0.3454
   53TMC2     O  827   1.300   1.194  11.405 -0.2923  0.3965 -0.0649
   53TMC2     H  828   1.486   1.046  11.361 -0.4204 -0.4409 -0.9834
   53TMC2    H1  829   1.128   0.866  11.488  1.1251 -0.4453  0.5307
   53TMC2    H2  830   1.477   0.633  11.488 -0.3295 -0.3744 -0.1725
   53TMC2    C7  831   1.229   0.652  11.563  0.2222  0.0553 -0.8957
   53TMC2    C8  832   1.641   0.845  11.431 -0.3133 -0.2618 -0.4761
   53TMC2    O1  833   1.107   0.643  11.557 -0.0649 -0.1181 -0.0191
   53TMC2    O2  834   1.705   0.946  11.473 -0.5948 -0.6117 -0.0623
   53TMC2    O5  835   1.684   0.718  11.417  0.5292  0.0455 -0.2201
   53TMC2    H5  836   1.634   0.674  11.346  2.5503  0.2508 -1.7904
   54MPD2     C  837   1.035   1.307  11.353  0.8493  0.3182  0.1720
   54MPD2    C1  838   1.013   1.170  11.350 -0.3362  0.4960  0.3362
   54MPD2    C2  839   0.881   1.125  11.329  0.2494 -0.2452 -0.3351
   54MPD2    C3  840   0.775   1.215  11.321  0.2918 -0.5089 -0.2185
   54MPD2    C4  841   0.800   1.346  11.327  0.1081  0.7727  0.0019
   54MPD2    C5  842   0.932   1.395  11.344 -0.0251 -0.5131  0.1829
   54MPD2     H  843   0.856   1.019  11.331  1.8192 -0.5827  1.1250
   54MPD2    H1  844   0.723   1.422  11.319 -1.8618 -1.0482  1.7378
   54MPD2    H2  845   1.134   1.347  11.373  0.1258  2.1132  0.2052
   54MPD2    H3  846   0.953   1.500  11.355  1.1525 -0.9604  2.4140
   54MPD2     N  847   0.636   1.177  11.310  0.4897 -0.3919 -0.6063
   54MPD2    H5  848   0.572   1.251  11.338 -1.0789 -2.9808  2.7666
   54MPD2    N1  849   1.109   1.068  11.367  0.0307 -0.1873  0.1827
   54MPD2    H7  850   1.080   0.971  11.355 -0.8981 -0.2304  2.7208
   55TMC2    C1  851   2.507   3.477   0.267  0.3727  0.2819  0.1184
   55TMC2    C2  852   2.585   3.581   0.312 -0.5264  0.2076 -0.9422
   55TMC2    C3  853   2.697   3.548   0.385  0.1476 -0.2608  0.9065
   55TMC2    C4  854   2.550   3.342   0.286  0.3909  0.0450 -0.5766
   55TMC2    C5  855   2.674   3.324   0.346  0.1618 -0.4110 -1.3731
   55TMC2    C6  856   2.746   3.422   0.399 -0.3707  0.4906 -0.4833
   55TMC2     C  857   2.373   3.492   0.231  0.2361  0.3502  0.0779
   55TMC2     O  858   2.304   3.392   0.222 -0.5122  0.6273  0.1760
   55TMC2     H  859   2.556   3.685   0.318 -0.1492  0.1974  0.9874
   55TMC2    H1  860   2.483   3.265   0.248 -1.2632  2.0237 -1.7251
   55TMC2    H2  861   2.836   3.400   0.455 -1.4218 -1.0978  0.5808
   55TMC2    C7  862   2.718   3.189   0.388  0.4592  0.3938  0.5102
   55TMC2    C8  863   2.781   3.651   0.442 -0.6972 -0.5043 -0.3016
   55TMC2    O1  864   2.829   3.173   0.438  0.2379 -0.4262 -0.8756
   55TMC2    O2  865   2.902   3.652   0.435  0.2960 -0.4926 -0.1787
   55TMC2    O5  866   2.700   3.739   0.507 -0.1079 -0.5123 -0.0292
   55TMC2    H5  867   2.606   3.716   0.519  0.0273 -0.9837  0.1133
   56MPD2     C  868   2.177   3.811   0.234  0.8728  0.0363  0.1242
   56MPD2    C1  869   2.198   3.671   0.249 -0.1051 -0.6075 -0.0466
   56MPD2    C2  870   2.079   3.597   0.259  0.2184  0.8734 -0.1122
   56MPD2    C3  871   1.956   3.650   0.277 -0.1010 -0.2521  0.5741
   56MPD2    C4  872   1.939   3.786   0.261 -0.9979  0.2129 -0.6255
   56MPD2    C5  873   2.051   3.864   0.247 -0.1637 -0.1739 -0.9547
   56MPD2     H  874   2.090   3.491   0.277 -0.2006  0.4365 -2.3840
   56MPD2    H1  875   1.841   3.832   0.261 -0.5440  1.2025  1.4532
   56MPD2    H2  876   2.257   3.883   0.223 -1.5509  2.6290 -0.6776
   56MPD2    H3  877   2.043   3.971   0.230  1.1859  0.1046  0.1504
   56MPD2     N  878   1.852   3.560   0.308 -0.4505  0.2830  0.1601
   56MPD2    H5  879   1.885   3.466   0.330  3.9920  1.8195  0.1307
   56MPD2    N1  880   2.330   3.620   0.235 -0.5509  0.2183  0.0697
   56MPD2    H7  881   2.399   3.695   0.238  2.1683 -2.3573  1.4386
   57TMC2    C1  882   1.133   3.309  13.215  0.1747  0.0372 -0.8071
   57TMC2    C2  883   1.129   3.275  13.087  0.8376 -0.4884 -0.1390
   57TMC2    C3  884   1.245   3.253  13.018 -0.1819 -0.3348 -0.6635
   57TMC2    C4  885   1.251   3.318  13.279 -0.0824 -0.8761  0.2507
   57TMC2    C5  886   1.362   3.311  13.210 -0.3550 -0.3074  0.5718
   57TMC2    C6  887   1.368   3.278  13.076 -0.2514  0.1553 -0.1357
   57TMC2     C  888   1.012   3.325  13.298  0.2645 -0.1719  0.2876
   57TMC2     O  889   1.021   3.355  13.417 -0.4085 -0.0534  0.1315
   57TMC2     H  890   1.038   3.238  13.040  1.2382  0.2316 -1.4879
   57TMC2    H1  891   1.248   3.333  13.386 -1.6144 -0.7299  0.1931
   57TMC2    H2  892   1.453   3.289  13.010 -0.8367  0.4470 -0.8552
   57TMC2    C7  893   1.480   3.364  13.265  0.0154  0.6497 -0.2713
   57TMC2    C8  894   1.237   3.236  12.874 -0.4152 -0.1289 -0.1398
   57TMC2    O1  895   1.463   3.420  13.370 -0.3831 -0.4012 -0.5181
   57TMC2    O2  896   1.333   3.196  12.809 -0.1916  1.0795 -0.0212
   57TMC2    O5  897   1.139   3.324  12.840 -0.4433  0.3821  0.0940
   57TMC2    H5  898   1.065   3.354  12.898 -0.4384 -0.9571  0.8019
   58MPD2     C  899   0.508   3.270  13.368 -0.6189  0.2387 -0.3629
   58MPD2    C1  900   0.611   3.319  13.458 -0.0152 -0.0596  0.1317
   58MPD2    C2  901   0.735   3.339  13.400  0.2790 -0.6186  0.2656
   58MPD2    C3  902   0.767   3.313  13.271 -0.4144  0.2790 -0.6641
   58MPD2    C4  903   0.665   3.279  13.185 -0.5408 -0.2908 -0.2535
   58MPD2    C5  904   0.538   3.260  13.233  0.5673 -0.0372 -0.4243
   58MPD2     H  905   0.808   3.375  13.471  0.3586  1.4086 -0.8364
   58MPD2    H1  906   0.676   3.278  13.078 -3.3513 -2.4955 -0.5165
   58MPD2    H2  907   0.407   3.249  13.403 -0.7665  0.9133 -0.3803
   58MPD2    H3  908   0.458   3.233  13.164  0.5991  0.6993 -0.7511
   58MPD2     N  909   0.899   3.311  13.227 -0.5692  0.7522 -1.0663
   58MPD2    H5  910   0.910   3.295  13.127 -2.6334 -1.0657 -0.9913
   58MPD2    N1  911   0.600   3.349  13.593  0.0021 -0.7457  0.5560
   58MPD2    H7  912   0.684   3.387  13.636  1.0843 -1.6491 -0.7587
   59TMC2    C1  913   3.728   3.923  12.624 -0.1822  0.5994  0.1174
   59TMC2    C2  914   3.624   3.933  12.715  0.7465  0.1621 -0.2705
   59TMC2    C3  915   3.505   3.889  12.671 -0.5307 -0.3804  0.4816
   59TMC2    C4  916   3.710   3.865  12.506  0.3370 -1.1370  0.1622
   59TMC2    C5  917   3.581   3.839  12.463 -0.6015 -0.3248  0.1421
   59TMC2    C6  918   3.478   3.841  12.549  0.1335 -0.5842 -0.0777
   59TMC2     C  919   3.870   3.942  12.663 -0.1383  0.5694  0.2420
   59TMC2     O  920   3.957   3.897  12.584  0.2164 -1.1164  0.3381
   59TMC2     H  921   3.632   3.977  12.813 -3.5539 -0.9086  0.5689
   59TMC2    H1  922   3.798   3.857  12.443  0.8796 -2.7053  1.1303
   59TMC2    H2  923   3.387   3.790  12.518  0.8660 -1.2683 -1.1305
   59TMC2    C7  924   3.547   3.809  12.325  0.7431 -0.1037 -0.2507
   59TMC2    C8  925   3.415   3.848  12.775  0.2436  0.3881  0.0792
   59TMC2    O1  926   3.437   3.765  12.295 -0.0117  0.1212 -0.3907
   59TMC2    O2  927   3.299   3.815  12.756  0.2814 -0.4763  0.0765
   59TMC2    O5  928   3.479   3.806  12.882 -0.5418 -0.8838  0.3913
   59TMC2    H5  929   3.575   3.788  12.881 -0.6451 -1.3756 -2.3284
   60MPD2     C  930   4.137   3.970  12.792 -0.5111 -0.3818 -0.0406
   60MPD2    C1  931   4.019   4.007  12.851  0.0849  0.1790  0.1861
   60MPD2    C2  932   4.011   4.067  12.975  0.0271 -0.1672  0.1096
   60MPD2    C3  933   4.129   4.113  13.027 -0.4232 -0.0218 -0.6286
   60MPD2    C4  934   4.252   4.086  12.967 -0.0227 -0.5570  0.1185
   60MPD2    C5  935   4.254   4.007  12.853  0.3682 -0.1139 -0.4304
   60MPD2     H  936   3.914   4.092  13.017  0.0196 -1.2048  0.7155
   60MPD2    H1  937   4.348   4.119  13.004 -2.2498  2.8875  2.8312
   60MPD2    H2  938   4.147   3.912  12.701  2.3674  1.9618 -1.2024
   60MPD2    H3  939   4.343   3.966  12.805  0.7124  1.3718 -1.0498
   60MPD2     N  940   4.128   4.193  13.144  0.2430 -0.3716  0.5310
   60MPD2    H5  941   4.216   4.238  13.168 -0.2526  0.6833  0.3663
   60MPD2    N1  942   3.889   3.997  12.789  0.1132  0.6354  0.5284
   60MPD2    H7  943   3.801   4.031  12.827 -0.1221 -0.6144  1.0872
   61TMC2    C1  944   2.554   0.102  14.936  0.2242  0.2452 -0.3647
   61TMC2    C2  945   2.437   0.059  14.986  0.1393  0.0637  1.1648
   61TMC2    C3  946   2.382   0.128  15.090 -0.6655  0.1909 -0.1332
   61TMC2    C4  947   2.622   0.200  14.997 -0.2069  0.1864 -0.3527
   61TMC2    C5  948   2.582   0.246  15.121 -0.1745 -0.8387  0.0209
   61TMC2    C6  949   2.457   0.208  15.174  0.3419  0.1184  0.8883
   61TMC2     C  950   2.578   0.070  14.800  0.3257 -0.0409  0.9182
   61TMC2     O  951   2.499   0.003  14.735  0.2287 -0.0739  0.3717
   61TMC2     H  952   2.367   4.741  14.929 -0.2413 -0.0303  1.7344
   61TMC2    H1  953   2.718   0.236  14.960  0.0812 -0.2402 -0.0163
   61TMC2    H2  954   2.419   0.240  15.270 -0.3362 -0.6526  0.8727
   61TMC2    C7  955   2.634   0.376  15.165 -0.3609 -0.0219 -0.1820
   61TMC2    C8  956   2.253   0.080  15.138 -1.1207  0.3529 -0.0391
   61TMC2    O1  957   2.734   0.404  15.106 -0.1176  0.0633  0.6601
   61TMC2    O2  958   2.226   0.094  15.256  0.1291  0.4786 -0.0569
   61TMC2    O5  959   2.167   0.134  15.046 -0.2334 -0.1853  0.0452
   61TMC2    H5  960   2.194   0.125  14.952 -1.2009  2.7782 -0.5191
   62MPD2     C  961   2.628   0.141  14.508  0.1097  0.2570  0.3434
   62MPD2    C1  962   2.694   0.188  14.617 -0.1651  0.4206  0.0156
   62MPD2    C2  963   2.780   0.296  14.604 -0.0740  0.1680 -0.0293
   62MPD2    C3  964   2.801   0.356  14.479 -0.1597 -0.6214 -0.0630
   62MPD2    C4  965   2.741   0.305  14.368  0.8032  1.3134 -0.9630
   62MPD2    C5  966   2.655   0.197  14.386 -0.1774  0.1201  0.2485
   62MPD2     H  967   2.828   0.341  14.690  1.2396  0.6440 -1.0165
   62MPD2    H1  968   2.751   0.346  14.268  1.3156 -2.4391 -2.4302
   62MPD2    H2  969   2.581   0.043  14.507  1.7236 -0.5199  0.5600
   62MPD2    H3  970   2.591   0.163  14.305  2.4059 -0.9330 -1.3142
   62MPD2     N  971   2.872   0.476  14.467  0.0078 -0.6342  0.0917
   62MPD2    H5  972   2.865   0.532  14.383 -1.9846  0.1315  0.7678
   62MPD2    N1  973   2.678   0.147  14.750 -1.1584  0.4278 -0.8368
   62MPD2    H7  974   2.738   0.183  14.824  0.7784  1.6143 -3.0075
   63TMC2    C1  975   2.554   1.180  10.223 -0.4828 -0.8483 -0.0168
   63TMC2    C2  976   2.668   1.145  10.286 -0.3999  0.1925  0.8644
   63TMC2    C3  977   2.786   1.216  10.267  0.4606  0.5946  0.1170
   63TMC2    C4  978   2.550   1.277  10.137 -0.5782 -0.1952 -0.0563
   63TMC2    C5  979   2.672   1.339  10.110 -0.2039  0.7744 -0.2736
   63TMC2    C6  980   2.790   1.317  10.179 -0.0312 -0.1223 -0.7285
   63TMC2     C  981   2.440   1.166  10.300  0.2846  0.5090  0.7492
   63TMC2     O  982   2.367   1.259  10.308  0.2585  0.1858  0.1289
   63TMC2     H  983   2.668   1.060  10.354 -0.5593 -3.1396 -3.2981
   63TMC2    H1  984   2.457   1.323  10.108  0.5399  1.6462 -0.7116
   63TMC2    H2  985   2.884   1.367  10.161  0.6292 -1.4360 -0.9424
   63TMC2    C7  986   2.676   1.440  10.002 -1.3605 -0.1247  0.2598
   63TMC2    C8  987   2.913   1.169  10.304  0.3683  0.2421 -0.1616
   63TMC2    O1  988   2.566   1.439   9.940 -0.3739  0.1675 -0.0424
   63TMC2    O2  989   3.000   1.157  10.216 -0.0458 -0.6086  0.1252
   63TMC2    O5  990   2.903   1.087  10.407 -0.3851 -0.7527 -0.5252
   63TMC2    H5  991   2.819   1.106  10.455  0.3553  0.2484  0.3725
   64MPD2     C  992   2.190   0.926  10.688  0.2831  0.0489  0.2157
   64MPD2    C1  993   2.270   0.840  10.620 -0.6432 -0.0681  1.2192
   64MPD2    C2  994   2.352   0.883  10.518  0.0936 -0.4005 -0.0643
   64MPD2    C3  995   2.350   1.011  10.470 -0.1524  0.9089 -0.2448
   64MPD2    C4  996   2.263   1.099  10.539 -0.3894  0.0512 -0.7804
   64MPD2    C5  997   2.192   1.060  10.645 -0.2988 -1.2140  0.0478
   64MPD2     H  998   2.424   0.809  10.483 -0.8597 -1.7036  0.7064
   64MPD2    H1  999   2.272   1.205  10.521 -3.4092  0.1222 -1.8415
   64MPD2    H2 1000   2.132   0.887  10.771 -2.0016 -0.1637 -1.4780
   64MPD2    H3 1001   2.132   1.134  10.696  0.7155  0.9695 -1.9128
   64MPD2     N 1002   2.441   1.046  10.369  0.2106  0.0516  0.1119
   64MPD2    H5 1003   2.506   0.975  10.338  1.1644  1.2155 -0.5762
   64MPD2    N1 1004   2.284   0.706  10.657 -0.2678 -0.2449  0.2870
   64MPD2    H7 1005   2.346   0.649  10.601 -1.4350 -0.5609 -0.6837
   65TMC2    C1 1006   4.087   0.103  15.504  0.4340 -0.0753  0.5687
   65TMC2    C2 1007   4.177   0.038  15.433 -0.1468 -0.0972  0.7002
   65TMC2    C3 1008   4.259   0.099  15.340 -0.4621  0.8859 -0.0512
   65TMC2    C4 1009   4.078   0.236  15.496 -0.5814  0.7652 -0.7673
   65TMC2    C5 1010   4.140   0.287  15.386  0.0402 -0.0492 -0.0948
   65TMC2    C6 1011   4.233   0.228  15.306  0.3495 -0.7638 -0.0013
   65TMC2     C 1012   4.025   0.046  15.625  0.0187 -0.5056  0.0053
   65TMC2     O 1013   4.000   0.124  15.714  0.1398  0.2837  0.1892
   65TMC2     H 1014   4.219   4.686  15.469  0.9030 -0.4615 -1.4600
   65TMC2    H1 1015   4.009   0.294  15.556  0.3447  0.6551  0.3961
   65TMC2    H2 1016   4.266   0.284  15.219 -1.0816 -1.1252 -0.7745
   65TMC2    C7 1017   4.062   0.382  15.317 -0.3340 -0.3818 -0.2374
   65TMC2    C8 1018   4.308   0.005  15.242 -0.2550 -0.8144 -0.2585
   65TMC2    O1 1019   4.117   0.450  15.228 -0.3904  0.7581  0.3051
   65TMC2    O2 1020   4.407   4.682  15.281 -0.1070 -0.6399 -0.6640
   65TMC2    O5 1021   4.194   4.693  15.202 -0.4703  0.0658  0.2783
   65TMC2    H5 1022   4.128   0.019  15.175 -0.9007 -1.3316 -2.1452
   66MPD2     C 1023   3.908   4.625  15.843 -1.0366 -0.7309  0.4896
   66MPD2    C1 1024   3.921   4.585  15.714 -0.0730 -0.3326 -0.0436
   66MPD2    C2 1025   3.862   4.464  15.678  0.7126  0.5427  0.1202
   66MPD2    C3 1026   3.795   4.388  15.762  0.2237 -0.0619  0.1595
   66MPD2    C4 1027   3.783   4.429  15.895 -0.2465 -0.5278  0.1958
   66MPD2    C5 1028   3.840   4.548  15.930  0.0582  0.5241  0.0381
   66MPD2     H 1029   3.871   4.447  15.571 -0.9704 -1.8908  0.3582
   66MPD2    H1 1030   3.736   4.365  15.969  1.5159 -0.0793  1.7046
   66MPD2    H2 1031   3.959   4.707  15.893 -0.6263 -0.3176 -0.6016
   66MPD2    H3 1032   3.845   4.578  16.034 -2.0483  0.8371  0.0465
   66MPD2     N 1033   3.720   4.277  15.724  0.1423 -0.1843 -0.3661
   66MPD2    H5 1034   3.668   4.231  15.798 -0.3244 -3.0822 -2.4710
   66MPD2    N1 1035   3.985   4.658  15.615 -0.3929 -0.4476  0.0474
   66MPD2    H7 1036   3.994   4.610  15.525  0.2168 -1.9941  0.9338
   67TMC2    C1 1037   3.800   3.810  14.396  0.1276 -0.6075 -0.4853
   67TMC2    C2 1038   3.691   3.752  14.456 -0.2117 -0.4162  0.1742
   67TMC2    C3 1039   3.705   3.695  14.581  0.0872 -0.0310  0.3013
   67TMC2    C4 1040   3.920   3.817  14.457  0.9842  0.0942  0.3667
   67TMC2    C5 1041   3.925   3.780  14.590 -0.6414 -0.0469  0.0017
   67TMC2    C6 1042   3.821   3.711  14.653 -0.8040  0.5555  0.1617
   67TMC2     C 1043   3.775   3.916  14.303  0.5936  0.1557 -0.0346
   67TMC2     O 1044   3.857   4.003  14.298  0.0944  1.2843 -0.3360
   67TMC2     H 1045   3.596   3.734  14.408  0.0269  0.5398 -0.6465
   67TMC2    H1 1046   4.012   3.851  14.412  1.3596 -1.8391 -0.3438
   67TMC2    H2 1047   3.819   3.682  14.758  2.4856 -0.4329 -0.0287
   67TMC2    C7 1048   4.056   3.798  14.647 -1.4128 -0.1466 -1.0754
   67TMC2    C8 1049   3.576   3.674  14.645  0.1095  0.5935  0.1818
   67TMC2    O1 1050   4.152   3.788  14.569 -0.0694  0.2368 -0.1567
   67TMC2    O2 1051   3.475   3.737  14.617 -0.1262  0.1297  0.2985
   67TMC2    O5 1052   3.571   3.557  14.706 -0.5147  0.5572 -0.6995
   67TMC2    H5 1053   3.656   3.507  14.702 -2.0668 -1.8621 -3.5109
   68MPD2     C 1054   3.639   4.130  14.152 -0.2363 -1.0871 -0.2477
   68MPD2    C1 1055   3.605   4.000  14.148  0.3882  0.5182  0.2742
   68MPD2    C2 1056   3.499   3.966  14.062  0.0631 -0.4203 -0.3948
   68MPD2    C3 1057   3.420   4.064  13.997 -0.7119 -0.4694  0.0353
   68MPD2    C4 1058   3.453   4.196  14.011  0.4413  0.0284  0.3437
   68MPD2    C5 1059   3.567   4.229  14.081  0.1586 -0.2799  0.4739
   68MPD2     H 1060   3.478   3.860  14.062 -0.6523 -0.2811 -0.0021
   68MPD2    H1 1061   3.385   4.276  13.984 -0.1970 -0.2628  1.1006
   68MPD2    H2 1062   3.721   4.172  14.210 -2.7650  0.4680  2.2210
   68MPD2    H3 1063   3.592   4.334  14.078  1.2005 -0.5905 -1.4729
   68MPD2     N 1064   3.301   4.038  13.927  0.3815 -0.4784 -0.5306
   68MPD2    H5 1065   3.258   4.120  13.885 -1.7523 -1.9996 -1.3284
   68MPD2    N1 1066   3.663   3.903  14.226 -0.4348  0.1165  0.1127
   68MPD2    H7 1067   3.604   3.820  14.230 -0.9358  0.4970  0.5719
   69TMC2    C1 1068   1.803   0.895  12.484 -0.0295 -0.1289  0.0985
   69TMC2    C2 1069   1.667   0.911  12.475  0.2136 -0.0805 -0.0151
   69TMC2    C3 1070   1.626   1.036  12.434 -0.1195  0.3479 -0.1797
   69TMC2    C4 1071   1.896   0.993  12.447 -1.1354  0.0900 -0.5689
   69TMC2    C5 1072   1.847   1.116  12.400  0.0176  0.6637  0.2665
   69TMC2    C6 1073   1.712   1.136  12.392 -0.1577 -1.1428  0.0069
   69TMC2     C 1074   1.854   0.778  12.561  0.1168 -0.0101 -0.4841
   69TMC2     O 1075   1.769   0.688  12.557  0.0395  0.4893  0.4295
   69TMC2     H 1076   1.598   0.834  12.508  1.5547 -1.4795 -0.4583
   69TMC2    H1 1077   2.002   0.982  12.466 -1.5679  0.0569  1.7642
   69TMC2    H2 1078   1.674   1.224  12.341  0.6693  0.0627  1.4896
   69TMC2    C7 1079   1.927   1.188  12.316  0.0683  0.2354 -0.5694
   69TMC2    C8 1080   1.490   1.058  12.429  0.0044  0.5746  0.3274
   69TMC2    O1 1081   2.020   1.121  12.264  0.0966 -0.4822 -0.6528
   69TMC2    O2 1082   1.436   1.166  12.439  0.2375  0.2973 -0.0834
   69TMC2    O5 1083   1.439   0.949  12.364 -0.2636 -0.0818  0.0857
   69TMC2    H5 1084   1.504   0.889  12.323 -0.8138 -0.5196 -0.1460
   70MPD2     C 1085   2.111   0.728  12.806  0.1366  0.2890 -0.2459
   70MPD2    C1 1086   2.006   0.691  12.738 -0.9583 -1.0960 -0.2957
   70MPD2    C2 1087   1.955   0.565  12.753  0.5096 -0.1567 -0.3833
   70MPD2    C3 1088   2.011   0.470  12.842  0.1245  0.2482 -0.1785
   70MPD2    C4 1089   2.127   0.512  12.909 -0.0068 -0.7529  0.1616
   70MPD2    C5 1090   2.179   0.643  12.892 -0.0536 -0.5126 -0.8981
   70MPD2     H 1091   1.868   0.541  12.693  1.0449  0.3659 -1.3836
   70MPD2    H1 1092   2.181   0.448  12.977  2.1919  0.1522 -0.7487
   70MPD2    H2 1093   2.144   0.831  12.796 -0.1076  0.4942  1.0057
   70MPD2    H3 1094   2.261   0.680  12.952 -0.0879  0.3941 -1.4215
   70MPD2     N 1095   1.950   0.356  12.885  0.1510 -0.0344 -0.9532
   70MPD2    H5 1096   2.001   0.303  12.955 -2.7225  0.0411  1.1736
   70MPD2    N1 1097   1.962   0.798  12.648 -0.6749 -0.1207 -0.0580
   70MPD2    H7 1098   2.006   0.889  12.650  0.1322 -0.5211  0.6518
   71TMC2    C1 1099   3.405   0.781   0.920 -0.3648 -0.1107  0.3691
   71TMC2    C2 1100   3.461   0.815   1.040  0.4312 -0.4680  0.1503
   71TMC2    C3 1101   3.420   0.738   1.148  0.0930  0.5237 -0.2826
   71TMC2    C4 1102   3.282   0.718   0.912  0.1386 -0.7691 -0.0198
   71TMC2    C5 1103   3.245   0.649   1.023  0.0327  0.6224 -0.3128
   71TMC2    C6 1104   3.312   0.653   1.144  0.2297  0.2320  0.3819
   71TMC2     C 1105   3.449   0.858   0.805 -0.5187  0.6530  0.0337
   71TMC2     O 1106   3.376   0.860   0.706 -0.0835  0.5367 -0.1239
   71TMC2     H 1107   3.539   0.888   1.060 -0.2505  0.5071 -0.7723
   71TMC2    H1 1108   3.236   0.700   0.816  2.0055 -2.2543 -0.6362
   71TMC2    H2 1109   3.278   0.606   1.236  0.4707 -0.4139  0.1407
   71TMC2    C7 1110   3.126   0.564   1.018  0.0154 -0.5596  0.0678
   71TMC2    C8 1111   3.468   0.760   1.281  0.6009 -0.0576  0.9057
   71TMC2    O1 1112   3.114   0.479   1.107  0.4927  0.4198  0.4809
   71TMC2    O2 1113   3.503   0.870   1.320 -0.3208 -0.2006  0.2827
   71TMC2    O5 1114   3.525   0.647   1.329 -0.5071 -0.4126 -0.0006
   71TMC2    H5 1115   3.508   0.572   1.267 -1.0768  1.5853 -2.2630
   72MPD2     C 1116   3.775   1.169   0.546  1.1051  0.1666  0.7670
   72MPD2    C1 1117   3.641   1.138   0.531  0.6319  0.7611  0.3737
   72MPD2    C2 1118   3.572   1.063   0.626 -0.3274  0.6305 -0.0972
   72MPD2    C3 1119   3.640   0.997   0.732 -0.3738  0.1734  0.1773
   72MPD2    C4 1120   3.776   1.020   0.745 -0.1737 -0.4671  1.0736
   72MPD2    C5 1121   3.842   1.102   0.647 -0.4693  0.3822  0.3855
   72MPD2     H 1122   3.466   1.052   0.606 -0.1674 -0.9192 -0.0563
   72MPD2    H1 1123   3.835   0.980   0.826  1.1833 -0.5591  0.0494
   72MPD2    H2 1124   3.831   1.234   0.480 -1.1730  2.2091  0.8609
   72MPD2    H3 1125   3.947   1.122   0.666 -1.1547  2.7099  1.6476
   72MPD2     N 1126   3.577   0.910   0.821  0.3439 -0.0834 -0.4299
   72MPD2    H5 1127   3.632   0.884   0.902  2.5153  0.7832 -1.6339
   72MPD2    N1 1128   3.563   1.191   0.426  0.4016 -0.0821 -0.6353
   72MPD2    H7 1129   3.462   1.189   0.427  0.4198  1.2152  3.5129
   73TMC2    C1 1130   2.949   2.688  13.977  0.5860 -0.5501 -0.1158
   73TMC2    C2 1131   2.839   2.647  14.040  0.5431  0.5459 -0.3938
   73TMC2    C3 1132   2.855   2.564  14.150 -0.2451 -0.1223  0.8843
   73TMC2    C4 1133   3.069   2.654  14.020  0.5683  0.3719 -0.2887
   73TMC2    C5 1134   3.091   2.580  14.131  0.5054 -0.8838  0.1154
   73TMC2    C6 1135   2.982   2.536  14.196  0.1688  0.2825  0.0034
   73TMC2     C 1136   2.967   2.821  13.917  0.1847  0.4278 -0.4884
   73TMC2     O 1137   3.073   2.877  13.939  0.5751 -0.2100  0.0184
   73TMC2     H 1138   2.738   2.680  14.017 -0.2482 -1.8792 -0.3590
   73TMC2    H1 1139   3.148   2.675  13.949  0.6525  1.8132  0.2256
   73TMC2    H2 1140   2.994   2.487  14.292 -0.2353  1.9646  0.9150
   73TMC2    C7 1141   3.211   2.633  14.206  0.2123 -0.6365  0.2964
   73TMC2    C8 1142   2.743   2.551  14.229  0.4237  0.2282  0.4819
   73TMC2    O1 1143   3.265   2.568  14.298  0.1786 -0.1916 -0.0778
   73TMC2    O2 1144   2.694   2.447  14.269  0.1343  0.0379 -0.1275
   73TMC2    O5 1145   2.714   2.671  14.285  0.2067  0.1715 -0.3435
   73TMC2    H5 1146   2.770   2.738  14.241  1.0920 -1.3238 -1.4764
   74MPD2     C 1147   2.811   3.267  13.712  0.0831  0.1008  1.0186
   74MPD2    C1 1148   2.908   3.238  13.809 -0.2726 -0.4265 -0.2992
   74MPD2    C2 1149   2.916   3.103  13.845  0.2752 -0.6825  0.5472
   74MPD2    C3 1150   2.837   2.999  13.797  0.5332 -0.2455  0.5983
   74MPD2    C4 1151   2.736   3.034  13.716 -0.4952  0.2734  0.6445
   74MPD2    C5 1152   2.728   3.164  13.679  0.3986 -0.1150  0.1445
   74MPD2     H 1153   2.986   3.081  13.924  0.9756 -0.5140 -0.0278
   74MPD2    H1 1154   2.662   2.961  13.686  2.6765 -2.7561  0.1416
   74MPD2    H2 1155   2.789   3.365  13.671 -2.3576 -1.7123 -2.0137
   74MPD2    H3 1156   2.648   3.189  13.611 -0.3248  0.9888  1.3983
   74MPD2     N 1157   2.854   2.859  13.841  0.3916 -0.1339  0.2852
   74MPD2    H5 1158   2.778   2.796  13.817 -0.8970  1.2082  0.8149
   74MPD2    N1 1159   2.990   3.340  13.860  0.2504  0.1602 -0.0949
   74MPD2    H7 1160   2.974   3.433  13.823 -1.2747 -0.1218 -0.1638
   75TMC2    C1 1161   3.118   3.918  13.837 -0.1485 -0.4006  0.2547
   75TMC2    C2 1162   3.022   3.822  13.857 -0.1604  0.4597  0.2010
   75TMC2    C3 1163   2.912   3.813  13.771 -0.6455  0.0391  0.0709
   75TMC2    C4 1164   3.107   4.011  13.732  0.2842  0.2688 -0.4132
   75TMC2    C5 1165   2.996   3.998  13.648  0.9352  0.0030  0.2411
   75TMC2    C6 1166   2.902   3.899  13.660 -0.0658  0.2925  0.2596
   75TMC2     C 1167   3.237   3.912  13.921 -0.2682 -0.1541  0.1720
   75TMC2     O 1168   3.258   3.810  13.988  0.2781 -0.5398  0.0125
   75TMC2     H 1169   3.018   3.754  13.942  1.0951 -1.1232 -1.0164
   75TMC2    H1 1170   3.189   4.072  13.694 -1.4029  1.0812 -2.7727
   75TMC2    H2 1171   2.831   3.879  13.581 -0.6760 -0.6888  1.0522
   75TMC2    C7 1172   3.001   4.072  13.525  0.3574  1.3604  0.4593
   75TMC2    C8 1173   2.840   3.694  13.774  0.3953  0.8771  0.0566
   75TMC2    O1 1174   2.936   4.027  13.436 -0.8568 -0.1719 -0.1787
   75TMC2    O2 1175   2.888   3.585  13.801  0.2111 -0.1062 -0.1596
   75TMC2    O5 1176   2.708   3.717  13.781 -0.0176  0.6047  0.6281
   75TMC2    H5 1177   2.687   3.813  13.776  1.6323  0.8907 -0.9114
   76TMC2    C1 1178   2.298   0.456  12.178 -0.1284  0.0643  0.2811
   76TMC2    C2 1179   2.170   0.460  12.216 -0.3764  0.1724  0.4098
   76TMC2    C3 1180   2.109   0.355  12.277 -0.3833  0.2860  0.4422
   76TMC2    C4 1181   2.381   0.346  12.206 -0.2935  0.0448  0.2546
   76TMC2    C5 1182   2.317   0.249  12.280 -0.1018  0.3984 -0.1658
   76TMC2    C6 1183   2.183   0.246  12.312  0.0541  0.1741 -0.2686
   76TMC2     C 1184   2.337   0.558  12.093  0.2794 -1.0071 -0.4274
   76TMC2     O 1185   2.268   0.654  12.075  0.1478  0.5618 -0.2359
   76TMC2     H 1186   2.099   0.536  12.188 -1.0161 -0.0742  1.3481
   76TMC2    H1 1187   2.482   0.341  12.168 -0.7126 -0.5350 -0.7979
   76TMC2    H2 1188   2.138   0.168  12.372 -3.3354  1.9577 -0.5051
   76TMC2    C7 1189   2.386   0.126  12.292  0.2894 -0.3243  0.1349
   76TMC2    C8 1190   1.980   0.367  12.326  0.1517 -0.3140  0.7474
   76TMC2    O1 1191   2.330   0.031  12.247 -0.0847 -0.1697  0.1744
   76TMC2    O2 1192   1.949   0.482  12.366 -0.4248 -0.1048 -0.0805
   76TMC2    O5 1193   1.907   0.292  12.237  0.3471 -0.4608  0.2232
   76TMC2    H5 1194   1.944   0.207  12.206  0.2833 -0.5948  0.5184
   77MPD2     C 1195   2.650   0.744  11.729 -0.1935  0.3860  0.7748
   77MPD2    C1 1196   2.562   0.808  11.810  0.2216 -0.1447  0.7493
   77MPD2    C2 1197   2.503   0.742  11.915 -0.6963  0.4147 -0.2740
   77MPD2    C3 1198   2.515   0.603  11.925 -0.1461  0.4206  0.4305
   77MPD2    C4 1199   2.608   0.538  11.845  0.7411  0.3092  0.4564
   77MPD2    C5 1200   2.679   0.611  11.750  0.1779 -0.9295 -0.3941
   77MPD2     H 1201   2.442   0.797  11.986 -1.2621 -0.7515  0.1390
   77MPD2    H1 1202   2.608   0.430  11.844  1.1226  0.3194 -0.3807
   77MPD2    H2 1203   2.698   0.793  11.645 -0.5734 -0.6138 -0.0240
   77MPD2    H3 1204   2.747   0.549  11.693  0.3738  0.2319 -1.4334
   77MPD2     N 1205   2.446   0.523  12.016 -0.2555 -0.0704  0.1957
   77MPD2    H5 1206   2.469   0.426  11.997  1.0886  0.1262  0.8194
   77MPD2    N1 1207   2.530   0.939  11.795  0.0870  0.4056 -0.3157
   77MPD2    H7 1208   2.455   0.964  11.858  0.2143 -0.0840  0.0298
   78TMC2    C1 1209   4.138   4.043   1.794  0.1776 -0.2826 -0.2362
   78TMC2    C2 1210   4.008   4.071   1.764  0.0212  0.3337  0.2901
   78TMC2    C3 1211   3.963   4.200   1.752 -0.0039 -0.0425 -0.1417
   78TMC2    C4 1212   4.224   4.143   1.820 -0.0321 -0.5137 -0.0640
   78TMC2    C5 1213   4.182   4.272   1.808 -0.4620 -0.8224  0.7238
   78TMC2    C6 1214   4.057   4.307   1.769  0.0307 -0.2893 -0.6591
   78TMC2     C 1215   4.182   3.908   1.771  0.7693 -0.0655  0.4328
   78TMC2     O 1216   4.300   3.902   1.729 -0.3044 -0.1626  0.1957
   78TMC2     H 1217   3.938   3.992   1.740  3.0118 -2.0991 -0.5220
   78TMC2    H1 1218   4.328   4.112   1.815  0.3837  0.7403  0.8851
   78TMC2    H2 1219   4.033   4.412   1.753 -0.4267 -0.2979 -0.0220
   78TMC2    C7 1220   4.284   4.375   1.820  0.9879  0.6096 -0.3385
   78TMC2    C8 1221   3.819   4.211   1.773 -0.3394  0.6002 -0.6621
   78TMC2    O1 1222   4.254   4.479   1.762 -0.4139  0.0668  0.0522
   78TMC2    O2 1223   3.737   4.123   1.749 -0.4206  0.4765  0.7861
   78TMC2    O5 1224   3.786   4.345   1.776 -0.2378  0.2088 -0.0845
   78TMC2    H5 1225   3.853   4.391   1.831 -1.0264  1.3279 -0.0706
   79MPD1     C 1226   4.155   3.392   1.752 -0.6702  0.1742 -0.2738
   79MPD1    C1 1227   4.262   3.480   1.723  0.2710  0.2464 -0.0985
   79MPD1    C2 1228   4.243   3.615   1.741 -0.1376  0.2050  0.3643
   79MPD1    C3 1229   4.114   3.663   1.775  0.0808  0.4191  0.0113
   79MPD1    C4 1230   4.014   3.572   1.804  0.1764  0.2254 -0.7057
   79MPD1    C5 1231   4.030   3.437   1.784  0.1182  0.3176  0.1351
   79MPD1     H 1232   4.324   3.686   1.732 -1.3668  1.6664  0.7315
   79MPD1    H1 1233   3.914   3.611   1.819  0.5420  0.7178  0.4077
   79MPD1    H2 1234   4.169   3.285   1.740 -2.3839  0.0592 -1.2516
   79MPD1    H3 1235   3.949   3.368   1.801  0.4612  0.6606  3.1172
   79MPD1     N 1236   4.097   3.800   1.794 -0.0482  0.1087 -0.4740
   79MPD1    H5 1237   4.009   3.825   1.837  0.4453  0.6871  0.1948
   79MPD1    N1 1238   4.393   3.434   1.705 -0.3847 -0.1970 -0.2216
   79MPD1    H6 1239   4.457   3.500   1.663 -1.0096  0.1430 -0.6510
   79MPD1    H7 1240   4.398   3.341   1.664 -1.2263  0.7327 -2.4126
   80TMC2    C1 1241   4.685   3.834  12.026 -0.3606  0.2151  0.2758
   80TMC2    C2 1242   4.572   3.769  11.993  0.3030  0.0090 -0.3991
   80TMC2    C3 1243   4.497   3.739  12.098 -0.1340 -0.1727  0.2146
   80TMC2    C4 1244   4.725   3.861  12.153 -0.6879  0.2053  0.4684
   80TMC2    C5 1245   4.638   3.833  12.260 -0.5552 -0.1098 -0.2547
   80TMC2    C6 1246   4.525   3.768  12.228 -1.0042 -0.9369  0.7564
   80TMC2     C 1247   0.050   3.847  11.927  0.6309  0.0426  0.0158
   80TMC2     O 1248   0.076   3.751  11.852  0.3347  0.1549  0.3587
   80TMC2     H 1249   4.554   3.740  11.890  1.4044  0.8792 -0.8254
   80TMC2    H1 1250   0.084   3.900  12.166 -0.6471 -0.1670  1.2752
   80TMC2    H2 1251   4.467   3.720  12.306 -1.6690  0.8526  1.3652
   80TMC2    C7 1252   4.685   3.842  12.400 -0.5659 -0.2936  0.2958
   80TMC2    C8 1253   4.380   3.655  12.081  0.1064 -0.3861 -0.2958
   80TMC2    O1 1254   4.605   3.817  12.491 -0.2241  0.1911 -0.3897
   80TMC2    O2 1255   4.347   3.584  12.174  0.0429 -0.1498 -0.1070
   80TMC2    O5 1256   4.358   3.632  11.950  0.3989  0.0592  0.1951
   80TMC2    H5 1257   4.399   3.703  11.897  0.4914  0.3116  0.5999
   81MPD2     C 1258   0.232   3.971  11.729 -0.0756 -0.8589 -0.3718
   81MPD2    C1 1259   0.176   4.038  11.832  0.3254 -0.1876  0.3991
   81MPD2    C2 1260   0.198   4.173  11.837  0.2237  0.3872 -0.0093
   81MPD2    C3 1261   0.257   4.239  11.731  0.7151  0.0402 -0.7793
   81MPD2    C4 1262   0.307   4.171  11.622 -0.5244 -0.1831 -0.1664
   81MPD2    C5 1263   0.299   4.038  11.630 -0.2241  0.6954  0.7135
   81MPD2     H 1264   0.156   4.219  11.925  0.6348  1.5468 -0.4209
   81MPD2    H1 1265   0.351   4.226  11.539  0.2801  0.1298  0.4661
   81MPD2    H2 1266   0.233   3.863  11.719  0.2614 -1.0688  1.8620
   81MPD2    H3 1267   0.355   3.984  11.555 -2.4453 -0.8159  0.1431
   81MPD2     N 1268   0.265   4.376  11.729 -0.4852  0.3299  0.1754
   81MPD2    H5 1269   0.303   4.413  11.643  0.7817  0.8180  0.9343
   81MPD2    N1 1270   0.089   3.975  11.927 -0.0542 -0.4037 -0.0445
   81MPD2    H7 1271   0.054   4.035  12.000  4.2611  1.9297  0.1193
   82TMC2    C1 1272   4.026   3.641  11.202 -0.3637  0.5353 -0.3197
   82TMC2    C2 1273   4.124   3.645  11.300 -0.0553  0.5121 -0.8557
   82TMC2    C3 1274   4.113   3.572  11.417 -0.2135  0.2167 -0.0889
   82TMC2    C4 1275   3.930   3.550  11.212 -0.0586 -0.3154  0.7617
   82TMC2    C5 1276   3.925   3.467  11.324 -0.1609 -0.3763 -0.4949
   82TMC2    C6 1277   4.012   3.483  11.432 -0.4054  0.0713  0.4759
   82TMC2     C 1278   4.008   3.744  11.104  0.0750 -0.5680  0.0897
   82TMC2     O 1279   3.904   3.741  11.039 -0.6859 -0.0763  0.1080
   82TMC2     H 1280   4.203   3.719  11.300  0.5918 -0.1751  0.3676
   82TMC2    H1 1281   3.855   3.542  11.134  0.3551  0.1627  0.3134
   82TMC2    H2 1282   4.015   3.397  11.499 -1.2562 -0.4542 -0.1592
   82TMC2    C7 1283   3.842   3.347  11.321 -0.4764  0.2497 -0.6709
   82TMC2    C8 1284   4.228   3.560  11.504 -0.0492 -0.2782 -0.4743
   82TMC2    O1 1285   3.834   3.280  11.422  0.4174  0.8611  1.3679
   82TMC2    O2 1286   4.337   3.615  11.474 -0.6785 -0.4819 -0.2969
   82TMC2    O5 1287   4.211   3.494  11.626  0.0859  0.1894  0.0013
   82TMC2    H5 1288   4.121   3.461  11.645 -1.0653  1.2086 -3.5494
   83MPD2     C 1289   4.183   4.060  10.747 -0.3684 -0.9614 -0.7006
   83MPD2    C1 1290   4.056   4.027  10.787  0.0404 -0.0837  0.6389
   83MPD2    C2 1291   4.041   3.946  10.895  0.2400 -0.3059 -0.1958
   83MPD2    C3 1292   4.149   3.888  10.962 -0.3465  0.6676  0.1668
   83MPD2    C4 1293   4.271   3.915  10.908  0.0072 -0.2416  0.9982
   83MPD2    C5 1294   4.292   3.996  10.803 -0.0441 -0.1415  0.6004
   83MPD2     H 1295   3.945   3.937  10.945  0.0687 -0.1459 -0.5007
   83MPD2    H1 1296   4.356   3.867  10.954 -0.2310 -1.0865  0.5518
   83MPD2    H2 1297   4.197   4.130  10.665 -0.0686 -0.0132  0.1682
   83MPD2    H3 1298   4.392   4.025  10.774  0.3756  0.4167  2.5908
   83MPD2     N 1299   4.134   3.797  11.072  0.0580 -0.6351 -0.1064
   83MPD2    H5 1300   4.222   3.776  11.117 -1.0113 -3.1685  0.8041
   83MPD2    N1 1301   3.946   4.093  10.726  0.0816 -0.4715 -0.2272
   83MPD2    H7 1302   3.962   4.160  10.651  0.4890  1.7909  1.8636
   84TMC2    C1 1303   0.175   3.965  10.442  0.4960  0.4602 -0.0065
   84TMC2    C2 1304   0.196   4.101  10.459 -0.3426  0.2440  0.5524
   84TMC2    C3 1305   0.282   4.166  10.379 -0.1628 -0.5770  0.5007
   84TMC2    C4 1306   0.253   3.897  10.349  0.4593 -0.3177 -0.4729
   84TMC2    C5 1307   0.328   3.970  10.263 -0.9168  0.4542 -0.1614
   84TMC2    C6 1308   0.348   4.108  10.276  0.5035 -0.3391 -0.1848
   84TMC2     C 1309   0.121   3.881  10.542 -0.0890  0.5274  0.7883
   84TMC2     O 1310   0.142   3.761  10.537  0.2762 -0.0249 -0.6351
   84TMC2     H 1311   0.139   4.154  10.535 -0.0434 -0.4492  1.2584
   84TMC2    H1 1312   0.244   3.790  10.342 -1.8756 -0.1052 -0.7919
   84TMC2    H2 1313   0.415   4.165  10.212  1.4259  0.0365  1.1145
   84TMC2    C7 1314   0.415   3.894  10.173  0.2645 -0.4479  0.4050
   84TMC2    C8 1315   0.248   4.306  10.366  0.0713  1.0138  0.0639
   84TMC2    O1 1316   0.517   3.950  10.134  0.1502  0.7306 -0.2304
   84TMC2    O2 1317   0.138   4.356  10.360  0.1235 -0.0185  0.4460
   84TMC2    O5 1318   0.363   4.369  10.347 -0.3703  0.4460 -0.1919
   84TMC2    H5 1319   0.440   4.309  10.359  0.5604  1.4264 -1.3473
   85TMC2    C1 1320   1.230   1.171  15.595 -0.2236  0.1218  0.2567
   85TMC2    C2 1321   1.143   1.275  15.572 -0.5611 -0.3891  0.1751
   85TMC2    C3 1322   1.140   1.318  15.442  0.3282  0.3359 -0.0522
   85TMC2    C4 1323   1.311   1.108  15.505 -0.5482 -1.0344 -0.4973
   85TMC2    C5 1324   1.299   1.166  15.378 -0.1703 -0.1187 -0.1520
   85TMC2    C6 1325   1.220   1.265  15.343 -0.5994  0.5222  0.5271
   85TMC2     C 1326   1.216   1.108  15.724  0.5292 -0.3413  0.2597
   85TMC2     O 1327   1.239   1.192  15.811 -0.0903 -0.2886  0.2717
   85TMC2     H 1328   1.080   1.319  15.648  1.2894 -0.6898  1.8635
   85TMC2    H1 1329   1.379   1.026  15.525  0.3502 -0.9344 -3.0755
   85TMC2    H2 1330   1.208   1.306  15.243 -0.2497 -0.9159 -0.0909
   85TMC2    C7 1331   1.379   1.089  15.277  0.3912 -0.0919 -0.2633
   85TMC2    C8 1332   1.040   1.418  15.398 -0.4883 -0.6904 -0.9214
   85TMC2    O1 1333   1.479   1.032  15.315 -0.0333  0.2219 -0.4433
   85TMC2    O2 1334   1.061   1.502  15.310  0.3571 -0.3588 -0.2303
   85TMC2    O5 1335   0.932   1.403  15.473  0.0473 -0.1022 -0.2239
   85TMC2    H5 1336   0.924   1.318  15.523  1.2265 -0.0364  0.0696
   86MPD2     C 1337   1.145   0.738  16.080  0.0503 -0.4911  0.3288
   86MPD2    C1 1338   1.085   0.698  15.964 -0.7116  0.1846 -0.2873
   86MPD2    C2 1339   1.091   0.787  15.856 -0.1196 -0.2792  0.2097
   86MPD2    C3 1340   1.159   0.912  15.863  0.3905 -0.0389 -0.1486
   86MPD2    C4 1341   1.216   0.945  15.989  0.0022  0.3151 -0.2485
   86MPD2    C5 1342   1.205   0.857  16.088  0.2399  0.3541 -0.1835
   86MPD2     H 1343   1.045   0.752  15.765  0.9465 -1.5109  0.1482
   86MPD2    H1 1344   1.273   1.033  16.017 -0.0434  1.1598 -2.8708
   86MPD2    H2 1345   1.144   0.680  16.172 -0.9127 -2.5119 -0.9681
   86MPD2    H3 1346   1.238   0.888  16.186 -2.8819 -1.2936  1.4149
   86MPD2     N 1347   1.176   0.982  15.741  0.1178  0.0229 -0.6167
   86MPD2    H5 1348   1.158   0.922  15.660 -0.9548  1.7236 -1.6437
   86MPD2    N1 1349   1.007   0.580  15.952 -0.2060  0.3452  0.5550
   86MPD2    H7 1350   0.945   0.567  15.873 -1.1455  2.3828  0.9396
   87TMC2    C1 1351   3.222   3.912   0.564  0.0841 -0.9412 -0.0761
   87TMC2    C2 1352   3.114   3.899   0.476 -0.1092  0.8208 -0.5625
   87TMC2    C3 1353   2.996   3.972   0.509  0.6274 -0.4167  0.3369
   87TMC2    C4 1354   3.215   4.005   0.663  0.0899  0.9318  0.2054
   87TMC2    C5 1355   3.109   4.092   0.668 -0.5206 -0.8556  0.2809
   87TMC2    C6 1356   2.998   4.074   0.597 -0.4895  0.4299  0.1576
   87TMC2     C 1357   3.315   3.799   0.567  0.6102  0.5879  0.2124
   87TMC2     O 1358   3.293   3.709   0.491  0.4139  0.3575  0.0134
   87TMC2     H 1359   3.114   3.821   0.401 -1.0700  0.3066 -0.0329
   87TMC2    H1 1360   3.281   4.000   0.749 -0.1277  0.3184  0.3333
   87TMC2    H2 1361   2.916   4.144   0.610 -2.6634 -1.6237 -2.4661
   87TMC2    C7 1362   3.122   4.223   0.718 -0.7106 -0.4035 -0.3151
   87TMC2    C8 1363   2.905   4.002   0.400 -0.1826 -0.3567 -0.8609
   87TMC2    O1 1364   3.026   4.299   0.722  0.3138 -0.1250  0.0958
   87TMC2    O2 1365   2.799   4.048   0.431  0.2048 -0.5002  0.1345
   87TMC2    O5 1366   2.995   4.066   0.321 -0.4806 -0.8413  0.4568
   87TMC2    H5 1367   3.072   4.010   0.299 -0.2255 -0.9793  1.7417
   88MPD2     C 1368   3.443   4.377   0.808 -0.0278  0.5753 -0.2101
   88MPD2    C1 1369   3.305   4.373   0.783  1.2259 -0.4724  1.0049
   88MPD2    C2 1370   3.223   4.487   0.786 -0.3419  0.3369  0.8281
   88MPD2    C3 1371   3.280   4.608   0.825  0.0472 -0.5823  0.3651
   88MPD2    C4 1372   3.414   4.614   0.858  0.6165  0.1265 -0.1947
   88MPD2    C5 1373   3.488   4.501   0.840 -0.6289 -0.7919 -0.4888
   88MPD2     H 1374   3.115   4.483   0.777 -0.2028 -2.6568  0.3085
   88MPD2    H1 1375   3.461   4.706   0.891 -0.7000 -0.0802  2.2198
   88MPD2    H2 1376   3.508   4.291   0.808 -2.5579 -1.3681  0.7391
   88MPD2    H3 1377   3.593   4.512   0.866 -0.6133 -1.0370 -0.4486
   88MPD2     N 1378   3.214   4.738   0.825  0.3595 -0.4670 -0.4986
   88MPD2    H5 1379   3.283   0.071   0.825 -0.0544 -0.0812 -0.0700
   88MPD2    N1 1380   3.254   4.251   0.746 -0.1810 -0.4648 -0.4980
   88MPD2    H7 1381   3.326   4.184   0.722 -0.4073 -0.5742 -0.8742
   89TMC2    C1 1382   4.616   2.764   1.676 -0.1097 -0.0788  0.0128
   89TMC2    C2 1383   4.543   2.731   1.787  0.2079 -0.6337  0.2479
   89TMC2    C3 1384   4.528   2.828   1.883  0.6724  0.1330 -0.8573
   89TMC2    C4 1385   4.691   2.879   1.669  0.1885 -0.1157  0.0348
   89TMC2    C5 1386   4.681   2.973   1.773 -0.5896 -0.1992  0.2997
   89TMC2    C6 1387   4.597   2.948   1.870  0.4061 -0.1449  0.3651
   89TMC2     C 1388   4.640   2.662   1.575  0.4081 -0.5547  0.7523
   89TMC2     O 1389   4.741   2.676   1.504 -0.4338 -0.2388  0.4689
   89TMC2     H 1390   4.521   2.627   1.812  1.7394 -1.2222 -0.8516
   89TMC2    H1 1391   0.008   2.900   1.580  0.3398  0.8410  0.3612
   89TMC2    H2 1392   4.583   3.019   1.951  2.9417  0.8667 -0.0840
   89TMC2    C7 1393   4.737   3.108   1.769  0.3464 -0.2929 -0.2094
   89TMC2    C8 1394   4.515   2.776   2.012 -0.6272  0.1078  0.7532
   89TMC2    O1 1395   4.716   3.179   1.865 -0.6310  0.3857 -0.5487
   89TMC2    O2 1396   4.615   2.741   2.069 -0.0100  0.6005  0.6271
   89TMC2    O5 1397   4.409   2.695   2.014 -0.2159 -0.7453 -0.1127
   89TMC2    H5 1398   4.335   2.741   1.969 -1.0075 -1.9676 -0.0764
   90MPD2     C 1399   4.444   2.261   1.324  1.0114 -0.2013  0.5763
   90MPD2    C1 1400   4.345   2.327   1.391 -0.1267  0.3041  0.2784
   90MPD2    C2 1401   4.378   2.439   1.459  1.5973  0.1613  0.6844
   90MPD2    C3 1402   4.509   2.483   1.467 -0.1488  0.3671  0.2029
   90MPD2    C4 1403   4.609   2.416   1.403 -0.7494  0.1806  0.0863
   90MPD2    C5 1404   4.574   2.301   1.330 -0.3672  0.4392  0.3534
   90MPD2     H 1405   4.298   2.489   1.510  0.2285 -1.5964  0.2811
   90MPD2    H1 1406   4.711   2.452   1.398 -1.1510  1.3381  0.3116
   90MPD2    H2 1407   4.427   2.171   1.266 -0.1891  0.4380 -0.0639
   90MPD2    H3 1408   4.652   2.241   1.283 -1.1795 -2.0621  2.2349
   90MPD2     N 1409   4.523   2.597   1.548 -0.2024  0.1287 -0.3313
   90MPD2    H5 1410   4.437   2.636   1.585  1.2026  2.9961 -0.0777
   90MPD2    N1 1411   4.207   2.294   1.376 -1.3553 -0.1196 -0.2272
   90MPD2    H7 1412   4.144   2.347   1.434 -3.0870 -0.7758 -1.5133
   91TMC2    C1 1413   1.120   2.040  16.363 -0.4874  0.3313  0.1464
   91TMC2    C2 1414   1.177   2.093  16.478  0.0542  0.7426  0.1000
   91TMC2    C3 1415   1.122   2.053  16.592 -0.7876  0.1603 -0.5100
   91TMC2    C4 1416   1.020   1.941  16.370  0.4123  0.0204 -0.0446
   91TMC2    C5 1417   0.973   1.906  16.492 -0.5027  0.1047  0.1107
   91TMC2    C6 1418   1.026   1.953  16.607 -0.1225 -0.2333 -0.0410
   91TMC2     C 1419   1.151   2.087  16.232 -0.0308 -0.0768  0.1661
   91TMC2     O 1420   1.069   2.067  16.146 -0.1541 -1.1598 -0.4155
   91TMC2     H 1421   1.239   2.182  16.476  0.4007  0.5507  1.8529
   91TMC2    H1 1422   0.996   1.906  16.270  0.4609  1.1497 -0.4621
   91TMC2    H2 1423   0.987   1.913  16.699 -2.8402  0.3988 -0.9155
   91TMC2    C7 1424   0.863   1.818  16.505 -0.1797 -0.6867  0.0414
   91TMC2    C8 1425   1.187   2.104  16.718 -0.5109  0.2491  0.6681
   91TMC2    O1 1426   0.839   1.777  16.618 -0.3053  0.2505  0.4023
   91TMC2    O2 1427   1.138   2.083  16.831 -0.3194  0.1663  0.3519
   91TMC2    O5 1428   1.318   2.120  16.689  0.0763  0.6619  0.4053
   91TMC2    H5 1429   1.348   2.111  16.596  2.5900 -2.1507  1.5068
   92MPD2     C 1430   1.254   2.281  16.028  0.3757  0.4478 -0.2978
   92MPD2    C1 1431   1.330   2.215  16.124  0.2851 -0.5451  0.4784
   92MPD2    C2 1432   1.468   2.220  16.106 -0.3128 -0.3611 -0.2097
   92MPD2    C3 1433   1.530   2.295  16.005  0.3548  0.2561  0.0121
   92MPD2    C4 1434   1.447   2.361  15.923 -0.0178 -0.2573 -0.7583
   92MPD2    C5 1435   1.314   2.352  15.933 -0.0100  0.2589  0.6939
   92MPD2     H 1436   1.526   2.162  16.177  1.7394 -0.9101 -2.3599
   92MPD2    H1 1437   1.477   2.426  15.841  3.5481 -2.0761 -0.8430
   92MPD2    H2 1438   1.146   2.272  16.031  0.4039 -0.3570 -1.7267
   92MPD2    H3 1439   1.253   2.405  15.861  0.3208  0.2476  0.4007
   92MPD2     N 1440   1.668   2.315  16.004  0.1238  0.3088  0.0911
   92MPD2    H5 1441   1.726   2.258  16.065 -1.5939 -0.2099  1.2356
   92MPD2    N1 1442   1.278   2.146  16.233  0.9510 -0.2719  0.4745
   92MPD2    H7 1443   1.339   2.130  16.311 -0.0626  0.5388  1.4363
   93TMC2    C1 1444   3.151   2.225  14.176  0.3959  0.8941 -0.5888
   93TMC2    C2 1445   3.124   2.240  14.310  0.7676  0.0146 -0.8918
   93TMC2    C3 1446   3.230   2.253  14.389  0.5235  0.7985  0.0168
   93TMC2    C4 1447   3.278   2.213  14.131 -0.2439 -0.5312 -0.2410
   93TMC2    C5 1448   3.382   2.217  14.223  0.0891  0.6388 -0.4530
   93TMC2    C6 1449   3.359   2.240  14.354 -0.4028 -0.5128  0.0539
   93TMC2     C 1450   3.050   2.234  14.074  0.7258  0.6927  0.6491
   93TMC2     O 1451   3.085   2.293  13.973 -0.1303  0.3449  0.1786
   93TMC2     H 1452   3.024   2.245  14.350  1.1515  4.5184 -0.5218
   93TMC2    H1 1453   3.300   2.196  14.027  1.3162  0.4010 -0.0676
   93TMC2    H2 1454   3.438   2.227  14.427 -0.3258  0.2470  0.1054
   93TMC2    C7 1455   3.507   2.254  14.155 -0.7957 -0.3386  0.1664
   93TMC2    C8 1456   3.202   2.221  14.529 -1.0518 -0.1954 -0.4892
   93TMC2    O1 1457   3.518   2.239  14.035  0.3150 -0.1269 -0.5407
   93TMC2    O2 1458   3.291   2.245  14.610 -0.0765 -0.2295  0.2629
   93TMC2    O5 1459   3.111   2.118  14.536 -0.5366  0.2448 -0.0600
   93TMC2    H5 1460   3.052   2.102  14.460  1.4187 -0.4255 -1.4444
   94MPD2     C 1461   2.811   2.321  13.909  0.6844  0.0251  0.2707
   94MPD2    C1 1462   2.802   2.239  14.013 -0.2658 -0.6760  0.7708
   94MPD2    C2 1463   2.688   2.158  14.021 -0.6779  0.0467 -0.3266
   94MPD2    C3 1464   2.585   2.178  13.935 -0.5658 -0.6567 -0.6406
   94MPD2    C4 1465   2.595   2.266  13.832 -0.2132  0.0827 -0.2892
   94MPD2    C5 1466   2.710   2.339  13.822  0.0019 -0.7191  0.7463
   94MPD2     H 1467   2.670   2.080  14.093  1.3833  0.3931  0.5551
   94MPD2    H1 1468   2.520   2.269  13.754 -1.0424  0.0851  0.5173
   94MPD2    H2 1469   2.898   2.384  13.893  1.8189 -1.5378  0.2593
   94MPD2    H3 1470   2.733   2.391  13.730 -0.0136  0.1177  1.2096
   94MPD2     N 1471   2.456   2.116  13.939 -0.5527 -0.1571 -0.3492
   94MPD2    H5 1472   2.384   2.148  13.875  1.0369  2.5640 -0.7523
   94MPD2    N1 1473   2.916   2.206  14.099  0.3096  0.2069 -0.1413
   94MPD2    H7 1474   2.899   2.152  14.184 -1.2534  0.4687 -0.3005
   95TMC2    C1 1475   2.944   3.941  16.298 -0.1560  0.4111 -0.8421
   95TMC2    C2 1476   2.951   4.062  16.355 -0.6043  0.6864 -1.0040
   95TMC2    C3 1477   2.924   4.066  16.488  0.0906 -0.0212  0.1133
   95TMC2    C4 1478   2.901   3.830  16.363 -0.2902  0.6285  0.3836
   95TMC2    C5 1479   2.889   3.840  16.504  0.9525 -0.1805 -0.8972
   95TMC2    C6 1480   2.898   3.963  16.564  0.3658  0.6821  0.0702
   95TMC2     C 1481   2.976   3.946  16.155 -0.0612 -0.6777  0.6946
   95TMC2     O 1482   3.046   4.039  16.119  0.2252  0.2220  0.4841
   95TMC2     H 1483   2.948   4.150  16.291 -0.6619 -1.0264 -3.3412
   95TMC2    H1 1484   2.904   3.734  16.313  0.7944  0.9653 -0.2152
   95TMC2    H2 1485   2.903   3.989  16.669  1.1833  1.4801 -0.1685
   95TMC2    C7 1486   2.836   3.727  16.581  0.5959 -0.6839  0.0329
   95TMC2    C8 1487   2.899   4.198  16.547  0.8139  0.1261  0.3800
   95TMC2    O1 1488   2.828   3.621  16.518 -0.1839 -0.0127  0.5261
   95TMC2    O2 1489   2.835   4.219  16.652  0.0845  0.0404 -0.1005
   95TMC2    O5 1490   3.008   4.267  16.504  0.0245  0.3010 -0.3318
   95TMC2    H5 1491   3.038   4.223  16.422 -1.9593 -2.4044  0.3779
   96MPD2     C 1492   3.060   3.728  15.711 -0.4647 -0.4726  0.3895
   96MPD2    C1 1493   3.120   3.830  15.781 -0.0463 -0.1203  0.1200
   96MPD2    C2 1494   3.071   3.880  15.891 -0.5291  0.0764 -0.4636
   96MPD2    C3 1495   2.961   3.813  15.953 -0.1328 -0.6346 -0.2643
   96MPD2    C4 1496   2.912   3.699  15.896  0.3977 -0.0298 -0.2147
   96MPD2    C5 1497   2.961   3.649  15.772 -0.4976 -0.0957  0.1875
   96MPD2     H 1498   3.112   3.976  15.917 -2.4075  0.0900  2.3952
   96MPD2    H1 1499   2.831   3.646  15.945  2.0145 -1.6555  0.6870
   96MPD2    H2 1500   3.097   3.682  15.620 -0.9691 -2.5703  1.2568
   96MPD2    H3 1501   2.915   3.563  15.725 -0.9877 -0.2934  1.0377
   96MPD2     N 1502   2.915   3.847  16.082 -0.3184  0.1721 -0.1916
   96MPD2    H5 1503   2.848   3.790  16.134 -1.1013  1.8204  0.5979
   96MPD2    N1 1504   3.231   3.880  15.713  0.4998 -0.5044  0.7230
   96MPD2    H7 1505   3.255   3.837  15.624 -0.2886  1.3141 -0.3571
   97TMC2    C1 1506   0.798   1.429   0.253  0.2325 -0.0851 -0.3297
   97TMC2    C2 1507   0.912   1.351   0.228 -0.0943 -0.3502  0.1654
   97TMC2    C3 1508   1.031   1.419   0.210 -0.2314 -0.6632  0.0484
   97TMC2    C4 1509   0.801   1.561   0.247 -0.5760 -0.4299  0.6891
   97TMC2    C5 1510   0.923   1.618   0.220  0.1815 -0.3986 -0.5576
   97TMC2    C6 1511   1.040   1.553   0.200  0.3743 -1.3462  0.4117
   97TMC2     C 1512   0.683   1.356   0.316  0.0972 -0.0755 -0.1093
   97TMC2     O 1513   0.592   1.425   0.351  0.0901  0.0456  0.5951
   97TMC2     H 1514   0.905   1.243   0.216  1.3705 -0.3233 -0.8482
   97TMC2    H1 1515   0.719   1.625   0.278 -1.2005 -0.0366 -1.8136
   97TMC2    H2 1516   1.133   1.608   0.188 -0.5937  0.4886  1.3273
   97TMC2    C7 1517   0.923   1.766   0.189 -0.5641  0.7214 -0.6299
   97TMC2    C8 1518   1.142   1.339   0.171 -0.1203  1.0882 -0.1610
   97TMC2    O1 1519   1.028   1.819   0.222  0.0062  0.0027  0.1065
   97TMC2    O2 1520   1.146   1.221   0.198  0.5238 -0.4639 -0.0838
   97TMC2    O5 1521   1.197   1.397   0.064  0.3228 -0.4759  0.0821
   97TMC2    H5 1522   1.154   1.483   0.045 -1.1388 -0.7291  2.2734
   98MPD2     C 1523   0.415   0.982   0.523  0.0555  0.6608  0.0351
   98MPD2    C1 1524   0.386   1.113   0.510  0.1634  0.3099 -0.3096
   98MPD2    C2 1525   0.482   1.192   0.444  0.3833 -0.1576 -0.4634
   98MPD2    C3 1526   0.606   1.144   0.405 -0.1827 -0.1176 -0.5808
   98MPD2    C4 1527   0.633   1.017   0.424  0.5759  0.4465  0.2003
   98MPD2    C5 1528   0.543   0.937   0.484  0.1517  0.3077  0.3545
   98MPD2     H 1529   0.458   1.297   0.439 -3.2990 -0.8527  2.4916
   98MPD2    H1 1530   0.730   0.973   0.403 -0.2631 -2.0466  1.5653
   98MPD2    H2 1531   0.344   0.912   0.564  1.7934 -1.9413 -1.4426
   98MPD2    H3 1532   0.573   0.833   0.491  1.8256  0.6697 -1.4213
   98MPD2     N 1533   0.701   1.226   0.337  0.2609 -1.4516 -0.0364
   98MPD2    H5 1534   0.789   1.193   0.297  0.9694 -1.0005  1.1530
   98MPD2    N1 1535   0.256   1.166   0.547  0.3564 -0.5227 -0.0730
   98MPD2    H7 1536   0.186   1.103   0.585 -1.0970 -0.1480 -2.1564
   99TMC2    C1 1537   4.499   4.105   1.510 -0.5997 -0.4306  0.1333
   99TMC2    C2 1538   4.584   4.210   1.495  0.0283 -0.0457  0.3327
   99TMC2    C3 1539   4.536   4.340   1.480 -0.0235 -0.3721 -0.1724
   99TMC2    C4 1540   4.369   4.126   1.493 -0.1241  0.5326 -0.1001
   99TMC2    C5 1541   4.318   4.250   1.480  0.1386  0.2941 -0.1204
   99TMC2    C6 1542   4.398   4.366   1.474  0.0827  0.2716 -0.2392
   99TMC2     C 1543   4.555   3.971   1.535 -0.5795  0.7014 -0.1067
   99TMC2     O 1544   4.672   3.962   1.581 -0.2898 -0.0364 -0.2633
   99TMC2     H 1545   4.690   4.190   1.504  0.1547 -0.1080 -1.3161
   99TMC2    H1 1546   4.298   4.046   1.512 -0.3228  0.5868 -0.6321
   99TMC2    H2 1547   4.373   4.471   1.469 -1.1364  0.0442  0.9074
   99TMC2    C7 1548   4.181   4.273   1.446  0.5052 -0.0948  0.2661
   99TMC2    C8 1549   4.617   4.440   1.423  0.0401 -0.4281 -0.0810
   99TMC2    O1 1550   4.139   4.389   1.459  0.1063 -0.2387  0.1386
   99TMC2    O2 1551   4.568   4.521   1.350  0.3127 -0.3199  0.3240
   99TMC2    O5 1552   0.004   4.432   1.468  0.2376  0.1739  0.2594
   99TMC2    H5 1553   0.029   4.368   1.538 -0.2715  1.3849  1.5434
  100MPD2     C 1554   4.636   3.675   1.537  0.0418  0.5485 -0.9679
  100MPD2    C1 1555   4.537   3.733   1.453  0.1654 -0.3615  0.2651
  100MPD2    C2 1556   4.468   3.656   1.367  0.0878 -0.2072  0.4259
  100MPD2    C3 1557   4.508   3.526   1.351  0.3198 -0.0938 -0.5727
  100MPD2    C4 1558   4.609   3.466   1.422 -0.4135  0.4939 -0.4975
  100MPD2    C5 1559   4.676   3.543   1.513  0.2735 -0.1524  0.4030
  100MPD2     H 1560   4.383   3.693   1.311 -0.6277 -0.3930  1.3872
  100MPD2    H1 1561   4.649   3.366   1.408 -0.0292  0.6875 -0.7752
  100MPD2    H2 1562   4.693   3.738   1.604 -1.9802 -0.1711  1.4264
  100MPD2    H3 1563   0.017   3.495   1.566 -0.4299 -2.2881 -0.4607
  100MPD2     N 1564   4.434   3.447   1.255 -0.2390  0.0977  0.5823
  100MPD2    H5 1565   4.360   3.496   1.206  0.7395  1.3337  0.3457
  100MPD2    N1 1566   4.492   3.870   1.465  0.4763  0.1341 -0.3835
  100MPD2    H7 1567   4.405   3.901   1.423  0.2346 -1.1666 -0.8687
  101TMC2    C1 1568   4.706   4.452  12.799 -0.5883  0.3402  0.0447
  101TMC2    C2 1569   4.665   4.350  12.709  0.2997 -0.2102  0.0371
  101TMC2    C3 1570   4.721   4.349  12.583  0.5205 -0.7874  0.2099
  101TMC2    C4 1571   0.059   4.550  12.765  0.2870 -0.3638  0.4169
  101TMC2    C5 1572   0.091   4.554  12.631  0.7536  0.2273 -0.6900
  101TMC2    C6 1573   0.063   4.453  12.542 -0.3814  0.0247 -0.0298
  101TMC2     C 1574   4.659   4.432  12.934 -0.4536  0.4074 -0.1303
  101TMC2     O 1575   4.589   4.335  12.966 -0.0482 -0.2022  0.4861
  101TMC2     H 1576   4.591   4.275  12.734 -0.0574  0.3660  0.7271
  101TMC2    H1 1577   0.077   4.647  12.811 -1.5743  0.0824  0.1921
  101TMC2    H2 1578   0.104   4.443  12.443 -2.2226 -0.5225 -0.7462
  101TMC2    C7 1579   0.192   4.642  12.580  0.5210 -0.2754 -0.2069
  101TMC2    C8 1580   4.686   4.245  12.492  0.1870  0.3201  0.6483
  101TMC2    O1 1581   0.182   4.673  12.463 -0.6094 -0.2695 -0.3702
  101TMC2    O2 1582   4.707   4.251  12.371 -0.0243  0.0603 -0.2484
  101TMC2    O5 1583   4.650   4.130  12.552 -0.5314 -0.4909 -0.0238
  101TMC2    H5 1584   4.672   4.116  12.646 -2.4317 -0.0999  0.4688
  102MPD2     C 1585   4.731   4.651  13.219 -0.2580  0.0860 -0.2242
  102MPD2    C1 1586   4.663   4.562  13.142  0.1542  0.1957  0.2640
  102MPD2    C2 1587   4.545   4.504  13.201 -0.5895 -0.0005  0.3708
  102MPD2    C3 1588   4.485   4.557  13.312 -0.3574  0.0079 -0.1728
  102MPD2    C4 1589   4.551   4.658  13.377  0.6521  0.9121 -0.4416
  102MPD2    C5 1590   4.679   4.694  13.337 -0.1478 -0.1644  0.3744
  102MPD2     H 1591   4.481   4.434  13.148  0.3420 -0.1426 -0.5748
  102MPD2    H1 1592   4.504   4.698  13.466 -2.8901  1.6833 -2.6769
  102MPD2    H2 1593   0.085   4.700  13.200 -0.2967  0.1494 -0.2539
  102MPD2    H3 1594   4.724   0.032  13.396 -0.4443 -1.3107  2.1016
  102MPD2     N 1595   4.353   4.508  13.340  0.9372 -0.5148  0.2431
  102MPD2    H5 1596   4.325   4.431  13.280 -1.6137  0.3709  0.3192
  102MPD2    N1 1597   4.704   4.538  13.012  0.6404  0.0786  0.6824
  102MPD2    H7 1598   0.040   4.593  12.975 -1.6690  2.7715 -0.1376
  103TMC2    C1 1599   2.982   0.063  12.783 -0.1991 -0.0637  0.5348
  103TMC2    C2 1600   3.075   4.703  12.786  0.8081 -0.4634  0.0576
  103TMC2    C3 1601   3.158   4.696  12.895 -0.2274  0.3161 -0.1118
  103TMC2    C4 1602   2.968   0.150  12.883  1.2791  0.6913 -0.4475
  103TMC2    C5 1603   3.041   0.129  12.995  0.6555  0.0551  0.6405
  103TMC2    C6 1604   3.128   0.027  13.005 -0.9847 -0.1173  0.2627
  103TMC2     C 1605   2.877   0.066  12.681 -0.1517  0.2095 -0.0416
  103TMC2     O 1606   2.770   0.122  12.716  0.0738  0.0877 -0.5264
  103TMC2     H 1607   3.089   4.631  12.706  1.6766 -1.0259  0.7118
  103TMC2    H1 1608   2.899   0.233  12.887  0.3132 -0.1101 -0.5086
  103TMC2    H2 1609   3.182   0.016  13.098 -1.4567  0.4826  0.6088
  103TMC2    C7 1610   3.010   0.212  13.112 -0.3622 -0.4711  0.0722
  103TMC2    C8 1611   3.256   4.590  12.907  0.9843 -0.0941  0.1305
  103TMC2    O1 1612   3.021   0.158  13.218 -0.0126 -0.0109  0.0713
  103TMC2    O2 1613   3.246   4.482  12.848 -0.6790  0.1679  0.0226
  103TMC2    O5 1614   3.363   4.629  12.977  0.3289 -0.0906  0.4442
  103TMC2    H5 1615   3.353   4.711  13.029  1.0858 -0.9594  1.9842
  104MPD2     C 1616   2.802   4.592  12.395 -0.0810  0.0678  0.4885
  104MPD2    C1 1617   2.807   4.709  12.471 -0.1179  0.3524  0.0985
  104MPD2    C2 1618   2.713   0.060  12.446 -0.4265 -0.3535  0.3386
  104MPD2    C3 1619   2.607   0.041  12.365 -0.3389 -0.0110 -0.3868
  104MPD2    C4 1620   2.597   4.657  12.299 -0.2515  0.3183  0.3644
  104MPD2    C5 1621   2.701   4.568  12.306  0.0351 -0.6992 -0.0232
  104MPD2     H 1622   2.726   0.159  12.487  0.6674  0.2137 -1.3718
  104MPD2    H1 1623   2.516   4.627  12.234  0.3273 -1.1439  0.3263
  104MPD2    H2 1624   2.868   4.508  12.413 -0.3078 -0.3440 -0.6476
  104MPD2    H3 1625   2.696   4.475  12.251  0.2782  0.0997 -1.3799
  104MPD2     N 1626   2.505   0.140  12.359  0.2950  0.1712 -0.4746
  104MPD2    H5 1627   2.526   0.231  12.400 -0.1179 -1.3252  3.0207
  104MPD2    N1 1628   2.905   4.728  12.570 -0.7755 -0.2002  0.0564
  104MPD2    H7 1629   2.996   4.685  12.560 -0.4893  0.3469  0.3119
  105TMC2    C1 1630   3.959   3.259   0.263 -0.5752  0.9607 -0.2412
  105TMC2    C2 1631   3.853   3.253   0.173  1.0212 -0.0008  0.0462
  105TMC2    C3 1632   3.721   3.249   0.223 -0.0698  0.4690  0.2876
  105TMC2    C4 1633   3.940   3.255   0.398  0.0254 -0.2841  0.1946
  105TMC2    C5 1634   3.815   3.258   0.449  0.5588 -0.8254  0.7641
  105TMC2    C6 1635   3.702   3.262   0.363  0.2070 -0.2846 -0.1380
  105TMC2     C 1636   4.074   3.339   0.237 -0.1414  0.1608  0.0762
  105TMC2     O 1637   4.169   3.322   0.313  0.0524  0.1507 -0.5606
  105TMC2     H 1638   3.867   3.264   0.066 -1.5974 -1.0635 -0.4195
  105TMC2    H1 1639   4.022   3.270   0.467  0.7446 -0.7357 -0.5607
  105TMC2    H2 1640   3.604   3.243   0.405  0.1064  2.7574  1.0606
  105TMC2    C7 1641   3.803   3.340   0.572 -0.3363 -0.3901  0.9968
  105TMC2    C8 1642   3.612   3.242   0.128  0.3792 -0.5501  0.1999
  105TMC2    O1 1643   3.892   3.332   0.655  0.0812 -0.7124  0.4003
  105TMC2    O2 1644   3.624   3.181   0.024 -0.1332 -0.5632  0.0082
  105TMC2    O5 1645   3.498   3.305   0.174  0.5445 -0.1986 -0.4562
  105TMC2    H5 1646   3.525   3.372   0.241  1.0681 -0.8700  0.0128
  106MPD2     C 1647   4.393   3.571  17.679  0.2846 -1.1313 -0.9088
  106MPD2    C1 1648   4.269   3.595  17.620  0.4308  0.4856  1.2360
  106MPD2    C2 1649   4.159   3.542  17.686 -0.1543 -0.5400 -0.1914
  106MPD2    C3 1650   4.179   3.464   0.041  0.2117 -0.2284  0.3067
  106MPD2    C4 1651   4.307   3.440   0.094 -0.4799 -0.0835 -0.1824
  106MPD2    C5 1652   4.409   3.513   0.034 -0.2561 -0.2253 -0.1299
  106MPD2     H 1653   4.060   3.566  17.649 -0.4692  0.3723  1.2284
  106MPD2    H1 1654   4.331   3.360   0.162 -3.3257 -0.8785 -0.0863
  106MPD2    H2 1655   4.487   3.594  17.631  0.4331  1.0317  0.4067
  106MPD2    H3 1656   4.510   3.482   0.060  0.4820  1.9768 -0.3961
  106MPD2     N 1657   4.072   3.403   0.113  0.3162 -0.2298  0.0358
  106MPD2    H5 1658   3.982   3.418   0.070  0.8053 -3.6846 -2.1906
  106MPD2    N1 1659   4.256   3.674  17.506 -0.2099 -0.3987  0.6557
  106MPD2    H7 1660   4.170   3.680  17.452 -0.7077 -1.8767  1.2985
  107TMC2    C1 1661   4.269   4.111  11.445  0.4231  0.4649 -0.1432
  107TMC2    C2 1662   4.296   4.247  11.434  0.0063  0.0027 -0.3058
  107TMC2    C3 1663   4.377   4.290  11.338  0.0230  0.1487 -0.1069
  107TMC2    C4 1664   4.321   4.023  11.357 -0.6798  0.8903  0.6354
  107TMC2    C5 1665   4.418   4.062  11.268 -0.4093 -0.0526  0.3009
  107TMC2    C6 1666   4.434   4.199  11.251  0.8324  0.0390  0.0532
  107TMC2     C 1667   4.227   4.059  11.572  0.8566  0.1337 -0.4585
  107TMC2     O 1668   4.209   3.937  11.575  0.3162  0.6914 -0.7279
  107TMC2     H 1669   4.237   4.319  11.489 -1.7366 -0.9126 -1.0018
  107TMC2    H1 1670   4.301   3.917  11.369  0.3594  0.6510  0.2404
  107TMC2    H2 1671   4.500   4.244  11.178  0.6692 -0.2677 -0.2833
  107TMC2    C7 1672   4.483   3.960  11.186  1.1405  0.0843 -0.3957
  107TMC2    C8 1673   4.367   4.433  11.301 -0.2596 -0.1618 -0.1596
  107TMC2    O1 1674   4.453   3.843  11.207 -0.2690  0.1423 -0.2313
  107TMC2    O2 1675   4.314   4.515  11.375  0.1591 -0.4232 -0.2478
  107TMC2    O5 1676   4.335   4.422  11.176 -0.0895  0.1585  0.3456
  107TMC2    H5 1677   4.349   4.335  11.132 -0.0988  0.2524  0.1586
  108MPD2     C 1678   4.176   4.246  11.876  0.1397 -0.2091  0.4066
  108MPD2    C1 1679   4.164   4.140  11.798 -0.4382  0.2048 -0.5936
  108MPD2    C2 1680   4.109   4.026  11.853 -0.0358 -0.5526  0.1666
  108MPD2    C3 1681   4.084   4.010  11.985 -0.2820 -0.7473  0.6380
  108MPD2    C4 1682   4.118   4.115  12.063 -0.6296  1.2055  0.6754
  108MPD2    C5 1683   4.145   4.237  12.008 -0.0984 -0.0921  0.4891
  108MPD2     H 1684   4.107   3.939  11.788 -0.7723 -0.8808  0.6329
  108MPD2    H1 1685   4.103   4.107  12.171 -1.8767  1.1063  0.4894
  108MPD2    H2 1686   4.211   4.343  11.843  2.4074 -1.9482 -2.3239
  108MPD2    H3 1687   4.166   4.324  12.069 -0.6385 -1.0624  2.0585
  108MPD2     N 1688   4.026   3.902  12.053 -0.0081 -0.4707 -0.5177
  108MPD2    H5 1689   4.019   3.913  12.154  0.9923 -1.2079 -0.3686
  108MPD2    N1 1690   4.204   4.158  11.666  0.0489  0.2308 -0.1879
  108MPD2    H7 1691   4.247   4.246  11.637 -1.4666  1.1158  0.2700
  109TMC2    C1 1692   4.100   0.425   0.640  0.6950 -0.3338  0.2401
  109TMC2    C2 1693   3.996   0.384   0.562  0.4177  0.1060  0.4162
  109TMC2    C3 1694   3.952   0.464   0.458 -0.1481  0.5429 -0.0899
  109TMC2    C4 1695   4.156   0.554   0.623 -0.3389 -0.1254  0.0785
  109TMC2    C5 1696   4.105   0.634   0.521 -0.2809  0.1631  0.6040
  109TMC2    C6 1697   4.005   0.590   0.438  0.6397 -0.5943 -0.0036
  109TMC2     C 1698   4.093   0.379   0.772 -0.1311  0.1323  0.5225
  109TMC2     O 1699   3.985   0.333   0.812  0.0440  0.3302 -0.0793
  109TMC2     H 1700   3.947   0.288   0.569 -2.1216  1.2160 -1.8491
  109TMC2    H1 1701   4.236   0.589   0.687 -1.0511  1.6729 -0.0135
  109TMC2    H2 1702   3.975   0.656   0.357 -0.7798 -1.0773  0.1394
  109TMC2    C7 1703   4.167   0.770   0.503  0.5109 -0.9481  0.7343
  109TMC2    C8 1704   3.828   0.423   0.403  1.2141  0.1887  0.2404
  109TMC2    O1 1705   4.283   0.775   0.549 -0.1980 -0.3721  0.2208
  109TMC2    O2 1706   3.756   0.345   0.457  0.4793 -0.1644  0.2477
  109TMC2    O5 1707   3.817   0.459   0.272 -0.5762  0.4442  0.2099
  109TMC2    H5 1708   3.897   0.504   0.236  1.6029 -3.5732 -0.0002
  110MPD2     C 1709   4.242   0.390   1.256 -0.6514  0.5218 -0.3120
  110MPD2    C1 1710   4.356   0.355   1.183 -0.4057 -0.4561 -0.2864
  110MPD2    C2 1711   4.340   0.343   1.048 -0.4301  0.3394 -0.2579
  110MPD2    C3 1712   4.216   0.357   0.988  0.1947  0.0568 -0.1154
  110MPD2    C4 1713   4.105   0.377   1.066 -0.3318 -0.0222 -0.1569
  110MPD2    C5 1714   4.116   0.393   1.202  0.4010  0.8072 -0.1391
  110MPD2     H 1715   4.418   0.363   0.975 -0.5331 -0.8978 -0.7092
  110MPD2    H1 1716   4.002   0.381   1.031 -0.8512  0.3716  1.4091
  110MPD2    H2 1717   4.248   0.397   1.364 -0.8643 -0.3213 -0.2488
  110MPD2    H3 1718   4.032   0.415   1.267 -1.8050  0.4067 -2.8066
  110MPD2     N 1719   4.210   0.377   0.849 -0.1798 -0.2808  0.1732
  110MPD2    H5 1720   4.298   0.390   0.801 -0.0933  0.2767  0.4808
  110MPD2    N1 1721   4.473   0.322   1.255  0.2886 -0.7444  0.1680
  110MPD2    H7 1722   4.465   0.331   1.355  0.9183 -3.5650  0.4749
  111TMC2    C1 1723   4.492   0.907  11.661 -0.1311 -0.3564 -0.0151
  111TMC2    C2 1724   4.395   0.826  11.704 -0.5455 -1.0891 -0.2689
  111TMC2    C3 1725   4.428   0.697  11.727 -0.1012  0.0215  0.8250
  111TMC2    C4 1726   4.612   0.861  11.617  0.1886  0.1338  0.1290
  111TMC2    C5 1727   4.642   0.729  11.651  0.2931 -0.5160 -0.2958
  111TMC2    C6 1728   4.550   0.643  11.711 -0.3595 -0.8029  0.2123
  111TMC2     C 1729   4.445   1.034  11.599 -0.4944 -0.2993  0.6299
  111TMC2     O 1730   4.522   1.087  11.525  0.4397 -0.2849 -0.0692
  111TMC2     H 1731   4.295   0.858  11.732 -0.5091 -1.7781  0.6489
  111TMC2    H1 1732   4.672   0.932  11.562  0.5506 -0.9993 -0.9440
  111TMC2    H2 1733   4.581   0.541  11.732  1.7028 -0.3873 -0.7894
  111TMC2    C7 1734   0.039   0.691  11.635 -0.2343 -0.4821  0.3807
  111TMC2    C8 1735   4.339   0.626  11.815  0.6104  0.5773  0.0335
  111TMC2    O1 1736   0.058   0.572  11.641 -0.5749 -0.1594 -0.1022
  111TMC2    O2 1737   4.297   0.670  11.920  0.1310  1.4319 -0.3006
  111TMC2    O5 1738   4.307   0.515  11.757  0.0785 -0.2927  0.1322
  111TMC2    H5 1739   4.332   0.505  11.662 -1.7829  1.3189 -0.5172
  112MPD2     C 1740   4.196   1.484  11.640 -0.2907 -0.0411  0.0405
  112MPD2    C1 1741   4.305   1.451  11.559 -0.5402 -0.7062 -0.2296
  112MPD2    C2 1742   4.343   1.316  11.554 -0.4366 -0.2402  0.1425
  112MPD2    C3 1743   4.285   1.219  11.636  0.6631 -0.8776  0.2393
  112MPD2    C4 1744   4.183   1.263  11.721  0.2609  0.3993  0.1601
  112MPD2    C5 1745   4.134   1.393  11.718  0.6143 -1.1190 -0.1824
  112MPD2     H 1746   4.415   1.282  11.480 -2.3883  0.3656 -2.0344
  112MPD2    H1 1747   4.132   1.189  11.781 -0.8565 -0.5804 -2.0148
  112MPD2    H2 1748   4.160   1.586  11.633 -1.3071 -0.3092  1.5441
  112MPD2    H3 1749   4.042   1.419  11.770  0.2823 -0.1613 -1.2572
  112MPD2     N 1750   4.330   1.085  11.657  0.0648 -0.3923 -0.7198
  112MPD2    H5 1751   4.276   1.035  11.726  0.9315  0.9766  0.9599
  112MPD2    N1 1752   4.362   1.529  11.459 -0.2226  0.2716 -0.0867
  112MPD2    H7 1753   4.435   1.492  11.398 -1.0120  0.3085 -1.0475
  113TMC2    C1 1754   2.661   3.420   0.757  0.0249  0.4595 -0.1992
  113TMC2    C2 1755   2.533   3.432   0.735  0.0562  0.2670  0.7486
  113TMC2    C3 1756   2.468   3.319   0.706  0.2883  0.0386  0.1185
  113TMC2    C4 1757   2.725   3.298   0.784  0.4174  0.1158 -0.0424
  113TMC2    C5 1758   2.650   3.184   0.769 -0.0746 -0.7975  0.2025
  113TMC2    C6 1759   2.522   3.198   0.719  0.5871  0.2347 -0.9001
  113TMC2     C 1760   2.738   3.542   0.778  0.2034 -0.0600  0.6496
  113TMC2     O 1761   2.679   3.648   0.787  0.3482  0.1427 -0.0342
  113TMC2     H 1762   2.494   3.528   0.703 -2.6805 -0.3406  2.2989
  113TMC2    H1 1763   2.822   3.289   0.832  1.4568  0.6844 -2.0683
  113TMC2    H2 1764   2.458   3.113   0.695  0.2952 -0.1792  1.3304
  113TMC2    C7 1765   2.707   3.060   0.797  0.5984  0.4294  0.1494
  113TMC2    C8 1766   2.336   3.350   0.652 -0.2560  0.7050 -1.7277
  113TMC2    O1 1767   2.825   3.057   0.822  0.2747  0.4697  0.2063
  113TMC2    O2 1768   2.331   3.446   0.576  0.0846 -0.1454 -0.3109
  113TMC2    O5 1769   2.261   3.236   0.648  0.9898 -0.3154 -0.2288
  113TMC2    H5 1770   2.259   3.168   0.719 -2.2970  0.3064  0.2709
  114MPD2     C 1771   3.188   3.755   0.890  0.4977 -0.4214 -0.3740
  114MPD2    C1 1772   3.064   3.805   0.913 -0.3091  0.7223 -0.1188
  114MPD2    C2 1773   2.961   3.724   0.877 -0.1794  0.3847  0.2132
  114MPD2    C3 1774   2.980   3.608   0.808 -0.4495  0.0990  0.2714
  114MPD2    C4 1775   3.109   3.564   0.776 -0.2940  0.7787 -0.2873
  114MPD2    C5 1776   3.214   3.636   0.825  0.2022  1.0041  0.8099
  114MPD2     H 1777   2.857   3.746   0.895  0.4503  2.8153  0.9597
  114MPD2    H1 1778   3.130   3.476   0.716 -0.1272  1.3973 -1.1318
  114MPD2    H2 1779   3.277   3.811   0.918  0.1160 -0.7303  1.4562
  114MPD2    H3 1780   3.313   3.594   0.812 -0.5849  0.1057 -2.2861
  114MPD2     N 1781   2.877   3.523   0.774  0.6287 -0.1360  0.5067
  114MPD2    H5 1782   2.912   3.430   0.750 -0.0970 -0.2944  0.0655
  114MPD2    N1 1783   3.037   3.935   0.970 -0.6374  0.0959  0.0796
  114MPD2    H7 1784   2.939   3.953   0.990 -1.3317 -1.1726 -2.2090
  115TMC2    C1 1785   4.374   1.193  17.482  0.2487 -0.1335  0.3803
  115TMC2    C2 1786   4.461   1.090  17.488 -0.3722  0.1183 -0.1739
  115TMC2    C3 1787   4.580   1.101  17.559  0.5013 -0.2407  0.2477
  115TMC2    C4 1788   4.407   1.314  17.514 -0.2085  0.1492 -0.0447
  115TMC2    C5 1789   4.540   1.331  17.563  0.0833 -0.4392  0.6170
  115TMC2    C6 1790   4.623   1.227  17.584 -0.3380 -0.0394 -0.3815
  115TMC2     C 1791   4.244   1.161  17.425  0.3982  0.0967 -0.4571
  115TMC2     O 1792   4.211   1.042  17.431  0.7702 -0.0841  0.1545
  115TMC2     H 1793   4.436   1.004  17.427  3.1429 -0.3678 -0.9147
  115TMC2    H1 1794   4.330   1.390  17.525  1.9871  1.9586  2.8564
  115TMC2    H2 1795   4.727   1.244  17.610  0.0979 -1.9941 -0.8975
  115TMC2    C7 1796   4.592   1.461  17.589 -0.1400  0.0272 -0.2916
  115TMC2    C8 1797   4.678   1.002  17.520 -0.2166 -0.8267 -0.2708
  115TMC2    O1 1798   4.669   1.474  17.683 -0.1169  0.0209 -0.2546
  115TMC2    O2 1799   0.039   1.040  17.457  0.0832  0.1717 -0.1252
  115TMC2    O5 1800   4.683   0.919  17.629 -0.2361  0.2866 -0.1651
  115TMC2    H5 1801   4.598   0.894  17.669 -0.8397  2.5612 -0.0497
  116MPD2     C 1802   3.786   1.275  17.231 -0.1154 -0.5641 -0.0068
  116MPD2    C1 1803   3.832   1.161  17.293 -0.6707 -0.3635 -0.0892
  116MPD2    C2 1804   3.963   1.156  17.342  0.1208 -0.3404  0.0582
  116MPD2    C3 1805   4.047   1.265  17.332 -0.5908  0.5530  0.5664
  116MPD2    C4 1806   4.007   1.376  17.261 -0.0339 -0.2738  0.3661
  116MPD2    C5 1807   3.878   1.377  17.220 -0.6595 -0.3689 -0.5867
  116MPD2     H 1808   3.996   1.069  17.397  0.8456  0.6233  1.1420
  116MPD2    H1 1809   4.070   1.459  17.229 -0.9444 -0.0021 -0.7100
  116MPD2    H2 1810   3.687   1.290  17.189  0.5662  3.0191 -0.3513
  116MPD2    H3 1811   3.842   1.466  17.169 -0.6212  0.9760  1.7238
  116MPD2     N 1812   4.178   1.273  17.385 -0.2663  0.4796 -0.3067
  116MPD2    H5 1813   4.217   1.366  17.399  1.3120 -0.7308  3.5240
  116MPD2    N1 1814   3.747   1.052  17.291  0.5629  0.1092  0.3012
  116MPD2    H7 1815   3.651   1.070  17.264  1.0208  2.3300  0.1535
  117TMC2    C1 1816   2.233   2.394  14.046 -0.3606  0.2882  0.4980
  117TMC2    C2 1817   2.287   2.337  14.156  0.1498 -0.0704  0.6183
  117TMC2    C3 1818   2.362   2.418  14.230  0.9271 -0.2264  0.0103
  117TMC2    C4 1819   2.262   2.519  13.997 -0.9211  0.3095  0.2077
  117TMC2    C5 1820   2.338   2.606  14.081  0.2566  0.2145  0.7215
  117TMC2    C6 1821   2.386   2.550  14.199  0.0359 -0.1601 -0.1152
  117TMC2     C 1822   2.133   2.322  13.971  0.3348 -0.1880  0.8869
  117TMC2     O 1823   2.130   2.202  13.989  0.0036 -0.1108  0.1577
  117TMC2     H 1824   2.269   2.234  14.185  0.6066 -0.1175  0.7281
  117TMC2    H1 1825   2.233   2.541  13.895  1.5332  0.9084 -0.3673
  117TMC2    H2 1826   2.440   2.612  14.269  0.0636 -0.9411  0.5595
  117TMC2    C7 1827   2.391   2.726  14.029 -0.6219 -0.6302 -0.2691
  117TMC2    C8 1828   2.356   2.390  14.370 -0.2715  0.0303  1.0224
  117TMC2    O1 1829   2.455   2.788  14.118 -0.0053  0.4647  0.3264
  117TMC2    O2 1830   2.260   2.337  14.419  0.0076  0.0260  0.2518
  117TMC2    O5 1831   2.485   2.410  14.427 -0.2728  0.3508 -0.3095
  117TMC2    H5 1832   2.544   2.449  14.360 -0.8574  3.0723  0.7772
  118MPD2     C 1833   2.307   2.911  13.726  0.9386  0.5222  0.0457
  118MPD2    C1 1834   2.374   2.892  13.847  0.1382  1.0019  0.4142
  118MPD2    C2 1835   2.443   2.990  13.910 -0.0102  0.3850 -0.6459
  118MPD2    C3 1836   2.433   3.118  13.862  0.4511 -0.0140 -0.8570
  118MPD2    C4 1837   2.354   3.139  13.752  0.0135  0.4043 -0.7026
  118MPD2    C5 1838   2.293   3.035  13.676 -0.0758 -0.1789  0.4949
  118MPD2     H 1839   2.512   2.977  13.992  0.1532  1.8832 -0.5411
  118MPD2    H1 1840   2.341   3.233  13.699 -0.8947  0.5262 -0.2727
  118MPD2    H2 1841   2.249   2.834  13.675  0.1160  0.2106  1.4533
  118MPD2    H3 1842   2.229   3.048  13.590 -0.3256 -1.4661  0.4791
  118MPD2     N 1843   2.508   3.225  13.917  0.1986  0.0006 -0.0272
  118MPD2    H5 1844   2.490   3.313  13.869  0.2410 -0.6213 -1.1790
  118MPD2    N1 1845   2.362   2.763  13.898  0.3880  0.2346 -0.5023
  118MPD2    H7 1846   2.311   2.697  13.840  1.7008 -0.7454 -0.5692
  119TMC2    C1 1847   0.322   3.539  13.322  0.4734 -0.0166  0.6087
  119TMC2    C2 1848   0.363   3.529  13.191  0.1132 -0.1010  0.2914
  119TMC2    C3 1849   0.274   3.475  13.104 -1.1011  0.2071  0.3658
  119TMC2    C4 1850   0.191   3.528  13.366 -0.3426  0.2424  0.5487
  119TMC2    C5 1851   0.101   3.488  13.271 -0.0786  0.2784  0.5323
  119TMC2    C6 1852   0.141   3.465  13.140  0.6794  0.1268  0.1800
  119TMC2     C 1853   0.407   3.613  13.415  0.3974 -0.3771  1.1164
  119TMC2     O 1854   0.365   3.618  13.529  0.2800 -0.3080  0.6052
  119TMC2     H 1855   0.467   3.529  13.161 -0.0161  3.6454 -0.1045
  119TMC2    H1 1856   0.165   3.545  13.470 -1.9266 -2.3317  0.5647
  119TMC2    H2 1857   0.065   3.441  13.066 -0.5546 -1.8996  2.1034
  119TMC2    C7 1858   4.706   3.518  13.300 -0.2215  0.1186 -0.3718
  119TMC2    C8 1859   0.307   3.460  12.965  0.5264  0.2079  0.6704
  119TMC2    O1 1860   4.637   3.562  13.212 -0.2064 -0.6085  0.2132
  119TMC2    O2 1861   0.387   3.537  12.913 -0.1943 -0.8957  0.6047
  119TMC2    O5 1862   0.333   3.325  12.981 -0.6872 -0.3478 -0.0704
  119TMC2    H5 1863   0.259   3.263  12.997 -0.3667 -0.5330  0.7389
  120MPD2     C 1864   0.886   3.736  13.563  0.4027  0.1970  0.2431
  120MPD2    C1 1865   0.776   3.728  13.634 -0.3867  0.6694  0.1389
  120MPD2    C2 1866   0.656   3.706  13.573 -0.2104  0.4555 -0.1731
  120MPD2    C3 1867   0.649   3.699  13.434 -0.1681  0.1107  0.7713
  120MPD2    C4 1868   0.764   3.727  13.362 -0.6404 -0.7816  0.0511
  120MPD2    C5 1869   0.881   3.743  13.426  0.5610  0.6386 -0.0713
  120MPD2     H 1870   0.561   3.699  13.625 -1.2099  1.0978 -1.9083
  120MPD2    H1 1871   0.757   3.730  13.254 -0.0397  1.1136  0.0695
  120MPD2    H2 1872   0.985   3.731  13.606 -0.0803  0.7857  1.4174
  120MPD2    H3 1873   0.969   3.747  13.362  1.8571  1.9140  1.8072
  120MPD2     N 1874   0.530   3.650  13.365 -0.6609  0.2175 -0.2037
  120MPD2    H5 1875   0.541   3.637  13.265  0.4994 -1.2047  0.1044
  120MPD2    N1 1876   0.791   3.746  13.776  0.0566  0.6120 -0.1085
  120MPD2    H7 1877   0.874   3.793  13.811  0.7006 -1.0884  0.6031
  121TMC2    C1 1878   1.893   1.042  13.901  0.1347  0.1621 -0.5683
  121TMC2    C2 1879   1.817   0.941  13.956  0.3142  0.8327  0.2582
  121TMC2    C3 1880   1.703   0.901  13.889 -0.2910 -0.3112 -0.1344
  121TMC2    C4 1881   1.849   1.112  13.791 -0.4048  0.3236  0.2852
  121TMC2    C5 1882   1.739   1.061  13.722 -0.2932  0.4932  0.2876
  121TMC2    C6 1883   1.657   0.962  13.770  0.7195 -0.0696 -0.3548
  121TMC2     C 1884   1.997   1.088  13.989 -0.7787 -0.5362  0.3193
  121TMC2     O 1885   1.979   1.083  14.111 -0.1003 -0.1349 -0.7893
  121TMC2     H 1886   1.837   0.892  14.051 -0.7693 -0.3154 -0.1084
  121TMC2    H1 1887   1.897   1.197  13.744  0.0723 -0.1258 -0.0443
  121TMC2    H2 1888   1.577   0.910  13.718  0.5315 -1.7344  1.5954
  121TMC2    C7 1889   1.736   1.096  13.574  0.1227  0.3427  0.3570
  121TMC2    C8 1890   1.643   0.776  13.911 -0.1967  0.8914 -0.3989
  121TMC2    O1 1891   1.841   1.134  13.532 -0.7215  0.7348 -0.0816
  121TMC2    O2 1892   1.528   0.755  13.877  0.1859 -0.4202  0.3657
  121TMC2    O5 1893   1.747   0.686  13.903  0.1637 -0.4583  0.2318
  121TMC2    H5 1894   1.839   0.719  13.914 -0.3738  1.0828  0.1410
  122MPD2     C 1895   2.278   1.159  14.098  0.8505  0.7733  0.6368
  122MPD2    C1 1896   2.234   1.187  13.970 -0.3841  0.1103 -0.0937
  122MPD2    C2 1897   2.319   1.246  13.875  0.1568  0.1932  0.5490
  122MPD2    C3 1898   2.453   1.272  13.917 -0.2085  0.6978  0.8298
  122MPD2    C4 1899   2.499   1.237  14.037  0.3798 -0.1472  0.9747
  122MPD2    C5 1900   2.411   1.179  14.123  0.3079  0.0145 -0.1052
  122MPD2     H 1901   2.274   1.264  13.778 -1.0528  1.0304  1.2675
  122MPD2    H1 1902   2.601   1.256  14.068  1.5395 -0.5893 -2.6125
  122MPD2    H2 1903   2.217   1.111  14.174 -1.7741 -0.6181 -2.3704
  122MPD2    H3 1904   2.461   1.146  14.213 -1.8115 -2.7393  0.0789
  122MPD2     N 1905   2.550   1.351  13.842 -0.0518 -0.2873 -0.1080
  122MPD2    H5 1906   2.642   1.353  13.885 -0.5842 -2.5074  1.1153
  122MPD2    N1 1907   2.096   1.153  13.922 -0.3619  0.7488  0.0155
  122MPD2    H7 1908   2.075   1.165  13.824  1.0710 -1.2231 -0.5330
  123TMC2    C1 1909   1.444   4.024   9.698  0.6679 -0.9427  0.3844
  123TMC2    C2 1910   1.527   4.100   9.617 -0.1872  0.0771 -0.1935
  123TMC2    C3 1911   1.526   4.228   9.637 -0.2321 -0.1025  0.8139
  123TMC2    C4 1912   1.363   4.079   9.796 -0.3738  0.6178  0.2293
  123TMC2    C5 1913   1.362   4.217   9.803 -0.0992  0.2867 -0.0955
  123TMC2    C6 1914   1.441   4.286   9.724  0.1757  0.0184  0.7182
  123TMC2     C 1915   1.411   3.890   9.656  0.9368 -0.1575  0.2038
  123TMC2     O 1916   1.504   3.842   9.591  0.1136  0.1888  0.1812
  123TMC2     H 1917   1.575   4.054   9.532 -0.3228 -0.8425  0.2238
  123TMC2    H1 1918   1.295   4.027   9.861  0.9203  2.3346  2.9580
  123TMC2    H2 1919   1.445   4.394   9.733  0.0851  0.0064  0.9279
  123TMC2    C7 1920   1.228   4.263   9.795 -0.7079  0.9389 -0.3745
  123TMC2    C8 1921   1.646   4.304   9.585  0.6479 -0.7346  0.3495
  123TMC2    O1 1922   1.148   4.172   9.775  0.3684  0.2478  0.0582
  123TMC2    O2 1923   1.643   4.423   9.547 -0.2057  0.0059 -0.2064
  123TMC2    O5 1924   1.748   4.226   9.567  0.6118  0.5840 -1.0451
  123TMC2    H5 1925   1.730   4.133   9.591 -2.0012  1.8627  1.9559
  124MPD2     C 1926   1.062   3.535   9.550  0.1602 -0.0121 -0.1124
  124MPD2    C1 1927   1.000   3.636   9.627  0.0970  0.1821  0.7918
  124MPD2    C2 1928   1.080   3.737   9.672 -0.0914 -0.3560 -0.2713
  124MPD2    C3 1929   1.216   3.740   9.635  0.2525 -0.3825  0.0196
  124MPD2    C4 1930   1.282   3.640   9.565 -0.5980 -0.3118  0.4353
  124MPD2    C5 1931   1.197   3.538   9.522  0.1342 -0.0872  0.8872
  124MPD2     H 1932   1.048   3.821   9.732  2.2365  0.3849 -0.0780
  124MPD2    H1 1933   1.388   3.634   9.540 -0.6377 -0.4821  0.3097
  124MPD2    H2 1934   1.002   3.463   9.497  0.1047  1.9046 -2.6460
  124MPD2    H3 1935   1.242   3.454   9.471  0.3374  1.0851 -0.8492
  124MPD2     N 1936   1.291   3.851   9.687  0.0857 -0.6102 -0.3584
  124MPD2    H5 1937   1.238   3.924   9.733  2.4403  1.1205 -0.4195
  124MPD2    N1 1938   0.862   3.634   9.652 -0.7611  0.1620  0.0147
  124MPD2    H7 1939   0.819   3.545   9.630 -2.8993  0.4250  3.0241
  125TMC2    C1 1940   1.621   2.199   9.501  0.4692 -0.1161  0.2330
  125TMC2    C2 1941   1.529   2.301   9.500 -0.4752 -0.6817  0.1390
  125TMC2    C3 1942   1.503   2.365   9.381 -0.3704  0.7890  0.7130
  125TMC2    C4 1943   1.699   2.155   9.390  0.9253 -0.2700 -0.5077
  125TMC2    C5 1944   1.665   2.221   9.268  0.0085 -0.2599 -0.0877
  125TMC2    C6 1945   1.578   2.324   9.270 -0.6343 -0.8876 -0.4428
  125TMC2     C 1946   1.656   2.148   9.631 -0.2037 -0.0995  0.3293
  125TMC2     O 1947   1.614   2.210   9.730  0.2431 -0.1211 -0.1357
  125TMC2     H 1948   1.467   2.315   9.587 -0.8637  2.5271 -0.6552
  125TMC2    H1 1949   1.773   2.075   9.388  1.8748  0.6066 -0.3783
  125TMC2    H2 1950   1.565   2.377   9.176 -0.0295  0.1980  0.0825
  125TMC2    C7 1951   1.706   2.179   9.135  0.5412  0.3089 -0.5631
  125TMC2    C8 1952   1.454   2.504   9.373 -0.2510  0.3485 -0.0577
  125TMC2    O1 1953   1.639   2.192   9.032  0.4280 -0.0860  0.0122
  125TMC2    O2 1954   1.486   2.594   9.295 -0.3497  0.0216 -0.1568
  125TMC2    O5 1955   1.397   2.536   9.491  0.2710 -0.4098  0.6302
  125TMC2    H5 1956   1.363   2.457   9.538 -1.5277 -0.1962 -0.2980
  126MPD1     C 1957   1.819   1.799   9.977  0.2838  0.2783  0.3636
  126MPD1    C1 1958   1.865   1.760   9.850  0.3243  0.3174 -0.2690
  126MPD1    C2 1959   1.837   1.836   9.738  0.4995 -0.5321  0.2541
  126MPD1    C3 1960   1.764   1.954   9.746  0.1177  0.0204 -0.0364
  126MPD1    C4 1961   1.713   1.983   9.875  0.1295 -0.1032 -0.3112
  126MPD1    C5 1962   1.736   1.910   9.986  0.1528 -0.2573  0.3915
  126MPD1     H 1963   1.878   1.804   9.642  0.2671  1.1033 -0.3886
  126MPD1    H1 1964   1.646   2.066   9.894  0.1800 -0.2426  0.4685
  126MPD1    H2 1965   1.855   1.758  10.070  0.7796  0.5247  0.2849
  126MPD1    H3 1966   1.699   1.946  10.081 -0.2965 -2.8200  1.1659
  126MPD1     N 1967   1.729   2.032   9.626 -0.0595  0.4066 -0.1025
  126MPD1    H5 1968   1.755   2.001   9.533  0.7272  2.5937 -0.6117
  126MPD1    N1 1969   1.924   1.638   9.832 -0.5477 -0.1527  0.3343
  126MPD1    H6 1970   1.996   1.643   9.760  0.6948 -1.8470  1.4628
  126MPD1    H7 1971   1.977   1.607   9.913  0.3838 -1.2800 -0.7010
  127TMC2    C1 1972   2.226   0.329   9.923  0.1152  0.0915 -0.8674
  127TMC2    C2 1973   2.279   0.280  10.040 -0.8480  0.6064 -0.0209
  127TMC2    C3 1974   2.197   0.254  10.144  0.4690 -0.6957 -0.1830
  127TMC2    C4 1975   2.091   0.337   9.903  0.5669  0.6701 -0.3394
  127TMC2    C5 1976   2.015   0.298  10.008  0.4601 -0.0160 -0.6562
  127TMC2    C6 1977   2.064   0.258  10.126 -0.9988  0.6000 -0.3862
  127TMC2     C 1978   2.320   0.372   9.825 -0.5193 -0.9287 -0.0218
  127TMC2     O 1979   2.437   0.352   9.855  0.3866  0.5963  0.4661
  127TMC2     H 1980   2.386   0.289  10.051 -0.5516  0.0648 -2.2804
  127TMC2    H1 1981   2.041   0.389   9.822 -1.5046  0.5571  0.8845
  127TMC2    H2 1982   1.998   0.251  10.211 -1.3239  0.9597 -0.6083
  127TMC2    C7 1983   1.872   0.313   9.988  0.1455 -0.4197 -1.1424
  127TMC2    C8 1984   2.258   0.261  10.270  0.4777 -0.1521  0.0057
  127TMC2    O1 1985   1.837   0.413   9.928  0.3082  0.3060 -0.1233
  127TMC2    O2 1986   2.371   0.214  10.276  0.0254  0.1226  0.1641
  127TMC2    O5 1987   2.220   0.390  10.298 -0.2394 -0.2872  0.0787
  127TMC2    H5 1988   2.123   0.404  10.302  0.1981  2.8834  0.2997
  128MPD2     C 1989   2.287   0.515   9.480 -0.2553 -0.1554  0.0426
  128MPD2    C1 1990   2.343   0.488   9.601 -0.0052  0.6531  0.1320
  128MPD2    C2 1991   2.467   0.544   9.631 -0.6911  0.0153 -0.3175
  128MPD2    C3 1992   2.540   0.607   9.535 -0.1852  0.5944  0.1393
  128MPD2    C4 1993   2.490   0.616   9.408 -0.5514  0.0282  0.3542
  128MPD2    C5 1994   2.370   0.568   9.381 -0.2101 -0.5470  0.4611
  128MPD2     H 1995   2.504   0.535   9.733 -1.4650  1.2589  0.0669
  128MPD2    H1 1996   2.541   0.668   9.328  1.0747 -1.9873  0.0921
  128MPD2    H2 1997   2.186   0.476   9.469  0.4507 -2.0180  0.0580
  128MPD2    H3 1998   2.333   0.584   9.280 -0.6178 -0.0122  0.6973
  128MPD2     N 1999   2.663   0.659   9.572  0.0460 -0.1415 -0.0783
  128MPD2    H5 2000   2.703   0.638   9.663  0.0563  1.8721  0.3830
  128MPD2    N1 2001   2.268   0.413   9.706 -0.1038  0.3738 -0.1079
  128MPD2    H7 2002   2.170   0.392   9.690  0.4949 -1.8115 -0.8683
  129TMC2    C1 2003   1.112   4.156   0.862 -0.1922  0.0832 -0.1069
  129TMC2    C2 2004   1.093   4.027   0.822  0.4560 -0.1515  0.0752
  129TMC2    C3 2005   0.971   3.993   0.782  0.3448 -0.5123  0.2353
  129TMC2    C4 2006   1.012   4.245   0.853 -0.3537  0.0750  0.9385
  129TMC2    C5 2007   0.887   4.206   0.807  0.6898  0.1077  0.0075
  129TMC2    C6 2008   0.865   4.075   0.761 -0.4380 -0.2499 -0.0661
  129TMC2     C 2009   1.243   4.198   0.897  0.2187 -0.3231  0.6399
  129TMC2     O 2010   1.326   4.106   0.907 -0.4752 -0.5368  0.3707
  129TMC2     H 2011   1.176   3.959   0.830 -1.1281 -2.1476 -0.4324
  129TMC2    H1 2012   1.000   4.334   0.914 -0.2170  1.0416 -0.4459
  129TMC2    H2 2013   0.771   4.034   0.728 -0.6716 -0.2942  0.6672
  129TMC2    C7 2014   0.768   4.289   0.828  0.0374 -0.0822  0.0240
  129TMC2    C8 2015   0.948   3.850   0.733 -0.2509 -0.4603 -0.4674
  129TMC2    O1 2016   0.662   4.238   0.837  0.2911  0.2581  0.1060
  129TMC2    O2 2017   0.872   3.816   0.647 -0.0626 -0.0880 -0.0359
  129TMC2    O5 2018   1.041   3.765   0.788 -0.0500  0.4230  0.1137
  129TMC2    H5 2019   1.061   3.805   0.875  0.4837  2.4875 -0.9754
  130MPD2     C 2020   1.503   4.311   0.999 -0.1200  0.6935  0.0521
  130MPD2    C1 2021   1.386   4.383   0.979 -0.6028 -0.7121 -0.3464
  130MPD2    C2 2022   1.395   4.521   0.984 -0.4934  0.5272 -0.0431
  130MPD2    C3 2023   1.516   4.587   1.002 -0.5369 -0.1238  0.4766
  130MPD2    C4 2024   1.633   4.515   1.023 -0.2100 -0.3280 -0.0866
  130MPD2    C5 2025   1.612   4.381   1.030 -0.0953  0.6691  0.1154
  130MPD2     H 2026   1.303   4.576   0.963 -0.7267  0.5311  0.9989
  130MPD2    H1 2027   1.729   4.556   1.053 -0.0755 -1.2831  0.7633
  130MPD2    H2 2028   1.507   4.204   0.981  0.2152  0.7794 -0.3902
  130MPD2    H3 2029   1.702   4.325   1.050  0.0264  1.1238  0.8334
  130MPD2     N 2030   1.506   4.728   0.992 -0.7180 -0.2069 -0.3280
  130MPD2    H5 2031   1.413   0.028   1.001 -0.6211 -0.1450  0.3841
  130MPD2    N1 2032   1.262   4.331   0.934 -0.3172  0.8982 -0.2900
  130MPD2    H7 2033   1.183   4.393   0.919  0.1149  1.4352 -0.3489
  131TMC2    C1 2034   0.702   4.560  10.201  0.6350 -0.3135  0.0860
  131TMC2    C2 2035   0.828   4.617  10.177 -0.3518  0.1622  0.2330
  131TMC2    C3 2036   0.870   4.717  10.259 -0.2518  0.3845 -0.6397
  131TMC2    C4 2037   0.619   4.618  10.292 -0.6565 -0.1220  0.5470
  131TMC2    C5 2038   0.662   4.725  10.364 -0.0847  0.4297 -0.0141
  131TMC2    C6 2039   0.786   0.042  10.342  0.2958 -0.0676 -0.2711
  131TMC2     C 2040   0.648   4.448  10.123  0.8584 -0.9467 -0.8179
  131TMC2     O 2041   0.733   4.372  10.073  0.0344  0.0607 -0.0949
  131TMC2     H 2042   0.891   4.574  10.100 -0.6783 -2.7567  1.6168
  131TMC2    H1 2043   0.535   4.558  10.327 -1.0904  1.0223  1.4896
  131TMC2    H2 2044   0.824   0.119  10.408  0.0166 -0.7522  0.6970
  131TMC2    C7 2045   0.551   0.067  10.405 -0.0841  0.2303 -0.0802
  131TMC2    C8 2046   1.002   0.030  10.251 -0.9971 -0.2578 -0.2366
  131TMC2    O1 2047   0.443   0.010  10.397  0.1015  0.0315  0.1289
  131TMC2    O2 2048   1.029   0.146  10.287 -0.7037 -0.1967  0.3413
  131TMC2    O5 2049   1.086   4.693  10.180  0.8797 -0.4508  0.2494
  131TMC2    H5 2050   1.058   4.600  10.178  2.7922 -1.0245 -0.0678
  132MPD2     C 2051   0.311   4.417   9.992 -0.0114  0.3338  0.0834
  132MPD2    C1 2052   0.435   4.377  10.016  0.1533 -0.2212 -0.0778
  132MPD2    C2 2053   0.485   4.260   9.965  0.6974  1.5918  0.3114
  132MPD2    C3 2054   0.399   4.180   9.891  0.7208 -0.1886  0.7340
  132MPD2    C4 2055   0.271   4.226   9.860 -0.1376 -0.5364  0.3051
  132MPD2    C5 2056   0.229   4.342   9.917 -0.7059  0.4310  0.3215
  132MPD2     H 2057   0.586   4.222   9.977  0.7842  2.2439  1.6507
  132MPD2    H1 2058   0.210   4.182   9.782 -1.2092  2.4853 -0.5354
  132MPD2    H2 2059   0.267   4.508  10.031 -1.0913 -0.8646  1.6588
  132MPD2    H3 2060   0.138   4.387   9.879  0.6396  0.7161 -2.5067
  132MPD2     N 2061   0.443   4.051   9.851 -0.5675 -0.5865  0.1197
  132MPD2    H5 2062   0.529   4.014   9.891  1.3202  2.0622 -1.4528
  132MPD2    N1 2063   0.515   4.461  10.099  0.1168  0.6534 -0.6371
  132MPD2    H7 2064   0.482   4.547  10.142 -0.7256 -0.6241  1.2656
  133TMC2    C1 2065   4.642   1.273   9.494  0.3508 -0.0745  0.1109
  133TMC2    C2 2066   4.733   1.178   9.457  0.2297 -0.0011  0.5280
  133TMC2    C3 2067   0.121   1.211   9.495 -0.0314 -0.3218  0.7560
  133TMC2    C4 2068   4.673   1.394   9.559  0.1627 -0.5753 -0.1459
  133TMC2    C5 2069   0.064   1.415   9.589  0.1957 -0.2327 -0.3426
  133TMC2    C6 2070   0.161   1.318   9.561 -0.3087 -0.3066  0.4577
  133TMC2     C 2071   4.506   1.238   9.466  0.3729 -0.2175 -0.3640
  133TMC2     O 2072   4.489   1.119   9.463 -0.2119 -0.0449  0.1786
  133TMC2     H 2073   4.713   1.084   9.406 -0.3786 -0.3759  1.4566
  133TMC2    H1 2074   4.595   1.463   9.590 -1.3451 -2.6236  0.6050
  133TMC2    H2 2075   0.262   1.355   9.576 -0.0854 -1.2713  1.3183
  133TMC2    C7 2076   0.098   1.534   9.663  0.1950 -0.4877  0.9212
  133TMC2    C8 2077   0.227   1.124   9.450 -0.1281  0.0721  0.3145
  133TMC2    O1 2078   0.040   1.642   9.649 -0.1132 -0.4636 -0.0349
  133TMC2    O2 2079   0.211   1.039   9.366 -0.6143 -0.2474  0.5315
  133TMC2    O5 2080   0.326   1.127   9.536 -0.1383 -0.3744 -0.2024
  133TMC2    H5 2081   0.317   1.180   9.618  0.5151 -0.1419 -0.2737
  134MPD2     C 2082   4.199   1.437   9.394  0.6479 -0.1888 -0.1851
  134MPD2    C1 2083   4.277   1.328   9.407  0.4014 -0.0615  0.2523
  134MPD2    C2 2084   4.210   1.203   9.388 -0.3398 -0.1493 -0.0475
  134MPD2    C3 2085   4.075   1.197   9.362 -0.5690  0.1456  0.1083
  134MPD2    C4 2086   3.995   1.310   9.354  0.0772  0.0839 -0.1888
  134MPD2    C5 2087   4.064   1.428   9.369 -0.7663 -0.6139  0.1389
  134MPD2     H 2088   4.271   1.114   9.383 -0.2213 -0.1649  1.6531
  134MPD2    H1 2089   3.889   1.309   9.331 -0.0457 -0.4753  0.4007
  134MPD2    H2 2090   4.245   1.534   9.410 -0.0045  0.4557 -2.1504
  134MPD2    H3 2091   4.007   1.520   9.373  0.9057  0.3310  2.4286
  134MPD2     N 2092   4.009   1.081   9.327 -0.2841 -0.5975  0.8115
  134MPD2    H5 2093   3.915   1.097   9.294  1.0194 -0.9763 -3.0733
  134MPD2    N1 2094   4.417   1.346   9.439  0.2389 -0.0616 -0.6676
  134MPD2    H7 2095   4.453   1.441   9.438 -1.2761  0.5324  2.2215
  135TMC2    C1 2096   1.924   2.310   9.866 -0.5151  0.0760  0.2212
  135TMC2    C2 2097   2.030   2.234   9.843  0.3729 -0.1310 -0.3066
  135TMC2    C3 2098   2.084   2.165   9.948  0.5033  0.2250  0.4826
  135TMC2    C4 2099   1.873   2.330   9.991 -0.4091 -0.5919  0.7801
  135TMC2    C5 2100   1.932   2.259  10.092 -0.0159  0.2539 -0.6081
  135TMC2    C6 2101   2.035   2.175  10.073 -0.2148 -0.2173  0.1816
  135TMC2     C 2102   1.870   2.408   9.770 -0.2687  0.1016  0.4747
  135TMC2     O 2103   1.785   2.481   9.812  0.1417  0.3505 -0.2718
  135TMC2     H 2104   2.064   2.209   9.743  0.7306  1.3181 -0.5467
  135TMC2    H1 2105   1.774   2.371  10.005 -0.0452 -0.8115  3.9001
  135TMC2    H2 2106   2.086   2.130  10.158 -1.0725 -2.1116 -0.3237
  135TMC2    C7 2107   1.853   2.244  10.211  0.5090  0.2346 -0.7882
  135TMC2    C8 2108   2.186   2.065   9.922 -0.2545  0.0961 -0.1566
  135TMC2    O1 2109   1.762   2.325  10.232 -0.4320  0.4072  0.2438
  135TMC2    O2 2110   2.243   2.004  10.015  0.1198 -0.0392  0.3165
  135TMC2    O5 2111   2.157   2.013   9.807 -0.3153  0.0675 -0.3085
  135TMC2    H5 2112   2.181   1.918   9.802 -2.9490 -0.6238 -0.2101
  136MPD2     C 2113   1.798   2.555   9.521 -0.8848  0.2691 -1.2447
  136MPD2    C1 2114   1.886   2.453   9.524  0.2495  0.3239 -0.3666
  136MPD2    C2 2115   1.947   2.410   9.404  0.1742 -0.0850  0.4696
  136MPD2    C3 2116   1.913   2.463   9.282 -0.0621  0.4461  0.4966
  136MPD2    C4 2117   1.818   2.565   9.284 -0.4261 -0.6235  0.1696
  136MPD2    C5 2118   1.768   2.615   9.400  0.1519  0.0657 -0.4414
  136MPD2     H 2119   2.014   2.326   9.415  0.6659  0.4501  1.6458
  136MPD2    H1 2120   1.793   2.608   9.188  0.4438 -0.1627  0.1467
  136MPD2    H2 2121   1.745   2.576   9.613 -0.1681  0.6875 -0.9281
  136MPD2    H3 2122   1.689   2.689   9.404  0.2696  0.1453  0.6221
  136MPD2     N 2123   1.978   2.418   9.163 -0.4190 -0.0258  0.0574
  136MPD2    H5 2124   1.928   2.445   9.079  1.7579 -2.4823 -2.0136
  136MPD2    N1 2125   1.918   2.382   9.642  0.9565 -0.1608 -0.1524
  136MPD2    H7 2126   1.992   2.312   9.639 -0.9280 -2.1438 -0.7914
  137TMC2    C1 2127   0.727   1.249   9.581  0.3231 -0.3081  0.9648
  137TMC2    C2 2128   0.677   1.324   9.477  0.3766  0.2740  0.1663
  137TMC2    C3 2129   0.597   1.427   9.521 -0.1005  0.2443  0.0266
  137TMC2    C4 2130   0.689   1.261   9.711 -0.3998 -0.2188 -0.3386
  137TMC2    C5 2131   0.592   1.350   9.739  0.9383 -0.1589  0.4420
  137TMC2    C6 2132   0.549   1.441   9.648 -0.0683  0.1321  0.4309
  137TMC2     C 2133   0.844   1.172   9.549 -0.0460 -0.4438 -0.0782
  137TMC2     O 2134   0.909   1.203   9.448  0.0297  0.5814  0.1425
  137TMC2     H 2135   0.730   1.334   9.383  0.5424 -0.6024  0.1716
  137TMC2    H1 2136   0.728   1.203   9.794 -0.9434  1.4514  1.0842
  137TMC2    H2 2137   0.467   1.506   9.674  0.5495  1.7776 -1.7267
  137TMC2    C7 2138   0.479   1.300   9.813 -0.2101  0.6089 -0.2994
  137TMC2    C8 2139   0.521   1.488   9.413 -0.3477  1.3399 -0.2275
  137TMC2    O1 2140   0.377   1.272   9.753 -0.7137  0.3497 -0.7302
  137TMC2    O2 2141   0.498   1.429   9.308 -0.2987  0.3788 -0.3146
  137TMC2    O5 2142   0.507   1.621   9.427  0.1806  0.5559 -0.3037
  137TMC2    H5 2143   0.535   1.667   9.509 -1.2576 -0.5510  0.7953
  138MPD2     C 2144   0.946   0.838   9.674 -0.3752  0.4367  0.2169
  138MPD2    C1 2145   0.961   0.963   9.616 -0.0721 -0.0226  0.0029
  138MPD2    C2 2146   1.095   0.997   9.582 -0.0418 -0.5245  0.2043
  138MPD2    C3 2147   1.204   0.916   9.602 -0.0365 -0.4552 -0.3619
  138MPD2    C4 2148   1.177   0.785   9.640 -0.6926  1.1241 -0.4585
  138MPD2    C5 2149   1.048   0.747   9.665  0.3052 -0.2487  0.1038
  138MPD2     H 2150   1.123   1.095   9.546 -0.0101  0.0752  1.8590
  138MPD2    H1 2151   1.261   0.718   9.652  0.1516  1.9423 -1.7430
  138MPD2    H2 2152   0.846   0.809   9.704 -0.1711  0.3076  0.7711
  138MPD2    H3 2153   1.032   0.646   9.701 -1.0846 -0.1865 -0.3297
  138MPD2     N 2154   1.335   0.967   9.592  0.1437  0.5397  0.1399
  138MPD2    H5 2155   1.345   1.067   9.578 -0.5827  0.8776  2.0541
  138MPD2    N1 2156   0.853   1.060   9.618 -0.2604  0.2077  0.4724
  138MPD2    H7 2157   0.781   1.032   9.683 -1.9575  0.9668 -1.0645
  139TMC2    C1 2158   1.486   3.355  13.744 -0.5058  0.7951  0.6954
  139TMC2    C2 2159   1.532   3.407  13.866  0.6195 -0.0576 -1.4443
  139TMC2    C3 2160   1.476   3.524  13.905 -0.1327 -0.9236  0.4079
  139TMC2    C4 2161   1.395   3.421  13.664 -0.4601  0.6704  0.2617
  139TMC2    C5 2162   1.346   3.536  13.714 -0.0842 -0.5771  0.2876
  139TMC2    C6 2163   1.387   3.590  13.836 -0.2396 -0.5992 -0.9418
  139TMC2     C 2164   1.564   3.248  13.675 -0.0190 -0.3777 -0.5245
  139TMC2     O 2165   1.499   3.197  13.588  0.0588  0.0843  0.4015
  139TMC2     H 2166   1.577   3.341  13.939  0.3786  1.1886 -0.1632
  139TMC2    H1 2167   1.357   3.372  13.576  1.3295 -0.4909  0.1284
  139TMC2    H2 2168   1.351   3.689  13.862  1.6261 -0.3658  0.7553
  139TMC2    C7 2169   1.286   3.642  13.631  0.3254  0.6366  0.0837
  139TMC2    C8 2170   1.531   3.578  14.034 -0.1324 -0.5277 -0.3422
  139TMC2    O1 2171   1.224   3.731  13.690  0.0329  0.0010 -0.3311
  139TMC2    O2 2172   1.455   3.647  14.099 -0.5366 -0.2314  0.2098
  139TMC2    O5 2173   1.662   3.559  14.056 -0.5513  0.3112 -0.2484
  139TMC2    H5 2174   1.701   3.501  13.987  4.0428  2.0997  0.8125
  140MPD2     C 2175   1.887   3.103  13.790 -0.7881 -0.4493 -0.0590
  140MPD2    C1 2176   1.768   3.108  13.716  0.2307 -0.0447 -0.7584
  140MPD2    C2 2177   1.740   3.001  13.632 -0.0276 -0.3464 -0.4967
  140MPD2    C3 2178   1.830   2.899  13.614  0.6154  0.0793  0.0131
  140MPD2    C4 2179   1.949   2.899  13.676 -0.1767  0.0444 -0.0435
  140MPD2    C5 2180   1.973   2.998  13.773  0.0177  0.6347  0.5485
  140MPD2     H 2181   1.641   2.988  13.590  0.9350 -1.2623 -2.4568
  140MPD2    H1 2182   2.031   2.828  13.670  1.0605  1.3069  1.6857
  140MPD2    H2 2183   1.907   3.177  13.867  0.0129 -0.6966 -0.0294
  140MPD2    H3 2184   2.064   2.995  13.832  1.2200 -0.1787 -1.3206
  140MPD2     N 2185   1.783   2.804  13.533  0.0050  0.1049  0.7385
  140MPD2    H5 2186   1.699   2.834  13.485  1.1755  1.1416 -0.6683
  140MPD2    N1 2187   1.685   3.217  13.738 -0.3583 -0.3705 -0.0624
  140MPD2    H7 2188   1.717   3.282  13.810  0.3599  0.4047 -1.0817
  141TMC2    C1 2189   2.273   0.037  14.347 -0.5648  0.5994  0.8454
  141TMC2    C2 2190   2.276   4.643  14.379 -0.3310 -0.5487  0.2261
  141TMC2    C3 2191   2.242   4.614  14.503  0.3938  0.9336 -0.2726
  141TMC2    C4 2192   2.272   0.137  14.444  0.0941  0.0501  0.1249
  141TMC2    C5 2193   2.231   0.099  14.574  0.6692  0.0949  0.1358
  141TMC2    C6 2194   2.217   4.706  14.596  0.1743  0.2669  0.3930
  141TMC2     C 2195   2.320   0.079  14.219  0.4982  0.2592  0.0612
  141TMC2     O 2196   2.353   0.198  14.215 -0.2085  0.1035  0.3020
  141TMC2     H 2197   2.282   4.563  14.306 -0.2948 -0.1671 -0.1956
  141TMC2    H1 2198   2.289   0.239  14.413  0.7184  0.1154  0.6760
  141TMC2    H2 2199   2.201   4.670  14.697 -2.4097  0.5355  0.0667
  141TMC2    C7 2200   2.252   0.189  14.681  0.5941  1.2445  0.2545
  141TMC2    C8 2201   2.254   4.477  14.546  0.3553 -0.2044 -0.3668
  141TMC2    O1 2202   2.213   0.145  14.789  0.5656 -0.0349  0.3387
  141TMC2    O2 2203   2.237   4.386  14.465 -0.0851  0.4125  0.1626
  141TMC2    O5 2204   2.366   4.492  14.619  0.3777 -0.4399 -0.3236
  141TMC2    H5 2205   2.381   4.585  14.646  1.8599 -0.8406  0.2380
  142TMC2    C1 2206   0.494   4.118   9.440  0.2130 -0.1358 -0.1119
  142TMC2    C2 2207   0.396   4.211   9.416 -0.3208 -0.2066 -0.5873
  142TMC2    C3 2208   0.410   4.340   9.461 -0.6682  0.1402  0.1819
  142TMC2    C4 2209   0.606   4.152   9.517 -0.3245 -0.3773  0.1695
  142TMC2    C5 2210   0.609   4.283   9.560 -0.1295  0.9753 -0.0734
  142TMC2    C6 2211   0.516   4.378   9.530  0.2496 -0.0445  0.0994
  142TMC2     C 2212   0.481   3.982   9.384 -0.4456 -0.2341  0.0794
  142TMC2     O 2213   0.370   3.946   9.356  0.3377  0.6236  0.2331
  142TMC2     H 2214   0.314   4.184   9.350 -0.5184  0.8475 -0.7651
  142TMC2    H1 2215   0.684   4.082   9.542 -0.3014 -1.2209 -2.2186
  142TMC2    H2 2216   0.523   4.478   9.572  0.1588  0.3247 -0.7491
  142TMC2    C7 2217   0.719   4.301   9.650 -0.0629 -0.0556  0.1446
  142TMC2    C8 2218   0.347   4.450   9.388  0.2479 -0.0359 -0.1332
  142TMC2    O1 2219   0.770   4.203   9.701 -0.1964  0.1372  0.7020
  142TMC2    O2 2220   0.291   4.537   9.450 -0.3375  0.1203  0.3673
  142TMC2    O5 2221   0.447   4.473   9.300  0.3129 -0.0890 -0.0861
  142TMC2    H5 2222   0.485   4.387   9.272 -0.8140 -0.4910 -0.3917
  143MPD2     C 2223   0.644   3.498   9.293  0.2392 -0.0475  0.2726
  143MPD2    C1 2224   0.519   3.548   9.304 -0.7961  0.0322 -0.5004
  143MPD2    C2 2225   0.496   3.682   9.331  0.0227  0.0531 -0.4240
  143MPD2    C3 2226   0.605   3.769   9.358  0.7542 -0.0889 -0.2196
  143MPD2    C4 2227   0.727   3.710   9.360  0.0407  0.2875  0.3683
  143MPD2    C5 2228   0.744   3.581   9.319 -0.2837 -0.3271 -0.1207
  143MPD2     H 2229   0.396   3.722   9.338 -0.3643 -0.6938 -1.6819
  143MPD2    H1 2230   0.819   3.763   9.378  0.0751  0.4023 -0.1484
  143MPD2    H2 2231   0.670   3.396   9.267 -1.2316 -0.0737 -1.1431
  143MPD2    H3 2232   0.843   3.537   9.322 -0.8828 -1.7820 -1.8315
  143MPD2     N 2233   0.593   3.906   9.384 -0.1155 -0.2356  0.1468
  143MPD2    H5 2234   0.678   3.953   9.414 -1.2055  1.5153  0.4880
  143MPD2    N1 2235   0.416   3.452   9.275  0.1485  0.3505 -0.7983
  143MPD2    H7 2236   0.447   3.356   9.268  1.7115  1.0393 -3.2475
  144TMC2    C1 2237   3.867   2.580   0.643  0.1334 -0.0371  0.3086
  144TMC2    C2 2238   3.967   2.539   0.555  0.7350  0.2069  0.4398
  144TMC2    C3 2239   4.094   2.570   0.581  0.0122  0.0301 -0.3902
  144TMC2    C4 2240   3.890   2.680   0.738 -0.1749  0.3801  0.7596
  144TMC2    C5 2241   4.025   2.718   0.751 -0.3322  0.2953  0.0943
  144TMC2    C6 2242   4.120   2.656   0.679  0.4521  0.4844 -0.4362
  144TMC2     C 2243   3.731   2.564   0.592  0.1667 -0.4979 -0.3681
  144TMC2     O 2244   3.711   2.469   0.518  0.3860  0.1004  0.3304
  144TMC2     H 2245   3.938   2.476   0.471 -2.4885 -0.0476  1.7307
  144TMC2    H1 2246   3.814   2.717   0.806 -0.4653  0.6675  0.2788
  144TMC2    H2 2247   4.222   2.678   0.710 -0.1709  1.6385  0.7927
  144TMC2    C7 2248   4.068   2.816   0.851 -0.9018  0.7899  0.3138
  144TMC2    C8 2249   4.205   2.529   0.495  0.1535 -0.5575 -0.8408
  144TMC2    O1 2250   4.187   2.809   0.885 -0.0378 -0.4426 -0.7047
  144TMC2    O2 2251   4.316   2.502   0.545 -0.4794 -0.2171 -0.2634
  144TMC2    O5 2252   4.158   2.494   0.374 -0.0152 -0.4279 -0.2985
  144TMC2    H5 2253   4.079   2.538   0.336 -1.0315  0.3572  2.7173
  145MPD2     C 2254   3.232   2.656   0.668 -0.4863  0.0584  0.1733
  145MPD2    C1 2255   3.289   2.562   0.586  0.6380  0.6174  0.3669
  145MPD2    C2 2256   3.426   2.562   0.574  0.4342  0.5321  0.1066
  145MPD2    C3 2257   3.503   2.657   0.636 -0.3355 -0.0428 -0.1288
  145MPD2    C4 2258   3.448   2.763   0.698  0.0066  0.0410 -0.2148
  145MPD2    C5 2259   3.316   2.755   0.720 -0.0211  0.5410 -0.5309
  145MPD2     H 2260   3.468   2.472   0.530  1.0168  0.6335  0.4567
  145MPD2    H1 2261   3.505   2.846   0.737 -0.8204 -0.3828  1.8745
  145MPD2    H2 2262   3.127   2.665   0.692 -0.7185  1.4508 -1.4079
  145MPD2    H3 2263   3.265   2.831   0.778  2.6828  3.0601 -1.4230
  145MPD2     N 2264   3.645   2.661   0.630 -0.3515  0.0258 -0.2038
  145MPD2    H5 2265   3.688   2.742   0.674  0.7808 -1.2911  1.1238
  145MPD2    N1 2266   3.212   2.468   0.518 -0.8629  0.1726 -1.2769
  145MPD2    H7 2267   3.257   2.397   0.461  2.5686  0.5232  1.0552
  146TMC2    C1 2268   0.215   0.897  12.167  0.0097 -0.0906 -0.4290
  146TMC2    C2 2269   0.214   1.009  12.091  0.7218 -0.1758 -0.8648
  146TMC2    C3 2270   0.320   1.044  12.018  0.6377 -0.3228  0.7202
  146TMC2    C4 2271   0.325   0.812  12.168 -0.2052  0.2448 -0.5807
  146TMC2    C5 2272   0.438   0.873  12.127 -0.0438 -0.1661  0.3049
  146TMC2    C6 2273   0.439   0.979  12.037 -0.7912  0.3495  0.6846
  146TMC2     C 2274   0.087   0.854  12.223 -0.3482  0.4767  0.1661
  146TMC2     O 2275   4.728   0.915  12.187  0.5150 -0.4515 -0.0353
  146TMC2     H 2276   0.123   1.062  12.069 -0.0515 -0.5225  1.4709
  146TMC2    H1 2277   0.323   0.723  12.230  1.4281  0.9234  0.4341
  146TMC2    H2 2278   0.531   1.007  11.986 -0.3563 -1.4026  0.5184
  146TMC2    C7 2279   0.565   0.814  12.166  0.1295  0.0874  0.1694
  146TMC2    C8 2280   0.286   1.155  11.927  0.7679  0.8183 -0.1014
  146TMC2    O1 2281   0.660   0.845  12.094 -0.5415  0.2114 -0.3459
  146TMC2    O2 2282   0.176   1.204  11.914  0.2247  0.3339  0.1982
  146TMC2    O5 2283   0.402   1.202  11.878  0.7975 -0.5340 -0.0152
  146TMC2    H5 2284   0.474   1.158  11.928  1.1137  3.4593  3.0702
  147MPD2     C 2285   0.900   0.594  12.477  0.3674  0.0559  0.2533
  147MPD2    C1 2286   0.778   0.586  12.539  0.1673 -0.6870 -0.0841
  147MPD2    C2 2287   0.671   0.647  12.478  0.0874 -0.1506  0.1491
  147MPD2    C3 2288   0.679   0.680  12.347 -0.9225  0.2241 -0.7229
  147MPD2    C4 2289   0.796   0.663  12.278  0.0113 -0.1801 -0.7065
  147MPD2    C5 2290   0.906   0.634  12.345  0.0174  0.0167 -0.1544
  147MPD2     H 2291   0.579   0.654  12.535  0.8363  0.6638  1.2695
  147MPD2    H1 2292   0.806   0.679  12.171  0.5178  0.2742 -0.5860
  147MPD2    H2 2293   0.989   0.551  12.522  0.5121 -0.7368 -0.8008
  147MPD2    H3 2294   0.996   0.640  12.285 -0.2725  0.8439 -0.5127
  147MPD2     N 2295   0.565   0.738  12.283  0.6849 -0.0202  0.0824
  147MPD2    H5 2296   0.478   0.730  12.334 -0.4662 -0.3581 -1.9558
  147MPD2    N1 2297   0.787   0.527  12.666 -0.1899  0.3862  0.1817
  147MPD2    H7 2298   0.877   0.520  12.713 -0.2341  0.6221  0.2997
  148TMC2    C1 2299   4.358   0.651  10.331 -0.4191 -0.2025 -0.5840
  148TMC2    C2 2300   4.447   0.743  10.384  0.4538 -0.2907  0.9141
  148TMC2    C3 2301   4.551   0.693  10.462  1.1033  0.2102 -0.0330
  148TMC2    C4 2302   4.384   0.520  10.338  0.1524  0.0048  0.1295
  148TMC2    C5 2303   4.493   0.476  10.413 -0.6364 -0.3665  0.2535
  148TMC2    C6 2304   4.577   0.559  10.482 -0.5701 -0.0371  0.4262
  148TMC2     C 2305   4.245   0.705  10.255  0.3530 -0.8406  0.2559
  148TMC2     O 2306   4.211   0.822  10.273  0.2503 -0.4103 -0.0618
  148TMC2     H 2307   4.433   0.850  10.380  2.9560 -0.0363 -1.1410
  148TMC2    H1 2308   4.314   0.451  10.291 -0.2719  0.6844 -0.2290
  148TMC2    H2 2309   4.653   0.525  10.552  0.4574  1.9102  0.2626
  148TMC2    C7 2310   4.513   0.328  10.392 -0.1144  0.3190 -0.7200
  148TMC2    C8 2311   4.628   0.799  10.537  0.0191 -0.7474 -0.4359
  148TMC2    O1 2312   4.452   0.282  10.296  0.3930  0.2138  0.1516
  148TMC2    O2 2313   4.579   0.909  10.552  0.3364  0.0128 -0.5464
  148TMC2    O5 2314   0.022   0.771  10.517  0.2500 -0.2592 -0.7559
  148TMC2    H5 2315   0.024   0.693  10.458 -0.0586 -1.4498  0.8298
  149MPD2     C 2316   4.006   0.750  10.084  0.3532  0.2966  0.9121
  149MPD2    C1 2317   4.071   0.633  10.096 -0.4984  0.3266  0.6849
  149MPD2    C2 2318   4.008   0.516  10.048  0.4165  0.2721  0.1124
  149MPD2    C3 2319   3.899   0.523   9.967  0.7290 -1.2451  0.1280
  149MPD2    C4 2320   3.847   0.646   9.944  0.0401 -0.5423  0.0207
  149MPD2    C5 2321   3.892   0.759  10.005  0.2993 -0.2850  0.0522
  149MPD2     H 2322   4.061   0.422  10.062 -0.6497 -0.5626 -1.4463
  149MPD2    H1 2323   3.749   0.654   9.898 -0.1252  0.3162  0.5243
  149MPD2    H2 2324   4.045   0.842  10.127 -0.4885  0.8150  0.5691
  149MPD2    H3 2325   3.832   0.848  10.018 -0.3385 -0.8658  1.0346
  149MPD2     N 2326   3.820   0.417   9.918  0.0840  0.2601 -0.2593
  149MPD2    H5 2327   3.745   0.425   9.851 -0.2621 -0.9698 -0.0291
  149MPD2    N1 2328   4.187   0.612  10.168  0.0984  0.6398  0.6041
  149MPD2    H7 2329   4.236   0.524  10.155 -0.3435  0.1138  2.4677
  150TMC2    C1 2330   1.855   4.354  12.091  0.4046 -0.0364 -0.6072
  150TMC2    C2 2331   1.822   4.485  12.114  0.0670  0.2260  0.2879
  150TMC2    C3 2332   1.920   4.566  12.155 -0.3528  0.3937  0.0151
  150TMC2    C4 2333   1.979   4.300  12.120 -0.1796 -0.2086  0.3831
  150TMC2    C5 2334   2.074   4.392  12.155  0.0338  0.6591 -0.2363
  150TMC2    C6 2335   2.048   4.523  12.172 -0.8141  0.4057 -0.2939
  150TMC2     C 2336   1.749   4.259  12.044  0.0863  0.2666 -0.3168
  150TMC2     O 2337   1.762   4.140  12.069 -0.1935 -0.6524  0.1238
  150TMC2     H 2338   1.718   4.512  12.128 -0.2651 -0.2622 -1.2136
  150TMC2    H1 2339   1.996   4.203  12.075 -1.3608  1.0378 -2.7261
  150TMC2    H2 2340   2.133   4.590  12.171  0.0748 -0.7266 -0.7348
  150TMC2    C7 2341   2.216   4.355  12.172  0.7314  0.2432  0.1389
  150TMC2    C8 2342   1.901   4.708  12.145 -0.7807  0.0298  0.4204
  150TMC2    O1 2343   2.292   4.443  12.140  0.2318 -0.2655  0.1893
  150TMC2    O2 2344   1.975   0.043  12.197  0.9076 -0.2042  0.0498
  150TMC2    O5 2345   1.780   4.732  12.088 -0.0688 -0.3240  0.1636
  150TMC2    H5 2346   1.749   4.661  12.029  0.7129 -0.7716  0.2953
  151MPD2     C 2347   1.335   4.126  11.747 -0.6618  0.0830  0.5659
  151MPD2    C1 2348   1.350   4.260  11.750  0.6308 -0.3882 -0.1864
  151MPD2    C2 2349   1.444   4.325  11.833  1.2291  0.9810 -0.9116
  151MPD2    C3 2350   1.539   4.246  11.904 -0.0656  0.1745 -1.0029
  151MPD2    C4 2351   1.517   4.106  11.905 -1.0545  0.2076 -0.4298
  151MPD2    C5 2352   1.416   4.053  11.828 -0.5486  0.1040 -0.1485
  151MPD2     H 2353   1.466   4.431  11.836 -0.1864  1.2455  0.1731
  151MPD2    H1 2354   1.577   4.034  11.958 -0.5263 -0.0033 -1.3174
  151MPD2    H2 2355   1.267   4.075  11.681 -0.9903  0.4429  0.6286
  151MPD2    H3 2356   1.409   3.946  11.814  0.3890 -0.2500  2.0128
  151MPD2     N 2357   1.649   4.312  11.971  0.1416  0.7840 -0.7743
  151MPD2    H5 2358   1.654   4.413  11.963 -2.1686  0.8226 -1.6529
  151MPD2    N1 2359   1.271   4.335  11.663  0.2249 -0.6867  0.1843
  151MPD2    H7 2360   1.209   4.278  11.606 -1.4074  1.2337  0.0363
  152TMC2    C1 2361   1.780   3.905  12.578  0.0077 -0.3105  0.3187
  152TMC2    C2 2362   1.868   3.795  12.549 -0.1641 -0.9069 -0.2353
  152TMC2    C3 2363   2.005   3.825  12.540 -0.1529  0.4654 -0.2917
  152TMC2    C4 2364   1.828   4.033  12.578  0.6654 -0.3947 -1.1593
  152TMC2    C5 2365   1.963   4.056  12.566  0.6366  0.2896 -0.4817
  152TMC2    C6 2366   2.056   3.954  12.550  0.3581 -0.4006 -0.1718
  152TMC2     C 2367   1.648   3.896  12.537  0.2258  0.3373  0.7743
  152TMC2     O 2368   1.601   4.003  12.496 -0.2589 -0.5512 -0.1871
  152TMC2     H 2369   1.837   3.692  12.537 -0.0491 -1.1235  1.3648
  152TMC2    H1 2370   1.755   4.112  12.579  0.6975 -0.3965  0.8839
  152TMC2    H2 2371   2.160   3.983  12.544  0.7160 -1.9048 -1.3443
  152TMC2    C7 2372   2.000   4.197  12.547 -0.1244 -0.0298  0.3044
  152TMC2    C8 2373   2.098   3.726  12.547 -0.1670  0.1034 -0.0118
  152TMC2    O1 2374   1.907   4.276  12.530 -0.2198 -0.4244 -0.2576
  152TMC2    O2 2375   2.095   3.629  12.478  0.1897 -0.4314  0.7417
  152TMC2    O5 2376   2.194   3.765  12.633 -0.2032  0.2758 -0.5150
  152TMC2    H5 2377   2.148   3.822  12.699  1.2438 -0.2924  0.9697
  153MPD2     C 2378   1.434   3.616  12.661  0.1479  0.1809 -0.0965
  153MPD2    C1 2379   1.456   3.737  12.595  0.2773 -0.1529  0.4155
  153MPD2    C2 2380   1.358   3.831  12.571  1.0176  0.4055 -0.2949
  153MPD2    C3 2381   1.227   3.809  12.609 -0.0017 -0.1034 -0.3823
  153MPD2    C4 2382   1.208   3.690  12.681 -0.2637 -0.0887  0.3186
  153MPD2    C5 2383   1.311   3.607  12.717 -0.0120 -0.7690 -0.0900
  153MPD2     H 2384   1.385   3.916  12.508 -1.0224  0.0074 -1.7262
  153MPD2    H1 2385   1.111   3.666  12.722  0.3137 -1.8516  0.6233
  153MPD2    H2 2386   1.514   3.550  12.693  0.4017 -0.5791 -2.2845
  153MPD2    H3 2387   1.297   3.526  12.788 -1.0716 -0.6075 -0.1115
  153MPD2     N 2388   1.131   3.911  12.577  0.3500 -0.1729  0.2943
  153MPD2    H5 2389   1.155   3.984  12.510 -0.1684  0.4743  0.8172
  153MPD2    N1 2390   1.595   3.770  12.572 -0.1754  0.3193 -0.0872
  153MPD2    H7 2391   1.658   3.705  12.619 -1.8473  0.0124  1.7305
  154TMC2    C1 2392   3.347   3.821   0.111  0.0483 -0.3966 -0.3015
  154TMC2    C2 2393   3.410   3.717   0.180 -0.3450  0.2765  0.1519
  154TMC2    C3 2394   3.545   3.715   0.186 -0.2799  0.1651 -0.3363
  154TMC2    C4 2395   3.412   3.929   0.061  0.1402  0.0732 -0.5514
  154TMC2    C5 2396   3.548   3.925   0.063 -0.0625  0.2227  0.0361
  154TMC2    C6 2397   3.620   3.817   0.120 -0.6042 -0.2069 -0.2620
  154TMC2     C 2398   3.208   3.840   0.123 -0.2101 -0.8248  0.2682
  154TMC2     O 2399   3.178   3.947   0.167 -0.2611 -0.0410  0.4850
  154TMC2     H 2400   3.345   3.638   0.215 -2.8814  0.7802 -3.3737
  154TMC2    H1 2401   3.363   4.007   0.003  0.0308  1.1560  0.9839
  154TMC2    H2 2402   3.728   3.818   0.113 -0.5628  0.4973  0.4661
  154TMC2    C7 2403   3.628   4.028   0.000  0.2177  1.1243  0.0643
  154TMC2    C8 2404   3.607   3.625   0.277  1.0375  0.4843  0.1742
  154TMC2    O1 2405   3.730   3.995  17.703  0.1704 -0.8089  0.1309
  154TMC2    O2 2406   3.559   3.516   0.302 -0.7132  0.2015  0.0461
  154TMC2    O5 2407   3.727   3.677   0.299  0.3297  0.5791 -0.8127
  154TMC2    H5 2408   3.733   3.775   0.295 -3.4429  0.7419 -2.7615
  155MPD2     C 2409   2.944   3.597   0.066  0.1089 -0.0273  0.1146
  155MPD2    C1 2410   2.996   3.716   0.099 -0.4952  0.2747 -0.5287
  155MPD2    C2 2411   2.918   3.835   0.102 -0.4645 -0.1674 -0.9773
  155MPD2    C3 2412   2.784   3.824   0.084 -0.1026 -0.2799 -0.0519
  155MPD2    C4 2413   2.733   3.702   0.051  0.0453  0.3612  0.0927
  155MPD2    C5 2414   2.817   3.597   0.031 -0.4119 -0.7696  0.3878
  155MPD2     H 2415   2.961   3.932   0.127 -1.1252  0.3438 -1.8412
  155MPD2    H1 2416   2.630   3.680   0.024  0.6057 -1.7154 -0.3510
  155MPD2    H2 2417   3.004   3.507   0.056  1.2723  0.5697  1.6868
  155MPD2    H3 2418   2.771   3.509  17.750 -2.3853  0.7323 -0.6334
  155MPD2     N 2419   2.699   3.938   0.110 -0.2689 -0.4020  0.4415
  155MPD2    H5 2420   2.734   4.033   0.111 -0.3844 -0.3793  1.5953
  155MPD2    N1 2421   3.133   3.724   0.108 -0.2499  0.4790  0.6019
  155MPD2    H7 2422   3.181   3.638   0.085 -2.5329 -0.6192  0.0482
  156TMC2    C1 2423   1.835   1.771  11.112  0.0701 -0.5196 -0.4742
  156TMC2    C2 2424   1.742   1.680  11.084  0.2145  0.2618  0.1049
  156TMC2    C3 2425   1.639   1.706  11.002  0.6154  0.3619  0.1748
  156TMC2    C4 2426   1.822   1.901  11.070 -0.7871  0.7823 -0.1217
  156TMC2    C5 2427   1.713   1.930  10.989 -0.0167  0.0755 -0.1227
  156TMC2    C6 2428   1.624   1.832  10.952  0.3095 -0.5158  0.4353
  156TMC2     C 2429   1.908   1.743  11.233  0.3215  0.1122 -0.5731
  156TMC2     O 2430   1.869   1.654  11.305  0.4994 -0.3169  0.3631
  156TMC2     H 2431   1.746   1.583  11.132 -0.1027  0.2980  0.2025
  156TMC2    H1 2432   1.894   1.979  11.087  0.7273 -0.3498 -1.3069
  156TMC2    H2 2433   1.537   1.853  10.891 -0.7411 -1.6109  1.5756
  156TMC2    C7 2434   1.673   2.074  10.987  0.3201  0.2148 -0.6779
  156TMC2    C8 2435   1.531   1.615  11.012 -0.2953  0.0506  0.3503
  156TMC2    O1 2436   1.738   2.153  11.050  0.7528 -0.1561 -0.0185
  156TMC2    O2 2437   1.423   1.640  11.052 -0.3643  0.1948  0.3638
  156TMC2    O5 2438   1.579   1.504  10.971 -0.0373 -0.5674 -0.0228
  156TMC2    H5 2439   1.670   1.508  10.935 -0.0271 -0.4060  0.0205
  157MPD2     C 2440   2.093   1.986  11.428 -0.2708 -0.8525  0.7542
  157MPD2    C1 2441   1.996   1.894  11.396 -0.6531  0.4420 -0.2625
  157MPD2    C2 2442   1.891   1.873  11.493 -0.3983 -0.0542  0.5028
  157MPD2    C3 2443   1.892   1.956  11.605  0.0776 -0.0154  0.0224
  157MPD2    C4 2444   1.984   2.052  11.629 -0.3885  0.7339  0.1578
  157MPD2    C5 2445   2.094   2.058  11.547  0.2269 -0.2849 -0.4178
  157MPD2     H 2446   1.805   1.812  11.466 -1.0818  1.4080 -0.6578
  157MPD2    H1 2447   1.976   2.127  11.707  0.6396 -0.4690  1.4244
  157MPD2    H2 2448   2.165   2.016  11.352 -1.2582  0.4673  0.3274
  157MPD2    H3 2449   2.171   2.129  11.575  0.0637 -0.6855  1.0794
  157MPD2     N 2450   1.775   1.951  11.682 -0.0278  0.9944 -0.1902
  157MPD2    H5 2451   1.699   1.896  11.643  0.5654  0.3703 -0.4613
  157MPD2    N1 2452   1.998   1.837  11.267 -0.0612 -0.4584 -0.4539
  157MPD2    H7 2453   2.062   1.887  11.206  1.9112 -2.1382  0.2526
  158TMC2    C1 2454   2.030   0.406  13.613 -0.7409 -0.0590 -0.0001
  158TMC2    C2 2455   2.138   0.463  13.548  0.0887  0.5069 -0.4098
  158TMC2    C3 2456   2.131   0.481  13.416 -0.9953  0.5796 -0.1526
  158TMC2    C4 2457   1.914   0.369  13.551  0.1109  1.0642 -0.5067
  158TMC2    C5 2458   1.908   0.393  13.417 -0.6863  0.3406 -0.1250
  158TMC2    C6 2459   2.016   0.444  13.349 -0.4840 -0.3785 -0.3679
  158TMC2     C 2460   2.045   0.391  13.755 -0.5907  0.7282 -0.5150
  158TMC2     O 2461   2.116   0.474  13.811  0.4296 -0.5927  0.4696
  158TMC2     H 2462   2.222   0.484  13.613  0.8545 -0.7610 -0.9847
  158TMC2    H1 2463   1.822   0.352  13.606  0.4712  2.5315  0.5320
  158TMC2    H2 2464   2.014   0.465  13.243  1.8437 -0.6682 -0.4879
  158TMC2    C7 2465   1.797   0.364  13.328 -0.4709  0.5751  0.2488
  158TMC2    C8 2466   2.215   0.586  13.354  0.2855  1.2297 -0.7275
  158TMC2    O1 2467   1.802   0.404  13.212 -0.1718 -0.0138 -0.3917
  158TMC2    O2 2468   2.289   0.659  13.418 -0.0985  0.1871 -0.1550
  158TMC2    O5 2469   2.253   0.517  13.243  0.4335  0.1599  0.4356
  158TMC2    H5 2470   2.214   0.428  13.232  1.1123 -0.2296  1.2425
  159MPD2     C 2471   1.981   0.175  14.214  1.0752 -0.5544  0.2726
  159MPD2    C1 2472   1.907   0.104  14.126  0.0667  0.1778  0.0630
  159MPD2    C2 2473   1.897   0.149  13.996 -0.5453  0.5482 -0.0403
  159MPD2    C3 2474   1.969   0.270  13.956 -0.2581  0.3583  0.3085
  159MPD2    C4 2475   2.048   0.334  14.052 -0.8748  0.9332  0.7928
  159MPD2    C5 2476   2.057   0.286  14.179 -0.9445  0.8890 -0.3902
  159MPD2     H 2477   1.839   0.091  13.925  1.4197 -1.1565 -0.2739
  159MPD2    H1 2478   2.106   0.424  14.037 -1.2475  0.6295 -2.4299
  159MPD2    H2 2479   1.999   0.150  14.318 -0.1049  1.5681  0.9803
  159MPD2    H3 2480   2.107   0.340  14.260 -1.3963  0.1815  0.3600
  159MPD2     N 2481   1.965   0.300  13.818  0.1969  0.2595  0.1803
  159MPD2    H5 2482   1.905   0.236  13.767 -0.0360  0.7638 -0.1751
  159MPD2    N1 2483   1.858   4.717  14.164 -0.3586  0.7368 -0.2868
  159MPD2    H7 2484   1.803   4.662  14.099  2.0352  0.4650 -2.1031
  160TMC2    C1 2485   1.909   2.549   1.522  0.0084 -0.0745 -0.3104
  160TMC2    C2 2486   1.909   2.448   1.618  0.4671  0.6175 -0.1335
  160TMC2    C3 2487   2.024   2.371   1.629 -0.3281  0.2660  0.0927
  160TMC2    C4 2488   2.021   2.584   1.449  0.0494 -0.0330  0.4360
  160TMC2    C5 2489   2.128   2.500   1.460 -0.1425  1.0718 -0.0903
  160TMC2    C6 2490   2.135   2.393   1.542 -0.5327 -0.4586 -0.3051
  160TMC2     C 2491   1.823   2.655   1.563  0.2004  0.2233  0.5290
  160TMC2     O 2492   1.778   2.653   1.678 -0.0293  0.3356  0.0006
  160TMC2     H 2493   1.821   2.437   1.681  0.3893  0.0624 -0.3325
  160TMC2    H1 2494   2.017   2.678   1.396 -0.5011 -0.9046 -1.0694
  160TMC2    H2 2495   2.216   2.322   1.533 -0.5511 -0.5495  0.2011
  160TMC2    C7 2496   2.254   2.532   1.402  0.2172  0.2526 -0.8652
  160TMC2    C8 2497   2.008   2.240   1.689 -0.0347 -0.5225  0.9184
  160TMC2    O1 2498   2.326   2.432   1.379  0.0080 -0.4927  0.1057
  160TMC2    O2 2499   1.902   2.183   1.707 -0.0666 -0.4472 -0.3801
  160TMC2    O5 2500   2.126   2.172   1.703  0.5826  0.0267 -0.1020
  160TMC2    H5 2501   2.200   2.236   1.693  0.9666 -0.5048 -0.6555
  161MPD2     C 2502   1.727   2.926   1.603  0.1909  1.0434  0.9694
  161MPD2    C1 2503   1.737   2.874   1.477 -0.3241 -0.8049  0.2865
  161MPD2    C2 2504   1.689   2.943   1.365 -0.4845  0.1746  1.3836
  161MPD2    C3 2505   1.628   3.063   1.382  0.3469  0.0466  0.4732
  161MPD2    C4 2506   1.613   3.117   1.510 -0.3350  0.3334  0.4666
  161MPD2    C5 2507   1.661   3.044   1.617  0.0031 -0.4718 -0.3745
  161MPD2     H 2508   1.712   2.903   1.267 -2.7159  0.3009  0.8259
  161MPD2    H1 2509   1.566   3.209   1.544  0.8722  0.7565  0.9765
  161MPD2    H2 2510   1.769   2.882   1.693 -2.1536 -0.4102  1.3376
  161MPD2    H3 2511   1.657   3.083   1.718  0.6420  0.5950 -0.7495
  161MPD2     N 2512   1.559   3.131   1.287 -0.4886 -0.0486  0.2124
  161MPD2    H5 2513   1.543   3.228   1.315  1.0436  0.0111  0.8691
  161MPD2    N1 2514   1.804   2.752   1.463  0.0387  0.5540 -0.6298
  161MPD2    H7 2515   1.836   2.730   1.369  2.6955  1.7131  0.0223
  162TMC2    C1 2516   3.859   0.015   0.586 -0.0414 -0.2230 -0.3182
  162TMC2    C2 2517   3.741   0.084   0.567  0.2367 -0.6723  0.5455
  162TMC2    C3 2518   3.673   0.130   0.679 -0.4866 -0.4810  0.5045
  162TMC2    C4 2519   3.909   0.007   0.719  0.1280  0.2453  0.0100
  162TMC2    C5 2520   3.833   0.058   0.824 -0.2838 -0.3468  0.8454
  162TMC2    C6 2521   3.709   0.102   0.812  0.2085  0.3053  0.1699
  162TMC2     C 2522   3.957   4.731   0.480  0.2324  0.8277  0.2551
  162TMC2     O 2523   4.066   4.680   0.517  1.0147  0.0755 -0.7614
  162TMC2     H 2524   3.706   0.102   0.466  0.6480  0.1965  0.5626
  162TMC2    H1 2525   4.006   4.706   0.739  0.1430 -1.0093 -2.6480
  162TMC2    H2 2526   3.657   0.156   0.891 -2.4301 -0.5266 -0.9896
  162TMC2    C7 2527   3.891   0.069   0.954 -0.2581  0.0018 -0.0084
  162TMC2    C8 2528   3.541   0.181   0.662 -0.5776  0.4019  0.0260
  162TMC2    O1 2529   3.813   0.080   1.053 -0.0125 -0.4500  0.6271
  162TMC2    O2 2530   3.449   0.168   0.743  0.0545  0.0832  0.1822
  162TMC2    O5 2531   3.524   0.227   0.536 -0.4687 -0.0033 -0.1977
  162TMC2    H5 2532   3.606   0.244   0.484 -0.8402 -1.7670 -1.3583
  163MPD2     C 2533   4.140   0.031   0.003 -0.0426  0.1719 -0.7906
  163MPD2    C1 2534   4.186   4.700   0.107 -0.2317 -0.2041 -0.3866
  163MPD2    C2 2535   4.110   4.692   0.223  0.5172 -0.3748  0.1620
  163MPD2    C3 2536   3.991   0.021   0.235  0.6998 -1.1287  0.2500
  163MPD2    C4 2537   3.944   0.084   0.125  0.3392 -0.2274  0.1357
  163MPD2    C5 2538   4.026   0.104   0.019  0.3714  0.2236  0.6511
  163MPD2     H 2539   4.136   4.622   0.301  0.6139 -0.6911 -0.1538
  163MPD2    H1 2540   3.849   0.137   0.127 -0.7472 -2.0704 -1.8583
  163MPD2    H2 2541   4.199   0.036  17.673 -1.6780 -1.5587 -1.9606
  163MPD2    H3 2542   3.991   0.162  17.695  0.6236  1.7534  1.5897
  163MPD2     N 2543   3.912   0.032   0.353  0.3143  0.2089 -0.0076
  163MPD2    H5 2544   3.815   0.062   0.344  0.0161 -1.4898 -2.3826
  163MPD2    N1 2545   4.312   4.638   0.099 -0.1151  0.2757 -0.0644
  163MPD2    H7 2546   4.360   4.625   0.010  0.2993 -0.8254  0.3135
  164TMC2    C1 2547   0.480   0.178  10.901 -0.1906  0.0903  0.3530
  164TMC2    C2 2548   0.609   0.214  10.908  0.9314 -0.2980 -0.0801
  164TMC2    C3 2549   0.634   0.349  10.922 -0.6391 -0.0964  0.3996
  164TMC2    C4 2550   0.381   0.270  10.922 -0.3801  0.5585 -0.2782
  164TMC2    C5 2551   0.407   0.406  10.937  0.6001  0.3184 -0.0200
  164TMC2    C6 2552   0.535   0.443  10.935  0.5581 -0.9965  0.3735
  164TMC2     C 2553   0.436   0.049  10.867 -0.2526  0.5752 -0.1692
  164TMC2     O 2554   0.327   0.018  10.913  0.1878  0.1950  0.0167
  164TMC2     H 2555   0.691   0.143  10.915  0.0293 -1.3241  0.0072
  164TMC2    H1 2556   0.279   0.233  10.921  0.2078 -1.0575 -0.0039
  164TMC2    H2 2557   0.569   0.545  10.930  0.7778 -1.1298 -0.8158
  164TMC2    C7 2558   0.299   0.491  10.913 -0.0927 -0.1460 -0.6504
  164TMC2    C8 2559   0.771   0.391  10.911  0.1646 -0.5607 -0.4727
  164TMC2    O1 2560   0.183   0.443  10.907  0.1587  0.1733  0.4586
  164TMC2    O2 2561   0.855   0.344  10.834 -0.5227 -0.0878 -0.1723
  164TMC2    O5 2562   0.801   0.447  11.028 -0.2545 -0.1475  0.3461
  164TMC2    H5 2563   0.729   0.450  11.094  0.9135  0.8175  1.5632
  165TMC2    C1 2564   1.472   1.671   0.484 -0.7478 -0.2975  0.0211
  165TMC2    C2 2565   1.568   1.589   0.426  0.4957 -0.2210  0.4641
  165TMC2    C3 2566   1.701   1.627   0.437  0.2685 -0.5534  0.0566
  165TMC2    C4 2567   1.508   1.766   0.575  0.6208  0.2880  0.2964
  165TMC2    C5 2568   1.640   1.787   0.591  0.3227 -0.7132  0.2630
  165TMC2    C6 2569   1.740   1.726   0.518  0.1903 -1.0486 -0.1240
  165TMC2     C 2570   1.338   1.626   0.484  0.3815  0.0484 -0.6561
  165TMC2     O 2571   1.319   1.504   0.471 -0.1836 -0.5563 -0.2758
  165TMC2     H 2572   1.538   1.503   0.368 -2.1522  1.3512 -0.4622
  165TMC2    H1 2573   1.433   1.795   0.648  1.1695  1.5923  0.3440
  165TMC2    H2 2574   1.842   1.760   0.533  0.1013 -0.0824 -1.6881
  165TMC2    C7 2575   1.674   1.905   0.682 -0.0576  0.2187 -0.2161
  165TMC2    C8 2576   1.790   1.510   0.431 -0.3443  0.1943 -0.1576
  165TMC2    O1 2577   1.792   1.901   0.718 -0.5129 -0.1397  0.1938
  165TMC2    O2 2578   1.742   1.394   0.430 -0.2048 -0.4675  0.1631
  165TMC2    O5 2579   1.920   1.544   0.449  0.3464 -0.2436 -0.2116
  165TMC2    H5 2580   1.942   1.631   0.408  0.2736 -0.3406 -0.4570
  166MPD2     C 2581   0.837   1.701   0.581  0.1925  0.4211  0.0515
  166MPD2    C1 2582   0.907   1.587   0.572 -0.4950  0.3487 -0.7830
  166MPD2    C2 2583   1.041   1.593   0.520  0.0554  0.0022 -0.1153
  166MPD2    C3 2584   1.101   1.716   0.509 -0.0148  0.0219  0.4592
  166MPD2    C4 2585   1.030   1.829   0.531 -0.5404 -0.8055  0.0744
  166MPD2    C5 2586   0.898   1.821   0.560 -0.2807 -0.3879  0.1532
  166MPD2     H 2587   1.099   1.502   0.506  1.5725  1.3357 -2.3184
  166MPD2    H1 2588   1.079   1.924   0.514 -3.8853  1.0575  0.9107
  166MPD2    H2 2589   0.734   1.699   0.616 -0.1277  0.2994 -0.9005
  166MPD2    H3 2590   0.841   1.913   0.574 -0.0084 -0.5936  2.5502
  166MPD2     N 2591   1.243   1.729   0.498  0.1991 -0.3108  0.0352
  166MPD2    H5 2592   1.280   1.823   0.508 -0.3445  0.1304 -2.0439
  166MPD2    N1 2593   0.846   1.470   0.615  0.9520 -0.2134  0.6840
  166MPD2    H7 2594   0.763   1.482   0.671 -0.1563  4.5585 -1.8945
  167TMC2    C1 2595   4.506   0.110  13.103  0.7111  0.1463  0.3852
  167TMC2    C2 2596   4.425   0.162  13.196  0.8647 -0.4024  0.5772
  167TMC2    C3 2597   4.295   0.128  13.197 -0.9664  0.3940  0.7777
  167TMC2    C4 2598   4.469   0.020  13.006 -0.6082  0.2932  0.1246
  167TMC2    C5 2599   4.338   4.723  13.016 -0.3091  0.2409  0.3693
  167TMC2    C6 2600   4.259   0.024  13.117 -0.1187 -0.0686  0.7073
  167TMC2     C 2601   4.631   0.188  13.077  0.2266 -0.1226 -0.0451
  167TMC2     O 2602   4.680   0.261  13.163 -0.0577 -0.1605  0.0381
  167TMC2     H 2603   4.463   0.225  13.276  3.6385  1.5831 -2.3201
  167TMC2    H1 2604   4.535   4.708  12.937  1.5625  2.6968  0.3815
  167TMC2    H2 2605   4.155   4.739  13.108  0.4485 -2.5280  1.2828
  167TMC2    C7 2606   4.288   4.599  12.949  0.0315  0.1446  0.4346
  167TMC2    C8 2607   4.189   0.199  13.280  0.0637 -0.0371  0.2881
  167TMC2    O1 2608   4.205   4.541  13.012  0.1043 -0.1190  0.0836
  167TMC2    O2 2609   4.099   0.147  13.344  0.0039  0.4550 -0.0266
  167TMC2    O5 2610   4.229   0.327  13.309  0.2094  0.0631  0.4210
  167TMC2    H5 2611   4.295   0.363  13.245  1.5618 -0.2065  1.6583
  168MPD2     C 2612   0.139   0.290  12.955  0.3710 -0.2744  0.1071
  168MPD2    C1 2613   0.044   0.226  12.886  0.0886 -0.0306  1.0987
  168MPD2    C2 2614   0.051   0.223  12.751  0.4701 -0.1412 -0.4329
  168MPD2    C3 2615   0.149   0.298  12.687 -0.0702 -0.7259  0.8132
  168MPD2    C4 2616   0.241   0.365  12.762  0.3700  0.1752  0.1034
  168MPD2    C5 2617   0.237   0.362  12.901 -0.8977 -0.0323 -0.1693
  168MPD2     H 2618   4.707   0.183  12.696 -0.7050  0.0839  1.2333
  168MPD2    H1 2619   0.320   0.419  12.710  2.5005 -0.6871  2.4195
  168MPD2    H2 2620   0.147   0.279  13.062  0.1643  0.0448  0.1546
  168MPD2    H3 2621   0.311   0.414  12.961  0.0007  0.8113 -2.0318
  168MPD2     N 2622   0.150   0.320  12.548  0.2881 -0.1531  0.1161
  168MPD2    H5 2623   0.217   0.388  12.514 -0.1395  0.9996  1.5650
  168MPD2    N1 2624   4.675   0.165  12.950  0.2940  0.2705 -1.2901
  168MPD2    H7 2625   4.609   0.118  12.888 -1.4276 -0.1277  0.8061
  169MPD1     C 2626   1.227   0.513   9.377  0.4649  0.3227  0.6575
  169MPD1    C1 2627   1.349   0.558   9.424 -1.0253 -0.5067  0.5700
  169MPD1    C2 2628   1.430   0.473   9.492 -0.8041 -0.1411  0.3683
  169MPD1    C3 2629   1.400   0.339   9.517  0.0586  0.5047 -0.0090
  169MPD1    C4 2630   1.276   0.296   9.477  0.2968  0.4297 -0.3333
  169MPD1    C5 2631   1.198   0.384   9.400  0.2645 -0.4507 -0.5300
  169MPD1     H 2632   1.526   0.504   9.531 -0.5620 -0.4010 -0.0282
  169MPD1    H1 2633   1.230   0.202   9.506  0.8345  0.3699  0.3221
  169MPD1    H2 2634   1.165   0.578   9.317  1.3662 -0.0044 -0.6137
  169MPD1    H3 2635   1.103   0.341   9.368  0.2526 -0.0241 -1.0748
  169MPD1     N 2636   1.490   0.258   9.596 -0.0966 -0.3044  0.7362
  169MPD1    H5 2637   1.573   0.306   9.632 -0.4169 -0.2177  1.3696
  169MPD1    N1 2638   1.389   0.680   9.375  0.6442  0.0291 -0.3700
  169MPD1    H6 2639   1.313   0.747   9.370  0.3573 -0.5755 -4.1763
  169MPD1    H7 2640   1.448   0.713   9.451  0.9728 -0.9014 -0.2205
  170MPD1     C 2641   0.790   2.758  12.777 -0.1822 -0.0117 -0.4970
  170MPD1    C1 2642   0.656   2.735  12.736  0.3290 -0.1856  0.4498
  170MPD1    C2 2643   0.591   2.645  12.815 -0.2153 -0.3128 -0.4143
  170MPD1    C3 2644   0.637   2.584  12.936 -0.7788  0.8578  0.3228
  170MPD1    C4 2645   0.770   2.609  12.969 -0.1309  0.6026  0.3818
  170MPD1    C5 2646   0.842   2.695  12.892 -0.5810 -0.0900  0.2559
  170MPD1     H 2647   0.485   2.628  12.795 -0.7580  0.6191  1.6164
  170MPD1    H1 2648   0.812   2.573  13.063 -0.3029  0.2025  0.3088
  170MPD1    H2 2649   0.857   2.828  12.727  0.0729 -0.1034 -0.2867
  170MPD1    H3 2650   0.943   2.726  12.915 -0.8630 -0.5040  2.0125
  170MPD1     N 2651   0.546   2.518  13.011  0.1272  0.1394  0.5425
  170MPD1    H5 2652   0.463   2.489  12.960  0.1930  2.3798 -0.8283
  170MPD1    N1 2653   0.604   2.770  12.610  0.0641  0.6419 -0.4315
  170MPD1    H6 2654   0.504   2.786  12.621  0.3068  1.6439  0.3719
  170MPD1    H7 2655   0.659   2.838  12.557 -0.4926  1.2591 -0.2263
  171MPD1     C 2656   3.290   3.152  15.503 -0.0482 -0.1730 -0.2600
  171MPD1    C1 2657   3.309   3.025  15.455 -0.2326 -0.3514 -0.5418
  171MPD1    C2 2658   3.392   2.935  15.523 -0.2740 -0.2291 -0.2493
  171MPD1    C3 2659   3.469   2.980  15.633  0.1190 -0.2068  0.4714
  171MPD1    C4 2660   3.451   3.105  15.680 -0.5854  0.6519 -0.6219
  171MPD1    C5 2661   3.358   3.192  15.615  0.8704 -0.5398 -0.3077
  171MPD1     H 2662   3.385   2.833  15.488  1.1041 -0.0721 -0.9935
  171MPD1    H1 2663   3.491   3.137  15.775  0.3784 -2.4537  0.0363
  171MPD1    H2 2664   3.214   3.217  15.462  0.2653 -1.3143 -2.6558
  171MPD1    H3 2665   3.342   3.293  15.651  1.7757 -0.1095 -1.1234
  171MPD1     N 2666   3.559   2.890  15.700  0.2428 -0.3916  0.2971
  171MPD1    H5 2667   3.606   2.919  15.785  0.7955  1.0033 -0.4851
  171MPD1    N1 2668   3.216   2.968  15.365  0.3453 -0.6056 -0.3542
  171MPD1    H6 2669   3.255   2.880  15.332 -0.9772 -1.1389 -0.4741
  171MPD1    H7 2670   3.188   3.022  15.283  1.4258  1.4823  0.6420
  172MPD1     C 2671   3.261   2.206  17.120 -0.2795  0.9602  0.6965
  172MPD1    C1 2672   3.287   2.336  17.163  0.1020 -0.1873  0.8047
  172MPD1    C2 2673   3.308   2.362  17.297 -0.0039  0.1958  0.0575
  172MPD1    C3 2674   3.292   2.264  17.390  0.0098 -0.5808  0.3062
  172MPD1    C4 2675   3.258   2.137  17.349 -0.3511  0.0321  0.2594
  172MPD1    C5 2676   3.250   2.108  17.215 -0.5991  0.2393 -0.4359
  172MPD1     H 2677   3.332   2.464  17.325 -4.2030  0.1330  3.7476
  172MPD1    H1 2678   3.238   2.051  17.413  1.8068 -0.5298  0.1934
  172MPD1    H2 2679   3.245   2.185  17.015  0.9033 -0.8715  0.8834
  172MPD1    H3 2680   3.226   2.010  17.177 -0.5294 -0.5613  1.5410
  172MPD1     N 2681   3.291   2.292  17.526  0.1304  0.0801  0.5009
  172MPD1    H5 2682   3.293   2.215  17.592  0.7875  0.1641  0.5870
  172MPD1    N1 2683   3.270   2.445  17.074 -1.0751  0.3270  0.0840
  172MPD1    H6 2684   3.330   2.426  16.995  0.6369 -0.3266  1.5343
  172MPD1    H7 2685   3.299   2.533  17.116  1.0542  0.2850 -1.2815
  173MPD1     C 2686   4.381   2.356  14.138  0.0339  0.0531 -0.4607
  173MPD1    C1 2687   4.439   2.235  14.112  0.1045 -1.0815  0.1220
  173MPD1    C2 2688   4.438   2.141  14.207 -0.0902  1.3768 -0.1697
  173MPD1    C3 2689   4.367   2.158  14.328  0.1508 -0.4949  0.5604
  173MPD1    C4 2690   4.287   2.270  14.340  0.2025 -0.1374  0.8910
  173MPD1    C5 2691   4.291   2.366  14.239  0.5578 -0.4056  0.0060
  173MPD1     H 2692   4.488   2.047  14.184  0.4073  1.3118  1.2192
  173MPD1    H1 2693   4.211   2.289  14.414 -1.1900 -4.9413  0.6742
  173MPD1    H2 2694   4.387   2.437  14.066  0.8523  1.2447  0.9682
  173MPD1    H3 2695   4.223   2.450  14.248  0.9552 -0.2870  1.8801
  173MPD1     N 2696   4.381   2.061  14.425 -0.2624 -0.1435  0.0959
  173MPD1    H5 2697   4.438   1.979  14.411 -2.2078 -0.7440 -4.0865
  173MPD1    N1 2698   4.526   2.222  14.002  0.5617  0.1485 -0.5294
  173MPD1    H6 2699   4.539   2.124  13.981 -1.0065 -0.2740  0.4623
  173MPD1    H7 2700   4.496   2.273  13.919 -1.5895  1.0373  0.7970
  174MPD1     C 2701   0.004   1.287  14.312  0.2566 -0.0741 -0.7151
  174MPD1    C1 2702   4.688   1.262  14.437  0.2005 -0.0400  0.0747
  174MPD1    C2 2703   4.618   1.359  14.504 -0.2022 -0.0895 -0.4760
  174MPD1    C3 2704   4.625   1.491  14.458 -0.0679 -0.2900  0.1392
  174MPD1    C4 2705   4.696   1.518  14.344  0.1689 -0.3510  0.5856
  174MPD1    C5 2706   0.006   1.418  14.277 -0.5434  0.3790  1.1591
  174MPD1     H 2707   4.564   1.332  14.594  1.8159  1.0307  1.0667
  174MPD1    H1 2708   4.711   1.620  14.312 -3.3174  0.5218  1.6610
  174MPD1    H2 2709   0.052   1.206  14.258 -0.2286  1.2955 -3.2386
  174MPD1    H3 2710   0.055   1.435  14.182 -0.1488 -0.5635  1.1947
  174MPD1     N 2711   4.572   1.608  14.526 -0.3500 -0.7194  1.0962
  174MPD1    H5 2712   4.591   1.694  14.475  0.0076 -0.2376  2.0632
  174MPD1    N1 2713   4.685   1.125  14.477 -0.2329 -0.1410  0.3118
  174MPD1    H6 2714   4.662   1.109  14.575  1.6111  0.9241  0.9148
  174MPD1    H7 2715   0.031   1.074  14.466  0.6012  0.8919  2.0934
  175MPD1     C 2716   2.916   3.248  15.574  0.0119  0.3143 -0.3817
  175MPD1    C1 2717   2.804   3.173  15.571  0.8947 -0.4909  0.0493
  175MPD1    C2 2718   2.758   3.117  15.688  0.4418 -0.4265 -0.4033
  175MPD1    C3 2719   2.813   3.150  15.810 -0.3215  0.7683  0.3230
  175MPD1    C4 2720   2.925   3.233  15.813  0.7337 -0.3875  0.3800
  175MPD1    C5 2721   2.973   3.279  15.697 -0.7097  0.1184 -0.0287
  175MPD1     H 2722   2.673   3.050  15.693  0.0767  0.0009 -0.8690
  175MPD1    H1 2723   2.980   3.261  15.902 -0.7642 -0.1945  1.2533
  175MPD1    H2 2724   2.962   3.289  15.485  0.3347  0.0256 -0.3454
  175MPD1    H3 2725   3.058   3.345  15.695 -0.5938  0.0273  1.7668
  175MPD1     N 2726   2.770   3.101  15.936 -0.3981  0.0508  0.3723
  175MPD1    H5 2727   2.829   3.125  16.015 -0.1175 -2.5018  0.9620
  175MPD1    N1 2728   2.760   3.118  15.446  1.1947 -0.2400  0.4540
  175MPD1    H6 2729   2.787   3.177  15.367 -3.2880 -1.1957 -1.7770
  175MPD1    H7 2730   2.661   3.097  15.441  1.7566 -2.2641 -2.3978
  176MPD1     C 2731   4.347   0.288   0.101 -0.2716 -0.1339 -0.0813
  176MPD1    C1 2732   4.472   0.308   0.157  0.1987 -0.0415 -0.4028
  176MPD1    C2 2733   4.571   0.370   0.080 -0.0534 -0.5876 -0.2542
  176MPD1    C3 2734   4.546   0.407  17.708  0.4371 -0.5072  0.6488
  176MPD1    C4 2735   4.427   0.367  17.651  0.1331 -0.1578  0.7056
  176MPD1    C5 2736   4.330   0.309  17.729  0.2482  0.2642 -0.1817
  176MPD1     H 2737   4.656   0.405   0.137 -1.3707  2.0237  0.0855
  176MPD1    H1 2738   4.400   0.392  17.549  0.7073  1.7898  1.0307
  176MPD1    H2 2739   4.268   0.251   0.166 -0.6945  1.4839  0.3522
  176MPD1    H3 2740   4.232   0.291  17.687  0.8991 -1.0526 -1.1482
  176MPD1     N 2741   4.643   0.490  17.645  0.2843 -0.3309  0.1155
  176MPD1    H5 2742   4.721   0.520  17.703  1.0318 -0.9213 -0.5895
  176MPD1    N1 2743   4.475   0.301   0.299  0.4676  0.6544 -0.1756
  176MPD1    H6 2744   4.410   0.239   0.347 -0.1716  1.4813  0.0088
  176MPD1    H7 2745   4.569   0.305   0.339 -1.0114  1.1273  3.2458
  177MPD1     C 2746   3.187   0.251  10.079  1.2352  0.2519  0.4892
  177MPD1    C1 2747   3.101   0.220   9.976 -0.9691  0.2738  0.3174
  177MPD1    C2 2748   3.063   0.323   9.890 -0.7587  0.6466 -0.0832
  177MPD1    C3 2749   3.092   0.455   9.922 -0.6276  0.0502 -0.7528
  177MPD1    C4 2750   3.159   0.485  10.036 -0.1576  0.4758 -0.6049
  177MPD1    C5 2751   3.208   0.385  10.115 -0.2142 -0.3680 -0.3952
  177MPD1     H 2752   3.009   0.306   9.797 -0.7671  0.9936 -0.1434
  177MPD1    H1 2753   3.178   0.584  10.074 -0.2244  0.7352 -1.2535
  177MPD1    H2 2754   3.235   0.176  10.140  0.2639  0.7230  1.8324
  177MPD1    H3 2755   3.263   0.402  10.207 -1.4994  1.6736 -0.0120
  177MPD1     N 2756   3.055   0.554   9.828  0.3645  0.1303  0.2280
  177MPD1    H5 2757   3.008   0.531   9.741  1.1055 -0.9870  0.1365
  177MPD1    N1 2758   3.076   0.085   9.944  0.1586  0.3188  0.3535
  177MPD1    H6 2759   3.085   0.036  10.033 -0.2034  0.1598  0.3055
  177MPD1    H7 2760   2.986   0.063   9.902  0.0556  2.1106 -0.3590
  178MPD1     C 2761   1.053   0.629   0.010  0.0499 -0.5120 -0.2099
  178MPD1    C1 2762   1.123   0.745   0.034 -0.4310 -0.0477 -0.4696
  178MPD1    C2 2763   1.167   0.819  17.686  0.2440  0.3496  0.3199
  178MPD1    C3 2764   1.143   0.775  17.550  0.1552  0.1093 -0.1752
  178MPD1    C4 2765   1.061   0.661  17.532  0.6206  0.6591  0.0790
  178MPD1    C5 2766   1.018   0.600  17.642 -0.6396  0.5256 -0.5205
  178MPD1     H 2767   1.223   0.909  17.704  0.3235  0.5050 -0.7431
  178MPD1    H1 2768   1.035   0.626  17.433  1.7510 -0.3210  0.1303
  178MPD1    H2 2769   1.020   0.564   0.091  0.4249 -0.1826  0.2038
  178MPD1    H3 2770   0.956   0.514  17.618 -0.6769  0.9727 -1.9789
  178MPD1     N 2771   1.186   0.844  17.433 -0.6045  0.8698  0.1876
  178MPD1    H5 2772   1.145   0.804  17.350 -0.8869 -2.7037  2.0741
  178MPD1    N1 2773   1.149   0.789   0.165 -0.0847  0.4621 -0.1571
  178MPD1    H6 2774   1.237   0.839   0.172  0.3607 -0.2846 -0.3568
  178MPD1    H7 2775   1.162   0.708   0.226 -1.2379 -0.1949 -0.7882
  179MPD1     C 2776   4.479   4.202  16.219 -0.1430  0.6601  0.0020
  179MPD1    C1 2777   4.502   4.175  16.084 -1.0213 -0.6022 -0.7365
  179MPD1    C2 2778   4.532   4.039  16.050 -0.4237 -0.1529  0.4819
  179MPD1    C3 2779   4.547   3.943  16.144 -0.2221  0.3181  0.2234
  179MPD1    C4 2780   4.516   3.968  16.278 -0.5507 -0.7483  0.1073
  179MPD1    C5 2781   4.479   4.100  16.312 -0.0201 -0.1108 -0.9020
  179MPD1     H 2782   4.540   4.022  15.943  0.2133  0.0626  0.4939
  179MPD1    H1 2783   4.530   3.892  16.355 -0.8447 -0.5278  0.3825
  179MPD1    H2 2784   4.443   4.299  16.251 -4.3354 -1.1824  0.8105
  179MPD1    H3 2785   4.471   4.124  16.418 -0.4664 -0.5662 -0.8321
  179MPD1     N 2786   4.573   3.809  16.104 -0.6484 -0.6173  0.0440
  179MPD1    H5 2787   4.590   3.736  16.172  0.7625 -0.2918  0.0325
  179MPD1    N1 2788   4.467   4.273  15.986  0.4731  0.6440  0.5716
  179MPD1    H6 2789   4.485   4.361  16.035  1.4832  1.3318 -1.0502
  179MPD1    H7 2790   4.512   4.274  15.895 -0.2062 -0.8170  0.2181
  180MPD1     C 2791   0.220   0.365  14.780  0.0436 -0.2980 -0.1982
  180MPD1    C1 2792   0.097   0.426  14.808 -0.2820  0.0376  0.0671
  180MPD1    C2 2793   4.717   0.355  14.775  0.1762 -0.1627 -0.3178
  180MPD1    C3 2794   4.726   0.234  14.708  0.1692  0.3249 -0.1666
  180MPD1    C4 2795   0.110   0.175  14.690  0.5452  0.1823  0.3205
  180MPD1    C5 2796   0.223   0.238  14.723  0.3615 -0.1076 -0.6414
  180MPD1     H 2797   4.621   0.404  14.783 -0.0214 -0.2374 -2.2933
  180MPD1    H1 2798   0.117   0.073  14.654 -0.7263  0.4722 -0.7406
  180MPD1    H2 2799   0.316   0.413  14.793 -0.3172  0.2629  0.3850
  180MPD1    H3 2800   0.320   0.199  14.696  1.1274  0.5182  1.1735
  180MPD1     N 2801   4.603   0.170  14.672  0.1246  0.0036 -0.2302
  180MPD1    H5 2802   4.521   0.229  14.678 -0.4603 -1.0940  2.7694
  180MPD1    N1 2803   0.093   0.565  14.827 -0.1693 -0.6791  0.2737
  180MPD1    H6 2804   0.002   0.596  14.861  0.0457 -0.6021  0.7764
  180MPD1    H7 2805   0.167   0.614  14.878  1.5379 -1.3434 -1.5602
  181MPD1     C 2806   1.609   3.020  10.330  0.4575 -0.0756 -0.0680
  181MPD1    C1 2807   1.638   3.126  10.413 -0.3020  0.4384 -0.2568
  181MPD1    C2 2808   1.762   3.177  10.414 -0.6160 -1.0596 -0.5705
  181MPD1    C3 2809   1.859   3.121  10.335  0.7492 -0.6779 -0.0810
  181MPD1    C4 2810   1.834   3.003  10.267 -0.0206 -0.3923  0.6453
  181MPD1    C5 2811   1.707   2.951  10.272  0.3024  0.3952 -0.1792
  181MPD1     H 2812   1.775   3.266  10.475 -0.9157 -1.0654 -0.4971
  181MPD1    H1 2813   1.909   2.952  10.207 -1.3674  0.9401 -2.1835
  181MPD1    H2 2814   1.510   2.978  10.320  1.0089 -1.4532  0.1991
  181MPD1    H3 2815   1.694   2.860  10.216  1.6307  1.2265 -1.8568
  181MPD1     N 2816   1.989   3.176  10.322  0.3957  0.2847  0.4625
  181MPD1    H5 2817   2.049   3.111  10.273  1.4024  2.1602 -0.7861
  181MPD1    N1 2818   1.534   3.193  10.479  0.0971  0.0112  0.1047
  181MPD1    H6 2819   1.571   3.248  10.555  0.7216  0.3765 -0.4649
  181MPD1    H7 2820   1.489   3.110  10.517  1.7604 -0.0138  1.9737
  182MPD1     C 2821   2.740   1.017   0.591  0.0649  0.3215 -0.1155
  182MPD1    C1 2822   2.843   1.050   0.504 -0.0232  0.6727  0.2231
  182MPD1    C2 2823   2.832   1.175   0.440  0.5928  0.1779 -0.1648
  182MPD1    C3 2824   2.724   1.266   0.477  0.4297 -0.3242  0.7404
  182MPD1    C4 2825   2.630   1.222   0.563  0.7083  0.0202 -0.3149
  182MPD1    C5 2826   2.638   1.097   0.621  0.1092  0.2225  0.4325
  182MPD1     H 2827   2.895   1.209   0.359 -0.8809  2.7681 -0.2376
  182MPD1    H1 2828   2.544   1.282   0.587  1.2416 -0.5326  2.8932
  182MPD1    H2 2829   2.734   0.920   0.639 -0.7589  0.6865  0.5178
  182MPD1    H3 2830   2.559   1.060   0.686 -1.8232 -1.3791 -2.8302
  182MPD1     N 2831   2.728   1.401   0.443  0.0692 -0.1033  0.3482
  182MPD1    H5 2832   2.651   1.457   0.478  0.9046  1.2624 -0.0208
  182MPD1    N1 2833   2.949   0.961   0.491  0.0461 -0.4567  0.3636
  182MPD1    H6 2834   2.923   0.866   0.516  3.1110 -0.9726  1.5382
  182MPD1    H7 2835   2.977   0.950   0.394  2.2651  1.1368  0.8210
  183MPD1     C 2836   2.321   2.297   8.475  0.3867  0.2222 -0.2406
  183MPD1    C1 2837   2.233   2.399   8.508 -1.0264  0.5485  0.3655
  183MPD1    C2 2838   2.281   2.500   8.597  0.6871  0.9378 -0.2057
  183MPD1    C3 2839   2.409   2.490   8.663  0.0067  0.4439 -0.6120
  183MPD1    C4 2840   2.487   2.381   8.630  0.3294 -0.3502  0.3203
  183MPD1    C5 2841   2.446   2.281   8.547  0.0406 -0.7065  0.1189
  183MPD1     H 2842   2.213   2.581   8.621  1.2465  1.6230 -0.9177
  183MPD1    H1 2843   2.589   2.362   8.664  0.0502 -0.5720  1.0285
  183MPD1    H2 2844   2.296   2.225   8.398  0.6577  0.6507 -0.7384
  183MPD1    H3 2845   2.497   2.194   8.509  0.4901  0.0989 -1.1463
  183MPD1     N 2846   2.448   2.602   8.753  0.0743 -0.0564 -0.2956
  183MPD1    H5 2847   2.388   2.684   8.756 -0.6669 -0.6546  1.0696
  183MPD1    N1 2848   2.109   2.403   8.444 -0.1187 -0.1045 -0.0109
  183MPD1    H6 2849   2.035   2.455   8.492  0.5698  0.9749 -0.1159
  183MPD1    H7 2850   2.068   2.314   8.415 -1.9082  0.7133 -0.0367
  184MPD1     C 2851   1.681   0.781  10.439 -0.3335 -0.1838 -0.6626
  184MPD1    C1 2852   1.818   0.796  10.444  0.1802 -0.5345 -1.1914
  184MPD1    C2 2853   1.897   0.750  10.339  0.8172  0.2010  0.7918
  184MPD1    C3 2854   1.837   0.712  10.218  1.0381  0.5128  0.2725
  184MPD1    C4 2855   1.697   0.697  10.215  0.0364  0.0625  0.3283
  184MPD1    C5 2856   1.620   0.740  10.321  0.0445  0.0223  0.1796
  184MPD1     H 2857   2.003   0.741  10.360  1.4409  1.3698 -1.8923
  184MPD1    H1 2858   1.652   0.647  10.131  1.3853  1.2609 -1.1155
  184MPD1    H2 2859   1.625   0.820  10.523 -0.5779  0.9663 -1.3612
  184MPD1    H3 2860   1.512   0.733  10.314  0.3456 -3.0412 -1.5487
  184MPD1     N 2861   1.914   0.672  10.109 -0.0813  0.3713 -0.6755
  184MPD1    H5 2862   1.867   0.639  10.025 -0.1875 -0.9871 -0.0924
  184MPD1    N1 2863   1.885   0.818  10.562  0.1529  0.8549 -0.1166
  184MPD1    H6 2864   1.842   0.881  10.630  1.4619  2.2034 -0.5226
  184MPD1    H7 2865   1.968   0.873  10.539 -0.1615  0.7498 -1.5328
  185MPD1     C 2866   1.774   0.915   9.204 -0.9482 -0.3496  0.2571
  185MPD1    C1 2867   1.739   0.801   9.279 -0.1440 -0.7303  0.7970
  185MPD1    C2 2868   1.815   0.758   9.389  0.1889  0.1913 -0.3319
  185MPD1    C3 2869   1.931   0.827   9.422 -0.2576  0.4180  0.2880
  185MPD1    C4 2870   1.971   0.935   9.339  0.1062  1.0281  0.7740
  185MPD1    C5 2871   1.889   0.980   9.239 -0.3549  0.3384  0.6289
  185MPD1     H 2872   1.777   0.673   9.444  0.7239 -0.9472 -1.7076
  185MPD1    H1 2873   2.056   0.999   9.361 -0.1464  1.0749  1.6356
  185MPD1    H2 2874   1.712   0.947   9.120 -0.0813 -0.8076 -0.5556
  185MPD1    H3 2875   1.928   1.065   9.184  1.1654 -0.9104 -0.2483
  185MPD1     N 2876   2.004   0.799   9.541  0.5533  0.4890 -0.5867
  185MPD1    H5 2877   2.082   0.862   9.557 -0.1491  1.0878  0.4701
  185MPD1    N1 2878   1.638   0.725   9.223 -0.2627 -1.1355 -0.1192
  185MPD1    H6 2879   1.577   0.784   9.167  2.6392  2.0341  0.0089
  185MPD1    H7 2880   1.573   0.695   9.295  0.2840 -0.3019  0.7256
  186MPD1     C 2881   4.666   4.124  15.664  0.2840 -0.7790 -0.3823
  186MPD1    C1 2882   0.034   4.065  15.730  0.2222  0.0871  0.2806
  186MPD1    C2 2883   0.104   4.147  15.817 -0.7087 -0.6451  0.4073
  186MPD1    C3 2884   0.065   4.277  15.839  0.0152  0.0764  0.0537
  186MPD1    C4 2885   4.688   4.327  15.784 -0.9102  0.0712 -0.5554
  186MPD1    C5 2886   4.629   4.251  15.697 -0.0727  0.3278  0.2776
  186MPD1     H 2887   0.194   4.108  15.862  0.3356  1.8759  0.4788
  186MPD1    H1 2888   4.657   4.431  15.787 -0.3985  0.2355 -0.8845
  186MPD1    H2 2889   4.596   4.062  15.609 -1.5044 -2.3865  3.7758
  186MPD1    H3 2890   4.538   4.291  15.655 -0.9407 -2.2835 -0.3112
  186MPD1     N 2891   0.135   4.370  15.920 -0.2272  0.1408  0.3212
  186MPD1    H5 2892   0.096   4.463  15.931 -1.0451 -0.2385  0.5937
  186MPD1    N1 2893   0.064   3.927  15.704  0.3147 -0.6608 -0.3078
  186MPD1    H6 2894   4.735   3.860  15.733  1.2199 -0.8516  1.4565
  186MPD1    H7 2895   0.145   3.889  15.753 -0.2128 -1.4876 -0.0713
  187MPD1     C 2896   0.355   1.990   0.208  0.5433 -0.1999  0.3876
  187MPD1    C1 2897   0.373   1.858   0.165  0.2289 -0.3509  0.0796
  187MPD1    C2 2898   0.343   1.817   0.039 -0.0525 -0.1503  0.3307
  187MPD1    C3 2899   0.299   1.912  17.705  0.2523 -0.7394 -0.9395
  187MPD1    C4 2900   0.281   2.037  17.750 -0.2305 -0.0473 -0.1281
  187MPD1    C5 2901   0.318   2.083   0.114  0.5642  0.3185 -0.7772
  187MPD1     H 2902   0.373   1.715   0.014  0.4599 -0.0545  0.5335
  187MPD1    H1 2903   0.256   2.121  17.686  0.5101  1.4516  1.5782
  187MPD1    H2 2904   0.362   2.015   0.313 -1.5393 -1.6738  0.8903
  187MPD1    H3 2905   0.302   2.185   0.148  0.0253 -0.5601  1.6022
  187MPD1     N 2906   0.275   1.887  17.570  0.0435 -0.7052 -1.0028
  187MPD1    H5 2907   0.255   1.969  17.515  1.2776  0.4481  0.2793
  187MPD1    N1 2908   0.398   1.763   0.266 -0.1694 -0.2780 -0.3847
  187MPD1    H6 2909   0.463   1.802   0.334  2.2655 -1.8639 -1.7578
  187MPD1    H7 2910   0.431   1.673   0.231 -1.2405 -1.3426  1.3379
  188MPD1     C 2911   4.675   2.052  10.654  0.1723 -0.0604 -0.9094
  188MPD1    C1 2912   4.555   2.066  10.600 -0.1854 -0.2067 -0.3256
  188MPD1    C2 2913   4.504   1.965  10.523 -0.2857 -0.1395  0.2510
  188MPD1    C3 2914   4.574   1.843  10.522  0.0559  0.3115  0.0767
  188MPD1    C4 2915   4.688   1.826  10.599  0.2881 -0.6232  0.1756
  188MPD1    C5 2916   0.004   1.935  10.660  0.2775  0.1152 -0.2426
  188MPD1     H 2917   4.409   1.971  10.471 -0.7153 -1.6287  0.8765
  188MPD1    H1 2918   4.738   1.730  10.591  0.2579 -0.7725  1.7805
  188MPD1    H2 2919   4.725   2.132  10.706 -1.0096  0.9286 -1.2922
  188MPD1    H3 2920   0.103   1.934  10.703  0.4578  3.4389 -0.6002
  188MPD1     N 2921   4.519   1.722  10.465  0.2766 -0.3824  0.1140
  188MPD1    H5 2922   4.561   1.635  10.494 -1.0520 -0.7373  0.9517
  188MPD1    N1 2923   4.483   2.192  10.586 -0.8716  0.5232 -0.3875
  188MPD1    H6 2924   4.497   2.255  10.665  2.2062 -1.8765  1.0121
  188MPD1    H7 2925   4.383   2.176  10.586 -0.9077  0.7340  2.0351
  189MPD1     C 2926   1.938   2.226   0.108  0.4180 -0.3392 -0.0025
  189MPD1    C1 2927   1.838   2.136   0.075 -0.0942  0.2665 -0.3854
  189MPD1    C2 2928   1.717   2.197   0.070  0.5469 -0.5118 -0.5939
  189MPD1    C3 2929   1.690   2.324   0.109 -0.2421  0.2210 -0.1957
  189MPD1    C4 2930   1.797   2.406   0.138 -0.4128 -0.3014 -0.1317
  189MPD1    C5 2931   1.923   2.359   0.143  0.0222  0.0809 -0.1308
  189MPD1     H 2932   1.625   2.154   0.032  1.1134  1.0470 -3.7667
  189MPD1    H1 2933   1.778   2.507   0.173  0.2454 -0.4042  0.5374
  189MPD1    H2 2934   2.042   2.196   0.099  0.9794  1.4168  0.4836
  189MPD1    H3 2935   2.001   2.423   0.183  0.5574  0.1274 -1.2362
  189MPD1     N 2936   1.555   2.363   0.118  0.3765  0.0865 -0.6955
  189MPD1    H5 2937   1.488   2.296   0.081 -0.0624  0.7715 -1.1607
  189MPD1    N1 2938   1.878   2.017   0.013  0.1371 -0.0838  0.0097
  189MPD1    H6 2939   1.805   1.946   0.016  0.1074 -0.0813 -0.6204
  189MPD1    H7 2940   1.964   1.976   0.047  0.2175  0.1200  0.0559
  190MPD1     C 2941   0.117   4.721  15.201  0.4621  0.0838  0.4197
  190MPD1    C1 2942   0.148   0.068  15.100  0.2715  0.3368 -0.1040
  190MPD1    C2 2943   0.237   0.171  15.123  0.4263  0.1781 -0.4244
  190MPD1    C3 2944   0.291   0.196  15.245  0.5317  0.3166  0.8817
  190MPD1    C4 2945   0.240   0.122  15.346  0.1193  0.1482 -0.0944
  190MPD1    C5 2946   0.155   0.015  15.325  0.6817 -0.2215 -0.1025
  190MPD1     H 2947   0.272   0.239  15.045 -1.3801  1.6252  0.0245
  190MPD1    H1 2948   0.277   0.139  15.447  2.2862 -1.6062 -0.5805
  190MPD1    H2 2949   0.067   4.628  15.175  0.7503 -0.3854  1.5371
  190MPD1    H3 2950   0.144   4.691  15.411  0.9373  0.8444  0.7342
  190MPD1     N 2951   0.393   0.293  15.256  0.5632 -0.3117 -0.2708
  190MPD1    H5 2952   0.433   0.331  15.171  1.3817 -1.1815 -0.2786
  190MPD1    N1 2953   0.112   0.027  14.970  0.2795  0.2036 -0.4713
  190MPD1    H6 2954   0.187   4.716  14.924  0.7557 -0.6710  1.2714
  190MPD1    H7 2955   0.097   0.107  14.909 -1.0415 -1.9220 -2.9542
  191MPD1     C 2956   3.200   3.106  13.671  0.4427 -0.2154  0.3229
  191MPD1    C1 2957   3.234   3.195  13.572  0.0761  0.0021 -0.1014
  191MPD1    C2 2958   3.274   3.145  13.449 -0.3129 -0.3507  0.4365
  191MPD1    C3 2959   3.306   3.010  13.440  0.3491  0.4403  0.3848
  191MPD1    C4 2960   3.284   2.924  13.551  0.1622  0.0042 -0.1801
  191MPD1    C5 2961   3.218   2.973  13.661  0.3422 -0.3848  0.0482
  191MPD1     H 2962   3.291   3.205  13.360 -0.9746  0.4863  0.8669
  191MPD1    H1 2963   3.288   2.815  13.547 -0.6210 -0.0787  1.1944
  191MPD1    H2 2964   3.156   3.142  13.763  1.3091  1.4771  0.0617
  191MPD1    H3 2965   3.186   2.918  13.749  1.6426 -3.3466 -1.3512
  191MPD1     N 2966   3.347   2.962  13.314  0.2089 -0.1442 -0.1169
  191MPD1    H5 2967   3.336   3.032  13.241 -0.7335  0.1227  0.2779
  191MPD1    N1 2968   3.185   3.323  13.573 -0.1242  0.3361  0.1144
  191MPD1    H6 2969   3.220   3.393  13.508 -2.5904  0.2803 -1.2789
  191MPD1    H7 2970   3.185   3.359  13.669 -0.8435  0.1709  0.1743
  192MPD1     C 2971   3.742   2.060  13.014 -0.3400  0.4992  0.9814
  192MPD1    C1 2972   3.711   2.128  12.899  0.2013 -0.0380 -0.0904
  192MPD1    C2 2973   3.643   2.249  12.913  0.2403 -0.3949 -0.2468
  192MPD1    C3 2974   3.630   2.309  13.041  0.1737 -0.5345 -0.8074
  192MPD1    C4 2975   3.670   2.235  13.154 -0.4408 -0.4700 -0.4394
  192MPD1    C5 2976   3.715   2.110  13.145  0.4284 -0.1186  0.0531
  192MPD1     H 2977   3.587   2.287  12.828  0.8320 -0.6807 -0.7665
  192MPD1    H1 2978   3.671   2.269  13.257 -0.0914 -1.8796  0.0313
  192MPD1    H2 2979   3.794   1.965  13.014  1.2265  1.3734 -2.4894
  192MPD1    H3 2980   3.744   2.061  13.237 -1.9187  0.6334  1.1940
  192MPD1     N 2981   3.584   2.447  13.055  0.0374  0.3277  0.3829
  192MPD1    H5 2982   3.586   2.485  13.149  2.1531 -1.9733  1.2785
  192MPD1    N1 2983   3.702   2.056  12.778 -0.4166 -0.5502 -0.0317
  192MPD1    H6 2984   3.704   2.119  12.698 -2.0020 -1.6872 -0.9712
  192MPD1    H7 2985   3.779   1.991  12.771  0.2286  0.1462  0.5228
  193MPD1     C 2986   4.338   2.558  17.748 -0.0724  0.1912 -0.1877
  193MPD1    C1 2987   4.223   2.610  17.699 -0.0735 -0.3211 -1.3467
  193MPD1    C2 2988   4.215   2.674  17.573 -0.2369  0.4561 -0.4282
  193MPD1    C3 2989   4.321   2.690  17.494  0.1653 -0.2039  0.5162
  193MPD1    C4 2990   4.443   2.651  17.550 -0.2717  0.2160 -0.5465
  193MPD1    C5 2991   4.448   2.576  17.666 -0.3115  0.1085  0.4513
  193MPD1     H 2992   4.120   2.695  17.526 -0.2127 -0.6543 -0.9742
  193MPD1    H1 2993   4.537   2.687  17.510 -0.0796 -0.5888 -0.8199
  193MPD1    H2 2994   4.344   2.495   0.076 -0.2385 -0.9096 -0.9499
  193MPD1    H3 2995   4.541   2.550  17.716 -1.2961  1.1113  2.7576
  193MPD1     N 2996   4.320   2.772  17.371  0.0854 -0.2872 -0.5672
  193MPD1    H5 2997   4.410   2.784  17.325  0.4834 -1.9970 -0.2167
  193MPD1    N1 2998   4.102   2.564   0.004  0.4022 -0.4529  0.0623
  193MPD1    H6 2999   4.125   2.567   0.103  0.0454 -0.0066  0.1326
  193MPD1    H7 3000   4.019   2.624  17.757  2.3694  2.2958  0.2976
  194MPD1     C 3001   1.876   0.585  17.025  0.1140 -0.7807  0.0593
  194MPD1    C1 3002   1.929   0.487  16.939  0.3427 -0.3456 -0.1949
  194MPD1    C2 3003   2.006   0.389  16.999 -0.2822 -0.1435 -0.8802
  194MPD1    C3 3004   2.020   0.380  17.135 -0.2570  0.2888 -0.8221
  194MPD1    C4 3005   1.974   0.479  17.211  0.3831  0.5229  0.1099
  194MPD1    C5 3006   1.901   0.584  17.161 -0.3025  0.3223  0.4177
  194MPD1     H 3007   2.055   0.320  16.932 -0.1859 -1.3056  0.3734
  194MPD1    H1 3008   2.000   0.474  17.316  1.5793  2.2578 -0.1035
  194MPD1    H2 3009   1.819   0.670  16.989  1.9053  0.6769  0.5985
  194MPD1    H3 3010   1.890   0.677  17.216  0.9186  2.0818 -2.2689
  194MPD1     N 3011   2.082   0.270  17.202 -0.6327 -0.8076 -0.2514
  194MPD1    H5 3012   2.077   0.262  17.303 -0.4278  1.7087 -0.0498
  194MPD1    N1 3013   1.936   0.503  16.801 -0.2953  0.4850  0.0717
  194MPD1    H6 3014   1.951   0.418  16.748 -1.9739 -0.3046  0.8755
  194MPD1    H7 3015   1.864   0.565  16.765 -0.0450 -1.0325 -3.0173
  195MPD1     C 3016   4.611   2.193   0.280  0.6729  0.5752  0.8827
  195MPD1    C1 3017   4.498   2.138   0.336  0.1111 -0.4661 -0.0862
  195MPD1    C2 3018   4.496   1.997   0.333  0.0732  0.1634 -0.6261
  195MPD1    C3 3019   4.601   1.924   0.277  0.2956 -0.1561 -0.3045
  195MPD1    C4 3020   4.716   1.989   0.230  0.2055 -0.1418  0.3787
  195MPD1    C5 3021   4.710   2.123   0.223 -1.0600  1.3175 -0.3940
  195MPD1     H 3022   4.413   1.942   0.377  0.3776  0.4563  0.3131
  195MPD1    H1 3023   0.062   1.932   0.199  0.5355  0.9792 -0.7623
  195MPD1    H2 3024   4.625   2.300   0.269 -0.0033  0.5198 -0.5103
  195MPD1    H3 3025   0.048   2.172   0.165  0.7117  0.2000  1.0732
  195MPD1     N 3026   4.600   1.783   0.281 -0.0541 -0.2216  0.1600
  195MPD1    H5 3027   4.684   1.740   0.243  1.5591  3.9925 -0.9984
  195MPD1    N1 3028   4.421   2.215   0.423  0.0308 -0.0394  0.5434
  195MPD1    H6 3029   4.417   2.311   0.390  1.6062  0.3156  1.4460
  195MPD1    H7 3030   4.325   2.182   0.431 -0.2291  0.2777 -1.1110
  196MPD1     C 3031   3.315   1.214  17.238 -0.3687  0.0989 -0.3224
  196MPD1    C1 3032   3.401   1.324  17.235  0.0827 -0.1230  0.1122
  196MPD1    C2 3033   3.448   1.376  17.354 -0.0507  0.7646 -0.1104
  196MPD1    C3 3034   3.415   1.301  17.472 -0.3940 -0.4283 -0.1666
  196MPD1    C4 3035   3.338   1.185  17.466  0.4542  0.1375  0.1477
  196MPD1    C5 3036   3.284   1.148  17.352 -0.5040 -0.5453  0.3236
  196MPD1     H 3037   3.501   1.470  17.354  0.0991  0.6835 -1.4137
  196MPD1    H1 3038   3.296   1.137  17.553  0.7253  1.4436  1.0033
  196MPD1    H2 3039   3.251   1.174  17.160 -0.2857  1.4843 -1.1112
  196MPD1    H3 3040   3.207   1.072  17.351  0.4780 -1.5063 -2.0546
  196MPD1     N 3041   3.457   1.331  17.603 -0.2499  0.5669 -0.0184
  196MPD1    H5 3042   3.427   1.273  17.681  1.5494  0.2638  0.4405
  196MPD1    N1 3043   3.432   1.380  17.116 -0.0346 -0.4234  0.1032
  196MPD1    H6 3044   3.422   1.313  17.040  0.0781  0.9771 -1.1668
  196MPD1    H7 3045   3.524   1.424  17.117 -0.5229  0.6257 -0.4514
  197MPD1     C 3046   2.404   3.697  17.619  0.1600  0.2459  0.3669
  197MPD1    C1 3047   2.440   3.817  17.566  0.1248  0.2233  0.0058
  197MPD1    C2 3048   2.545   3.821  17.469 -0.4682 -0.2452  0.7549
  197MPD1    C3 3049   2.628   3.710  17.452 -0.7374  0.1929  0.2084
  197MPD1    C4 3050   2.595   3.593  17.508  0.8010 -0.3492 -0.0472
  197MPD1    C5 3051   2.480   3.586  17.584  0.1579 -0.0741  0.3911
  197MPD1     H 3052   2.564   3.917  17.421  3.1243 -1.6530 -0.6495
  197MPD1    H1 3053   2.650   3.499  17.505 -0.0541 -0.8440 -0.1456
  197MPD1    H2 3054   2.318   3.681  17.682 -0.5360  0.7064 -0.4777
  197MPD1    H3 3055   2.450   3.493  17.631  3.3764  0.8322  4.2306
  197MPD1     N 3056   2.741   3.714  17.368 -0.0469  0.0270  0.5233
  197MPD1    H5 3057   2.785   3.625  17.348 -1.2862 -0.7486  1.2968
  197MPD1    N1 3058   2.352   3.927  17.579  0.2400 -0.2683  0.7552
  197MPD1    H6 3059   2.300   3.919  17.666  1.1777 -0.0831  1.3289
  197MPD1    H7 3060   2.388   4.022  17.569  0.3059 -0.0876  2.6739
  198MPD1     C 3061   4.276   1.763  15.542  0.8321  0.1298  0.0038
  198MPD1    C1 3062   4.385   1.746  15.454  0.1172  0.7094 -0.4160
  198MPD1    C2 3063   4.507   1.737  15.507  0.3672  0.0254  0.2156
  198MPD1    C3 3064   4.531   1.733  15.644 -0.7209 -0.2277 -0.0834
  198MPD1    C4 3065   4.423   1.737  15.730 -0.3971  0.1365 -0.7475
  198MPD1    C5 3066   4.299   1.738  15.677 -0.2044  0.4702 -0.2180
  198MPD1     H 3067   4.585   1.708  15.438  0.2844 -2.4942  1.1846
  198MPD1    H1 3068   4.436   1.730  15.837  2.2927 -2.1072 -1.2338
  198MPD1    H2 3069   4.180   1.764  15.493  0.6805 -3.2820  0.2202
  198MPD1    H3 3070   4.213   1.732  15.742 -0.8364 -3.0007 -1.3783
  198MPD1     N 3071   4.662   1.719  15.678  0.0886  0.8403  0.7914
  198MPD1    H5 3072   4.719   1.699  15.597  0.3389 -0.1186  1.1977
  198MPD1    N1 3073   4.368   1.766  15.319  0.3800  0.4272  0.2383
  198MPD1    H6 3074   4.444   1.720  15.269  1.2014  1.7951  0.2365
  198MPD1    H7 3075   4.277   1.746  15.278  0.4821  0.0485  0.1924
  199MPD1     C 3076   2.609   4.448  10.925  0.4770  0.3930  0.3692
  199MPD1    C1 3077   2.673   4.382  10.826  0.3172  0.2318 -0.4603
  199MPD1    C2 3078   2.595   4.334  10.726 -0.1253 -0.5158  0.2159
  199MPD1    C3 3079   2.456   4.338  10.730 -0.6006  0.6332 -0.0455
  199MPD1    C4 3080   2.391   4.390  10.840  0.3331  0.6806 -0.6051
  199MPD1    C5 3081   2.470   4.446  10.934  0.8164  0.8045 -0.4582
  199MPD1     H 3082   2.654   4.289  10.646 -0.2944 -0.9125  0.3120
  199MPD1    H1 3083   2.283   4.391  10.847  0.4961  1.4507  2.1255
  199MPD1    H2 3084   2.666   4.503  10.998 -1.6258  2.4196  0.4893
  199MPD1    H3 3085   2.430   4.493  11.023 -1.9011 -1.0570 -0.7024
  199MPD1     N 3086   2.387   4.284  10.615  0.1025  0.1638  0.5690
  199MPD1    H5 3087   2.289   4.261  10.624 -0.2862  1.6762  0.2009
  199MPD1    N1 3088   2.812   4.402  10.808 -0.1674 -0.4894 -0.7331
  199MPD1    H6 3089   2.850   4.320  10.761  1.1346 -1.4261  1.9517
  199MPD1    H7 3090   2.848   4.414  10.902  1.2533 -0.7961 -1.2378
  200MPD1     C 3091   1.083   2.925  14.765  0.2237 -0.2531 -0.4284
  200MPD1    C1 3092   1.067   2.900  14.628  0.0983  0.0946  0.3974
  200MPD1    C2 3093   1.154   2.814  14.569  0.4663 -0.1805 -0.0124
  200MPD1    C3 3094   1.264   2.759  14.644  0.9143  0.1517 -0.4134
  200MPD1    C4 3095   1.278   2.799  14.771 -0.0706 -0.1542  0.7415
  200MPD1    C5 3096   1.185   2.870  14.837 -0.1216  0.1198 -0.0926
  200MPD1     H 3097   1.135   2.789  14.465 -0.3664 -0.2066  0.1408
  200MPD1    H1 3098   1.358   2.760  14.832  1.1157 -0.8272 -1.2576
  200MPD1    H2 3099   1.010   2.990  14.811 -0.5478 -1.1423 -0.4133
  200MPD1    H3 3100   1.191   2.882  14.944 -1.3420  0.6928 -0.0832
  200MPD1     N 3101   1.345   2.662  14.581  0.6367  0.0689  0.3944
  200MPD1    H5 3102   1.315   2.622  14.493  1.6025  0.0380  0.0729
  200MPD1    N1 3103   0.958   2.954  14.561 -0.8797 -0.4340  0.7404
  200MPD1    H6 3104   0.979   3.011  14.479  0.9116 -2.1422  0.0425
  200MPD1    H7 3105   0.894   3.007  14.620  0.0741 -0.3434  1.6873
  201MPD1     C 3106   4.450   1.590  12.414  0.9008 -0.3874 -0.0114
  201MPD1    C1 3107   4.497   1.456  12.422 -0.1526 -0.6883  0.2512
  201MPD1    C2 3108   4.483   1.388  12.542 -1.1405  0.8186  0.3939
  201MPD1    C3 3109   4.428   1.459  12.651  0.7649 -0.6476 -0.2561
  201MPD1    C4 3110   4.386   1.588  12.641 -0.0928 -0.5318 -0.1627
  201MPD1    C5 3111   4.399   1.653  12.525  0.7972  0.1186  0.8324
  201MPD1     H 3112   4.505   1.282  12.550 -1.2281  0.7120 -0.8335
  201MPD1    H1 3113   4.349   1.641  12.728  1.9232 -1.1347  1.0767
  201MPD1    H2 3114   4.462   1.650  12.324 -1.7768 -0.8252 -0.6775
  201MPD1    H3 3115   4.382   1.760  12.523 -2.7090 -0.5128 -2.3468
  201MPD1     N 3116   4.409   1.392  12.777 -0.9335  0.0062 -0.5935
  201MPD1    H5 3117   4.437   1.294  12.778  1.6613  0.7306 -1.5899
  201MPD1    N1 3118   4.546   1.384  12.312 -0.8982  0.3036 -0.1702
  201MPD1    H6 3119   4.598   1.437  12.242 -0.3593 -2.0118 -1.5281
  201MPD1    H7 3120   4.586   1.293  12.331  0.8179  1.3291  1.1494
  202MPD1     C 3121   3.145   2.035   8.727  0.1279  0.5284 -0.5422
  202MPD1    C1 3122   3.270   2.004   8.772 -0.0160  1.1314 -0.1998
  202MPD1    C2 3123   3.291   1.988   8.911  0.2373  0.5808 -0.1682
  202MPD1    C3 3124   3.197   2.048   8.996 -0.6968  0.8175 -0.2935
  202MPD1    C4 3125   3.077   2.098   8.942 -0.7638  0.2392  0.7859
  202MPD1    C5 3126   3.053   2.089   8.812  0.6178  0.0420 -1.1784
  202MPD1     H 3127   3.389   1.970   8.952 -0.8061 -1.1457  1.5785
  202MPD1    H1 3128   3.004   2.137   9.012 -0.3695  2.5467 -0.1075
  202MPD1    H2 3129   3.124   2.028   8.621  0.7801  2.4974 -0.8000
  202MPD1    H3 3130   2.955   2.116   8.776 -0.0883  0.5016  1.0589
  202MPD1     N 3131   3.213   2.052   9.141 -0.6332 -0.4399 -0.1813
  202MPD1    H5 3132   3.160   2.123   9.191 -0.1148 -1.9354  2.4880
  202MPD1    N1 3133   3.343   1.928   8.680  0.0062 -0.0967 -0.1774
  202MPD1    H6 3134   3.321   1.943   8.582  3.3174 -0.2785 -0.9508
  202MPD1    H7 3135   3.443   1.941   8.696  0.2315 -0.2407 -1.4635
  203MPD1     C 3136   2.203   2.600  13.119  0.1823  0.3408 -0.1223
  203MPD1    C1 3137   2.307   2.563  13.205  0.0798 -0.4647 -0.2618
  203MPD1    C2 3138   2.412   2.488  13.155  0.2022  0.3158 -0.2108
  203MPD1    C3 3139   2.436   2.474  13.019 -0.0555 -0.1188 -0.6776
  203MPD1    C4 3140   2.339   2.521  12.932  0.8420 -0.2235  0.4180
  203MPD1    C5 3141   2.224   2.578  12.986 -0.0981  0.1094 -0.1102
  203MPD1     H 3142   2.488   2.442  13.216 -0.7917 -1.2151 -0.1350
  203MPD1    H1 3143   2.351   2.501  12.826  1.4283  1.2450  0.2051
  203MPD1    H2 3144   2.111   2.655  13.137 -1.2636 -2.2455  0.3675
  203MPD1    H3 3145   2.159   2.619  12.910 -0.8378  2.0404  1.5790
  203MPD1     N 3146   2.539   2.386  12.985 -0.2024 -0.1209  0.7339
  203MPD1    H5 3147   2.604   2.370  13.061  3.1795 -1.2571 -2.4229
  203MPD1    N1 3148   2.281   2.591  13.341 -0.3681  0.7815 -0.1768
  203MPD1    H6 3149   2.226   2.674  13.364 -0.9061 -0.1401  1.8541
  203MPD1    H7 3150   2.365   2.592  13.398  1.0273  0.4554 -2.2252
  204MPD1     C 3151   1.617   3.881  17.651 -0.3773 -0.3202  0.1022
  204MPD1    C1 3152   1.630   3.850  17.515  0.2415  0.8872  0.2494
  204MPD1    C2 3153   1.651   3.719  17.483  0.1756 -0.2421 -0.7220
  204MPD1    C3 3154   1.692   3.623  17.577  0.6669 -0.9341 -0.3923
  204MPD1    C4 3155   1.712   3.667  17.711 -0.3240  0.1607 -0.1656
  204MPD1    C5 3156   1.660   3.787  17.745  0.8335  0.5374 -0.8587
  204MPD1     H 3157   1.640   3.694  17.378 -0.0337 -1.2449 -0.4620
  204MPD1    H1 3158   1.750   3.598   0.025  2.5511  2.7101  0.7010
  204MPD1    H2 3159   1.584   3.977  17.690 -1.3039 -1.0195  1.0433
  204MPD1    H3 3160   1.660   3.820   0.088 -3.2444  0.5147 -0.8592
  204MPD1     N 3161   1.726   3.486  17.534 -0.7197  0.0833  0.4690
  204MPD1    H5 3162   1.720   3.462  17.435  0.5537  4.0104 -0.5793
  204MPD1    N1 3163   1.576   3.940  17.425  0.4880  0.4843  0.2833
  204MPD1    H6 3164   1.604   4.035  17.450  3.9668 -0.4326 -0.1315
  204MPD1    H7 3165   1.614   3.922  17.333  0.8125 -0.1810  0.5466
  205MPD1     C 3166   1.243   2.614  16.331 -0.2249 -0.6549 -0.1116
  205MPD1    C1 3167   1.218   2.631  16.464  0.3464 -0.1816  0.6999
  205MPD1    C2 3168   1.302   2.574  16.559  0.0473  0.4147  0.1904
  205MPD1    C3 3169   1.419   2.520  16.514  0.7432 -0.1026 -0.3353
  205MPD1    C4 3170   1.451   2.521  16.384  0.0473 -0.0186 -0.0365
  205MPD1    C5 3171   1.363   2.564  16.290  0.1476  0.4310  0.6349
  205MPD1     H 3172   1.272   2.575  16.663 -0.0271  2.3939  0.1465
  205MPD1    H1 3173   1.544   2.475  16.351 -0.1804 -2.1523  2.3219
  205MPD1    H2 3174   1.175   2.650  16.254  3.1446 -0.0681 -2.7877
  205MPD1    H3 3175   1.384   2.543  16.185 -1.4166 -2.1657  0.8153
  205MPD1     N 3176   1.509   2.457  16.603 -0.3475  0.7477  0.0243
  205MPD1    H5 3177   1.597   2.425  16.563 -1.0448 -0.5606 -0.4428
  205MPD1    N1 3178   1.085   2.658  16.506 -0.1678 -0.4308  0.6140
  205MPD1    H6 3179   1.033   2.716  16.439  3.4706  1.2457 -0.7729
  205MPD1    H7 3180   1.102   2.724  16.582 -1.6854  0.3390  0.2988
  206MPD1     C 3181   1.601   0.645  16.005  0.2962  0.1373  0.5614
  206MPD1    C1 3182   1.700   0.576  15.942 -0.4299 -0.5895 -0.0087
  206MPD1    C2 3183   1.670   0.492  15.837  0.5155 -1.1529 -0.6523
  206MPD1    C3 3184   1.538   0.483  15.788  0.7050  0.5016  0.5511
  206MPD1    C4 3185   1.441   0.546  15.858  0.2321  0.7781 -0.1302
  206MPD1    C5 3186   1.474   0.628  15.963  0.0800 -0.9810 -0.3162
  206MPD1     H 3187   1.750   0.433  15.792  1.1470  0.2193 -1.3226
  206MPD1    H1 3188   1.336   0.543  15.832  0.2967  0.0573 -0.3129
  206MPD1    H2 3189   1.622   0.715  16.084  0.6345 -0.9125  1.4044
  206MPD1    H3 3190   1.395   0.680  16.017  1.5827  0.2478  0.6816
  206MPD1     N 3191   1.500   0.414  15.676 -0.4489  0.6108  0.0508
  206MPD1    H5 3192   1.404   0.416  15.644 -0.4226  0.5643 -0.0301
  206MPD1    N1 3193   1.828   0.577  16.000  0.5143 -0.4843  0.3732
  206MPD1    H6 3194   1.847   0.667  16.043 -0.7340  0.1953 -0.4936
  206MPD1    H7 3195   1.894   0.554  15.926  2.2304  1.3229  1.3364
  207MPD1     C 3196   4.076   3.283   9.312 -0.5815 -0.5751  0.5768
  207MPD1    C1 3197   4.147   3.397   9.326 -0.0219 -0.3833 -0.1018
  207MPD1    C2 3198   4.278   3.400   9.298  0.3620 -0.0184 -1.1334
  207MPD1    C3 3199   4.350   3.278   9.288  0.2288  0.4352 -0.2894
  207MPD1    C4 3200   4.278   3.158   9.290  0.4634 -0.6179 -0.2668
  207MPD1    C5 3201   4.142   3.162   9.298 -0.5185  0.4244 -0.6010
  207MPD1     H 3202   4.326   3.497   9.289 -1.6144  1.1581  0.9432
  207MPD1    H1 3203   4.325   3.060   9.290  1.6599 -0.0419 -0.9960
  207MPD1    H2 3204   3.967   3.284   9.319 -0.6269  0.7037 -0.2256
  207MPD1    H3 3205   4.088   3.068   9.290  1.7137 -1.0192  1.1803
  207MPD1     N 3206   4.483   3.273   9.245  0.0671 -0.2073 -0.2116
  207MPD1    H5 3207   4.531   3.185   9.230  1.9848  0.6248  0.9641
  207MPD1    N1 3208   4.074   3.514   9.335  0.3862 -0.4381 -0.5851
  207MPD1    H6 3209   4.117   3.587   9.391 -0.5620  0.7673 -1.4031
  207MPD1    H7 3210   3.996   3.486   9.393 -0.3132  0.4609 -1.0942
  208MPD1     C 3211   3.417   1.914  16.763 -0.3406 -0.0221 -0.0972
  208MPD1    C1 3212   3.308   1.913  16.675 -0.2800  0.0227 -0.3414
  208MPD1    C2 3213   3.185   1.891  16.731  0.3745  0.4872  0.3619
  208MPD1    C3 3214   3.166   1.855  16.863 -0.3138  0.5660  1.1849
  208MPD1    C4 3215   3.276   1.845  16.938  0.0900  0.4036  0.3941
  208MPD1    C5 3216   3.394   1.882  16.893 -0.1211 -0.2846 -0.2363
  208MPD1     H 3217   3.093   1.908  16.677  0.1215  0.7439  0.8783
  208MPD1    H1 3218   3.282   1.830  17.045 -2.6322 -0.3345  0.4613
  208MPD1    H2 3219   3.518   1.933  16.728  0.6804 -1.6856  1.8780
  208MPD1    H3 3220   3.481   1.861  16.955 -2.0483 -0.4458  2.3945
  208MPD1     N 3221   3.038   1.843  16.912 -0.0888 -0.4157  0.2931
  208MPD1    H5 3222   2.961   1.859  16.847  0.8437  1.9865 -0.1955
  208MPD1    N1 3223   3.320   1.985  16.556  0.9795  0.1475 -0.5349
  208MPD1    H6 3224   3.417   1.983  16.525  0.5426  2.6960 -2.0679
  208MPD1    H7 3225   3.254   1.955  16.484 -1.0221  0.2278  1.2461
  209MPD1     C 3226   0.665   2.141  10.573 -0.3715  1.2103  0.5106
  209MPD1    C1 3227   0.584   2.227  10.633  0.0219 -0.6713 -0.0503
  209MPD1    C2 3228   0.502   2.312  10.556  0.3696 -0.3012  0.0689
  209MPD1    C3 3229   0.496   2.293  10.414 -0.1893 -0.0015  0.5157
  209MPD1    C4 3230   0.582   2.201  10.360  0.5598 -0.5131 -0.1536
  209MPD1    C5 3231   0.667   2.130  10.439 -0.3068  0.6197  0.0667
  209MPD1     H 3232   0.446   2.393  10.602 -0.4931 -0.3860 -0.8373
  209MPD1    H1 3233   0.575   2.181  10.254  1.1427 -3.0570  0.2743
  209MPD1    H2 3234   0.740   2.085  10.627  1.1548  2.1596 -0.6112
  209MPD1    H3 3235   0.742   2.066  10.393 -0.7167 -0.1572  0.4829
  209MPD1     N 3236   0.422   2.389  10.341 -0.1836 -0.2608 -1.1294
  209MPD1    H5 3237   0.357   2.443  10.397  0.4539 -1.4928  0.8065
  209MPD1    N1 3238   0.608   2.258  10.765 -0.1750  0.0791 -0.4934
  209MPD1    H6 3239   0.529   2.313  10.798 -0.5703 -0.3640 -0.6929
  209MPD1    H7 3240   0.615   2.171  10.818  0.6736 -0.6666 -1.8267
  210MPD1     C 3241   0.209   3.112  10.728 -0.3071  0.2123 -0.2273
  210MPD1    C1 3242   0.168   3.146  10.603 -0.7308 -0.3102  0.0095
  210MPD1    C2 3243   0.175   3.058  10.500 -0.6031 -0.0905 -0.5014
  210MPD1    C3 3244   0.236   2.927  10.517  0.0465 -0.3073 -0.0468
  210MPD1    C4 3245   0.283   2.902  10.639 -0.4916  0.0001 -0.4150
  210MPD1    C5 3246   0.273   2.994  10.739 -0.4618 -0.1054  0.1694
  210MPD1     H 3247   0.138   3.097  10.406 -1.7804  0.6161  0.2615
  210MPD1    H1 3248   0.333   2.806  10.641 -0.3806  0.0670 -0.0382
  210MPD1    H2 3249   0.184   3.173  10.814  0.2348 -1.8687  1.3780
  210MPD1    H3 3250   0.304   2.958  10.836  1.0833  0.2484 -0.1980
  210MPD1     N 3251   0.241   2.829  10.424  0.2496 -0.1262 -0.0303
  210MPD1    H5 3252   0.272   2.734  10.442 -1.9432 -0.7182  0.6131
  210MPD1    N1 3253   0.096   3.263  10.576 -0.4360  0.5563  0.5334
  210MPD1    H6 3254   0.120   3.341  10.637 -0.7412 -0.6452  2.1936
  210MPD1    H7 3255   0.123   3.296  10.484  1.2329  0.0065  0.8208
  211MPD1     C 3256   2.665   2.304  15.561 -0.3544  0.0938  0.9480
  211MPD1    C1 3257   2.680   2.323  15.695  0.2960 -0.6381 -0.2466
  211MPD1    C2 3258   2.567   2.352  15.771 -0.5803 -0.2429 -0.0085
  211MPD1    C3 3259   2.443   2.357  15.714  0.7585  0.1551  0.3726
  211MPD1    C4 3260   2.435   2.345  15.574  1.0223 -0.3736 -0.7961
  211MPD1    C5 3261   2.548   2.331  15.501  0.2682 -0.2369 -0.1185
  211MPD1     H 3262   2.575   2.357  15.879 -2.1758  1.7028  0.0292
  211MPD1    H1 3263   2.337   2.362  15.530  0.4607 -1.0675  0.1710
  211MPD1    H2 3264   2.751   2.293  15.496  0.8547 -0.0819  2.5749
  211MPD1    H3 3265   2.550   2.335  15.392 -0.1799 -0.1810 -0.1245
  211MPD1     N 3266   2.329   2.366  15.798 -0.0856  0.3929 -0.2102
  211MPD1    H5 3267   2.355   2.378  15.895  4.3921  1.1897 -1.5024
  211MPD1    N1 3268   2.809   2.296  15.751  0.5315  0.1208 -0.5090
  211MPD1    H6 3269   2.827   2.349  15.836 -1.2960 -1.0833  0.6331
  211MPD1    H7 3270   2.887   2.307  15.687  1.0726  0.3034  0.1851
  212MPD1     C 3271   1.573   0.006  16.267 -0.0398 -0.2651 -0.2205
  212MPD1    C1 3272   1.557   0.095  16.372 -0.7103 -0.2234 -0.1814
  212MPD1    C2 3273   1.450   0.076  16.454  0.1630 -0.2624  0.8282
  212MPD1    C3 3274   1.357   4.704  16.441 -0.6135 -0.3615  0.2820
  212MPD1    C4 3275   1.389   4.616  16.343  0.1314 -0.9418  1.0742
  212MPD1    C5 3276   1.498   4.635  16.260  0.6822 -0.1122 -0.1305
  212MPD1     H 3277   1.425   0.140  16.537  0.4447 -0.8078  1.3353
  212MPD1    H1 3278   1.326   4.531  16.315  0.3795 -1.1001  0.9984
  212MPD1    H2 3279   1.655   0.026  16.199 -1.9620  0.9748 -2.1664
  212MPD1    H3 3280   1.527   4.559  16.188 -2.5527  0.0033 -1.5543
  212MPD1     N 3281   1.257   4.671  16.530  0.7846 -0.0158 -0.0818
  212MPD1    H5 3282   1.212   4.580  16.522  1.0771 -0.2269  0.6453
  212MPD1    N1 3283   1.627   0.217  16.376 -0.0663  0.1300 -0.3621
  212MPD1    H6 3284   1.629   0.261  16.468 -1.1092  2.4200 -1.4247
  212MPD1    H7 3285   1.724   0.225  16.346  0.1580  0.8910  0.5585
  213MPD1     C 3286   0.571   1.044  15.556  0.2881  0.2734  0.8587
  213MPD1    C1 3287   0.461   0.967  15.564  0.0038 -0.1782  0.0658
  213MPD1    C2 3288   0.359   0.998  15.476 -0.5299 -0.0640 -0.5964
  213MPD1    C3 3289   0.360   1.116  15.406 -0.2409 -0.6813  1.1294
  213MPD1    C4 3290   0.467   1.198  15.412  0.1910 -0.0236 -0.0431
  213MPD1    C5 3291   0.577   1.161  15.489  0.7585  0.4032 -0.2568
  213MPD1     H 3292   0.270   0.935  15.477  0.1538 -0.9983  2.2013
  213MPD1    H1 3293   0.478   1.292  15.359 -0.4441 -1.4966 -2.7937
  213MPD1    H2 3294   0.648   1.020  15.627 -1.0780  0.2052  2.3160
  213MPD1    H3 3295   0.666   1.223  15.492  0.3591  0.9436  0.5035
  213MPD1     N 3296   0.243   1.151  15.338 -1.0011 -0.0045  0.0108
  213MPD1    H5 3297   0.157   1.101  15.360 -1.8493  0.8501 -1.3815
  213MPD1    N1 3298   0.482   0.832  15.596 -0.1613  0.1876 -0.2614
  213MPD1    H6 3299   0.389   0.796  15.618 -1.3674  1.5567 -3.1218
  213MPD1    H7 3300   0.533   0.829  15.683 -1.2947  1.3482  0.4453
  214MPD1     C 3301   4.384   0.634  15.301 -0.5029 -0.3323 -0.0820
  214MPD1    C1 3302   4.330   0.732  15.215 -0.6651  0.2885 -0.5699
  214MPD1    C2 3303   4.390   0.854  15.214 -0.6144 -0.1067  0.0375
  214MPD1    C3 3304   4.497   0.890  15.292  0.0467  0.1640 -0.0601
  214MPD1    C4 3305   4.560   0.794  15.370  0.0363 -0.4013 -0.2758
  214MPD1    C5 3306   4.501   0.666  15.365  0.6789  0.3699  0.4414
  214MPD1     H 3307   4.341   0.937  15.164  0.0431  0.9515  1.1289
  214MPD1    H1 3308   4.654   0.818  15.416  0.5283 -0.7827 -1.0775
  214MPD1    H2 3309   4.347   0.534  15.319 -2.4295  0.7629  2.0954
  214MPD1    H3 3310   4.537   0.584  15.426 -0.3432 -0.5666 -0.2178
  214MPD1     N 3311   4.556   1.015  15.292 -0.0204  0.0104 -0.2917
  214MPD1    H5 3312   4.634   1.020  15.356  0.4356 -2.0220 -0.6888
  214MPD1    N1 3313   4.221   0.706  15.132 -0.0648  0.3130  0.3410
  214MPD1    H6 3314   4.181   0.613  15.147  0.1126  0.1757 -0.0489
  214MPD1    H7 3315   4.151   0.781  15.131  0.7663  1.0685 -2.4180
  215MPD1     C 3316   4.567   2.554  10.341 -0.1399  0.1615  0.1968
  215MPD1    C1 3317   4.592   2.684  10.304  0.3567  0.0259 -0.2911
  215MPD1    C2 3318   4.626   2.772  10.405 -0.1796  0.3321 -0.3187
  215MPD1    C3 3319   4.624   2.736  10.543 -0.3783  0.2616  0.1219
  215MPD1    C4 3320   4.585   2.614  10.580  0.3062  0.1987  0.2634
  215MPD1    C5 3321   4.557   2.523  10.483 -0.0309  0.4658 -0.0248
  215MPD1     H 3322   4.665   2.871  10.388  2.4290 -1.1291 -2.8871
  215MPD1    H1 3323   4.574   2.580  10.682  1.8754 -1.1624 -0.0169
  215MPD1    H2 3324   4.550   2.479  10.265 -0.3443 -0.2717  0.6708
  215MPD1    H3 3325   4.547   2.418  10.509 -1.5059  0.1782 -1.7113
  215MPD1     N 3326   4.666   2.841  10.633  0.5376 -0.2138  0.3348
  215MPD1    H5 3327   4.691   2.931  10.593 -1.0637  0.3562  0.6111
  215MPD1    N1 3328   4.608   2.723  10.167 -0.2103  0.0568 -0.0855
  215MPD1    H6 3329   4.616   2.822  10.142 -1.6988 -0.0768 -1.0950
  215MPD1    H7 3330   4.541   2.678  10.105  0.2496 -2.1062  0.9876
  216MPD1     C 3331   1.596   0.263  17.197 -0.7440 -0.6490 -0.1201
  216MPD1    C1 3332   1.599   0.159  17.102 -0.0155 -0.7028  0.9146
  216MPD1    C2 3333   1.552   0.036  17.143  0.0682  0.1253 -0.1677
  216MPD1    C3 3334   1.482   0.015  17.258  0.5127 -0.7399 -0.3282
  216MPD1    C4 3335   1.470   0.120  17.341  0.5156  0.8547 -0.0944
  216MPD1    C5 3336   1.532   0.239  17.312 -0.6450  0.2506 -0.0674
  216MPD1     H 3337   1.568   4.695  17.075 -0.3565 -1.6927  1.9390
  216MPD1    H1 3338   1.428   0.109  17.440  0.1017 -1.3234 -0.5126
  216MPD1    H2 3339   1.635   0.362  17.175 -0.0237 -1.0919 -0.8369
  216MPD1    H3 3340   1.517   0.324  17.377 -0.3061  1.2686 -1.3213
  216MPD1     N 3341   1.431   4.628  17.280 -0.0250  0.1355  0.7778
  216MPD1    H5 3342   1.451   4.556  17.212  2.3244  3.3401 -1.8987
  216MPD1    N1 3343   1.657   0.189  16.975  0.2374  0.1946  0.1514
  216MPD1    H6 3344   1.678   0.288  16.968 -2.7252  0.7393 -1.0210
  216MPD1    H7 3345   1.597   0.158  16.898 -0.4913  0.6949  0.5190
  217MPD1     C 3346   1.803   2.023   8.275 -0.1220  0.2576 -0.4100
  217MPD1    C1 3347   1.734   2.100   8.366  0.0379  0.3430 -0.1601
  217MPD1    C2 3348   1.798   2.124   8.488 -0.0779  0.3684  0.3728
  217MPD1    C3 3349   1.935   2.105   8.497  0.0390 -0.5455 -1.0292
  217MPD1    C4 3350   2.001   2.044   8.399 -0.3988 -0.3285 -0.1678
  217MPD1    C5 3351   1.937   1.995   8.284 -0.3581  0.5025 -0.3370
  217MPD1     H 3352   1.737   2.139   8.576 -1.1765 -3.6085  0.2805
  217MPD1    H1 3353   2.108   2.036   8.411 -0.5958 -3.0612 -0.1013
  217MPD1    H2 3354   1.762   2.009   8.176  0.4715  0.1390 -0.6423
  217MPD1    H3 3355   1.999   1.963   8.201 -2.8098 -0.7479 -1.7171
  217MPD1     N 3356   2.005   2.131   8.619 -0.3542  0.0231 -0.6459
  217MPD1    H5 3357   2.096   2.088   8.632  0.2429  0.7159 -2.5372
  217MPD1    N1 3358   1.592   2.111   8.349 -0.4774  0.1210 -0.4001
  217MPD1    H6 3359   1.571   2.128   8.251 -0.5307 -2.1525 -0.7844
  217MPD1    H7 3360   1.549   2.181   8.410 -1.4844 -1.1490  0.3431
  218MPD1     C 3361   3.720   2.732  13.443 -0.3244 -0.4011  0.0950
  218MPD1    C1 3362   3.779   2.611  13.435  0.2729  0.0021 -0.0004
  218MPD1    C2 3363   3.831   2.557  13.323 -0.7696 -1.3221  0.1106
  218MPD1    C3 3364   3.846   2.638  13.212  0.4708 -0.6628  0.8302
  218MPD1    C4 3365   3.794   2.760  13.211  0.1761  0.2473 -0.3552
  218MPD1    C5 3366   3.727   2.808  13.325 -0.4372 -0.5003  0.5192
  218MPD1     H 3367   3.878   2.459  13.330  2.3481  0.1330 -0.5889
  218MPD1    H1 3368   3.798   2.829  13.127  0.6567  1.7428  0.8911
  218MPD1    H2 3369   3.662   2.775  13.523  0.8981  0.3604  0.5816
  218MPD1    H3 3370   3.660   2.893  13.328 -0.6305 -0.7057  2.0382
  218MPD1     N 3371   3.899   2.584  13.093  0.0230 -0.6446  0.1833
  218MPD1    H5 3372   3.933   2.488  13.095 -0.9639 -0.9647  1.4386
  218MPD1    N1 3373   3.759   2.527  13.548  0.4066  0.1166  0.7071
  218MPD1    H6 3374   3.818   2.444  13.555 -0.1132 -0.1945  1.4356
  218MPD1    H7 3375   3.781   2.579  13.633 -2.2078 -0.6067  1.8355
  219MPD1     C 3376   4.161   2.959  12.181  0.4442 -0.3218  0.1525
  219MPD1    C1 3377   4.265   2.899  12.251 -0.3756 -0.4841 -0.2500
  219MPD1    C2 3378   4.247   2.810  12.359 -0.5259 -0.4316 -0.4019
  219MPD1    C3 3379   4.116   2.771  12.381 -0.0163 -0.2263  0.1435
  219MPD1    C4 3380   4.017   2.822  12.304 -0.3488  0.1266 -0.9055
  219MPD1    C5 3381   4.031   2.921  12.214 -0.5835 -0.2423  0.3052
  219MPD1     H 3382   4.332   2.774  12.416 -0.5376  0.5892  0.2649
  219MPD1    H1 3383   3.918   2.784  12.325  0.1764 -0.4300  0.5888
  219MPD1    H2 3384   4.183   3.037  12.109 -1.0614  1.5692  1.7695
  219MPD1    H3 3385   3.940   2.953  12.166 -1.1796  1.7004  2.7372
  219MPD1     N 3386   4.074   2.683  12.485 -0.4299 -0.5138 -0.0391
  219MPD1    H5 3387   3.974   2.679  12.506  0.0230 -1.1078  2.0554
  219MPD1    N1 3388   4.396   2.940  12.226 -0.0054  0.0555 -0.5885
  219MPD1    H6 3389   4.463   2.885  12.280 -1.2802 -0.7510  0.1802
  219MPD1    H7 3390   4.431   2.973  12.137  0.5647  0.9612 -0.0289
  220MPD1     C 3391   3.783   3.882   9.671 -0.3328  0.0359  0.3919
  220MPD1    C1 3392   3.901   3.816   9.666  0.2616 -0.3107  0.1206
  220MPD1    C2 3393   3.918   3.705   9.745  0.4120  0.5677 -0.0829
  220MPD1    C3 3394   3.811   3.656   9.829 -0.7588 -0.5706 -0.3164
  220MPD1    C4 3395   3.692   3.728   9.829  0.2302 -0.1777 -0.0820
  220MPD1    C5 3396   3.681   3.835   9.751 -0.5956 -0.1669 -0.6233
  220MPD1     H 3397   4.017   3.665   9.765  0.1545 -0.1825 -0.3125
  220MPD1    H1 3398   3.607   3.705   9.892  0.1924  1.7365  0.5628
  220MPD1    H2 3399   3.765   3.966   9.605 -0.8248  0.2873  0.8366
  220MPD1    H3 3400   3.582   3.880   9.750 -0.3037  0.4714 -0.7009
  220MPD1     N 3401   3.836   3.559   9.918  0.0570 -0.5042  0.3417
  220MPD1    H5 3402   3.930   3.522   9.925  1.0311  2.0628  0.7171
  220MPD1    N1 3403   4.011   3.869   9.592 -0.0316  0.2146 -0.7158
  220MPD1    H6 3404   4.067   3.794   9.551 -0.7544 -1.1040  0.7086
  220MPD1    H7 3405   3.985   3.931   9.515  2.0831  3.2223  1.0104
  221MPD1     C 3406   1.603   1.263  16.612 -0.0033  0.3311  0.5567
  221MPD1    C1 3407   1.569   1.376  16.530 -0.2652  0.9429 -0.8658
  221MPD1    C2 3408   1.640   1.400  16.407  0.4881 -0.2708 -0.5260
  221MPD1    C3 3409   1.741   1.321  16.361  0.1211 -0.0546  0.4404
  221MPD1    C4 3410   1.771   1.209  16.445  0.7540  1.4176  0.1148
  221MPD1    C5 3411   1.711   1.180  16.564  0.2752  0.1431  0.1373
  221MPD1     H 3412   1.604   1.481  16.344 -0.5755 -0.4147 -0.1045
  221MPD1    H1 3413   1.855   1.147  16.414  0.2969  0.4321  0.8454
  221MPD1    H2 3414   1.562   1.242  16.710 -1.6100  0.2886 -0.1215
  221MPD1    H3 3415   1.738   1.090  16.616  2.1014  0.9789  0.6318
  221MPD1     N 3416   1.820   1.331  16.240 -0.3110 -0.6496  0.5500
  221MPD1    H5 3417   1.887   1.258  16.218 -1.0580 -0.9007 -0.8822
  221MPD1    N1 3418   1.477   1.469  16.580 -0.2874  0.0474  0.1961
  221MPD1    H6 3419   1.443   1.522  16.500 -0.2316 -0.7847 -0.3724
  221MPD1    H7 3420   1.403   1.420  16.631 -1.9409  1.9907 -0.3357
  222MPD1     C 3421   1.362   4.245  16.817  0.5221  0.5301  0.4963
  222MPD1    C1 3422   1.426   4.366  16.838 -0.2215 -0.5160 -0.2911
  222MPD1    C2 3423   1.360   4.470  16.906 -0.4004 -0.1521 -0.0834
  222MPD1    C3 3424   1.225   4.451  16.943 -0.2372  0.1534 -0.1441
  222MPD1    C4 3425   1.163   4.326  16.917  0.2584  0.3738 -0.0584
  222MPD1    C5 3426   1.235   4.222  16.854 -0.0328 -0.6451  0.6866
  222MPD1     H 3427   1.410   4.565  16.919 -1.7932  0.2221  2.5975
  222MPD1    H1 3428   1.056   4.316  16.935  0.1449  3.4823  0.9797
  222MPD1    H2 3429   1.417   4.161  16.776 -1.1091 -0.6183  0.7001
  222MPD1    H3 3430   1.193   4.126  16.827 -0.6276 -0.0046 -0.6841
  222MPD1     N 3431   1.148   4.557  17.000  0.3946 -0.0113  0.3044
  222MPD1    H5 3432   1.058   4.532  17.038 -0.7750  2.1571 -1.0603
  222MPD1    N1 3433   1.563   4.378  16.815  0.4706  0.3715  0.3460
  222MPD1    H6 3434   1.598   4.318  16.741 -0.3131  0.3958 -0.0406
  222MPD1    H7 3435   1.596   4.473  16.799 -2.7282  1.3225 -0.5050
  223MPD1     C 3436   0.725   4.493   0.036 -0.5714  0.1675  0.8464
  223MPD1    C1 3437   0.815   4.594   0.063  0.7069 -0.1734 -0.6753
  223MPD1    C2 3438   0.865   4.665  17.716  0.2231 -0.0568  0.3210
  223MPD1    C3 3439   0.832   4.639  17.582 -0.5520 -0.8270 -0.3015
  223MPD1    C4 3440   0.740   4.532  17.555 -0.7489  0.1113 -0.3449
  223MPD1    C5 3441   0.693   4.460  17.664  0.2068 -0.6133  0.7424
  223MPD1     H 3442   0.939   0.001  17.733 -0.3006  0.3075  0.9115
  223MPD1    H1 3443   0.709   4.505  17.455 -2.8949 -0.9113  0.5943
  223MPD1    H2 3444   0.680   4.434   0.116 -1.0017 -0.5627  0.0629
  223MPD1    H3 3445   0.628   4.376  17.644  2.1603 -1.0997 -3.5202
  223MPD1     N 3446   0.877   4.733  17.477  0.0737 -0.0310  0.7436
  223MPD1    H5 3447   0.939   0.069  17.502  0.0128  0.0106  0.7677
  223MPD1    N1 3448   0.875   4.613   0.193  0.1068  0.6039  0.4442
  223MPD1    H6 3449   0.812   4.585   0.267  1.2085  0.9034  1.5039
  223MPD1    H7 3450   0.912   4.708   0.200 -2.0795  1.6168 -1.8853
  224MPD1     C 3451   2.173   2.781   9.002 -0.4058 -0.0588  0.1560
  224MPD1    C1 3452   2.199   2.886   9.087 -0.4450  0.6555 -0.5652
  224MPD1    C2 3453   2.274   2.860   9.201  0.1216  0.8860  0.1455
  224MPD1    C3 3454   2.336   2.740   9.220 -0.6818  0.2581 -0.0311
  224MPD1    C4 3455   2.320   2.638   9.124  0.0419  0.3069  0.1664
  224MPD1    C5 3456   2.233   2.662   9.018 -0.4920 -0.0058 -0.9001
  224MPD1     H 3457   2.286   2.938   9.274 -0.7594 -0.1993  1.4488
  224MPD1    H1 3458   2.377   2.546   9.115 -0.0443  0.1710  1.0040
  224MPD1    H2 3459   2.113   2.794   8.912  1.3578  2.7412 -0.6323
  224MPD1    H3 3460   2.217   2.582   8.946  1.4157  0.0283 -1.3378
  224MPD1     N 3461   2.421   2.719   9.325 -0.1067  0.0830  0.4432
  224MPD1    H5 3462   2.458   2.625   9.332 -1.0324 -0.3809 -0.8255
  224MPD1    N1 3463   2.130   3.005   9.078 -0.4999 -0.4070 -0.3260
  224MPD1    H6 3464   2.189   3.075   9.123  0.2544 -0.9276 -0.5017
  224MPD1    H7 3465   2.123   3.029   8.979 -1.6872  1.5297  0.2267
  225MPD1     C 3466   2.803   3.007  13.371  0.3486  0.3102  0.3890
  225MPD1    C1 3467   2.933   2.969  13.384  0.3634 -0.2113  0.4937
  225MPD1    C2 3468   3.014   2.967  13.273 -0.5571  0.8820 -0.2522
  225MPD1    C3 3469   2.966   3.014  13.151  0.4444 -1.0461  0.8594
  225MPD1    C4 3470   2.844   3.071  13.149 -0.3651 -0.7765  0.2791
  225MPD1    C5 3471   2.763   3.054  13.258  0.2728  0.2570 -0.8820
  225MPD1     H 3472   3.107   2.914  13.284 -2.1309 -1.5087  1.5835
  225MPD1    H1 3473   2.798   3.096  13.054  1.0760 -1.1793 -0.5314
  225MPD1    H2 3474   2.731   2.990  13.450 -0.9747  0.2441 -0.8457
  225MPD1    H3 3475   2.660   3.087  13.252 -0.1015 -0.6395  0.6665
  225MPD1     N 3476   3.038   3.003  13.029  0.2467  0.1541  0.6068
  225MPD1    H5 3477   2.993   3.050  12.951  0.8589  1.3872  0.9957
  225MPD1    N1 3478   2.965   2.899  13.506  0.1588 -0.1898  0.5329
  225MPD1    H6 3479   3.066   2.902  13.514  0.0261 -2.4976  2.9857
  225MPD1    H7 3480   2.933   2.954  13.586 -0.9450 -0.8360  0.5276
  226MPD1     C 3481   1.482   4.229   9.275 -0.2374  0.3796 -0.2147
  226MPD1    C1 3482   1.422   4.109   9.241 -0.6469  0.1322 -0.2513
  226MPD1    C2 3483   1.505   4.012   9.179 -0.0358 -0.0654 -0.2064
  226MPD1    C3 3484   1.641   4.029   9.171  0.0900 -0.4834  0.2500
  226MPD1    C4 3485   1.700   4.142   9.228 -0.1642 -0.3068 -0.2308
  226MPD1    C5 3486   1.619   4.243   9.271  0.5900  0.0172 -1.4651
  226MPD1     H 3487   1.454   3.924   9.141  0.4093  0.7424 -2.7225
  226MPD1    H1 3488   1.806   4.163   9.232 -0.7556  2.5259  0.5564
  226MPD1    H2 3489   1.419   4.311   9.309 -0.3925  0.1660  0.0106
  226MPD1    H3 3490   1.667   4.335   9.303 -1.0684  0.1680  0.5719
  226MPD1     N 3491   1.712   3.927   9.110 -0.2990 -0.5871 -0.3872
  226MPD1    H5 3492   1.656   3.850   9.074  2.4172 -1.3516 -2.9350
  226MPD1    N1 3493   1.279   4.100   9.226 -0.0485 -0.2410  0.0832
  226MPD1    H6 3494   1.238   4.007   9.229  1.3691 -0.9518 -2.4335
  226MPD1    H7 3495   1.230   4.160   9.291  0.0296 -1.4228  1.2328
  227MPD1     C 3496   1.581   3.028   8.845 -0.1820  0.0309  0.8455
  227MPD1    C1 3497   1.700   3.014   8.923  0.6765  0.0669 -0.2567
  227MPD1    C2 3498   1.779   3.127   8.934 -0.1284 -0.0821  0.3349
  227MPD1    C3 3499   1.734   3.253   8.887 -0.0821  0.9219  0.5729
  227MPD1    C4 3500   1.618   3.254   8.807  0.6842  0.1680 -0.1216
  227MPD1    C5 3501   1.540   3.146   8.797 -0.0414  0.7015 -0.5027
  227MPD1     H 3502   1.881   3.120   8.970  0.7625  1.1783 -1.9505
  227MPD1    H1 3503   1.577   3.341   8.757  1.3328  0.5113 -0.0497
  227MPD1    H2 3504   1.517   2.942   8.828  1.4654 -1.2892  1.4035
  227MPD1    H3 3505   1.460   3.146   8.725  0.9204 -1.8746 -1.5818
  227MPD1     N 3506   1.812   3.368   8.911  0.3564  0.1056 -0.3905
  227MPD1    H5 3507   1.889   3.353   8.975 -0.1117  0.8213  0.3423
  227MPD1    N1 3508   1.745   2.886   8.955  0.3394 -0.0682  0.4096
  227MPD1    H6 3509   1.671   2.825   8.991  0.9057 -1.3627 -0.6451
  227MPD1    H7 3510   1.823   2.885   9.021  0.6778 -1.4427 -0.0213
  228MPD1     C 3511   1.449   0.357  12.828  0.6440 -0.5707 -0.5479
  228MPD1    C1 3512   1.378   0.290  12.725  0.1650  0.4751 -0.0295
  228MPD1    C2 3513   1.252   0.233  12.755 -0.4511  0.1808  0.2637
  228MPD1    C3 3514   1.197   0.248  12.876 -0.4000  0.5105  0.3614
  228MPD1    C4 3515   1.265   0.323  12.968  0.1164 -0.3732 -0.2701
  228MPD1    C5 3516   1.384   0.381  12.943  0.4560  0.0631  0.2325
  228MPD1     H 3517   1.196   0.175  12.683  1.2416 -0.4588 -0.5317
  228MPD1    H1 3518   1.217   0.348  13.061 -1.5166  1.4761 -1.6262
  228MPD1    H2 3519   1.544   0.404  12.805  0.7719 -0.0097  1.1296
  228MPD1    H3 3520   1.421   0.442  13.025 -0.8180  0.9335  0.1521
  228MPD1     N 3521   1.063   0.214  12.896  0.2185  0.1331 -0.4857
  228MPD1    H5 3522   1.019   0.179  12.811 -0.0580  2.2657 -1.2176
  228MPD1    N1 3523   1.444   0.273  12.598  0.5382  0.3120 -0.2118
  228MPD1    H6 3524   1.375   0.240  12.531  0.6135 -0.7764  0.2407
  228MPD1    H7 3525   1.512   0.344  12.570 -0.9997  1.2234 -1.6124
  229MPD1     C 3526   4.529   3.589  14.732  0.2568 -0.2603  0.2127
  229MPD1    C1 3527   4.664   3.627  14.731 -0.5179  0.6652 -0.4255
  229MPD1    C2 3528   0.016   3.537  14.783  0.2030  0.6023 -0.2026
  229MPD1    C3 3529   4.719   3.416  14.835 -0.3965  0.1462  0.1213
  229MPD1    C4 3530   4.591   3.379  14.822 -0.8317  0.0267  0.0302
  229MPD1    C5 3531   4.498   3.465  14.776  0.3429 -0.0497 -0.0164
  229MPD1     H 3532   0.121   3.558  14.768  0.7726 -1.7680  0.3898
  229MPD1    H1 3533   4.551   3.287  14.862 -0.4924 -0.4940 -0.8408
  229MPD1    H2 3534   4.454   3.649  14.682  1.5933 -1.0860 -2.7920
  229MPD1    H3 3535   4.397   3.425  14.778 -0.5904  2.2497 -1.2300
  229MPD1     N 3536   0.069   3.320  14.887  0.0348  0.0515  0.0635
  229MPD1    H5 3537   0.024   3.231  14.910  0.7335  0.0738  1.4954
  229MPD1    N1 3538   4.693   3.747  14.670 -0.1293  0.4813 -0.7052
  229MPD1    H6 3539   0.001   3.813  14.730 -0.5124  0.0264  0.0984
  229MPD1    H7 3540   4.612   3.796  14.630 -1.6219 -1.4839 -0.1178
  230MPD1     C 3541   0.558   3.559  15.733  0.0718  0.5998  0.3838
  230MPD1    C1 3542   0.466   3.631  15.659  0.4664 -0.3133  0.2612
  230MPD1    C2 3543   0.406   3.556  15.556 -0.2439 -0.1961  0.1685
  230MPD1    C3 3544   0.440   3.429  15.527  0.2035  0.0626 -0.0335
  230MPD1    C4 3545   0.539   3.364  15.597 -0.3455 -0.3841  0.9785
  230MPD1    C5 3546   0.599   3.432  15.700  0.0375 -0.7533 -0.3479
  230MPD1     H 3547   0.335   3.605  15.489 -0.4790  2.7612  2.5675
  230MPD1    H1 3548   0.567   3.260  15.586  0.7309  0.2344 -2.1943
  230MPD1    H2 3549   0.617   3.601  15.814  0.4905  0.1004  0.3422
  230MPD1    H3 3550   0.679   3.386  15.758  2.1584  0.4713 -2.3095
  230MPD1     N 3551   0.365   3.364  15.420 -0.1925 -0.3855  0.5680
  230MPD1    H5 3552   0.290   3.417  15.376  1.0345 -0.2701 -1.3722
  230MPD1    N1 3553   0.421   3.760  15.697 -0.1854  0.2471 -0.0651
  230MPD1    H6 3554   0.376   3.810  15.621  1.8757  2.7946  0.3923
  230MPD1    H7 3555   0.494   3.829  15.713 -1.6214  1.5704  0.6742
  231MPD1     C 3556   3.527   0.997  16.118 -1.0325  0.1703  0.0194
  231MPD1    C1 3557   3.616   1.105  16.096  0.4350  0.2502  0.0351
  231MPD1    C2 3558   3.660   1.129  15.967  0.5291  0.8776  0.4238
  231MPD1    C3 3559   3.618   1.052  15.865 -0.5542 -0.0259  0.7977
  231MPD1    C4 3560   3.539   0.943  15.889 -0.4043 -0.0419 -0.2718
  231MPD1    C5 3561   3.497   0.916  16.019 -0.6482  0.0981 -0.1862
  231MPD1     H 3562   3.706   1.224  15.943 -0.2590  1.3656  0.8350
  231MPD1    H1 3563   3.495   0.884  15.810  1.2637 -1.9356  0.2146
  231MPD1    H2 3564   3.484   0.971  16.214 -2.1071  1.3468 -0.1485
  231MPD1    H3 3565   3.434   0.829  16.039 -1.2139  0.6119  0.2759
  231MPD1     N 3566   3.656   1.093  15.734  0.1241  0.3366  0.1281
  231MPD1    H5 3567   3.709   1.180  15.730  1.0125 -0.2133 -0.0293
  231MPD1    N1 3568   3.635   1.200  16.193  0.6915 -0.4758 -0.5610
  231MPD1    H6 3569   3.631   1.154  16.283  1.7233 -0.2625 -0.4038
  231MPD1    H7 3570   3.716   1.261  16.180  1.0953 -0.6608  1.2267
  232MPD1     C 3571   0.920   3.655   0.179  0.2091 -0.4377 -0.2005
  232MPD1    C1 3572   0.885   3.552   0.263 -0.8327 -0.0660 -0.0436
  232MPD1    C2 3573   0.754   3.499   0.244  0.7185 -0.2612  0.6604
  232MPD1    C3 3574   0.686   3.538   0.136  0.6777  0.4320  0.9540
  232MPD1    C4 3575   0.719   3.648   0.055  0.0723 -0.5067  0.7670
  232MPD1    C5 3576   0.839   3.708   0.079 -0.1350 -0.0508 -0.2458
  232MPD1     H 3577   0.732   3.420   0.315  1.9618  0.2713  1.6283
  232MPD1    H1 3578   0.653   3.672  17.734  0.1263 -2.0042  0.2957
  232MPD1    H2 3579   1.021   3.694   0.192  0.6439 -1.3400 -0.8897
  232MPD1    H3 3580   0.883   3.788   0.021 -1.1179  1.3273  0.9050
  232MPD1     N 3581   0.563   3.469   0.122 -0.2013 -0.0060  0.2378
  232MPD1    H5 3582   0.542   3.398   0.191 -2.3004 -0.3922 -0.7876
  232MPD1    N1 3583   0.967   3.524   0.375  0.2455 -0.3086  0.1242
  232MPD1    H6 3584   0.932   3.445   0.428  0.5289  0.2096  1.0953
  232MPD1    H7 3585   1.066   3.517   0.352  0.4198 -0.0364  0.7777
  233MPD1     C 3586   1.088   1.579   0.885  0.3453 -0.3499  0.0119
  233MPD1    C1 3587   1.169   1.687   0.899 -0.5274  0.0636 -0.2731
  233MPD1    C2 3588   1.307   1.669   0.897  0.1257 -0.3977  0.2157
  233MPD1    C3 3589   1.358   1.549   0.862  0.4458 -0.2716 -0.1357
  233MPD1    C4 3590   1.275   1.440   0.836  0.0198 -0.5578  0.0552
  233MPD1    C5 3591   1.143   1.459   0.861 -0.0293  0.6770  0.6336
  233MPD1     H 3592   1.371   1.756   0.897  1.6673 -1.5350 -1.2827
  233MPD1    H1 3593   1.315   1.341   0.820 -1.3033 -1.0180 -0.3774
  233MPD1    H2 3594   0.982   1.587   0.906  0.2093 -1.1176 -0.4025
  233MPD1    H3 3595   1.075   1.376   0.843  1.1797 -0.2680  0.4596
  233MPD1     N 3596   1.496   1.529   0.843 -0.2113  0.2810  0.1822
  233MPD1    H5 3597   1.526   1.438   0.810 -1.1117  0.5141 -1.2869
  233MPD1    N1 3598   1.118   1.809   0.938 -0.3155 -0.0212 -0.2324
  233MPD1    H6 3599   1.168   1.887   0.895  1.6453 -0.9159  0.4878
  233MPD1    H7 3600   1.029   1.818   0.889  0.6562  1.1917 -1.7687
  234MPD1     C 3601   3.318   1.038   9.428  0.0703  0.2496  0.3662
  234MPD1    C1 3602   3.326   1.136   9.520  0.0520  0.2910 -0.0460
  234MPD1    C2 3603   3.284   1.261   9.493 -0.1231  0.3740 -0.1176
  234MPD1    C3 3604   3.223   1.287   9.369  0.6202  0.4501  0.1602
  234MPD1    C4 3605   3.198   1.183   9.280  0.4558 -0.4969  0.2348
  234MPD1    C5 3606   3.260   1.065   9.309  0.1204 -1.0607 -0.2955
  234MPD1     H 3607   3.302   1.350   9.552  0.1198 -0.6610  1.3889
  234MPD1    H1 3608   3.143   1.190   9.187 -0.4960  1.0212  0.9205
  234MPD1    H2 3609   3.383   0.952   9.431  2.1899  1.7762 -1.7430
  234MPD1    H3 3610   3.268   0.987   9.234  1.2580  0.4691 -1.7777
  234MPD1     N 3611   3.185   1.426   9.338 -0.0734 -0.5293 -0.1722
  234MPD1    H5 3612   3.229   1.495   9.398 -0.4702 -0.8616  0.4996
  234MPD1    N1 3613   3.420   1.110   9.619  0.2317  0.1860  0.5688
  234MPD1    H6 3614   3.400   1.176   9.693  0.1475  0.8805 -0.0755
  234MPD1    H7 3615   3.420   1.019   9.666  4.3714 -0.4711 -0.7160
  235MPD1     C 3616   4.630   3.305   9.671  0.7552 -0.6910 -0.0628
  235MPD1    C1 3617   4.616   3.428   9.613 -0.2182  0.0423 -1.1286
  235MPD1    C2 3618   4.733   3.508   9.595  0.5166  0.0605  0.4791
  235MPD1    C3 3619   0.116   3.458   9.629 -0.4244  0.1522 -0.1123
  235MPD1    C4 3620   0.116   3.334   9.685 -0.1141  0.1323 -0.1448
  235MPD1    C5 3621   0.005   3.257   9.709 -0.2056 -0.6594  0.0084
  235MPD1     H 3622   4.731   3.607   9.551 -0.8481 -0.0807  0.2302
  235MPD1    H1 3623   0.204   3.285   9.724  0.2447  0.6286 -0.3379
  235MPD1    H2 3624   4.546   3.238   9.684  0.1983 -0.0330 -0.2592
  235MPD1    H3 3625   0.016   3.154   9.742  1.7843 -0.1467  0.9383
  235MPD1     N 3626   0.225   3.533   9.603  0.5510  0.0621 -0.1796
  235MPD1    H5 3627   0.210   3.626   9.565  0.4351  0.2867  0.4108
  235MPD1    N1 3628   4.488   3.483   9.598  0.0275  0.2303  0.2478
  235MPD1    H6 3629   4.471   3.550   9.524  1.7556  0.0375 -0.3273
  235MPD1    H7 3630   4.410   3.421   9.616  0.7158 -0.5952  0.4019
  236MPD1     C 3631   3.146   0.523   9.464 -0.0463  0.1939  0.6925
  236MPD1    C1 3632   3.099   0.407   9.531 -0.1745 -0.8139 -0.1678
  236MPD1    C2 3633   3.191   0.334   9.588  0.8382  0.6078  0.4742
  236MPD1    C3 3634   3.325   0.352   9.580 -0.1142 -0.0597  0.4856
  236MPD1    C4 3635   3.369   0.454   9.501 -0.4157 -0.4961  0.3091
  236MPD1    C5 3636   3.277   0.544   9.450  0.3041  0.8595  0.0829
  236MPD1     H 3637   3.163   0.249   9.648 -0.7684 -0.3206 -1.5631
  236MPD1    H1 3638   3.471   0.476   9.471  0.8811 -3.9782  2.1676
  236MPD1    H2 3639   3.076   0.582   9.407 -1.2422 -2.2055 -0.3100
  236MPD1    H3 3640   3.313   0.630   9.395 -0.3769  1.7058  0.9339
  236MPD1     N 3641   3.418   0.284   9.668 -0.4299  0.1073 -0.7916
  236MPD1    H5 3642   3.508   0.328   9.651 -0.4238  0.6843  0.6761
  236MPD1    N1 3643   2.961   0.377   9.543 -0.1925 -0.2541 -0.3090
  236MPD1    H6 3644   2.938   0.282   9.572  0.9124 -0.2991  0.4171
  236MPD1    H7 3645   2.906   0.415   9.466 -1.0548 -0.5701  0.1532
  237MPD1     C 3646   3.598   2.337  15.435 -0.1209  0.1186  0.4043
  237MPD1    C1 3647   3.544   2.392  15.321  0.1431 -0.2909  0.0127
  237MPD1    C2 3648   3.431   2.337  15.261  0.0273 -0.0767  0.1028
  237MPD1    C3 3649   3.376   2.222  15.313 -0.0474 -0.2652 -0.3327
  237MPD1    C4 3650   3.438   2.168  15.419 -0.2566  0.0607  0.5109
  237MPD1    C5 3651   3.550   2.220  15.473  0.5394 -0.1632  0.5080
  237MPD1     H 3652   3.383   2.382  15.175  1.8991 -0.1946 -0.9844
  237MPD1    H1 3653   3.417   2.067  15.453 -0.4171 -0.1613 -0.2448
  237MPD1    H2 3654   3.680   2.377  15.493  1.5038  0.7629 -2.3225
  237MPD1    H3 3655   3.596   2.164  15.553  3.2316 -0.0311 -0.9636
  237MPD1     N 3656   3.268   2.157  15.247 -0.7572 -0.3550  0.2600
  237MPD1    H5 3657   3.219   2.196  15.167  0.3353  1.9133  0.7099
  237MPD1    N1 3658   3.586   2.523  15.288  0.2329 -0.6405  0.0481
  237MPD1    H6 3659   3.680   2.546  15.318  0.4076 -1.4899  0.1489
  237MPD1    H7 3660   3.561   2.564  15.198 -1.8744 -2.7828 -0.3443
  238MPD1     C 3661   0.481   1.872  15.073 -0.5730 -0.1423 -0.1495
  238MPD1    C1 3662   0.513   1.856  14.940  0.0502 -0.4628  0.6109
  238MPD1    C2 3663   0.529   1.726  14.898  0.0667  0.2292  0.6537
  238MPD1    C3 3664   0.466   1.624  14.970  0.2943 -0.2089  0.6013
  238MPD1    C4 3665   0.421   1.651  15.091  0.0989  0.2536  0.0593
  238MPD1    C5 3666   0.440   1.769  15.148 -0.0059 -0.2370 -0.1088
  238MPD1     H 3667   0.551   1.713  14.793  1.9010  1.4834  0.8789
  238MPD1    H1 3668   0.375   1.567  15.142 -0.8679  0.8980  0.2469
  238MPD1    H2 3669   0.496   1.971  15.115  1.6194  0.0867 -1.5061
  238MPD1    H3 3670   0.422   1.776  15.255  0.2824 -0.6150 -0.0351
  238MPD1     N 3671   0.437   1.496  14.922  0.2216  0.0606 -0.1807
  238MPD1    H5 3672   0.360   1.451  14.971 -0.5979  1.1093 -0.5071
  238MPD1    N1 3673   0.552   1.970  14.864  0.3729 -0.5114 -0.0744
  238MPD1    H6 3674   0.543   1.955  14.764 -3.5232 -0.1456  0.2408
  238MPD1    H7 3675   0.483   2.044  14.877  0.7189 -0.2868  0.5166
  239MPD1     C 3676   0.589   2.438  14.351 -0.0123  0.5520  0.8297
  239MPD1    C1 3677   0.607   2.493  14.225  0.6050 -0.0539 -0.0019
  239MPD1    C2 3678   0.493   2.513  14.155  0.0785  0.2237 -0.3738
  239MPD1    C3 3679   0.360   2.500  14.203  0.8182  0.2547 -0.6450
  239MPD1    C4 3680   0.348   2.450  14.332 -0.4241  0.3525  0.4271
  239MPD1    C5 3681   0.468   2.412  14.395  0.0300  0.1818  0.1497
  239MPD1     H 3682   0.502   2.550  14.054  1.2358  0.4131 -0.2029
  239MPD1    H1 3683   0.253   2.427  14.380  0.3770 -2.8612  0.4358
  239MPD1    H2 3684   0.677   2.434  14.415  2.7684  2.4168 -2.8147
  239MPD1    H3 3685   0.450   2.379  14.497  0.3339 -0.1009  0.1136
  239MPD1     N 3686   0.242   2.526  14.129  0.2686  0.4839  0.2869
  239MPD1    H5 3687   0.147   2.509  14.159  0.3131 -0.1481  0.0563
  239MPD1    N1 3688   0.735   2.500  14.163 -0.5546  0.3220 -0.0675
  239MPD1    H6 3689   0.726   2.563  14.084 -1.3557  0.2450 -0.0316
  239MPD1    H7 3690   0.804   2.539  14.227 -1.4963 -1.1579  1.8341
  240MPD1     C 3691   4.645   1.022  12.680  0.4345 -0.6233  0.9163
  240MPD1    C1 3692   4.708   1.147  12.670 -0.3269  0.0436  0.2678
  240MPD1    C2 3693   4.737   1.200  12.799  0.1095 -0.1947 -1.0647
  240MPD1    C3 3694   4.696   1.145  12.922 -0.5108 -0.0726  0.0860
  240MPD1    C4 3695   4.625   1.030  12.920  0.3863  0.5985 -0.6776
  240MPD1    C5 3696   4.603   0.969  12.796  0.6286 -0.4522 -0.1640
  240MPD1     H 3697   0.057   1.288  12.808 -0.6701  0.3312 -0.9084
  240MPD1    H1 3698   4.590   0.978  13.008 -1.1310  0.0263 -1.6094
  240MPD1    H2 3699   4.626   0.966  12.589  1.0159 -0.6370  0.8056
  240MPD1    H3 3700   4.553   0.873  12.785 -2.0469  0.9548 -0.0183
  240MPD1     N 3701   4.729   1.218  13.038 -0.4251 -0.3839 -0.4825
  240MPD1    H5 3702   0.043   1.300  13.018 -0.0243 -0.3051  0.9418
  240MPD1    N1 3703   0.020   1.193  12.551  0.1718  0.0066 -0.1946
  240MPD1    H6 3704   4.707   1.162  12.471 -1.2539  1.4921  0.1924
  240MPD1    H7 3705   0.041   1.293  12.547  0.6668 -0.0842  0.1789
  241MPD1     C 3706   4.560   2.127  13.465 -0.4146 -0.5666 -0.2127
  241MPD1    C1 3707   4.545   2.065  13.343  0.5430 -0.2319 -0.0929
  241MPD1    C2 3708   4.583   1.936  13.334  0.0372  0.3558  0.5427
  241MPD1    C3 3709   4.597   1.853  13.447  0.1452 -1.1537  0.0704
  241MPD1    C4 3710   4.593   1.914  13.572 -0.5827 -0.0228  0.3856
  241MPD1    C5 3711   4.568   2.050  13.572  0.3925 -0.6250 -0.0302
  241MPD1     H 3712   4.589   1.899  13.232  0.1046  0.4887  0.4980
  241MPD1    H1 3713   4.625   1.865  13.663  1.7712 -0.2587 -0.5826
  241MPD1    H2 3714   4.545   2.233  13.485 -1.1398 -0.4444 -1.4393
  241MPD1    H3 3715   4.584   2.099  13.667 -1.1293  0.8161 -0.5006
  241MPD1     N 3716   4.626   1.716  13.440 -0.4420 -0.0609  0.3052
  241MPD1    H5 3717   4.647   1.666  13.526  0.9213 -1.2951 -0.7358
  241MPD1    N1 3718   4.517   2.132  13.221 -0.2486  0.0808 -0.2087
  241MPD1    H6 3719   4.442   2.199  13.239 -0.5459 -1.0004  2.5221
  241MPD1    H7 3720   4.471   2.066  13.159  0.5012  0.0030 -0.6862
  242MPD1     C 3721   0.326   0.052  15.833 -0.7163  0.0397 -0.2244
  242MPD1    C1 3722   0.194   0.042  15.790  0.1837  0.5653  0.2172
  242MPD1    C2 3723   0.153   4.670  15.734  0.6164 -0.5395  0.1172
  242MPD1    C3 3724   0.245   4.574  15.691 -0.7199 -0.1811 -0.2882
  242MPD1    C4 3725   0.374   4.595  15.735  0.0362 -0.5401 -0.2104
  242MPD1    C5 3726   0.417   4.702  15.804 -0.2317  0.4007  0.3250
  242MPD1     H 3727   0.049   4.652  15.711  0.9697  0.8500 -2.4839
  242MPD1    H1 3728   0.456   4.538  15.691  1.4437 -0.3158  2.1328
  242MPD1    H2 3729   0.356   0.133  15.897  1.2737  0.0784 -1.2218
  242MPD1    H3 3730   0.512   4.712  15.855  0.4833  1.4580 -1.2084
  242MPD1     N 3731   0.221   4.476  15.590 -0.0422  0.2186  0.2286
  242MPD1    H5 3732   0.306   4.423  15.576 -1.1396 -1.1301 -1.2440
  242MPD1    N1 3733   0.101   0.133  15.838  0.3911 -0.2087  0.8070
  242MPD1    H6 3734   0.148   0.223  15.845 -1.6372  0.8142  1.2617
  242MPD1    H7 3735   0.025   0.143  15.771  0.0018  0.9455  1.4178
  243MPD1     C 3736   0.638   2.574  16.527 -0.2217  0.3514 -0.1913
  243MPD1    C1 3737   0.613   2.705  16.495 -0.1780  0.3817  0.6745
  243MPD1    C2 3738   0.664   2.809  16.572  0.2348  0.3856 -0.5429
  243MPD1    C3 3739   0.744   2.777  16.680  0.0430 -0.2871 -1.0806
  243MPD1    C4 3740   0.777   2.647  16.707  0.8831  0.6064  0.3656
  243MPD1    C5 3741   0.720   2.545  16.634  0.0115 -0.3619  0.3108
  243MPD1     H 3742   0.633   2.909  16.542  0.8263  0.5295 -0.6646
  243MPD1    H1 3743   0.849   2.610  16.779 -0.2394 -0.9126  0.7173
  243MPD1    H2 3744   0.601   2.490  16.469  0.5644  0.2183 -0.4950
  243MPD1    H3 3745   0.757   2.447  16.660 -0.6405 -0.7577 -0.2581
  243MPD1     N 3746   0.802   2.889  16.753 -0.0306 -0.1852 -0.7274
  243MPD1    H5 3747   0.786   2.982  16.715 -1.2909 -1.0256 -2.2314
  243MPD1    N1 3748   0.542   2.744  16.383 -0.0411  0.0088 -0.0654
  243MPD1    H6 3749   0.488   2.826  16.412  0.0743 -0.9436  2.8585
  243MPD1    H7 3750   0.482   2.664  16.362 -0.0564 -1.1633  4.4833
  244MPD1     C 3751   0.800   3.352  17.588 -0.1074  0.2223 -0.3371
  244MPD1    C1 3752   0.723   3.350  17.472  0.2355  0.2937 -0.0852
  244MPD1    C2 3753   0.769   3.271  17.368  0.1092  0.3273 -0.0118
  244MPD1    C3 3754   0.902   3.232  17.362 -0.0931 -0.3057 -0.1154
  244MPD1    C4 3755   0.981   3.240  17.472 -0.4643 -0.0837  0.5117
  244MPD1    C5 3756   0.930   3.301  17.584 -0.0985 -0.3709 -0.1079
  244MPD1     H 3757   0.708   3.259  17.280  0.4889 -1.3674 -0.0493
  244MPD1    H1 3758   1.082   3.203  17.475 -0.2480  0.6661  2.4444
  244MPD1    H2 3759   0.757   3.389  17.680  2.8536  0.4677  0.9337
  244MPD1    H3 3760   0.989   3.326  17.671  0.2979 -2.3016  0.1818
  244MPD1     N 3761   0.945   3.171  17.243  0.1136 -0.3878  0.4799
  244MPD1    H5 3762   0.873   3.161  17.172  0.6141 -0.8937  0.0536
  244MPD1    N1 3763   0.591   3.396  17.479  0.1994  0.1132 -0.2592
  244MPD1    H6 3764   0.568   3.446  17.565  0.9039  0.3240 -0.1955
  244MPD1    H7 3765   0.570   3.439  17.389  0.6142  0.4537 -0.1932
  245MPD1     C 3766   3.345   4.166  13.170  0.6605  0.4790  0.7139
  245MPD1    C1 3767   3.371   4.139  13.300  1.2798  0.7854  0.1092
  245MPD1    C2 3768   3.394   4.244  13.388 -0.0121 -0.2206 -0.1698
  245MPD1    C3 3769   3.375   4.376  13.346 -0.0672 -0.0198 -0.0226
  245MPD1    C4 3770   3.343   4.400  13.218  0.4707 -0.0593 -0.0247
  245MPD1    C5 3771   3.320   4.298  13.131 -0.1875 -0.5045 -0.5086
  245MPD1     H 3772   3.403   4.221  13.494  2.1766  0.9774 -0.0915
  245MPD1    H1 3773   3.326   4.502  13.185  1.1449  0.5822  1.5708
  245MPD1    H2 3774   3.320   4.088  13.099  1.4667  1.1839 -0.3409
  245MPD1    H3 3775   3.287   4.333  13.034  0.9765 -0.1068 -0.7532
  245MPD1     N 3776   3.415   4.473  13.441  0.2221 -0.3389 -0.0543
  245MPD1    H5 3777   3.464   4.441  13.524  0.0037 -0.9584 -0.1643
  245MPD1    N1 3778   3.400   4.006  13.337  0.1799  0.0543  0.7653
  245MPD1    H6 3779   3.380   3.997  13.436 -0.0603  2.0810  0.8906
  245MPD1    H7 3780   3.351   3.935  13.283  1.6773 -0.6657  0.3540
  246MPD1     C 3781   0.365   1.749  10.044  0.3156  0.3438  0.2742
  246MPD1    C1 3782   0.370   1.610  10.062  1.0193 -0.7172 -0.4604
  246MPD1    C2 3783   0.305   1.529   9.967  0.1709 -0.4420  0.1380
  246MPD1    C3 3784   0.238   1.583   9.859 -0.0970  0.8948 -0.0913
  246MPD1    C4 3785   0.239   1.716   9.843  0.1689  0.9919 -0.5572
  246MPD1    C5 3786   0.300   1.796   9.932  0.5584 -0.1771  0.1458
  246MPD1     H 3787   0.313   1.423   9.990  0.7126 -0.4886 -0.2714
  246MPD1    H1 3788   0.199   1.768   9.757 -1.0453  0.2717 -0.4246
  246MPD1    H2 3789   0.425   1.822  10.098  0.9475  2.0117 -2.6217
  246MPD1    H3 3790   0.281   1.903   9.924  2.5253  0.2046  0.6670
  246MPD1     N 3791   0.177   1.493   9.768 -0.7956 -0.6574 -0.1263
  246MPD1    H5 3792   0.195   1.396   9.790  0.5922 -0.3215  0.2548
  246MPD1    N1 3793   0.451   1.551  10.162  0.7370  0.4928  0.3235
  246MPD1    H6 3794   0.414   1.463  10.197 -0.4373  1.4723  1.5265
  246MPD1    H7 3795   0.444   1.606  10.247 -2.0918  0.4710  0.1128
  247MPD1     C 3796   2.609   3.554  16.998  0.1612  0.9153  0.3680
  247MPD1    C1 3797   2.672   3.475  16.902 -0.0352  0.5192 -0.1658
  247MPD1    C2 3798   2.738   3.540  16.798  0.7432  0.1570  0.8208
  247MPD1    C3 3799   2.745   3.675  16.803 -0.3637 -0.1442 -0.3490
  247MPD1    C4 3800   2.681   3.752  16.904 -0.5982 -0.3450  0.3015
  247MPD1    C5 3801   2.611   3.691  17.001 -0.1307 -0.3259  0.1575
  247MPD1     H 3802   2.782   3.486  16.716 -1.9522 -1.9021  0.7196
  247MPD1    H1 3803   2.676   3.859  16.891  0.4271 -0.2927  0.3922
  247MPD1    H2 3804   2.548   3.506  17.073  2.0590 -2.1280 -0.0713
  247MPD1    H3 3805   2.558   3.746  17.077  0.2660  1.1646 -0.6359
  247MPD1     N 3806   2.797   3.762  16.707  0.4514  0.2434  0.6866
  247MPD1    H5 3807   2.799   3.861  16.729  1.7983  0.2947  0.3206
  247MPD1    N1 3808   2.643   3.334  16.898 -0.5172  0.1845 -0.0914
  247MPD1    H6 3809   2.704   3.286  16.832  1.0767  0.5481  1.1180
  247MPD1    H7 3810   2.666   3.304  16.993 -0.7053  0.0776 -0.0799
  248MPD1     C 3811   3.753   4.529  17.718  0.1345 -0.8964 -0.0383
  248MPD1    C1 3812   3.624   4.520  17.757  0.1657  0.0666 -0.2610
  248MPD1    C2 3813   3.574   4.395   0.022 -0.1640  0.5755 -0.3152
  248MPD1    C3 3814   3.640   4.275  17.759 -0.4725  0.3816  0.0516
  248MPD1    C4 3815   3.771   4.291  17.714  0.0608  0.0094  0.4496
  248MPD1    C5 3816   3.834   4.416  17.699 -1.1995 -0.1535 -0.6738
  248MPD1     H 3817   3.469   4.394   0.050 -0.2927 -0.0161 -0.8221
  248MPD1    H1 3818   3.840   4.208  17.711 -2.9758 -2.4551 -1.5415
  248MPD1    H2 3819   3.795   4.629  17.718 -1.2439 -0.3144 -0.4718
  248MPD1    H3 3820   3.934   4.420  17.658  0.3435  1.4721  3.3063
  248MPD1     N 3821   3.576   4.154   0.018  0.0639  0.4829 -0.3159
  248MPD1    H5 3822   3.492   4.157   0.076 -0.9843 -0.7316 -1.7763
  248MPD1    N1 3823   3.548   4.635   0.029  0.3724 -0.1589 -0.2696
  248MPD1    H6 3824   3.564   4.713  17.727 -1.3046  0.7419  0.4153
  248MPD1    H7 3825   3.448   4.615   0.024  0.7025 -1.6903 -0.5777
  249MPD1     C 3826   1.409   2.903   9.579  0.4581 -0.6390  0.3085
  249MPD1    C1 3827   1.306   2.880   9.665  0.9298  0.3018 -0.7081
  249MPD1    C2 3828   1.259   2.990   9.739 -0.0762 -0.4838 -0.7288
  249MPD1    C3 3829   1.325   3.111   9.740 -0.0487  0.2314 -0.1090
  249MPD1    C4 3830   1.438   3.130   9.658  0.0267  0.7425 -0.4936
  249MPD1    C5 3831   1.485   3.022   9.584 -0.3316  1.1127 -0.5501
  249MPD1     H 3832   1.168   2.977   9.797  0.9885  1.5586  1.4207
  249MPD1    H1 3833   1.495   3.221   9.648 -1.8708  1.8108 -1.3877
  249MPD1    H2 3834   1.437   2.824   9.510  1.2891  1.5774 -1.9223
  249MPD1    H3 3835   1.573   3.037   9.523  0.4037  0.6986  0.4074
  249MPD1     N 3836   1.265   3.215   9.810  0.6694  0.2716  0.1497
  249MPD1    H5 3837   1.183   3.186   9.864 -0.4995 -0.2171 -1.9028
  249MPD1    N1 3838   1.229   2.767   9.655 -0.1995 -0.0704 -0.3363
  249MPD1    H6 3839   1.276   2.690   9.607 -0.4783 -1.4182  1.5340
  249MPD1    H7 3840   1.206   2.728   9.746 -3.6872 -0.7040 -1.4688
  250MPD2     C 3841   1.879   3.502  12.257 -0.4071  0.3046 -0.2473
  250MPD2    C1 3842   1.891   3.393  12.333  0.0910  0.0902 -0.0120
  250MPD2    C2 3843   1.792   3.301  12.335 -0.4517 -0.2027 -0.2754
  250MPD2    C3 3844   1.687   3.320  12.252  1.0464  0.0977  0.0393
  250MPD2    C4 3845   1.674   3.436  12.178  0.1503 -0.3400  0.1142
  250MPD2    C5 3846   1.773   3.527  12.175  0.0147 -0.0507  0.0554
  250MPD2     H 3847   1.787   3.214  12.401  0.1847 -1.4175 -1.8381
  250MPD2    H1 3848   1.590   3.441  12.110  0.5155 -0.7139 -0.3700
  250MPD2    H2 3849   1.959   3.574  12.265 -1.8807  1.8192  0.8766
  250MPD2    H3 3850   1.774   3.613  12.108  0.1328 -1.0742 -1.2412
  250MPD2     N 3851   1.588   3.219  12.246  0.6239 -0.3588  0.2787
  250MPD2    H5 3852   1.506   3.248  12.193  1.1217 -2.0981 -1.4323
  250MPD2    N1 3853   1.999   3.384  12.422  0.1539 -0.0762  0.2452
  250MPD2    H7 3854   2.049   3.472  12.430 -0.3504  0.0984  1.4880
  251TMC3    C1 3855   2.126   3.293  12.605 -0.0970 -0.1678  0.0989
  251TMC3    C2 3856   2.088   3.393  12.686 -0.1274  0.5112 -0.2505
  251TMC3    C3 3857   2.118   3.381  12.821 -0.0707 -0.3721  0.2976
  251TMC3    C4 3858   2.175   3.171  12.654 -0.2487  0.3536 -0.4913
  251TMC3    C5 3859   2.198   3.163  12.789  0.4597  0.3601  0.0004
  251TMC3    C6 3860   2.184   3.272  12.868  0.0112 -0.3088 -0.7802
  251TMC3     C 3861   2.041   3.270  12.488 -0.3104  0.2390 -0.2934
  251TMC3     O 3862   2.012   3.154  12.462  1.5852  0.3141  0.6286
  251TMC3     H 3863   2.036   3.481  12.652 -1.3330 -0.5426 -1.1363
  251TMC3    H1 3864   2.198   3.089  12.586 -1.1347 -0.6650  0.4308
  251TMC3    H2 3865   2.203   3.259  12.974  0.7604 -0.4095 -0.9255
  251TMC3    C7 3866   2.143   3.038  12.847 -0.0572  0.1334 -0.3815
  251TMC3    C8 3867   2.000   3.411  12.895 -0.6840 -0.3840  0.6611
  251TMC3    O1 3868   2.105   3.040  12.963 -0.4822  0.4314  0.7354
  251TMC3    O2 3869   1.898   3.382  12.837  0.2033 -0.5041 -0.1005
  252TMC3    C1 3870   1.572   0.090   9.724  0.4067  0.1083  0.7506
  252TMC3    C2 3871   1.706   0.114   9.693  0.6282  0.1308  0.9697
  252TMC3    C3 3872   1.791   0.030   9.757  0.6602  0.7898 -0.2604
  252TMC3    C4 3873   1.526   0.002   9.817 -0.8296 -0.3064  0.1826
  252TMC3    C5 3874   1.617   4.668   9.883 -0.2403  0.5635 -0.4037
  252TMC3    C6 3875   1.752   4.677   9.857 -0.1275  0.3241 -0.2308
  252TMC3     C 3876   1.466   0.133   9.639  0.1809  0.7950 -0.2267
  252TMC3     O 3877   1.366   0.063   9.629 -0.0633  0.3651 -0.3605
  252TMC3     H 3878   1.739   0.165   9.603  2.6380 -0.5043  1.3712
  252TMC3    H1 3879   1.420   4.733   9.839 -1.0347 -0.2122 -0.7910
  252TMC3    H2 3880   1.825   4.607   9.896  0.0293  0.3201 -0.5348
  252TMC3    C7 3881   1.570   4.537   9.931 -0.2446 -0.0521  0.3687
  252TMC3    C8 3882   1.924   0.025   9.706 -0.1362  0.3524 -0.3624
  252TMC3    O1 3883   1.450   4.517   9.927  0.0353 -0.3645 -0.2558
  252TMC3    O2 3884   1.949   0.079   9.596 -0.2424 -0.1199 -0.2780
  253MPD2     C 3885   2.986   2.797  14.920  0.0957  0.0104  0.0405
  253MPD2    C1 3886   2.860   2.726  14.917  0.5123  0.1116  0.2277
  253MPD2    C2 3887   2.805   2.680  15.034 -0.7974 -0.0233 -0.1047
  253MPD2    C3 3888   2.884   2.689  15.151 -0.4110 -0.3852  0.3020
  253MPD2    C4 3889   3.012   2.744  15.154  0.4277 -0.2392 -0.3889
  253MPD2    C5 3890   3.054   2.801  15.037  0.3776  0.2812 -0.3306
  253MPD2     H 3891   2.703   2.647  15.019 -1.3457  1.0878  1.2497
  253MPD2    H1 3892   3.068   2.760  15.245  0.4081  0.2062 -0.4540
  253MPD2    H2 3893   3.022   2.850  14.833 -0.0959 -1.7416 -1.1076
  253MPD2    H3 3894   3.150   2.851  15.040  0.8729 -0.8432  2.0978
  253MPD2     N 3895   2.828   2.664  15.282  0.6678 -0.0947 -0.6184
  253MPD2    H5 3896   2.891   2.678  15.360  0.7273 -2.2611 -0.2982
  253MPD2    N1 3897   2.781   2.713  14.797 -0.0975 -0.0482  0.4506
  253MPD2    H7 3898   2.711   2.641  14.797 -0.1941  0.0482 -2.1178
  254TMC3    C1 3899   2.651   2.660  15.440  0.8296  0.3214 -0.0778
  254TMC3    C2 3900   2.519   2.678  15.454 -0.3635 -0.3703  0.8077
  254TMC3    C3 3901   2.468   2.692  15.578 -0.0957 -0.3338 -0.1353
  254TMC3    C4 3902   2.734   2.691  15.538 -0.5337 -0.1261  0.2453
  254TMC3    C5 3903   2.678   2.713  15.660 -0.0839  0.1602  0.2710
  254TMC3    C6 3904   2.547   2.717  15.687 -0.3602 -1.1052 -0.6078
  254TMC3     C 3905   2.694   2.640  15.307 -0.6696 -0.2552 -0.4265
  254TMC3     O 3906   2.605   2.628  15.224  0.0074 -0.1605  0.2594
  254TMC3     H 3907   2.451   2.664  15.370 -0.6377 -0.5938  1.0664
  254TMC3    H1 3908   2.841   2.672  15.529 -0.3997  0.6363  0.2689
  254TMC3    H2 3909   2.524   2.729  15.792  0.1732 -1.0835 -0.4962
  254TMC3    C7 3910   2.766   2.728  15.773 -0.8502  0.3156  0.6780
  254TMC3    C8 3911   2.321   2.692  15.594 -0.1033  0.0320  0.0764
  254TMC3    O1 3912   2.726   2.684  15.880  0.1422  0.1073 -0.1730
  254TMC3    O2 3913   2.244   2.682  15.501 -0.2512 -0.3508  0.2815
  255MPD2     C 3914   2.082   1.128  10.225 -0.1799  0.0569  0.9958
  255MPD2    C1 3915   1.942   1.132  10.240 -0.6106 -0.0338  0.6803
  255MPD2    C2 3916   1.863   1.095  10.123 -0.0742 -0.2114 -0.4572
  255MPD2    C3 3917   1.928   1.061  10.003  0.3996 -0.0465  0.0316
  255MPD2    C4 3918   2.067   1.057   9.997 -0.8122  0.5066  0.3011
  255MPD2    C5 3919   2.142   1.095  10.106  1.2043 -0.9555  0.0379
  255MPD2     H 3920   1.755   1.101  10.128 -0.1780 -1.5596 -0.9734
  255MPD2    H1 3921   2.120   1.033   9.905 -2.2924 -1.3395 -0.0769
  255MPD2    H2 3922   2.153   1.147  10.305  1.5274 -1.2086 -0.1988
  255MPD2    H3 3923   2.251   1.092  10.103  1.1163 -1.1242 -2.8594
  255MPD2     N 3924   1.843   1.036   9.896 -0.4515 -0.0971  0.1464
  255MPD2    H5 3925   1.742   1.041   9.908 -0.3354 -0.3939  1.1756
  255MPD2    N1 3926   1.867   1.172  10.358  0.0584  0.4722 -0.1733
  255MPD2    H7 3927   1.766   1.172  10.347 -0.0740  1.0276  1.0630
  256TMC3    C1 3928   1.822   1.307  10.536 -0.0717  0.5878 -0.2504
  256TMC3    C2 3929   1.808   1.445  10.539  0.0126  0.5352 -0.4808
  256TMC3    C3 3930   1.704   1.508  10.607  0.6329  0.0481 -0.1235
  256TMC3    C4 3931   1.716   1.231  10.579  0.2218 -0.4298  0.1308
  256TMC3    C5 3932   1.605   1.289  10.627  0.7934  0.9439 -0.3129
  256TMC3    C6 3933   1.597   1.425  10.656  0.3423  0.4466 -0.6130
  256TMC3     C 3934   1.923   1.249  10.455 -0.6841 -0.5790  0.4906
  256TMC3     O 3935   2.027   1.312  10.452 -0.5696  0.5827 -0.3976
  256TMC3     H 3936   1.898   1.496  10.508 -0.2098  1.4310  0.3358
  256TMC3    H1 3937   1.725   1.127  10.553 -2.6567 -0.2434 -1.6005
  256TMC3    H2 3938   1.502   1.466  10.688  0.4353  0.1193  0.0817
  256TMC3    C7 3939   1.494   1.214  10.681  0.1298 -0.0861  0.2481
  256TMC3    C8 3940   1.677   1.650  10.606 -0.5564  0.1658 -0.3936
  256TMC3    O1 3941   1.390   1.276  10.671  0.4410 -0.5887 -0.6478
  256TMC3    O2 3942   1.597   1.684  10.691 -0.3389 -0.4139  0.2576
  257MPD2     C 3943   4.500   2.383  12.744  0.1908  0.1263  0.1232
  257MPD2    C1 3944   4.592   2.482  12.756 -0.1883  0.4082  0.1152
  257MPD2    C2 3945   4.711   2.464  12.824  0.2713  0.7935  0.2901
  257MPD2    C3 3946   0.006   2.344  12.878 -0.0165 -0.1842  1.0817
  257MPD2    C4 3947   4.650   2.247  12.869 -1.5468 -0.2699 -0.2509
  257MPD2    C5 3948   4.527   2.267  12.808  0.4403 -0.5608 -0.4695
  257MPD2     H 3949   0.030   2.552  12.844 -1.5325  2.0684  0.0865
  257MPD2    H1 3950   4.667   2.146  12.905 -0.7342  0.1565  0.5504
  257MPD2    H2 3951   4.400   2.391  12.703  0.4332  2.8325  0.0617
  257MPD2    H3 3952   4.452   2.189  12.814 -2.1762  2.0851  0.7600
  257MPD2     N 3953   0.137   2.329  12.932  0.0919 -0.2928 -0.0558
  257MPD2    H5 3954   0.199   2.410  12.930 -0.8752  0.4438 -0.3161
  257MPD2    N1 3955   4.557   2.608  12.698  0.6662 -0.2440  0.1489
  257MPD2    H7 3956   4.463   2.612  12.661  0.9544  4.3610 -0.0844
  258TMC3    C1 3957   0.298   2.246  13.085  1.2140 -0.7186 -0.1464
  258TMC3    C2 3958   0.350   2.370  13.104  0.4238 -0.5605  0.0655
  258TMC3    C3 3959   0.466   2.376  13.178  0.5253 -0.2768 -0.2645
  258TMC3    C4 3960   0.352   2.136  13.151 -0.2038 -0.6418  0.6791
  258TMC3    C5 3961   0.462   2.150  13.236  0.0114  0.0501 -0.2320
  258TMC3    C6 3962   0.516   2.270  13.251 -0.4578  0.0118  0.0090
  258TMC3     C 3963   0.187   2.221  13.000  0.6128  0.0949  0.9257
  258TMC3     O 3964   0.136   2.109  13.009  0.8923  0.7668 -0.8672
  258TMC3     H 3965   0.298   2.460  13.077  0.4669  0.1231  2.2864
  258TMC3    H1 3966   0.321   2.040  13.111  1.6206 -1.1605  0.5041
  258TMC3    H2 3967   0.617   2.282  13.288 -1.2022  3.7349  0.8023
  258TMC3    C7 3968   0.558   2.037  13.226  0.3095 -0.0827  0.4614
  258TMC3    C8 3969   0.565   2.480  13.142 -0.1638  0.4172 -0.6227
  258TMC3    O1 3970   0.564   1.982  13.116 -0.1682 -0.1771 -0.3471
  258TMC3    O2 3971   0.666   2.496  13.209  0.0958 -0.5388  0.4673
  259MPD2     C 3972   4.088   4.249   0.410  0.5641 -0.5206  0.2709
  259MPD2    C1 3973   4.125   4.122   0.460  0.1151  0.3516  0.0496
  259MPD2    C2 3974   4.237   4.062   0.402 -0.2947 -0.3530 -1.0371
  259MPD2    C3 3975   4.309   4.121   0.293 -0.3176  0.5878 -0.1790
  259MPD2    C4 3976   4.259   4.238   0.246 -0.0959 -0.3201 -1.1372
  259MPD2    C5 3977   4.156   4.302   0.308  0.0944  0.3617  0.5029
  259MPD2     H 3978   4.283   3.971   0.438 -0.6901 -0.4846 -0.8727
  259MPD2    H1 3979   4.304   4.296   0.166  1.3229  0.2671  0.0755
  259MPD2    H2 3980   4.005   4.303   0.456  0.7815 -1.3687  1.6520
  259MPD2    H3 3981   4.138   4.401   0.270 -0.4068  0.9068  2.1482
  259MPD2     N 3982   4.418   4.056   0.236  0.5557 -0.5644  0.3850
  259MPD2    H5 3983   4.437   3.964   0.274  0.7639 -0.6347  0.1123
  259MPD2    N1 3984   4.050   4.066   0.569  0.5856 -0.2809  0.1403
  259MPD2    H7 3985   3.975   4.128   0.596 -0.9762 -1.4220 -1.5503
  260TMC3    C1 3986   4.594   3.986   0.095  0.2433  0.5010  1.0088
  260TMC3    C2 3987   4.633   3.985  17.725  0.4524 -0.0680  0.3639
  260TMC3    C3 3988   4.729   3.897  17.694  0.4430 -0.3384  0.4253
  260TMC3    C4 3989   4.645   3.906   0.194  0.3328  0.0674 -0.0195
  260TMC3    C5 3990   0.004   3.822   0.153 -0.0534 -0.0827 -0.3743
  260TMC3    C6 3991   0.057   3.822   0.024  0.1572 -0.5414 -0.0158
  260TMC3     C 3992   4.497   4.091   0.131 -0.3390 -0.1013 -0.0846
  260TMC3     O 3993   4.483   4.192   0.066  0.2535  0.0111 -0.2547
  260TMC3     H 3994   4.569   4.030  17.650  1.2226 -2.0495 -1.5045
  260TMC3    H1 3995   4.611   3.910   0.296 -0.9790  2.5053 -0.5465
  260TMC3    H2 3996   0.150   3.771   0.001  0.3839 -0.5399  0.8865
  260TMC3    C7 3997   0.009   3.690   0.213  0.4171  0.3636  0.8250
  260TMC3    C8 3998   4.703   3.818  17.573 -0.3339  0.6562 -0.2320
  260TMC3    O1 3999   0.038   3.618   0.118 -1.1511 -0.1471 -0.4578
  260TMC3    O2 4000   4.677   3.880  17.469  0.3280  0.1274  0.2232
  261MPD2     C 4001   0.909   3.302  12.195 -0.5469  0.2013 -0.1957
  261MPD2    C1 4002   1.011   3.240  12.126 -0.3019 -0.4041  0.1168
  261MPD2    C2 4003   1.016   3.261  11.993 -0.3260  0.2395 -0.6823
  261MPD2    C3 4004   0.928   3.339  11.919 -0.7831  0.0089  0.3673
  261MPD2    C4 4005   0.833   3.401  11.989 -0.3684 -0.2388  0.1338
  261MPD2    C5 4006   0.817   3.375  12.127 -1.2484  0.4227  0.3977
  261MPD2     H 4007   1.092   3.216  11.929 -0.0760 -2.3921  1.4321
  261MPD2    H1 4008   0.757   3.465  11.947  2.2210  4.1626  2.1787
  261MPD2    H2 4009   0.913   3.300  12.303  0.1374 -1.1260 -0.2487
  261MPD2    H3 4010   0.746   3.434  12.183  0.5141  1.7862  1.1951
  261MPD2     N 4011   0.956   3.359  11.781 -0.0521  0.3797  0.5843
  261MPD2    H5 4012   1.042   3.316  11.748 -0.2277  1.3245 -1.1339
  261MPD2    N1 4013   1.106   3.159  12.179  0.4739 -0.2269 -0.1572
  261MPD2    H7 4014   1.171   3.113  12.116  1.9285  1.4943  0.0691
  262TMC3    C1 4015   0.958   3.488  11.572  0.1789  0.2105 -0.2984
  262TMC3    C2 4016   0.893   3.580  11.496 -0.3788  0.5040 -0.2882
  262TMC3    C3 4017   0.964   3.631  11.390 -0.0688  0.1706  0.1583
  262TMC3    C4 4018   1.085   3.443  11.557 -1.0232  0.2359  0.2078
  262TMC3    C5 4019   1.163   3.510  11.463  0.0007 -0.3643 -0.5200
  262TMC3    C6 4020   1.100   3.607  11.388 -0.7139 -0.2657  0.2388
  262TMC3     C 4021   0.887   3.438  11.693  0.7269  0.1157  0.2314
  262TMC3     O 4022   0.775   3.485  11.697 -0.1328 -0.3970  0.1765
  262TMC3     H 4023   0.799   3.628  11.522 -0.6559  0.3778 -1.0552
  262TMC3    H1 4024   1.133   3.367  11.617  1.6756  2.1873  0.5386
  262TMC3    H2 4025   1.168   3.623  11.305 -2.0456 -1.1013 -1.0132
  262TMC3    C7 4026   1.305   3.514  11.492  0.3068  0.1066 -0.0612
  262TMC3    C8 4027   0.918   3.760  11.338  1.1504 -0.2228 -0.1501
  262TMC3    O1 4028   1.351   3.414  11.551  0.1713 -0.2174 -0.1691
  262TMC3    O2 4029   1.006   3.834  11.293  0.3076 -0.0854  0.2085
  263MPD2     C 4030   2.311   2.141  11.898 -0.3630 -0.3987 -0.3526
  263MPD2    C1 4031   2.411   2.148  11.801  0.8035 -0.2964 -0.8227
  263MPD2    C2 4032   2.406   2.245  11.704  0.0990 -0.3921  0.0623
  263MPD2    C3 4033   2.297   2.327  11.691  0.5970  0.3662  0.6062
  263MPD2    C4 4034   2.196   2.313  11.784  0.5575  0.2812  0.3816
  263MPD2    C5 4035   2.202   2.220  11.879 -0.0267  0.6987 -0.4660
  263MPD2     H 4036   2.493   2.248  11.640  0.5707  1.6850  0.8213
  263MPD2    H1 4037   2.112   2.380  11.796  2.2765  2.3017  1.1292
  263MPD2    H2 4038   2.307   2.061  11.970  1.5915  1.3652  1.6971
  263MPD2    H3 4039   2.120   2.199  11.947  0.2667  0.7681 -0.0920
  263MPD2     N 4040   2.294   2.414  11.586  0.1182  0.6654  0.6929
  263MPD2    H5 4041   2.385   2.416  11.541  1.2413  2.0715  3.0209
  263MPD2    N1 4042   2.518   2.063  11.819 -0.7077  0.0969  0.6945
  263MPD2    H7 4043   2.501   2.002  11.898 -1.8808 -0.0314  0.3472
  264TMC3    C1 4044   2.224   2.579  11.429 -0.8064  0.8869  0.1123
  264TMC3    C2 4045   2.143   2.682  11.400  0.4776  0.0590  0.2124
  264TMC3    C3 4046   2.157   2.747  11.278  0.4620 -0.5285 -0.3712
  264TMC3    C4 4047   2.326   2.541  11.344 -0.1222 -0.4169 -0.2977
  264TMC3    C5 4048   2.333   2.604  11.220  0.0766  0.4014  0.0973
  264TMC3    C6 4049   2.242   2.701  11.181 -0.1731 -0.5985  0.2489
  264TMC3     C 4050   2.191   2.496  11.544  0.4928  0.0099 -0.5741
  264TMC3     O 4051   2.072   2.490  11.571 -0.2262 -0.1549  0.4708
  264TMC3     H 4052   2.067   2.711  11.472  1.7110  0.8651  1.1950
  264TMC3    H1 4053   2.391   2.457  11.369 -1.9669 -1.9477 -0.6595
  264TMC3    H2 4054   2.237   2.737  11.079  0.7388  0.3866  0.5522
  264TMC3    C7 4055   2.466   2.651  11.195  0.3237 -0.4375  0.4006
  264TMC3    C8 4056   2.142   2.888  11.270  0.2685 -0.0991 -0.5783
  264TMC3    O1 4057   2.555   2.565  11.205 -0.3179 -0.2791  0.0290
  264TMC3    O2 4058   2.214   2.948  11.193  0.2723 -0.3403 -0.0613
  265MPD2     C 4059   4.082   2.208  15.602 -0.3382  0.6728  0.3081
  265MPD2    C1 4060   4.020   2.308  15.524 -0.7602 -0.3253  0.8883
  265MPD2    C2 4061   4.043   2.308  15.391 -0.2350 -0.5935  0.0044
  265MPD2    C3 4062   4.112   2.200  15.326  0.3845  0.5424  0.7253
  265MPD2    C4 4063   4.168   2.102  15.403 -0.3436  0.2415 -0.4292
  265MPD2    C5 4064   4.158   2.111  15.543  0.2898 -0.4750  0.6415
  265MPD2     H 4065   3.987   2.374  15.326  1.0686  0.2157 -0.2952
  265MPD2    H1 4066   4.219   2.014  15.365 -2.1928 -0.4629 -1.2577
  265MPD2    H2 4067   4.074   2.211  15.711  1.2656 -1.2324  0.4642
  265MPD2    H3 4068   4.205   2.037  15.607  1.3964 -0.7043 -0.4313
  265MPD2     N 4069   4.139   2.192  15.183  0.1312  0.0971 -0.4658
  265MPD2    H5 4070   4.189   2.111  15.148 -0.8986 -0.5182 -0.5184
  265MPD2    N1 4071   3.934   2.412  15.583  1.5351  0.0336  0.0004
  265MPD2    H7 4072   3.921   2.493  15.523  0.6399 -1.4228 -1.7763
  266TMC3    C1 4073   3.863   2.550  15.759 -0.1309  0.9883 -0.0379
  266TMC3    C2 4074   3.897   2.582  15.888  0.2200  0.0134 -0.2381
  266TMC3    C3 4075   3.837   2.699  15.934  0.9557  1.0154 -0.7073
  266TMC3    C4 4076   3.755   2.594  15.692  0.1613 -0.3015  0.0051
  266TMC3    C5 4077   3.703   2.712  15.741  0.0721  0.6683 -0.3805
  266TMC3    C6 4078   3.739   2.768  15.864  0.1140  0.1585 -0.6246
  266TMC3     C 4079   3.903   2.419  15.716 -0.3767 -0.2657 -0.1853
  266TMC3     O 4080   3.927   2.343  15.805 -0.1334  0.4363 -0.2063
  266TMC3     H 4081   3.982   2.536  15.938  0.8122 -1.7272 -2.8637
  266TMC3    H1 4082   3.738   2.549  15.595  3.0611 -2.9478  0.7316
  266TMC3    H2 4083   3.689   2.857  15.901 -0.7525 -0.6494  0.1677
  266TMC3    C7 4084   3.592   2.760  15.661  0.0472  0.1753 -0.3911
  266TMC3    C8 4085   3.857   2.727  16.073  1.0078  0.5169  0.1120
  266TMC3    O1 4086   3.552   2.700  15.564 -0.6201 -0.1558  0.2566
  266TMC3    O2 4087   3.900   2.646  16.155  0.2377  0.1984 -0.1711
  267MPD2     C 4088   1.415   3.874   0.286 -0.0556  0.0972  0.3195
  267MPD2    C1 4089   1.494   3.979   0.247 -0.1132  0.0045  0.6906
  267MPD2    C2 4090   1.455   4.057   0.142  0.2927 -0.0942  0.2304
  267MPD2    C3 4091   1.333   4.024   0.083 -0.2925 -0.1630 -0.0448
  267MPD2    C4 4092   1.253   3.928   0.121  0.3568 -0.1204  0.1207
  267MPD2    C5 4093   1.294   3.847   0.223  0.5774  0.1357 -0.8289
  267MPD2     H 4094   1.514   4.142   0.108  0.0030 -0.1096 -0.3203
  267MPD2    H1 4095   1.167   3.899   0.062  0.3139  0.3095 -0.0291
  267MPD2    H2 4096   1.440   3.800   0.361  0.0069 -2.7141 -2.4572
  267MPD2    H3 4097   1.228   3.766   0.248  0.6786  0.4144  0.3240
  267MPD2     N 4098   1.296   4.104  17.725  0.3281  0.0650 -0.7086
  267MPD2    H5 4099   1.220   4.064  17.671 -0.1270 -1.6573  1.2137
  267MPD2    N1 4100   1.616   4.007   0.314 -1.0539 -0.3860 -0.0003
  267MPD2    H7 4101   1.652   3.940   0.382  0.1994 -0.4270 -0.7112
  268TMC3    C1 4102   1.806   4.123   0.403 -0.5812 -0.1060  0.1433
  268TMC3    C2 4103   1.870   4.241   0.406 -0.0687 -0.0635 -0.2098
  268TMC3    C3 4104   1.988   4.248   0.467  0.3673  0.3997 -0.4349
  268TMC3    C4 4105   1.848   4.016   0.477  0.2226  0.1232 -0.1623
  268TMC3    C5 4106   1.966   4.029   0.550 -0.2335 -0.0731  0.4352
  268TMC3    C6 4107   2.040   4.149   0.548  0.6454  0.1319  0.0904
  268TMC3     C 4108   1.686   4.128   0.307  0.7874  0.1602 -0.1328
  268TMC3     O 4109   1.650   4.239   0.264  0.3542  0.0241  0.3528
  268TMC3     H 4110   1.821   4.325   0.358  0.0330  1.4632  2.3497
  268TMC3    H1 4111   1.807   3.916   0.472  1.4935 -0.2873 -2.2980
  268TMC3    H2 4112   2.131   4.156   0.605 -0.1396 -0.9175  1.4748
  268TMC3    C7 4113   2.032   3.918   0.612 -0.0503  0.0057 -0.0057
  268TMC3    C8 4114   2.084   4.352   0.429  0.5967 -0.3203 -0.2666
  268TMC3    O1 4115   2.153   3.921   0.629  0.0440  0.8413  0.2229
  268TMC3    O2 4116   2.182   4.380   0.495  0.0417 -0.1615  0.4072
  269MPD2     C 4117   1.791   2.459  15.520 -0.5144  0.0113 -0.3023
  269MPD2    C1 4118   1.662   2.479  15.507  0.0702 -0.4055  0.1592
  269MPD2    C2 4119   1.613   2.595  15.452  0.4937 -0.5555  0.7750
  269MPD2    C3 4120   1.703   2.687  15.405  0.2327 -0.0017 -0.2763
  269MPD2    C4 4121   1.838   2.660  15.408 -0.0530  0.2302  0.6201
  269MPD2    C5 4122   1.884   2.547  15.469 -0.3859 -0.7017  0.8586
  269MPD2     H 4123   1.506   2.612  15.453  0.5661  0.1002 -2.0387
  269MPD2    H1 4124   1.919   2.720  15.368  2.6886 -3.6256  0.2971
  269MPD2    H2 4125   1.822   2.365  15.566  1.9908  1.2319  0.5397
  269MPD2    H3 4126   1.990   2.526  15.472  0.2210  2.6506  2.3968
  269MPD2     N 4127   1.646   2.805  15.366  0.1776  0.1418  0.3468
  269MPD2    H5 4128   1.553   2.824  15.403 -0.4646 -0.1372 -1.1072
  269MPD2    N1 4129   1.576   2.377  15.558  0.5256 -0.3739 -0.0289
  269MPD2    H7 4130   1.626   2.292  15.581  0.9027 -0.4209 -0.9864
  270TMC3    C1 4131   1.380   2.246  15.602 -0.8609 -0.2350  0.4896
  270TMC3    C2 4132   1.263   2.226  15.540 -0.0582  0.6760 -0.1664
  270TMC3    C3 4133   1.209   2.109  15.545 -0.2429 -0.2641 -0.4447
  270TMC3    C4 4134   1.441   2.147  15.676  0.2554 -0.3987  0.9378
  270TMC3    C5 4135   1.374   2.026  15.688  0.6309  0.0984 -0.4230
  270TMC3    C6 4136   1.270   2.000  15.600  0.3378 -0.4195 -0.3196
  270TMC3     C 4137   1.438   2.373  15.568  0.4607 -0.3910  0.1693
  270TMC3     O 4138   1.358   2.467  15.552 -0.2058  0.5102  0.1876
  270TMC3     H 4139   1.232   2.298  15.466  1.4821 -0.7741 -2.2280
  270TMC3    H1 4140   1.530   2.174  15.732  0.6377  0.9571 -0.3514
  270TMC3    H2 4141   1.216   1.907  15.592  0.7339 -0.6059 -0.7907
  270TMC3    C7 4142   1.465   1.915  15.712  0.1023  0.8896  0.0407
  270TMC3    C8 4143   1.139   2.076  15.423  0.3743  0.8474  0.5687
  270TMC3    O1 4144   1.588   1.933  15.701 -0.2321  0.0570 -0.5739
  270TMC3    O2 4145   1.027   2.120  15.405 -0.1203  0.3723 -0.0917
  271MPD2     C 4146   0.913   2.226  13.633  0.0876 -0.0562  0.4702
  271MPD2    C1 4147   0.932   2.289  13.750  0.1245 -0.0135 -0.4293
  271MPD2    C2 4148   0.851   2.406  13.771 -0.2743  0.1362  0.2617
  271MPD2    C3 4149   0.779   2.465  13.666 -0.3154  0.2547 -0.6640
  271MPD2    C4 4150   0.777   2.396  13.543 -0.1865  0.2279 -0.2812
  271MPD2    C5 4151   0.836   2.272  13.529  0.0525  0.7328  0.4535
  271MPD2     H 4152   0.860   2.459  13.865 -0.1248 -0.1928  0.4298
  271MPD2    H1 4153   0.724   2.446  13.463  1.3239  0.9780 -0.8108
  271MPD2    H2 4154   0.979   2.141  13.622  0.3986  0.1095  1.0233
  271MPD2    H3 4155   0.836   2.231  13.429 -0.8031 -0.3779  0.9052
  271MPD2     N 4156   0.701   2.586  13.675  0.7841  0.1956  0.0891
  271MPD2    H5 4157   0.663   2.615  13.586  3.1910 -1.5730 -1.5180
  271MPD2    N1 4158   1.011   2.247  13.859 -0.9969  0.7181  0.1705
  271MPD2    H7 4159   1.002   2.299  13.946 -1.2147  0.1953  0.4585
  272TMC3    C1 4160   1.151   2.114  13.988 -0.1872  0.3974 -0.4059
  272TMC3    C2 4161   1.263   2.035  13.997  0.5713 -0.3248  0.1082
  272TMC3    C3 4162   1.319   2.012  14.122 -0.2301  0.2061  0.6464
  272TMC3    C4 4163   1.083   2.161  14.099 -0.1907 -0.4718  0.2979
  272TMC3    C5 4164   1.144   2.137  14.221 -0.5726 -0.5647  0.1079
  272TMC3    C6 4165   1.260   2.074  14.232 -0.5542  0.4506  0.3617
  272TMC3     C 4166   1.113   2.151  13.850  0.2077  0.6778  0.0515
  272TMC3     O 4167   1.156   2.093  13.752  0.0129  0.6058 -0.4676
  272TMC3     H 4168   1.319   2.006  13.909 -1.1002 -3.4654  0.0968
  272TMC3    H1 4169   0.980   2.193  14.084 -0.5607 -1.2467  1.1937
  272TMC3    H2 4170   1.290   2.034  14.329 -1.0533 -0.1668  0.2643
  272TMC3    C7 4171   1.089   2.210  14.333 -0.5938 -0.3340 -0.4188
  272TMC3    C8 4172   1.458   2.003  14.120 -1.0658  0.0259 -0.0382
  272TMC3    O1 4173   0.998   2.277  14.296 -0.4637  0.0499 -0.0467
  272TMC3    O2 4174   1.513   2.015  14.011  0.4997  0.2926  0.0653
  273MPD2     C 4175   3.506   0.787  11.440  0.0749  0.1433  0.8290
  273MPD2    C1 4176   3.420   0.877  11.496 -0.3861  0.4547  0.5164
  273MPD2    C2 4177   3.307   0.928  11.424  0.3759  0.0952 -0.2799
  273MPD2    C3 4178   3.298   0.903  11.287 -0.4020  0.0673 -0.5257
  273MPD2    C4 4179   3.393   0.827  11.225  0.0903 -0.0867 -0.7447
  273MPD2    C5 4180   3.486   0.768  11.307  0.3136 -0.3341  0.9326
  273MPD2     H 4181   3.229   0.987  11.470 -0.1042 -1.0097  0.3360
  273MPD2    H1 4182   3.386   0.803  11.119  0.3321  1.5427 -1.1413
  273MPD2    H2 4183   3.585   0.745  11.501  0.8019 -0.5457 -0.5735
  273MPD2    H3 4184   3.531   0.678  11.266  0.8024  0.4180 -0.1929
  273MPD2     N 4185   3.196   0.966  11.214  0.2144 -0.1518  0.5477
  273MPD2    H5 4186   3.130   1.020  11.269  0.9272  2.5591 -1.2381
  273MPD2    N1 4187   3.447   0.899  11.628 -1.0528 -0.3169  0.0190
  273MPD2    H7 4188   3.528   0.853  11.667 -1.4184 -1.1258 -0.1681
  274TMC3    C1 4189   3.167   1.115  11.042 -1.3309  0.0010 -0.0576
  274TMC3    C2 4190   3.085   1.134  10.932 -0.1645  0.1980  0.6391
  274TMC3    C3 4191   3.035   1.261  10.936  0.5123 -0.6208 -0.3262
  274TMC3    C4 4192   3.195   1.201  11.143 -0.0922  0.3839  0.2074
  274TMC3    C5 4193   3.128   1.318  11.145  0.1951 -0.2707  0.3523
  274TMC3    C6 4194   3.042   1.353  11.042  0.1632 -0.4138  0.2238
  274TMC3     C 4195   3.207   0.983  11.080 -0.2803 -0.1259 -0.3691
  274TMC3     O 4196   3.253   0.917  10.989  0.0380  0.1812  0.0272
  274TMC3     H 4197   3.049   1.065  10.857 -0.0465  1.9477 -1.0291
  274TMC3    H1 4198   3.288   1.183  11.196  1.2315 -0.5256 -2.4126
  274TMC3    H2 4199   3.022   1.457  11.022  0.1125 -0.5646 -0.5270
  274TMC3    C7 4200   3.148   1.406  11.259 -0.6004  0.0681 -0.1916
  274TMC3    C8 4201   2.936   1.295  10.837  0.2186 -0.2249 -0.3507
  274TMC3    O1 4202   3.109   1.519  11.243  0.5071  0.1728  0.1258
  274TMC3    O2 4203   2.821   1.301  10.873 -0.7383 -0.0203 -0.5586
  275MPD2     C 4204   2.741   3.366  14.516 -0.3789 -0.5679 -0.3016
  275MPD2    C1 4205   2.629   3.425  14.568 -0.6766 -0.6065 -0.1461
  275MPD2    C2 4206   2.502   3.384  14.528  0.4837  0.4794 -0.1838
  275MPD2    C3 4207   2.487   3.272  14.448  0.1702 -0.6020  0.1118
  275MPD2    C4 4208   2.603   3.216  14.393  0.0880  0.3011  0.3855
  275MPD2    C5 4209   2.723   3.263  14.431 -0.6428  0.3528 -0.8202
  275MPD2     H 4210   2.416   3.440  14.564  0.4872 -0.1151  0.7556
  275MPD2    H1 4211   2.612   3.119  14.346  1.8661  0.3975  0.5023
  275MPD2    H2 4212   2.842   3.393  14.543 -0.2641 -1.5340  0.2241
  275MPD2    H3 4213   2.815   3.213  14.403 -0.0547  1.0357 -0.1140
  275MPD2     N 4214   2.366   3.193  14.440 -0.2446 -0.1134 -0.0748
  275MPD2    H5 4215   2.379   3.107  14.389 -0.4074 -1.2325  1.7614
  275MPD2    N1 4216   2.635   3.539  14.658  0.3152 -0.2092  0.1479
  275MPD2    H7 4217   2.545   3.576  14.687  0.1037 -1.0329  0.5489
  276TMC3    C1 4218   2.725   3.685  14.820 -0.2524  0.7719 -0.3103
  276TMC3    C2 4219   2.601   3.673  14.881  0.0961 -0.5174 -0.0157
  276TMC3    C3 4220   2.597   3.681  15.013 -0.0019 -0.5545  0.7666
  276TMC3    C4 4221   2.840   3.715  14.885 -0.6526  0.3883 -0.0834
  276TMC3    C5 4222   2.825   3.718  15.023  0.8642 -0.1408 -1.1998
  276TMC3    C6 4223   2.702   3.709  15.089  0.3594  0.2424  0.4709
  276TMC3     C 4224   2.744   3.608  14.699 -0.0894 -0.7452 -1.0946
  276TMC3     O 4225   2.858   3.586  14.653 -0.6626  0.1319 -0.1173
  276TMC3     H 4226   2.510   3.665  14.824  1.5624  1.4063 -2.6275
  276TMC3    H1 4227   2.930   3.724  14.825 -1.0830  2.5431 -0.4308
  276TMC3    H2 4228   2.703   3.699  15.197  3.7577 -1.6268  0.2611
  276TMC3    C7 4229   2.939   3.682  15.104  0.1042 -0.0998 -0.3605
  276TMC3    C8 4230   2.496   3.589  15.078 -1.4602 -0.3026  0.4642
  276TMC3    O1 4231   2.924   3.722  15.218  0.3939 -0.1302 -0.2325
  276TMC3    O2 4232   2.396   3.636  15.135 -0.5144  0.0093  0.0233
  277MPD2     C 4233   4.279   2.660  12.996  0.2953 -0.4108  0.0226
  277MPD2    C1 4234   4.208   2.728  13.097 -1.0851 -0.1438 -0.3717
  277MPD2    C2 4235   4.187   2.662  13.222  0.0360 -0.4137 -0.1441
  277MPD2    C3 4236   4.246   2.535  13.244  0.3758  0.5854  0.2744
  277MPD2    C4 4237   4.329   2.481  13.150 -0.1491 -0.3187  0.3769
  277MPD2    C5 4238   4.351   2.547  13.030  0.5593 -0.2109  0.3903
  277MPD2     H 4239   4.124   2.706  13.298 -0.3540 -1.7770  0.3214
  277MPD2    H1 4240   4.384   2.390  13.171  0.6754  0.0062 -0.4010
  277MPD2    H2 4241   4.291   2.708  12.900  0.4900  0.0518  0.2756
  277MPD2    H3 4242   4.422   2.512  12.955 -1.6695 -0.9781 -1.3675
  277MPD2     N 4243   4.235   2.479  13.374  0.5129 -0.0330  0.0949
  277MPD2    H5 4244   4.187   2.537  13.442 -0.2736 -0.1858 -0.3249
  277MPD2    N1 4245   4.160   2.860  13.076  0.4569  0.1090 -0.1723
  277MPD2    H7 4246   4.169   2.894  12.981 -2.6125 -0.9226 -0.8165
  278TMC3    C1 4247   4.229   2.299  13.545  0.1782 -0.4527  0.0851
  278TMC3    C2 4248   4.227   2.162  13.559  0.0190 -0.4386 -0.3568
  278TMC3    C3 4249   4.152   2.110  13.662  0.1560  0.1568  0.0345
  278TMC3    C4 4250   4.186   2.379  13.647  0.0823 -0.5134  0.7376
  278TMC3    C5 4251   4.115   2.330  13.755  0.5746  0.1508 -0.2189
  278TMC3    C6 4252   4.096   2.190  13.757  0.4997  0.3353 -0.2013
  278TMC3     C 4253   4.251   2.344  13.402 -0.4050  0.5803  0.0125
  278TMC3     O 4254   4.256   2.256  13.321 -0.3854 -0.3442 -0.3437
  278TMC3     H 4255   4.284   2.098  13.493 -0.1170  0.2470 -1.1466
  278TMC3    H1 4256   4.171   2.485  13.635  0.1811 -0.4713  0.9905
  278TMC3    H2 4257   4.057   2.147  13.848  0.5533 -0.6287 -0.6320
  278TMC3    C7 4258   4.068   2.417  13.864  0.1828 -0.2561  0.1303
  278TMC3    C8 4259   4.186   1.979  13.712 -0.7326 -0.4867 -0.6621
  278TMC3    O1 4260   4.127   2.524  13.873 -0.0287 -0.2251  0.4042
  278TMC3    O2 4261   4.220   1.987  13.827  0.1250  0.5194 -0.1894
  279MPD2     C 4262   3.764   2.240  17.706  0.4650  0.7771 -0.0766
  279MPD2    C1 4263   3.691   2.323   0.020 -0.8626 -0.0540  0.3807
  279MPD2    C2 4264   3.665   2.447  17.727 -0.1388  0.5758  0.5467
  279MPD2    C3 4265   3.682   2.460  17.588 -0.8561  0.1772 -0.3043
  279MPD2    C4 4266   3.739   2.361  17.509  0.0544 -0.2952 -0.0482
  279MPD2    C5 4267   3.797   2.255  17.574 -1.0350 -0.6438 -0.0621
  279MPD2     H 4268   3.626   2.524   0.032  0.5260  0.9456  0.5062
  279MPD2    H1 4269   3.745   2.367  17.401  0.8406 -0.8213 -0.0347
  279MPD2    H2 4270   3.805   2.153  17.756 -0.1284  0.4585 -0.1516
  279MPD2    H3 4271   3.855   2.181  17.520 -1.6662 -1.0848 -0.1345
  279MPD2     N 4272   3.636   2.581  17.528  0.1738  0.4603  0.4134
  279MPD2    H5 4273   3.636   2.576  17.426 -0.9597 -0.4337  0.4617
  279MPD2    N1 4274   3.648   2.283   0.155 -0.8593 -0.6489 -0.2293
  279MPD2    H7 4275   3.701   2.213   0.206 -2.3661 -1.3845  0.2994
  280TMC3    C1 4276   3.429   2.405   0.141 -0.7552  0.0959  0.1580
  280TMC3    C2 4277   3.387   2.354   0.022 -0.3076 -0.7641  0.1472
  280TMC3    C3 4278   3.272   2.408  17.729 -0.6186 -0.1869  0.3302
  280TMC3    C4 4279   3.366   2.504   0.204 -0.3007  0.0333 -0.4969
  280TMC3    C5 4280   3.252   2.558   0.147  1.2025  0.0568  0.2838
  280TMC3    C6 4281   3.208   2.512   0.026 -0.6444  0.0283 -0.3611
  280TMC3     C 4282   3.533   2.334   0.212 -0.0633  0.1804 -0.9504
  280TMC3     O 4283   3.492   2.332   0.326 -0.5225 -0.0780  0.2925
  280TMC3     H 4284   3.443   2.276  17.733  1.1712  0.1463  0.3771
  280TMC3    H1 4285   3.409   2.550   0.293  1.2939 -1.2294 -0.6136
  280TMC3    H2 4286   3.123   2.554  17.735 -1.6601 -1.1651  0.3329
  280TMC3    C7 4287   3.216   2.685   0.193 -0.0728  0.0715  0.2151
  280TMC3    C8 4288   3.263   2.408  17.586  0.2276 -0.2828 -0.1987
  280TMC3    O1 4289   3.301   2.755   0.251 -0.2678 -0.4796  0.5174
  280TMC3    O2 4290   3.224   2.514  17.536 -0.5313  0.0632 -0.0460
  281TMC3    C1 4291   1.779   2.621  13.398 -0.6434 -0.1029 -0.5478
  281TMC3    C2 4292   1.733   2.705  13.301  0.2135 -0.2097 -0.3052
  281TMC3    C3 4293   1.706   2.638  13.186 -0.2026 -1.0205 -0.3306
  281TMC3    C4 4294   1.806   2.494  13.380  0.4004 -0.1999 -0.1325
  281TMC3    C5 4295   1.777   2.435  13.260 -0.0479 -0.0428  0.1333
  281TMC3    C6 4296   1.714   2.507  13.162 -0.3754  0.3286 -0.2730
  281TMC3     C 4297   1.848   2.691  13.505  0.5497  1.0237 -0.5714
  281TMC3     O 4298   1.954   2.649  13.544 -0.0629  0.4358  0.0402
  281TMC3     H 4299   1.727   2.813  13.311  1.6816 -0.2280  0.7371
  281TMC3    H1 4300   1.846   2.439  13.464  0.1076  1.2781  0.9555
  281TMC3    H2 4301   1.670   2.456  13.078  2.0013 -1.2778 -0.5383
  281TMC3    C7 4302   1.786   2.294  13.246  0.2948 -0.2146 -0.2229
  281TMC3    C8 4303   1.746   2.718  13.072  0.0573  0.0948  0.2708
  281TMC3    O1 4304   1.750   2.246  13.139  0.1304 -0.0916 -0.8891
  281TMC3    O2 4305   1.768   2.840  13.086 -0.0560 -0.4334  0.0086
  282MPD2     C 4306   4.355   3.922  15.050 -0.5911  0.1117 -0.0269
  282MPD2    C1 4307   4.227   3.938  15.083  0.0932 -0.0937 -0.0446
  282MPD2    C2 4308   4.126   3.910  14.990  0.2743 -0.3066  0.0188
  282MPD2    C3 4309   4.161   3.863  14.864  0.2466 -0.6093 -0.7746
  282MPD2    C4 4310   4.297   3.852  14.833 -0.5185 -0.2881 -0.6366
  282MPD2    C5 4311   4.391   3.884  14.923 -0.1157 -0.6075 -0.3091
  282MPD2     H 4312   4.024   3.921  15.024  0.6175  1.2642  0.5596
  282MPD2    H1 4313   4.335   3.833  14.734  3.9183  0.5459  0.9061
  282MPD2    H2 4314   4.436   3.960  15.111 -0.2140 -1.8224  0.6589
  282MPD2    H3 4315   4.496   3.890  14.899 -0.0732 -1.4525 -0.3265
  282MPD2     N 4316   4.050   3.816  14.782 -0.0986  0.4328 -0.2410
  282MPD2    H5 4317   3.964   3.849  14.825 -0.7506  0.4499 -1.5576
  282MPD2    N1 4318   4.187   3.984  15.213 -0.1481  0.4555  1.0275
  282MPD2    H7 4319   4.090   4.007  15.231 -0.2163  1.1275 -0.1915
  283TMC3    C1 4320   4.206   4.066  15.429 -0.3162 -0.0771  0.2308
  283TMC3    C2 4321   4.232   4.185  15.494 -0.2627  0.2320  0.1742
  283TMC3    C3 4322   4.184   4.201  15.625 -0.2661 -0.2444 -0.3126
  283TMC3    C4 4323   4.125   3.966  15.471 -0.2768 -0.0354 -0.2652
  283TMC3    C5 4324   4.076   3.988  15.597  0.2747  0.1063  0.3666
  283TMC3    C6 4325   4.103   4.103  15.670  0.7800  0.1145  0.2394
  283TMC3     C 4326   4.276   4.032  15.307 -0.2381  0.1668  0.6100
  283TMC3     O 4327   4.396   4.056  15.307 -0.1310 -0.4247  0.0421
  283TMC3     H 4328   4.300   4.254  15.445  0.9662 -0.6946  0.5818
  283TMC3    H1 4329   4.124   3.872  15.418  1.2474  0.0720 -0.4884
  283TMC3    H2 4330   4.064   4.115  15.770  0.5953 -2.0821  0.4346
  283TMC3    C7 4331   3.967   3.909  15.647 -0.5486  0.8168 -0.6728
  283TMC3    C8 4332   4.215   4.325  15.697  0.0710 -0.1793 -1.1827
  283TMC3    O1 4333   3.932   3.941  15.757 -0.7999 -0.2453  0.1493
  283TMC3    O2 4334   4.168   4.346  15.810 -0.4503  0.0912 -0.0111
  284MPD2     C 4335   2.835   3.859  12.066 -0.1948 -0.0054 -0.8069
  284MPD2    C1 4336   2.705   3.852  12.028  0.1659 -0.6013 -0.5475
  284MPD2    C2 4337   2.638   3.733  12.024 -0.3579 -0.2355 -0.0172
  284MPD2    C3 4338   2.702   3.615  12.056 -0.1938  0.1773  0.2912
  284MPD2    C4 4339   2.836   3.622  12.093 -0.6323 -0.8627  0.2652
  284MPD2    C5 4340   2.901   3.739  12.101 -0.7600 -0.0574 -0.1690
  284MPD2     H 4341   2.537   3.740  11.985 -0.3586  0.7888  0.1615
  284MPD2    H1 4342   2.887   3.534  12.130 -1.3006 -1.0974  0.6271
  284MPD2    H2 4343   2.888   3.953  12.066  0.8233 -0.5825  0.2288
  284MPD2    H3 4344   3.005   3.749  12.128 -1.4822 -0.8977  2.9104
  284MPD2     N 4345   2.635   3.488  12.062 -0.3257 -0.7837 -0.4724
  284MPD2    H5 4346   2.690   3.407  12.087  0.7403 -0.1133 -0.6387
  284MPD2    N1 4347   2.641   3.965  11.979  0.4304  0.0440 -0.2755
  284MPD2    H7 4348   2.554   3.958  11.927  1.1688  0.5040 -1.5542
  285TMC3    C1 4349   2.641   4.173  11.868  0.6758 -0.1801  0.0520
  285TMC3    C2 4350   2.600   4.102  11.757 -0.2145  0.0589 -0.5676
  285TMC3    C3 4351   2.616   4.168  11.635 -0.7373 -0.7468 -0.1743
  285TMC3    C4 4352   2.699   4.296  11.871  0.0197  0.2118 -0.0919
  285TMC3    C5 4353   2.702   4.361  11.746  0.3702  0.1767  0.4552
  285TMC3    C6 4354   2.664   4.299  11.634  0.0849  0.4721 -0.3487
  285TMC3     C 4355   2.684   4.097  11.986 -0.4790 -0.5241 -0.3229
  285TMC3     O 4356   2.765   4.149  12.062 -0.2138  0.0033  0.4477
  285TMC3     H 4357   2.536   4.015  11.753 -2.1555  1.4882 -0.5973
  285TMC3    H1 4358   2.736   4.344  11.961 -0.1733  0.4250 -0.1273
  285TMC3    H2 4359   2.644   4.349  11.540 -0.6433  0.4941 -0.1833
  285TMC3    C7 4360   2.761   4.493  11.734  0.2519 -0.0082  0.0782
  285TMC3    C8 4361   2.583   4.096  11.516 -0.8532  0.3148 -0.2822
  285TMC3    O1 4362   2.798   4.532  11.626 -0.1549 -0.4001 -0.1883
  285TMC3    O2 4363   2.523   3.993  11.528  0.0877 -0.2264  0.1848
  286MPD2     C 4364   2.535   1.884   1.158 -0.2104 -0.2294 -0.2844
  286MPD2    C1 4365   2.538   1.957   1.038  0.0118 -0.4408  0.1499
  286MPD2    C2 4366   2.635   1.941   0.939  0.2117  0.4246 -0.1051
  286MPD2    C3 4367   2.742   1.851   0.958 -0.1011 -0.1633 -0.2161
  286MPD2    C4 4368   2.744   1.783   1.081 -0.3320 -0.6829 -0.4197
  286MPD2    C5 4369   2.639   1.801   1.180 -0.2658  0.5754  0.4319
  286MPD2     H 4370   2.631   2.006   0.852 -0.7467  1.6636  0.8632
  286MPD2    H1 4371   2.818   1.714   1.119  0.1857  0.7256  1.1725
  286MPD2    H2 4372   2.459   1.891   1.235  0.9782  2.1150  0.6782
  286MPD2    H3 4373   2.657   1.740   1.268 -2.2460  0.4994  0.7811
  286MPD2     N 4374   2.862   1.839   0.875 -0.2151  0.0772 -0.7461
  286MPD2    H5 4375   2.928   1.767   0.901 -0.5439  0.7339  1.8268
  286MPD2    N1 4376   2.447   2.064   1.017  0.0511  0.1948 -0.1376
  286MPD2    H7 4377   2.482   2.140   0.960  2.4123 -0.9509 -0.2293
  287TMC3    C1 4378   3.004   1.870   0.687  0.0974  0.2767  0.8290
  287TMC3    C2 4379   3.006   1.887   0.554 -0.4199 -0.2530 -0.5791
  287TMC3    C3 4380   3.131   1.878   0.493  0.0776  0.5386  0.1651
  287TMC3    C4 4381   3.116   1.838   0.756 -0.2449 -1.1111  0.3032
  287TMC3    C5 4382   3.232   1.818   0.696 -1.4979 -0.0531 -0.5395
  287TMC3    C6 4383   3.244   1.830   0.556 -1.0141  0.6587  0.1985
  287TMC3     C 4384   2.878   1.901   0.752 -0.4970  0.3890 -0.2782
  287TMC3     O 4385   2.797   1.965   0.688  0.3406 -0.6571  0.5477
  287TMC3     H 4386   2.913   1.906   0.502 -0.9349  0.1302  0.4828
  287TMC3    H1 4387   3.100   1.836   0.863 -0.8095  2.9079  0.2929
  287TMC3    H2 4388   3.338   1.820   0.503 -0.7273  0.0668  0.8205
  287TMC3    C7 4389   3.346   1.821   0.780  0.3495  0.3986 -0.4593
  287TMC3    C8 4390   3.141   1.867   0.352 -0.1825  0.2855  0.3885
  287TMC3    O1 4391   3.336   1.842   0.899  0.1314  0.4366  0.4668
  287TMC3    O2 4392   3.037   1.853   0.287  0.0746  0.4998 -0.1112
  288TMC3    C1 4393   4.421   1.730  14.677  0.0277 -0.4016 -0.5382
  288TMC3    C2 4394   4.390   1.737  14.810  0.4544 -0.1046 -0.3492
  288TMC3    C3 4395   4.345   1.860  14.856  0.5037  0.8845 -0.2139
  288TMC3    C4 4396   4.395   1.829  14.584  0.2852  0.5198  0.4346
  288TMC3    C5 4397   4.352   1.948  14.635  0.2024 -0.1366  0.5506
  288TMC3    C6 4398   4.336   1.968  14.773 -0.3755  0.5602  0.2570
  288TMC3     C 4399   4.486   1.601  14.635 -0.1213 -0.0761  0.1130
  288TMC3     O 4400   4.451   1.503  14.701  0.0174 -0.2994  0.2948
  288TMC3     H 4401   4.410   1.649  14.870 -1.3281 -2.3978 -3.0974
  288TMC3    H1 4402   4.407   1.803  14.480 -1.3462  0.3958  0.2817
  288TMC3    H2 4403   4.285   2.054  14.814  0.7762  0.4238  1.9580
  288TMC3    C7 4404   4.320   2.064  14.551 -0.2698 -0.1148  0.2658
  288TMC3    C8 4405   4.269   1.868  14.987  0.1814  0.8806  0.3688
  288TMC3    O1 4406   4.259   2.156  14.605  0.4057  0.0922  0.1031
  288TMC3    O2 4407   4.253   1.981  15.031  0.1508  0.0746 -0.0406
  289MPD2     C 4408   0.045   0.996  13.831  0.3395 -0.2918 -0.3303
  289MPD2    C1 4409   4.709   1.105  13.795  0.2121 -0.0894 -0.3330
  289MPD2    C2 4410   4.616   1.154  13.887  0.3233  0.6436 -0.0798
  289MPD2    C3 4411   4.612   1.096  14.011 -0.5938  0.3742  0.0075
  289MPD2    C4 4412   4.678   0.981  14.044  0.5309 -0.1138  0.0923
  289MPD2    C5 4413   0.020   0.925  13.951 -0.6513 -0.8547  0.1466
  289MPD2     H 4414   4.549   1.234  13.859 -0.7706  0.0097  0.7363
  289MPD2    H1 4415   4.671   0.942  14.145 -2.3541  0.1946  0.0253
  289MPD2    H2 4416   0.118   0.948  13.767  0.3206  0.0421 -0.6023
  289MPD2    H3 4417   0.078   0.834  13.963  0.3543 -0.1508  0.6778
  289MPD2     N 4418   4.542   1.153  14.122  0.4465  0.1909  0.4407
  289MPD2    H5 4419   4.536   1.110  14.214 -1.4105  6.0627  3.0683
  289MPD2    N1 4420   4.739   1.164  13.667 -0.5019 -0.4630 -0.0438
  289MPD2    H7 4421   0.064   1.128  13.600 -0.6677 -1.7331  0.4670
  290TMC3    C1 4422   4.384   1.296  14.222 -0.4862 -0.3999 -0.0396
  290TMC3    C2 4423   4.347   1.428  14.226  0.5869  0.0526  0.3139
  290TMC3    C3 4424   4.270   1.463  14.335 -0.0124 -0.6172  1.5108
  290TMC3    C4 4425   4.346   1.205  14.318  0.0246 -0.0016  0.9627
  290TMC3    C5 4426   4.271   1.252  14.424 -0.1153 -0.1559 -0.4502
  290TMC3    C6 4427   4.233   1.377  14.438 -0.8803 -0.0468 -0.2689
  290TMC3     C 4428   4.467   1.269  14.105 -0.9180  0.1468 -0.5496
  290TMC3     O 4429   4.482   1.361  14.028  0.2190  0.2347 -0.5433
  290TMC3     H 4430   4.388   1.499  14.156  1.8076  1.4014  2.3703
  290TMC3    H1 4431   4.384   1.103  14.324 -1.4486 -0.7396 -2.6396
  290TMC3    H2 4432   4.187   1.409  14.531 -1.8586 -1.5634 -0.2345
  290TMC3    C7 4433   4.248   1.169  14.542  0.0783  0.2513 -0.3386
  290TMC3    C8 4434   4.240   1.607  14.348 -0.3995  0.7234 -0.0344
  290TMC3    O1 4435   4.229   1.228  14.649 -0.2037  0.2136  0.1383
  290TMC3    O2 4436   4.294   1.679  14.263 -0.4085  0.6084  0.1685
  291MPD2     C 4437   3.846   1.277  17.622  0.1958  0.6455 -0.4239
  291MPD2    C1 4438   3.919   1.186  17.706 -0.2871 -0.1277  0.2492
  291MPD2    C2 4439   4.044   1.228  17.758 -0.1373 -0.9285 -0.1276
  291MPD2    C3 4440   4.095   1.354  17.737 -0.1791  0.2150  0.1284
  291MPD2    C4 4441   4.017   1.440  17.663 -0.6387 -0.1756 -0.1894
  291MPD2    C5 4442   3.896   1.405  17.616  0.5634 -0.2345 -0.3952
  291MPD2     H 4443   4.093   1.155   0.060  1.6560  1.0768  0.8046
  291MPD2    H1 4444   4.046   1.544  17.650 -0.1734 -0.3835 -0.8457
  291MPD2    H2 4445   3.749   1.246  17.583 -0.6136  0.7554  1.4910
  291MPD2    H3 4446   3.835   1.485  17.574  1.4720 -0.1859 -1.6340
  291MPD2     N 4447   4.216   1.402   0.031  0.3500  0.0280  0.2938
  291MPD2    H5 4448   4.227   1.503   0.035  0.2326 -0.0054  1.6124
  291MPD2    N1 4449   3.861   1.067  17.754  0.5944 -0.1602 -0.2102
  291MPD2    H7 4450   3.913   1.025   0.070  1.7439  0.9245 -0.3943
  292TMC3    C1 4451   3.702   0.896   0.042  0.2897 -0.3316  0.5807
  292TMC3    C2 4452   3.740   0.890   0.175  0.2569 -0.5727 -0.1685
  292TMC3    C3 4453   3.686   0.794   0.253  0.7882 -0.2634  0.3639
  292TMC3    C4 4454   3.605   0.817  17.746 -0.4262 -0.6175 -0.3200
  292TMC3    C5 4455   3.564   0.720   0.066 -0.6245  0.3557 -0.5217
  292TMC3    C6 4456   3.601   0.700   0.198  0.5436 -0.3838 -0.0605
  292TMC3     C 4457   3.741   1.006  17.718 -0.0046  0.5418  0.0147
  292TMC3     O 4458   3.681   1.024  17.612 -0.4395 -0.1342  0.1615
  292TMC3     H 4459   3.807   0.964   0.218 -0.2470  0.8801 -1.8922
  292TMC3    H1 4460   3.562   0.831  17.647  0.7156  0.6166 -0.6371
  292TMC3    H2 4461   3.575   0.607   0.246 -0.5014 -1.1813 -2.1722
  292TMC3    C7 4462   3.480   0.614   0.007  0.3525  0.3889  0.4149
  292TMC3    C8 4463   3.724   0.775   0.388 -0.4369  1.1322  0.0584
  292TMC3    O1 4464   3.479   0.509   0.069 -0.4073 -0.1657 -0.7769
  292TMC3    O2 4465   3.820   0.832   0.443 -0.4796 -0.5964 -0.5713
  293MPD2     C 4466   0.376   3.272  12.276 -0.3339  0.4335  0.5191
  293MPD2    C1 4467   0.288   3.168  12.317 -0.0093  0.0879 -0.7540
  293MPD2    C2 4468   0.297   3.130  12.452 -0.6291  0.3811 -0.7715
  293MPD2    C3 4469   0.394   3.178  12.534  0.7729  0.4015 -0.1097
  293MPD2    C4 4470   0.478   3.276  12.482 -0.0898  0.1951 -0.2275
  293MPD2    C5 4471   0.469   3.325  12.352  0.9352 -0.0897  0.6281
  293MPD2     H 4472   0.229   3.057  12.494 -0.9117  0.8699 -0.3725
  293MPD2    H1 4473   0.543   3.341  12.539 -1.5779  1.7121 -0.2556
  293MPD2    H2 4474   0.384   3.309  12.175  2.1777  0.4611  0.7161
  293MPD2    H3 4475   0.545   3.395  12.319  1.3893 -0.4603  0.8747
  293MPD2     N 4476   0.409   3.132  12.669  0.6185  0.2518 -0.0918
  293MPD2    H5 4477   0.349   3.055  12.698  2.9519 -2.3243 -2.0055
  293MPD2    N1 4478   0.207   3.110  12.223  0.5647 -0.1053  0.2627
  293MPD2    H7 4479   0.232   3.140  12.130  1.0275 -3.5924 -0.7669
  294TMC3    C1 4480   0.066   2.966  12.110 -0.4669 -0.0739 -0.0756
  294TMC3    C2 4481   0.016   2.835  12.108 -0.3504  0.4605 -0.2614
  294TMC3    C3 4482   4.721   2.780  11.990  0.1103  0.9569 -0.3147
  294TMC3    C4 4483   0.062   3.039  11.997  0.3764 -0.2429 -0.2531
  294TMC3    C5 4484   0.029   2.974  11.875  0.4948  0.2170  0.2480
  294TMC3    C6 4485   4.724   2.845  11.875  0.5617  0.6071 -0.3864
  294TMC3     C 4486   0.108   3.018  12.239  0.0003  0.3917 -0.2240
  294TMC3     O 4487   0.090   2.952  12.340 -0.2201 -0.0853 -0.4822
  294TMC3     H 4488   0.036   2.764  12.188  1.1028 -0.3946 -1.3893
  294TMC3    H1 4489   0.103   3.139  11.998 -0.6411  0.1754  0.8303
  294TMC3    H2 4490   4.701   2.788  11.786 -0.0950  1.9902 -1.0942
  294TMC3    C7 4491   0.065   3.022  11.741  0.2270 -0.3514 -0.0593
  294TMC3    C8 4492   4.632   2.671  11.985  0.1281 -0.5890 -0.4542
  294TMC3    O1 4493   0.030   2.959  11.645 -0.2803 -0.4340  0.4795
  294TMC3    O2 4494   4.623   2.614  11.878 -0.3604 -0.4052  0.5940
  295MPD2     C 4495   1.948   0.519   0.453  0.6384  0.0362 -0.9411
  295MPD2    C1 4496   1.827   0.574   0.473  0.3695 -0.3394  0.2636
  295MPD2    C2 4497   1.763   0.567   0.593 -0.1649 -0.2624  0.4952
  295MPD2    C3 4498   1.839   0.521   0.704 -0.7179  0.2870 -0.3875
  295MPD2    C4 4499   1.970   0.470   0.685  0.0743  0.6924 -0.3853
  295MPD2    C5 4500   2.019   0.470   0.561 -0.0063 -0.1870  0.0291
  295MPD2     H 4501   1.664   0.608   0.610 -1.0822 -2.2087 -0.1283
  295MPD2    H1 4502   2.020   0.448   0.778 -0.3282  1.7691  0.0766
  295MPD2    H2 4503   2.004   0.517   0.360 -1.4741 -1.4902 -2.1997
  295MPD2    H3 4504   2.120   0.433   0.547 -0.7006 -1.8655 -0.4389
  295MPD2     N 4505   1.789   0.501   0.832 -0.4694  0.8170  0.4445
  295MPD2    H5 4506   1.860   0.465   0.894 -1.8036 -1.2418  0.7882
  295MPD2    N1 4507   1.756   0.631   0.367  0.5303 -0.2175  0.2726
  295MPD2    H7 4508   1.669   0.671   0.400 -0.7190 -3.9821  1.6136
  296TMC3    C1 4509   1.619   0.444   0.992  0.3682  0.2497 -0.3121
  296TMC3    C2 4510   1.487   0.475   1.008  0.5342 -0.0506 -0.3066
  296TMC3    C3 4511   1.402   0.372   1.046 -0.2245  0.0340  0.1527
  296TMC3    C4 4512   1.664   0.310   0.999 -0.4817  0.1597  0.2567
  296TMC3    C5 4513   1.570   0.214   1.034  0.1436  0.9690 -0.1303
  296TMC3    C6 4514   1.441   0.241   1.069  0.4494  0.5106 -0.1120
  296TMC3     C 4515   1.662   0.524   0.876 -1.1771 -0.1573 -0.0570
  296TMC3     O 4516   1.568   0.584   0.829  0.2146  0.2820 -0.0665
  296TMC3     H 4517   1.457   0.579   1.008  1.9486  0.3747  1.9091
  296TMC3    H1 4518   1.765   0.288   0.965 -0.6813  0.4211 -0.5078
  296TMC3    H2 4519   1.366   0.165   1.088 -0.1020  1.4847  1.6251
  296TMC3    C7 4520   1.611   0.077   0.989  0.1955 -0.1843 -0.9298
  296TMC3    C8 4521   1.267   0.410   1.084  0.5233 -0.7263  0.2108
  296TMC3    O1 4522   1.725   0.056   0.956  0.0589  0.2338 -0.0366
  296TMC3    O2 4523   1.201   0.319   1.134  0.2403  0.1872 -0.4901
  297MPD2     C 4524   3.148   2.999  16.532  0.9600 -1.1018 -0.6282
  297MPD2    C1 4525   3.122   3.027  16.398  0.2668 -0.3126 -0.2787
  297MPD2    C2 4526   3.220   3.074  16.315 -0.5419  0.7012 -0.2519
  297MPD2    C3 4527   3.340   3.115  16.369  0.5987 -0.5364 -0.6290
  297MPD2    C4 4528   3.374   3.092  16.504 -0.1016 -0.8129  0.1452
  297MPD2    C5 4529   3.273   3.030  16.572  0.1010 -0.6903 -0.7150
  297MPD2     H 4530   3.196   3.103  16.213 -1.5862 -1.3001 -0.5759
  297MPD2    H1 4531   3.462   3.122  16.559  1.4378 -1.3794 -1.9866
  297MPD2    H2 4532   3.074   2.967  16.604  1.2741 -2.8149 -1.0626
  297MPD2    H3 4533   3.299   3.006  16.675  0.9892  1.3808 -0.4502
  297MPD2     N 4534   3.410   3.211  16.290 -0.4061 -0.2602  0.1787
  297MPD2    H5 4535   3.380   3.233  16.196  3.4486  1.5496 -0.6275
  297MPD2    N1 4536   2.992   3.009  16.339 -0.6236 -0.1877 -0.1377
  297MPD2    H7 4537   2.982   3.046  16.245 -1.4752 -1.0321 -0.3796
  298TMC3    C1 4538   2.761   2.952  16.314  0.3971 -0.0525  0.4754
  298TMC3    C2 4539   2.773   2.964  16.177  0.6724 -0.4012  0.8770
  298TMC3    C3 4540   2.659   2.995  16.106  0.5465 -0.0266 -0.1603
  298TMC3    C4 4541   2.639   2.966  16.367  0.4230 -0.2394  0.4223
  298TMC3    C5 4542   2.527   2.994  16.305 -0.9015 -0.3252  0.4401
  298TMC3    C6 4543   2.541   3.020  16.174 -0.0577  0.4851  0.0446
  298TMC3     C 4544   2.882   2.959  16.401 -0.9340  0.3225  0.6947
  298TMC3     O 4545   2.862   2.931  16.521  0.2640 -0.2796 -0.5656
  298TMC3     H 4546   2.866   2.953  16.123 -1.0971  0.2006 -2.2765
  298TMC3    H1 4547   2.643   2.963  16.475 -0.9898 -0.4383  0.4739
  298TMC3    H2 4548   2.460   3.037  16.103  0.1845 -0.3263 -0.4296
  298TMC3    C7 4549   2.428   3.071  16.375 -0.1295 -0.0378 -0.5178
  298TMC3    C8 4550   2.667   3.013  15.962  0.6032  0.0611 -0.3105
  298TMC3    O1 4551   2.444   3.073  16.497  0.0627  0.3493 -0.4171
  298TMC3    O2 4552   2.576   2.979  15.886 -0.0385  0.0445  0.4655
  299MPD2     C 4553   3.391   3.398  10.953 -0.1049 -0.0307 -0.6205
  299MPD2    C1 4554   3.418   3.394  10.814  0.0915  0.1884  0.0199
  299MPD2    C2 4555   3.340   3.314  10.730  0.3106 -0.2977  0.5261
  299MPD2    C3 4556   3.215   3.258  10.774 -0.1591 -0.3400  0.5573
  299MPD2    C4 4557   3.190   3.269  10.909 -0.5766  0.6589 -0.6461
  299MPD2    C5 4558   3.276   3.337  10.989  0.1582  0.2597  0.3835
  299MPD2     H 4559   3.377   3.292  10.630 -0.9246 -2.0009  0.4246
  299MPD2    H1 4560   3.113   3.208  10.954  0.5505  0.0821  0.5092
  299MPD2    H2 4561   3.462   3.428  11.030  1.7693  0.0053 -2.3633
  299MPD2    H3 4562   3.244   3.331  11.092  0.5533  2.7480  0.6537
  299MPD2     N 4563   3.128   3.169  10.701 -0.3955 -0.2506 -0.0187
  299MPD2    H5 4564   3.065   3.111  10.754 -1.8351  1.1441 -0.2221
  299MPD2    N1 4565   3.547   3.444  10.780 -0.2555  0.1330 -0.6502
  299MPD2    H7 4566   3.601   3.481  10.858 -2.9760  1.3852  0.6675
  300TMC3    C1 4567   3.025   3.068  10.513  0.0525 -0.4901 -0.1865
  300TMC3    C2 4568   3.061   3.002  10.399 -0.1944 -0.6898  0.4220
  300TMC3    C3 4569   2.976   2.906  10.352 -0.1471  1.3489 -0.7848
  300TMC3    C4 4570   2.905   3.057  10.574  0.2633 -0.4638 -0.2771
  300TMC3    C5 4571   2.821   2.968  10.521 -0.1659  0.2431 -0.3676
  300TMC3    C6 4572   2.858   2.888  10.418 -0.2819  0.7559 -0.2378
  300TMC3     C 4573   3.134   3.150  10.567 -0.1757  0.2187 -0.2194
  300TMC3     O 4574   3.216   3.197  10.492 -0.7504 -0.1154 -0.2397
  300TMC3     H 4575   3.160   3.010  10.357 -0.4040 -2.2813 -0.3616
  300TMC3    H1 4576   2.876   3.113  10.662  2.2789 -0.0480  0.1168
  300TMC3    H2 4577   2.779   2.826  10.377 -1.6914  1.2316  1.7790
  300TMC3    C7 4578   2.699   2.931  10.590  0.0186  0.0642  0.9094
  300TMC3    C8 4579   2.949   2.940  10.210  0.6923 -0.4488 -1.1191
  300TMC3    O1 4580   2.687   2.808  10.615  0.9170 -0.2119 -0.0852
  300TMC3    O2 4581   2.902   2.854  10.139  0.2864  0.1709  0.1691
  301MPD2     C 4582   1.772   3.956   0.952 -0.4477 -0.1742 -0.9957
  301MPD2    C1 4583   1.650   3.933   0.890 -0.3490 -0.4325  1.1313
  301MPD2    C2 4584   1.586   3.813   0.925 -0.4699  0.1802  0.2301
  301MPD2    C3 4585   1.639   3.714   1.011  0.4761  0.2084 -0.4261
  301MPD2    C4 4586   1.759   3.741   1.074  0.1402 -0.1866 -0.3096
  301MPD2    C5 4587   1.816   3.864   1.047 -0.2495 -0.2606  0.4741
  301MPD2     H 4588   1.488   3.798   0.881 -0.1271 -0.1266 -0.4380
  301MPD2    H1 4589   1.816   3.675   1.138  0.9342  1.1504  0.3673
  301MPD2    H2 4590   1.832   4.043   0.930  0.5463 -0.6071  0.0404
  301MPD2    H3 4591   1.911   3.892   1.090  0.5246  0.2008 -1.5516
  301MPD2     N 4592   1.574   3.592   1.051 -0.4579 -0.1956 -0.2688
  301MPD2    H5 4593   1.625   3.517   1.096 -0.2169 -0.4516 -0.9723
  301MPD2    N1 4594   1.593   4.019   0.791  0.0560 -0.2286 -0.0805
  301MPD2    H7 4595   1.502   3.990   0.758 -1.1048  2.9449  0.3556
  302TMC3    C1 4596   1.411   3.421   1.012 -0.5090 -0.1094  0.1513
  302TMC3    C2 4597   1.477   3.332   1.095  0.1392 -0.1497 -0.2076
  302TMC3    C3 4598   1.468   3.199   1.076  0.1823 -0.3086 -0.4964
  302TMC3    C4 4599   1.335   3.380   0.909  0.2848 -0.4261  0.4813
  302TMC3    C5 4600   1.315   3.245   0.903 -0.1158 -0.4539 -0.8464
  302TMC3    C6 4601   1.393   3.157   0.974  0.4048 -0.1564 -0.4046
  302TMC3     C 4602   1.448   3.561   1.005 -0.8352 -0.6681 -0.4149
  302TMC3     O 4603   1.370   3.625   0.934 -0.4096 -0.3454  0.1012
  302TMC3     H 4604   1.536   3.369   1.178 -0.3174  0.0965  0.0031
  302TMC3    H1 4605   1.278   3.452   0.851 -1.1719 -1.9442  0.0093
  302TMC3    H2 4606   1.376   3.051   0.961  2.2950 -0.6282  1.0738
  302TMC3    C7 4607   1.231   3.194   0.795 -0.0433  0.4357  0.5682
  302TMC3    C8 4608   1.528   3.094   1.160 -0.1069 -0.1998  0.0940
  302TMC3    O1 4609   1.234   3.075   0.762 -0.2835 -1.1690 -0.0914
  302TMC3    O2 4610   1.540   2.989   1.103 -0.1875 -0.0721 -0.3645
  303MPD2     C 4611   1.100   3.551  10.366  0.2422 -0.8383 -0.5410
  303MPD2    C1 4612   1.063   3.436  10.301  0.0690  0.3337 -0.4852
  303MPD2    C2 4613   1.169   3.371  10.237  0.3196  0.1140  1.0742
  303MPD2    C3 4614   1.297   3.418  10.239 -0.0329 -0.2000  0.2580
  303MPD2    C4 4615   1.320   3.537  10.300 -0.4197 -0.1473 -0.0185
  303MPD2    C5 4616   1.220   3.608  10.363 -0.0299  0.6316 -0.6447
  303MPD2     H 4617   1.152   3.279  10.181 -0.6596  2.7425 -2.9153
  303MPD2    H1 4618   1.413   3.592  10.293  0.4369 -1.6132 -0.1423
  303MPD2    H2 4619   1.022   3.609  10.414  1.6495 -0.8056  1.6773
  303MPD2    H3 4620   1.237   3.702  10.415 -1.7827  0.8677 -0.4965
  303MPD2     N 4621   1.397   3.328  10.180 -0.4832  0.4147 -0.3842
  303MPD2    H5 4622   1.364   3.235  10.157  2.5120 -0.3528 -1.4885
  303MPD2    N1 4623   0.932   3.407  10.316 -0.2762 -0.1198  0.1138
  303MPD2    H7 4624   0.879   3.473  10.372 -0.5275  1.4385 -1.9323
  304TMC3    C1 4625   0.729   3.292  10.317 -0.0799 -0.5082 -0.0921
  304TMC3    C2 4626   0.634   3.242  10.232  0.7122 -0.0334 -0.0293
  304TMC3    C3 4627   0.530   3.161  10.280  0.0894  1.2067 -0.2069
  304TMC3    C4 4628   0.727   3.249  10.445  0.3532 -0.2159 -0.2606
  304TMC3    C5 4629   0.628   3.163  10.484  0.5998 -0.6453 -0.3070
  304TMC3    C6 4630   0.524   3.119  10.409 -0.2527 -0.4139 -0.4707
  304TMC3     C 4631   0.866   3.302  10.262  0.0447  0.5657  1.0107
  304TMC3     O 4632   0.910   3.218  10.183  0.2045  0.1708 -0.1049
  304TMC3     H 4633   0.639   3.262  10.125  0.1645  0.8774  0.1178
  304TMC3    H1 4634   0.800   3.301  10.507 -2.3525  0.9708  1.9261
  304TMC3    H2 4635   0.449   3.049  10.446 -1.4063  1.3208  0.4780
  304TMC3    C7 4636   0.677   3.040  10.549  0.4492 -0.2866 -0.2724
  304TMC3    C8 4637   0.499   3.056  10.187 -0.4076  0.3228  0.2412
  304TMC3    O1 4638   0.636   2.935  10.503  0.0164 -0.3792  0.2012
  304TMC3    O2 4639   0.463   3.087  10.077  0.2929  0.0640 -0.0388
  305MPD2     C 4640   3.887   4.472  14.183  0.8202  0.0531 -0.1671
  305MPD2    C1 4641   3.959   4.367  14.137  0.7283  0.1824 -0.0777
  305MPD2    C2 4642   3.966   4.348  13.998  0.5698 -0.6806 -0.2920
  305MPD2    C3 4643   3.927   4.440  13.911  0.4962  0.4450 -1.3388
  305MPD2    C4 4644   3.864   4.550  13.960 -0.8593 -0.0591 -0.9327
  305MPD2    C5 4645   3.838   4.564  14.091 -0.1472  0.1035 -0.1044
  305MPD2     H 4646   4.028   4.268  13.961  1.5633  0.3194 -0.7848
  305MPD2    H1 4647   3.830   4.631  13.897 -0.7641 -2.1835 -3.7144
  305MPD2    H2 4648   3.887   4.499  14.288  1.9835 -1.7682  0.2935
  305MPD2    H3 4649   3.786   4.653  14.122 -1.4126 -0.6721  0.0094
  305MPD2     N 4650   3.943   4.436  13.768 -0.2052  0.0083  0.3487
  305MPD2    H5 4651   3.907   4.516  13.717  0.4652  1.5770  2.3104
  305MPD2    N1 4652   4.018   4.291  14.248  0.0021  0.5926 -0.5376
  305MPD2    H7 4653   4.007   4.322  14.344 -1.2241  0.3405 -0.5895
  306TMC3    C1 4654   4.185   4.156  14.337  0.2902 -1.0317  0.5353
  306TMC3    C2 4655   4.309   4.094  14.310 -0.2307  0.2959  0.6157
  306TMC3    C3 4656   4.384   4.058  14.418  0.5625  0.5357  0.2918
  306TMC3    C4 4657   4.138   4.176  14.471  0.2303 -0.0362  0.3339
  306TMC3    C5 4658   4.215   4.133  14.573  0.2739 -0.2419 -0.0482
  306TMC3    C6 4659   4.337   4.074  14.545 -0.1929  0.1889 -0.4392
  306TMC3     C 4660   4.098   4.184  14.225  0.0732 -0.3999  0.5291
  306TMC3     O 4661   4.128   4.126  14.120  0.3163 -0.5653  0.3418
  306TMC3     H 4662   4.350   4.081  14.211  2.2723  2.0267  1.4269
  306TMC3    H1 4663   4.037   4.205  14.494 -0.4020 -1.5072 -0.5695
  306TMC3    H2 4664   4.402   4.041  14.625 -0.6117 -1.4483 -0.7695
  306TMC3    C7 4665   4.189   4.203  14.697  0.1208  0.4247  0.4682
  306TMC3    C8 4666   4.527   4.024  14.413 -0.1593  0.8476 -0.3131
  306TMC3    O1 4667   4.081   4.265  14.713  0.0306  0.0941  0.5060
  306TMC3    O2 4668   4.552   3.925  14.481  0.4094 -0.2157  0.7018
  307MPD2     C 4669   2.738   2.901   0.452  0.1235  0.0249  0.0021
  307MPD2    C1 4670   2.612   2.961   0.422 -0.8210  0.1842  0.1125
  307MPD2    C2 4671   2.492   2.897   0.466  0.4916 -0.0161 -0.3282
  307MPD2    C3 4672   2.499   2.775   0.528 -0.7094 -0.3859 -0.5512
  307MPD2    C4 4673   2.614   2.708   0.522 -0.4334  0.5912 -0.1155
  307MPD2    C5 4674   2.733   2.770   0.492  0.2931 -0.0095 -0.7942
  307MPD2     H 4675   2.394   2.944   0.463  0.5611  0.2759  1.6306
  307MPD2    H1 4676   2.624   2.605   0.556  0.4487  0.1025 -1.8272
  307MPD2    H2 4677   2.831   2.942   0.416  0.0388 -0.1781 -0.4523
  307MPD2    H3 4678   2.827   2.723   0.516 -0.3173 -0.8900 -0.1662
  307MPD2     N 4679   2.378   2.712   0.579 -0.5814  0.5571  0.2953
  307MPD2    H5 4680   2.292   2.765   0.584 -1.6433 -1.0596 -0.9616
  307MPD2    N1 4681   2.605   3.101   0.376  0.1605 -0.2212 -1.5368
  307MPD2    H7 4682   2.510   3.136   0.362 -0.2679 -0.8008 -0.1766
  308TMC3    C1 4683   2.072   2.425   0.685 -0.0427  0.4031  0.0705
  308TMC3    C2 4684   2.010   2.503   0.781  0.1615  0.1416 -0.0541
  308TMC3    C3 4685   2.069   2.630   0.804 -0.5646  0.3561 -1.3038
  308TMC3    C4 4686   2.191   2.453   0.634  0.4352  0.6404  0.6183
  308TMC3    C5 4687   2.252   2.565   0.675  0.0722  0.3301 -0.2673
  308TMC3    C6 4688   2.190   2.659   0.751  0.1038 -0.6625  0.2435
  308TMC3     C 4689   1.988   2.342   0.598 -0.4897 -0.0237 -0.1504
  308TMC3     O 4690   2.043   2.260   0.523  0.2857  0.0496 -0.0688
  308TMC3     H 4691   1.917   2.480   0.833 -0.0813 -0.2380 -0.6551
  308TMC3    H1 4692   2.240   2.392   0.560  0.2930 -2.4720  3.0907
  308TMC3    H2 4693   2.254   2.735   0.794  2.2621  0.5628 -5.0860
  308TMC3    C7 4694   2.385   2.583   0.627  0.2624  0.3458  0.1675
  308TMC3    C8 4695   2.013   2.734   0.880 -0.9221  0.2321 -0.6150
  308TMC3    O1 4696   2.458   2.484   0.620 -0.0218  0.0426  0.2751
  308TMC3    O2 4697   1.937   2.702   0.969  0.0617  0.0134 -0.2682
  309MPD2     C 4698   1.442   2.899  17.375 -0.4997  0.0253  0.3736
  309MPD2    C1 4699   1.346   2.856  17.285 -0.3587  0.0989 -0.0806
  309MPD2    C2 4700   1.204   2.850  17.320 -0.2704  0.4567  0.1154
  309MPD2    C3 4701   1.172   2.884  17.452 -0.3478  0.4061  0.0361
  309MPD2    C4 4702   1.267   2.932  17.537 -0.7302 -0.2587 -0.3393
  309MPD2    C5 4703   1.398   2.938  17.501  0.8439  0.1604 -0.5033
  309MPD2     H 4704   1.124   2.816  17.255  0.9121 -3.3412  0.6588
  309MPD2    H1 4705   1.247   2.954  17.641 -1.4457  0.8470 -0.7047
  309MPD2    H2 4706   1.548   2.905  17.355 -0.5073 -1.3386 -0.0811
  309MPD2    H3 4707   1.469   2.980  17.572  3.3485 -0.8442 -2.3994
  309MPD2     N 4708   1.039   2.885  17.495  0.6366  0.0492  0.0760
  309MPD2    H5 4709   1.022   2.928  17.585  0.8420  0.0245  0.1259
  309MPD2    N1 4710   1.369   2.815  17.154  0.6283  0.2269  0.1962
  309MPD2    H7 4711   1.295   2.790  17.090  2.3173 -2.5839 -0.6916
  310TMC3    C1 4712   1.493   2.787  16.952  0.0195  0.1334 -1.2513
  310TMC3    C2 4713   1.385   2.846  16.886 -0.4562 -0.3208  0.5023
  310TMC3    C3 4714   1.398   2.863  16.753 -0.3237 -0.7523 -0.3482
  310TMC3    C4 4715   1.617   2.777  16.893 -0.2415  0.1224 -0.6724
  310TMC3    C5 4716   1.628   2.812  16.760  0.4405  0.7646  0.3901
  310TMC3    C6 4717   1.519   2.850  16.684  0.1054  0.3354 -0.5982
  310TMC3     C 4718   1.494   2.805  17.093  0.2043 -0.0447  0.2846
  310TMC3     O 4719   1.600   2.836  17.143 -0.3661 -0.3152  0.0429
  310TMC3     H 4720   1.292   2.879  16.931 -1.2327 -2.6739  0.5994
  310TMC3    H1 4721   1.703   2.734  16.943 -0.3245 -0.8426 -1.3675
  310TMC3    H2 4722   1.521   2.867  16.577 -0.1668  0.7034 -0.5439
  310TMC3    C7 4723   1.729   2.758  16.677 -0.4320  0.2479 -0.1024
  310TMC3    C8 4724   1.288   2.910  16.675 -0.5075  0.1638  0.3211
  310TMC3    O1 4725   1.721   2.789  16.559  0.3248  0.2988  0.1431
  310TMC3    O2 4726   1.180   2.856  16.682 -0.0424 -0.3495  0.2654
  311MPD2     C 4727   3.515   4.180  12.453 -0.3675  0.2456  0.1291
  311MPD2    C1 4728   3.518   4.240  12.577  0.5131  0.3004  0.6844
  311MPD2    C2 4729   3.402   4.264  12.645 -0.6570  0.0709  0.8856
  311MPD2    C3 4730   3.283   4.214  12.596 -0.2271 -0.4149  0.5921
  311MPD2    C4 4731   3.281   4.141  12.478 -0.8248 -0.5353 -0.1737
  311MPD2    C5 4732   3.398   4.128  12.407  0.1912 -0.0980  0.4666
  311MPD2     H 4733   3.407   4.333  12.728  1.6385  1.5849 -0.4917
  311MPD2    H1 4734   3.191   4.096  12.437 -0.0505 -1.2488 -1.0919
  311MPD2    H2 4735   3.604   4.158  12.395 -0.2780 -0.8945  0.6912
  311MPD2    H3 4736   3.403   4.068  12.318  0.0053 -0.6132  0.8065
  311MPD2     N 4737   3.169   4.249  12.666  0.7427 -0.8032  0.3337
  311MPD2    H5 4738   3.178   4.319  12.739 -1.3380  0.7479 -0.8582
  311MPD2    N1 4739   3.633   4.304  12.628  0.1644 -0.2322  0.0529
  311MPD2    H7 4740   3.619   4.365  12.708  1.9388  2.1446 -1.4291
  312TMC3    C1 4741   2.945   4.284  12.711  0.3041 -0.3523  0.5458
  312TMC3    C2 4742   2.828   4.310  12.645 -0.1188 -0.3217  0.1152
  312TMC3    C3 4743   2.754   4.416  12.687  0.6114 -0.5044  0.4402
  312TMC3    C4 4744   2.974   4.361  12.823  0.0437 -0.1275 -0.3461
  312TMC3    C5 4745   2.884   4.454  12.875 -0.2000  0.0588 -0.0780
  312TMC3    C6 4746   2.776   4.486  12.800 -0.0208  0.3359  0.3930
  312TMC3     C 4747   3.040   4.209  12.641 -0.0037 -1.1506  0.2307
  312TMC3     O 4748   2.996   4.131  12.561  0.4507 -0.0028 -0.3737
  312TMC3     H 4749   2.805   4.271  12.547 -1.6195 -3.4546  1.7072
  312TMC3    H1 4750   3.067   4.338  12.874 -1.3753 -1.0106  1.8220
  312TMC3    H2 4751   2.706   4.561  12.836 -1.0072 -1.0755  1.3967
  312TMC3    C7 4752   2.887   4.491  13.016 -0.3933  0.7431 -0.0814
  312TMC3    C8 4753   2.618   4.374  12.659 -0.4383  0.2460  0.0090
  312TMC3    O1 4754   2.858   4.611  13.045 -0.1338 -0.1949 -0.5719
  312TMC3    O2 4755   2.612   4.258  12.624  0.0829  0.2115  0.0783
  313MPD2     C 4756   2.347   4.485  11.727  0.1354  0.1772  0.2309
  313MPD2    C1 4757   2.357   4.508  11.592  0.7302 -0.5928 -0.1323
  313MPD2    C2 4758   2.323   4.410  11.503  0.4863  0.7570  0.0321
  313MPD2    C3 4759   2.264   4.292  11.545  0.2639 -0.1999  0.1961
  313MPD2    C4 4760   2.253   4.268  11.684  0.0154 -0.3682  0.1073
  313MPD2    C5 4761   2.301   4.364  11.768 -0.1879  0.4349 -0.0962
  313MPD2     H 4762   2.331   4.426  11.396 -1.3197 -0.6520 -0.3173
  313MPD2    H1 4763   2.221   4.171  11.721  2.3149 -1.2066 -0.1442
  313MPD2    H2 4764   2.370   4.553  11.808 -2.2480  0.8737  0.3254
  313MPD2    H3 4765   2.287   4.347  11.874 -0.0358  0.7562 -0.0243
  313MPD2     N 4766   2.222   4.205  11.439 -0.2597 -0.8592  0.4839
  313MPD2    H5 4767   2.247   4.235  11.346 -0.8710  0.8903  0.8822
  313MPD2    N1 4768   2.409   4.626  11.544 -0.0050 -0.0751 -0.5110
  313MPD2    H7 4769   2.399   4.632  11.443 -3.7406 -2.2642 -0.2695
  314TMC3    C1 4770   2.528   0.075  11.510  0.9196 -1.1151  0.0586
  314TMC3    C2 4771   2.663   0.090  11.508 -0.1664  0.1329 -0.0328
  314TMC3    C3 4772   2.727   0.145  11.402 -0.4385  0.3242 -0.3928
  314TMC3    C4 4773   2.444   0.133  11.421  0.8078 -0.3563  0.5415
  314TMC3    C5 4774   2.505   0.193  11.317  0.0205 -0.1295  0.7273
  314TMC3    C6 4775   2.645   0.197  11.308  0.3746 -0.4751 -0.9068
  314TMC3     C 4776   2.480   4.722  11.607  0.3828  0.2336  0.2969
  314TMC3     O 4777   2.516   4.726  11.724  0.4385  0.5765 -0.4977
  314TMC3     H 4778   2.720   0.032  11.579 -0.7550  1.5921  1.6197
  314TMC3    H1 4779   2.337   0.112  11.423  0.5142  0.9621 -1.4533
  314TMC3    H2 4780   2.684   0.246  11.219  0.8049  0.0742 -0.4129
  314TMC3    C7 4781   2.424   0.197  11.192 -0.4441  0.2636 -0.2618
  314TMC3    C8 4782   2.866   0.148  11.375  0.5948  0.4773  0.1164
  314TMC3    O1 4783   2.307   0.222  11.210  0.0185 -0.7489 -0.5435
  314TMC3    O2 4784   2.896   0.240  11.296 -0.1785  0.5640 -0.3593
  315MPD2     C 4785   2.421   2.297   0.345  0.7177  0.1501  0.1256
  315MPD2    C1 4786   2.528   2.379   0.350  0.3288  0.3272 -0.8924
  315MPD2    C2 4787   2.523   2.511   0.299  0.7589  0.0013 -0.4010
  315MPD2    C3 4788   2.403   2.565   0.260 -0.7334 -0.0816  0.1567
  315MPD2    C4 4789   2.291   2.482   0.271 -0.6381 -0.3612 -0.2352
  315MPD2    C5 4790   2.297   2.345   0.305 -0.2850 -0.0707 -0.5244
  315MPD2     H 4791   2.614   2.567   0.285  1.3813 -1.4833 -2.3937
  315MPD2    H1 4792   2.194   2.516   0.237  0.8447  1.1011 -3.0567
  315MPD2    H2 4793   2.423   2.192   0.374 -0.6296  0.4679  1.3660
  315MPD2    H3 4794   2.206   2.285   0.306 -1.0672  1.1191  0.6228
  315MPD2     N 4795   2.397   2.701   0.219  0.7141  0.1159  0.6430
  315MPD2    H5 4796   2.492   2.736   0.224  0.4076  1.0229  0.1070
  315MPD2    N1 4797   2.656   2.329   0.382 -0.1161 -0.4044  0.0550
  315MPD2    H7 4798   2.741   2.384   0.372 -0.2231 -0.3892 -0.8223
  316TMC3    C1 4799   2.326   2.908   0.119  0.7887 -0.8827 -0.6763
  316TMC3    C2 4800   2.458   2.932   0.083 -0.2156 -0.0639  0.3213
  316TMC3    C3 4801   2.490   3.043   0.012 -0.8372 -0.4989 -0.8908
  316TMC3    C4 4802   2.228   2.993   0.072  0.1726  0.3328 -0.3190
  316TMC3    C5 4803   2.263   3.096  17.753  0.9287 -0.5399 -0.4411
  316TMC3    C6 4804   2.396   3.122  17.711 -0.5051  0.2223  0.4490
  316TMC3     C 4805   2.292   2.779   0.182  0.1663 -0.0578  0.2113
  316TMC3     O 4806   2.172   2.752   0.186 -0.1084  0.1890 -0.3959
  316TMC3     H 4807   2.534   2.868   0.127  1.0123  2.2905  1.6299
  316TMC3    H1 4808   2.124   2.985   0.104  0.6029 -0.3894  0.8821
  316TMC3    H2 4809   2.435   3.211  17.664 -0.4659  0.7922  1.5533
  316TMC3    C7 4810   2.165   3.197  17.722  1.2891 -1.1147  0.4382
  316TMC3    C8 4811   2.629   3.087   0.017  0.2596 -0.8777  0.5300
  316TMC3    O1 4812   2.074   3.206   0.040 -0.1587 -0.6882  0.5272
  316TMC3    O2 4813   2.663   3.201   0.016  0.8969 -0.0904 -0.8796
  317MPD2     C 4814   4.608   0.750  12.383  0.3901  0.4514 -0.5464
  317MPD2    C1 4815   4.741   0.734  12.422  0.4980  0.2167  0.4738
  317MPD2    C2 4816   0.030   0.670  12.541 -0.1979  1.0586 -0.0941
  317MPD2    C3 4817   4.672   0.646  12.634  0.2433  0.6860  0.2560
  317MPD2    C4 4818   4.545   0.657  12.593 -0.3659 -0.3726  0.2065
  317MPD2    C5 4819   4.520   0.726  12.477  0.1775  0.0891  0.5708
  317MPD2     H 4820   0.135   0.658  12.567 -0.5398  1.7468  1.6525
  317MPD2    H1 4821   4.457   0.637  12.653  0.3470  0.5927  1.5747
  317MPD2    H2 4822   4.572   0.809  12.301  1.5468  0.9769 -0.6815
  317MPD2    H3 4823   4.416   0.752  12.458 -0.1853 -1.8716 -0.1352
  317MPD2     N 4824   4.717   0.630  12.763 -0.1545 -0.7960  0.0169
  317MPD2    H5 4825   0.076   0.651  12.770 -0.3017 -0.0707 -0.1214
  317MPD2    N1 4826   0.103   0.773  12.334 -0.0743  0.6957 -0.3803
  317MPD2    H7 4827   0.199   0.764  12.367 -0.0877 -3.3690 -1.4963
  318TMC3    C1 4828   4.738   0.644  12.995  0.1438 -0.0343  0.2897
  318TMC3    C2 4829   4.725   0.572  13.108 -0.1684  0.2501  0.0316
  318TMC3    C3 4830   0.082   0.571  13.202  0.4294 -0.8774 -0.1984
  318TMC3    C4 4831   0.102   0.729  12.969  0.6938 -0.1364  0.0990
  318TMC3    C5 4832   0.202   0.714  13.062  0.9910  0.1080 -0.0074
  318TMC3    C6 4833   0.193   0.643  13.186 -0.5834 -0.1944 -0.0096
  318TMC3     C 4834   4.647   0.611  12.881 -0.3088  0.2813 -0.6126
  318TMC3     O 4835   4.528   0.590  12.896  0.2615  0.4474  0.1808
  318TMC3     H 4836   4.627   0.527  13.123  0.5973 -1.7317 -0.8685
  318TMC3    H1 4837   0.118   0.792  12.882 -1.7891 -0.4978 -0.6096
  318TMC3    H2 4838   0.263   0.655  13.268  1.8163 -0.7909 -1.9649
  318TMC3    C7 4839   0.331   0.785  13.032 -0.0840 -0.7778  0.3499
  318TMC3    C8 4840   0.062   0.514  13.333  0.0807 -0.0062  0.4889
  318TMC3    O1 4841   0.329   0.858  12.931 -0.3374  0.2777 -0.5001
  318TMC3    O2 4842   0.153   0.513  13.414  0.0318 -0.1141 -0.0106
  319MPD2     C 4843   0.754   2.163  16.487 -0.1977 -0.3989 -0.8770
  319MPD2    C1 4844   0.662   2.109  16.569  0.6260 -0.2772 -0.2050
  319MPD2    C2 4845   0.556   2.037  16.514 -0.5113 -0.5221 -0.5280
  319MPD2    C3 4846   0.534   2.041  16.380 -0.4000 -0.1396 -0.0509
  319MPD2    C4 4847   0.621   2.108  16.298 -0.8652  0.0751  0.4949
  319MPD2    C5 4848   0.730   2.163  16.347 -0.2636  0.1519  0.3872
  319MPD2     H 4849   0.481   2.003  16.585 -0.9203  0.4583 -0.4977
  319MPD2    H1 4850   0.608   2.104  16.190 -0.9656  0.9620  0.4775
  319MPD2    H2 4851   0.837   2.220  16.526 -0.2215 -0.7518 -0.3172
  319MPD2    H3 4852   0.805   2.205  16.281 -1.2095  1.2164 -0.0197
  319MPD2     N 4853   0.420   1.975  16.333 -0.0527 -0.4608  0.3309
  319MPD2    H5 4854   0.397   1.982  16.234  0.7473  0.6182  0.2219
  319MPD2    N1 4855   0.670   2.115  16.710 -0.3468  1.0195 -0.4756
  319MPD2    H7 4856   0.603   2.057  16.761  1.5223 -1.9926 -1.4070
  320TMC3    C1 4857   0.228   1.840  16.348 -0.0546 -0.1107 -0.6113
  320TMC3    C2 4858   0.162   1.922  16.259 -0.6653 -0.0305  0.1045
  320TMC3    C3 4859   0.034   1.892  16.218 -0.0289 -0.2699 -0.4793
  320TMC3    C4 4860   0.157   1.743  16.410 -0.5519  0.0914  0.2007
  320TMC3    C5 4861   0.026   1.723  16.374 -0.0387  0.2250 -0.4362
  320TMC3    C6 4862   4.701   1.796  16.277 -0.6741 -1.0181  0.9935
  320TMC3     C 4863   0.355   1.877  16.405 -0.4019  0.7275 -0.8557
  320TMC3     O 4864   0.384   1.827  16.511  0.0534 -0.5159 -0.0363
  320TMC3     H 4865   0.205   2.010  16.213  2.0650 -0.6700  1.3748
  320TMC3    H1 4866   0.200   1.692  16.495 -1.8134  0.3782  0.9956
  320TMC3    H2 4867   4.597   1.766  16.268 -0.2656 -1.2186 -3.0915
  320TMC3    C7 4868   4.725   1.583  16.377  0.3080  0.0724  0.0279
  320TMC3    C8 4869   4.707   1.995  16.140 -0.3288 -0.1748  0.2187
  320TMC3    O1 4870   4.661   1.533  16.290 -0.3088 -0.4524 -0.1441
  320TMC3    O2 4871   0.021   2.103  16.135  0.1594 -0.2630 -0.6681
  321TMC3    C1 4872   0.754   2.136  16.925 -1.0018 -0.0153  0.2945
  321TMC3    C2 4873   0.670   2.033  16.956  0.6258  0.4196 -0.2091
  321TMC3    C3 4874   0.621   2.035  17.076 -0.0843 -0.5320  0.0712
  321TMC3    C4 4875   0.796   2.234  17.018 -0.1486 -0.1437 -0.1210
  321TMC3    C5 4876   0.744   2.234  17.140  0.1493 -0.4044  0.0818
  321TMC3    C6 4877   0.653   2.138  17.166  0.0901  0.6114 -0.0048
  321TMC3     C 4878   0.769   2.173  16.783  0.4103  0.1311 -0.1223
  321TMC3     O 4879   0.869   2.229  16.744  0.4797  0.5905  0.0066
  321TMC3     H 4880   0.657   1.942  16.899  0.7874 -0.4202  1.0820
  321TMC3    H1 4881   0.880   2.298  16.992 -3.2346  3.5442 -0.9449
  321TMC3    H2 4882   0.613   2.127  17.267  2.1437  2.4616  0.9871
  321TMC3    C7 4883   0.837   2.237  17.248 -0.0766 -0.2808 -0.4971
  321TMC3    C8 4884   0.612   1.912  17.152  0.2065  0.1056 -0.4012
  321TMC3    O1 4885   0.821   2.150  17.334 -0.1925  0.1829 -0.7105
  321TMC3    O2 4886   0.566   1.818  17.088 -0.0831  0.2914 -0.0436
  322MPD2     C 4887   3.974   3.814  13.660 -0.0974 -0.1798  0.1872
  322MPD2    C1 4888   3.983   3.717  13.759  0.5296  0.2097  0.0152
  322MPD2    C2 4889   3.989   3.589  13.718  0.3080  0.0359 -0.9300
  322MPD2    C3 4890   3.965   3.562  13.581  0.1214  0.2631 -0.1884
  322MPD2    C4 4891   3.951   3.663  13.489 -0.1790  0.0006  0.1191
  322MPD2    C5 4892   3.955   3.790  13.526  0.0116 -0.1455 -0.2144
  322MPD2     H 4893   4.026   3.513  13.785 -3.2171 -1.1416 -0.3107
  322MPD2    H1 4894   3.940   3.641  13.383 -3.0713  0.0125  0.4271
  322MPD2    H2 4895   3.975   3.921  13.680 -1.1664 -0.5264  2.0741
  322MPD2    H3 4896   3.934   3.873  13.460 -2.5236  0.1843  1.0013
  322MPD2     N 4897   3.995   3.427  13.548 -0.5027 -0.3559  0.3613
  322MPD2    H5 4898   4.008   3.358  13.622  0.0622 -0.5525  0.0771
  322MPD2    N1 4899   4.002   3.756  13.893  0.1160  0.0147 -0.4559
  322MPD2    H7 4900   4.030   3.852  13.911  2.4685 -0.4270 -1.7419
  323TMC3    C1 4901   4.118   3.721  14.090 -0.2313  0.5476  0.1072
  323TMC3    C2 4902   4.220   3.806  14.041  0.1290 -0.2274  0.5798
  323TMC3    C3 4903   4.334   3.817  14.114 -0.3027  0.0512 -0.2366
  323TMC3    C4 4904   4.126   3.656  14.203 -1.3306 -0.1048  0.2765
  323TMC3    C5 4905   4.246   3.675  14.275  0.2617 -0.4546  0.7226
  323TMC3    C6 4906   4.342   3.762  14.235 -0.1555  0.7169 -0.0830
  323TMC3     C 4907   4.027   3.664  13.996  0.0554  0.2948  0.3593
  323TMC3     O 4908   3.973   3.559  14.019 -0.2883  0.3129 -0.0644
  323TMC3     H 4909   4.212   3.850  13.942 -0.4171 -0.2840  0.6030
  323TMC3    H1 4910   4.044   3.593  14.236  0.5292 -1.6444  2.0357
  323TMC3    H2 4911   4.422   3.794  14.300 -0.4406  2.1815 -0.4545
  323TMC3    C7 4912   4.295   3.554  14.341  0.4389  0.3389 -0.0134
  323TMC3    C8 4913   4.466   3.805  14.050 -0.2560 -0.8056 -0.3214
  323TMC3    O1 4914   4.200   3.482  14.365 -0.7263 -0.3524 -0.5797
  323TMC3    O2 4915   4.554   3.742  14.111 -0.2054  0.2804 -0.0768
  324MPD2     C 4916   0.707   3.804  14.383  0.4775 -0.6951  0.1676
  324MPD2    C1 4917   0.670   3.934  14.372 -0.0590  0.4891 -0.0986
  324MPD2    C2 4918   0.555   3.972  14.300 -0.1772 -0.1085 -0.0722
  324MPD2    C3 4919   0.483   3.879  14.228  0.1660  0.4744  0.5193
  324MPD2    C4 4920   0.525   3.750  14.228  0.5222  0.4421 -0.0686
  324MPD2    C5 4921   0.635   3.719  14.298  0.4698  0.5527 -0.3755
  324MPD2     H 4922   0.529   4.077  14.299 -0.3869 -0.1590  1.9800
  324MPD2    H1 4923   0.469   3.672  14.178  2.0823 -0.8631  0.2453
  324MPD2    H2 4924   0.789   3.766  14.443 -0.6746 -1.5887  1.1676
  324MPD2    H3 4925   0.666   3.615  14.295 -1.9964 -0.1232 -2.3600
  324MPD2     N 4926   0.377   3.905  14.145  0.7892 -0.0500  0.1716
  324MPD2    H5 4927   0.337   3.824  14.099  0.4843  0.3139 -0.2110
  324MPD2    N1 4928   0.733   4.034  14.446 -0.0401 -1.0347 -0.6474
  324MPD2    H7 4929   0.688   4.124  14.458  0.1645 -0.9231 -0.7215
  325TMC3    C1 4930   0.262   4.023  13.984 -0.3076 -0.0783 -0.8835
  325TMC3    C2 4931   0.324   3.995  13.864  0.0782  0.0636 -0.6113
  325TMC3    C3 4932   0.257   4.012  13.746  0.4000  0.1130  0.6852
  325TMC3    C4 4933   0.138   4.081  13.978  0.5656  0.1362  0.0716
  325TMC3    C5 4934   0.076   4.101  13.854 -0.5539  0.6411 -0.0108
  325TMC3    C6 4935   0.131   4.055  13.741  0.0684 -0.5941  0.0914
  325TMC3     C 4936   0.343   4.034  14.107 -0.3951  0.2380  0.7176
  325TMC3     O 4937   0.403   4.139  14.123 -0.5101  0.0308  0.1708
  325TMC3     H 4938   0.429   3.969  13.875 -0.1704 -1.8506 -2.6071
  325TMC3    H1 4939   0.095   4.116  14.071  0.0551  0.5698 -0.3285
  325TMC3    H2 4940   0.079   4.065  13.646  0.6151 -0.8893 -0.2417
  325TMC3    C7 4941   4.682   4.161  13.847 -0.2054  0.3112  0.2025
  325TMC3    C8 4942   0.338   3.977  13.631 -0.2013  0.0708  0.0799
  325TMC3    O1 4943   4.619   4.143  13.745 -0.4695 -0.2396 -0.1439
  325TMC3    O2 4944   0.461   3.978  13.634  0.1627 -0.3707 -0.2156
  326MPD2     C 4945   2.237   1.527  11.062 -0.2291 -0.5451  0.5299
  326MPD2    C1 4946   2.327   1.511  10.960 -0.6996  0.5065 -0.2586
  326MPD2    C2 4947   2.458   1.541  10.975  0.1138  0.4883 -0.0034
  326MPD2    C3 4948   2.503   1.621  11.079 -0.3956  0.4819  0.1683
  326MPD2    C4 4949   2.414   1.653  11.179 -0.7983 -0.2690 -0.4283
  326MPD2    C5 4950   2.284   1.598  11.172  0.3454 -0.3846  0.2138
  326MPD2     H 4951   2.529   1.500  10.904 -0.8634 -1.6882  0.3089
  326MPD2    H1 4952   2.441   1.714  11.264 -0.1332 -1.8054  0.4685
  326MPD2    H2 4953   2.133   1.499  11.054 -0.6261  1.0061  0.1539
  326MPD2    H3 4954   2.204   1.617  11.243  0.4271  0.6517  0.0353
  326MPD2     N 4955   2.629   1.673  11.079 -0.4704  0.1253 -0.1555
  326MPD2    H5 4956   2.671   1.709  11.164  1.1994 -1.0540 -0.4862
  326MPD2    N1 4957   2.295   1.453  10.833 -0.1581  0.1119 -0.0307
  326MPD2    H7 4958   2.375   1.443  10.771  0.1783 -1.0143  0.5956
  327TMC3    C1 4959   2.212   1.530  10.635  0.5810 -0.4064 -0.2689
  327TMC3    C2 4960   2.156   1.650  10.611  0.1718 -0.1482 -0.0872
  327TMC3    C3 4961   2.204   1.728  10.507 -0.5717 -0.0541 -0.3450
  327TMC3    C4 4962   2.329   1.488  10.574  0.6535 -0.9402 -0.6404
  327TMC3    C5 4963   2.373   1.572  10.478 -0.1653  0.7697  0.0288
  327TMC3    C6 4964   2.316   1.693  10.439 -0.5763 -0.4012 -0.0045
  327TMC3     C 4965   2.180   1.483  10.771 -0.4075 -0.3055 -0.5046
  327TMC3     O 4966   2.073   1.520  10.817 -0.1261  0.4197  0.1971
  327TMC3     H 4967   2.067   1.670  10.670  0.4117 -0.1590  0.2762
  327TMC3    H1 4968   2.377   1.392  10.589  0.8382 -0.5496  1.2438
  327TMC3    H2 4969   2.371   1.766  10.381 -0.0930  0.5823  1.6867
  327TMC3    C7 4970   2.505   1.551  10.419  0.0016 -0.2001 -1.0605
  327TMC3    C8 4971   2.178   1.865  10.504  0.5599 -0.4234 -0.5442
  327TMC3    O1 4972   2.527   1.607  10.310 -0.0715  0.1365  0.5140
  327TMC3    O2 4973   2.191   1.935  10.401  0.0062  0.0422  0.2086
  328MPD2     C 4974   0.230   1.153  17.111 -0.0625 -0.1381 -0.1999
  328MPD2    C1 4975   0.150   1.038  17.089  0.4628 -0.0591 -0.0914
  328MPD2    C2 4976   0.058   1.026  16.985 -0.1421  0.1550 -0.3136
  328MPD2    C3 4977   0.032   1.148  16.915 -0.6512  0.1287 -0.4874
  328MPD2    C4 4978   0.110   1.258  16.939  0.2472 -0.6263  0.6034
  328MPD2    C5 4979   0.204   1.265  17.037 -1.2758  0.1770  0.1371
  328MPD2     H 4980   4.735   0.939  16.973  0.9056 -0.3910 -1.9016
  328MPD2    H1 4981   0.076   1.355  16.904  0.6686 -1.0445 -0.9429
  328MPD2    H2 4982   0.301   1.160  17.192 -3.8055  0.4485  3.0615
  328MPD2    H3 4983   0.257   1.359  17.041  0.6104 -0.8141 -1.7790
  328MPD2     N 4984   4.670   1.167  16.820 -0.1336  0.0477  0.2927
  328MPD2    H5 4985   4.651   1.259  16.782  1.7886  1.0260  1.6997
  328MPD2    N1 4986   0.158   0.944  17.193  0.2010  0.2010  0.3991
  328MPD2    H7 4987   0.217   0.967  17.272  1.7392 -0.6899 -0.4952
  329TMC3    C1 4988   0.117   0.744  17.308 -0.5824  0.0423  0.0730
  329TMC3    C2 4989   0.228   0.761  17.384  0.4292 -0.2934 -0.4194
  329TMC3    C3 4990   0.212   0.722  17.514  0.0304  0.0503 -0.5116
  329TMC3    C4 4991   0.010   0.675  17.351  0.5456  0.0873  0.6010
  329TMC3    C5 4992   0.009   0.622  17.477  0.3707 -0.2076  0.4685
  329TMC3    C6 4993   0.109   0.651  17.565 -0.1960  0.7851  1.6299
  329TMC3     C 4994   0.114   0.814  17.181 -0.0241 -0.1035 -0.6431
  329TMC3     O 4995   0.065   0.759  17.080 -0.2450  0.6680 -0.0531
  329TMC3     H 4996   0.327   0.789  17.351  0.7074 -0.2549  0.4402
  329TMC3    H1 4997   4.674   0.651  17.278 -0.1918  0.2033  1.3371
  329TMC3    H2 4998   0.112   0.616  17.667  0.6969 -1.2253  0.9095
  329TMC3    C7 4999   4.640   0.541  17.520 -0.5503  0.6027  0.3158
  329TMC3    C8 5000   0.288   0.799  17.608 -0.1730  0.3557  0.3301
  329TMC3    O1 5001   4.564   0.510  17.427  0.4476  0.3850  0.0018
  329TMC3    O2 5002   0.391   0.853  17.569  0.2331  0.1452  0.0861
  330TMC3    C1 5003   3.007   0.962   9.598 -0.4268  0.0227 -0.7714
  330TMC3    C2 5004   2.905   0.913   9.523  0.7885  0.1243  0.7726
  330TMC3    C3 5005   2.867   0.784   9.552  0.0981  0.4340 -0.2510
  330TMC3    C4 5006   3.078   0.882   9.690  0.2159  0.2419  0.1694
  330TMC3    C5 5007   3.032   0.756   9.721  0.6636 -0.5011  0.5880
  330TMC3    C6 5008   2.921   0.709   9.654  0.8547  0.7191  0.3681
  330TMC3     C 5009   3.012   1.099   9.616 -0.3904 -0.0404 -1.3268
  330TMC3     O 5010   3.069   1.134   9.718  0.1791 -0.0778 -0.1022
  330TMC3     H 5011   2.867   0.973   9.441  2.7404 -0.6328 -0.6752
  330TMC3    H1 5012   3.159   0.920   9.752  1.1498 -0.1042 -0.8383
  330TMC3    H2 5013   2.883   0.611   9.681 -0.3108  1.1816  0.4225
  330TMC3    C7 5014   3.085   0.685   9.834  0.0640  0.0929 -0.4125
  330TMC3    C8 5015   2.745   0.739   9.491 -0.0693  0.3032  0.4284
  330TMC3    O1 5016   3.157   0.747   9.908  0.0201 -0.3773  0.1917
  330TMC3    O2 5017   2.718   0.799   9.386 -0.2171  0.7848 -0.5128
  331MPD2     C 5018   0.845   0.001  12.098  0.4987 -0.2303  0.2574
  331MPD2    C1 5019   0.729   4.665  12.109 -0.4554 -0.4559 -0.2486
  331MPD2    C2 5020   0.732   4.560  12.188  0.0999 -0.0164 -0.1283
  331MPD2    C3 5021   0.846   4.514  12.253  0.1753  0.6287 -0.4174
  331MPD2    C4 5022   0.969   4.590  12.244  0.5505 -1.3598  0.0660
  331MPD2    C5 5023   0.963   4.702  12.155  0.2840 -0.0794 -0.1748
  331MPD2     H 5024   0.647   4.492  12.187  1.1552 -1.3251 -0.2760
  331MPD2    H1 5025   1.060   4.570  12.298  1.4762 -0.4058 -1.1369
  331MPD2    H2 5026   0.843   0.099  12.051  0.2676 -1.1084 -1.5610
  331MPD2    H3 5027   1.050   0.024  12.148  1.2477 -0.9940  3.1971
  331MPD2     N 5028   0.830   4.399  12.326  0.5370  0.0848  0.4383
  331MPD2    H5 5029   0.737   4.360  12.339 -0.2380  1.7314 -0.2181
  331MPD2    N1 5030   0.605   4.692  12.046 -0.3290 -0.2357  0.7466
  331MPD2    H7 5031   0.526   4.634  12.073 -2.5343  1.8568 -1.1606
  332TMC3    C1 5032   0.885   4.222  12.471 -0.6010 -0.3791 -0.3068
  332TMC3    C2 5033   0.753   4.210  12.501  0.6286 -0.2693 -0.9441
  332TMC3    C3 5034   0.700   4.097  12.553  0.7354 -0.0526  0.6256
  332TMC3    C4 5035   0.972   4.119  12.498  0.4078 -0.2524  0.4471
  332TMC3    C5 5036   0.917   4.009  12.559 -0.6050  0.4497  0.0042
  332TMC3    C6 5037   0.784   3.996  12.584 -1.0249  0.5314 -0.5290
  332TMC3     C 5038   0.935   4.328  12.380 -0.1966  0.2216  1.3776
  332TMC3     O 5039   1.056   4.343  12.380  0.5729 -0.3421  0.5315
  332TMC3     H 5040   0.684   4.288  12.474  1.7768  0.4169 -1.8867
  332TMC3    H1 5041   1.077   4.124  12.471 -0.3494  1.4358 -2.1249
  332TMC3    H2 5042   0.750   3.908  12.638 -0.5057  1.6859  1.6745
  332TMC3    C7 5043   1.001   3.905  12.617 -0.2744  0.3070 -0.1905
  332TMC3    C8 5044   0.566   4.061  12.512 -0.1638  0.9300 -0.2269
  332TMC3    O1 5045   0.953   3.847  12.712 -0.6231  0.0147  0.2393
  332TMC3    O2 5046   0.507   4.116  12.420  0.2694  0.2459  0.1412
  333MPD2     C 5047   0.731   0.142  11.279  0.5988 -0.7653 -0.2298
  333MPD2    C1 5048   0.787   0.063  11.181  1.1124 -0.0363 -0.2387
  333MPD2    C2 5049   0.711   4.697  11.134 -0.3612  0.6921  0.2589
  333MPD2    C3 5050   0.577   4.683  11.172 -0.3473 -0.2206  0.7500
  333MPD2    C4 5051   0.521   0.028  11.267  0.1223  0.5206 -0.2311
  333MPD2    C5 5052   0.602   0.121  11.320 -0.2559 -0.0669  0.2962
  333MPD2     H 5053   0.753   4.627  11.062  0.9381  1.3088  0.4114
  333MPD2    H1 5054   0.419   0.020  11.303  0.4277  1.7428  0.8912
  333MPD2    H2 5055   0.785   0.227  11.320 -1.2252  0.6165 -0.6840
  333MPD2    H3 5056   0.557   0.183  11.397  1.8641  2.4428 -0.4662
  333MPD2     N 5057   0.507   4.561  11.133  0.9138  0.1320  0.9760
  333MPD2    H5 5058   0.562   4.501  11.072  2.4452  0.8268  1.6727
  333MPD2    N1 5059   0.915   0.098  11.136  0.1848 -0.3039 -0.1257
  333MPD2    H7 5060   0.970   0.150  11.204  2.5348 -1.3332 -1.2405
  334TMC3    C1 5061   1.080   0.165  10.978 -0.3965 -0.2833  0.0205
  334TMC3    C2 5062   1.146   0.121  10.871  0.2341  0.3352  0.1786
  334TMC3    C3 5063   1.253   0.202  10.838 -0.6378 -0.5263  0.1968
  334TMC3    C4 5064   1.100   0.287  11.040  0.0438 -0.9308  0.0074
  334TMC3    C5 5065   1.211   0.358  11.007  0.2372  0.1919 -0.2448
  334TMC3    C6 5066   1.293   0.311  10.909  0.1299  0.0659  0.9221
  334TMC3     C 5067   0.960   0.081  11.002 -0.2714 -0.4020 -0.2636
  334TMC3     O 5068   0.900   0.028  10.907 -0.1520 -0.2978 -0.0099
  334TMC3     H 5069   1.120   0.024  10.830  2.1402 -0.4078  0.7390
  334TMC3    H1 5070   1.041   0.320  11.125  0.4029 -0.1939 -0.0316
  334TMC3    H2 5071   1.373   0.373  10.872  0.6814 -0.5268  1.1221
  334TMC3    C7 5072   1.228   0.493  11.051  0.5303  0.8915 -0.0402
  334TMC3    C8 5073   1.333   0.157  10.730  0.4321  0.3125 -0.5155
  334TMC3    O1 5074   1.342   0.531  11.059 -0.2370  0.0318 -0.1603
  334TMC3    O2 5075   1.282   0.075  10.653  0.1803 -0.3093 -0.1554
  335TMC3    C1 5076   1.278   0.996  17.294 -0.1003 -0.2063 -0.0670
  335TMC3    C2 5077   1.172   0.971  17.208  0.0493 -0.2053  0.1703
  335TMC3    C3 5078   1.181   1.019  17.079 -0.1186  0.3541  0.1543
  335TMC3    C4 5079   1.397   1.039  17.243 -0.6593 -0.4218 -0.2488
  335TMC3    C5 5080   1.407   1.068  17.107  0.1451  0.0577  0.1533
  335TMC3    C6 5081   1.296   1.059  17.029 -0.4976  0.3894  0.0589
  335TMC3     C 5082   1.274   0.943  17.426 -0.5215 -0.1950 -0.3284
  335TMC3     O 5083   1.340   0.998  17.516  1.1887 -0.5498  0.0958
  335TMC3     H 5084   1.077   0.962  17.259  1.0361  0.4322  2.1568
  335TMC3    H1 5085   1.480   1.052  17.311  0.8350 -1.4874 -1.8511
  335TMC3    H2 5086   1.300   1.077  16.922  1.2168  2.0412  0.4061
  335TMC3    C7 5087   1.529   1.051  17.034 -0.0567  0.4339 -0.5408
  335TMC3    C8 5088   1.079   0.978  16.979 -0.6779 -0.0903 -0.2334
  335TMC3    O1 5089   1.517   1.036  16.912  0.8254  0.1586 -0.2739
  335TMC3    O2 5090   1.097   1.005  16.859  0.2693  0.1289  0.1637
  336MPD2     C 5091   0.163   3.229  16.422  0.1906  0.7627 -0.7574
  336MPD2    C1 5092   0.177   3.191  16.290 -0.4246 -0.9209  0.1541
  336MPD2    C2 5093   0.215   3.064  16.255 -0.4724 -0.2349  0.3700
  336MPD2    C3 5094   0.235   2.965  16.342  0.0696  0.0312 -0.4823
  336MPD2    C4 5095   0.233   2.998  16.480  0.4426 -0.4136 -0.2862
  336MPD2    C5 5096   0.194   3.130  16.510 -0.6235  0.2479 -0.6890
  336MPD2     H 5097   0.203   3.045  16.149  1.3333 -0.1140  0.1398
  336MPD2    H1 5098   0.252   2.927  16.560  0.7141  0.7473  0.6825
  336MPD2    H2 5099   0.112   3.320  16.453  0.1522  0.5747 -0.2742
  336MPD2    H3 5100   0.177   3.148  16.616 -1.0374  2.0737 -1.0788
  336MPD2     N 5101   0.232   2.826  16.309  0.1190  0.2219  0.0758
  336MPD2    H5 5102   0.223   2.750  16.375 -3.0901  0.6492  0.1268
  336MPD2    N1 5103   0.127   3.269  16.183  0.0003 -0.0539  0.4678
  336MPD2    H7 5104   0.100   3.222  16.097  0.0975 -0.8984  0.8955
  337TMC3    C1 5105   4.732   3.447  16.083 -0.2645  1.1116 -0.1200
  337TMC3    C2 5106   4.674   3.353  16.000  0.5785  0.7941  0.8962
  337TMC3    C3 5107   4.605   3.404  15.896 -0.1062  0.1621  0.1002
  337TMC3    C4 5108   4.706   3.579  16.079  0.1324 -0.1312 -0.3224
  337TMC3    C5 5109   4.624   3.622  15.977  0.5422  0.4434  0.3938
  337TMC3    C6 5110   4.575   3.535  15.884  0.6063 -0.4885  0.3898
  337TMC3     C 5111   0.070   3.396  16.196  0.6816  0.2876  0.8222
  337TMC3     O 5112   0.101   3.490  16.265 -0.1113  0.2978 -0.1216
  337TMC3     H 5113   4.686   3.245  16.002 -2.3743  0.4383  0.6095
  337TMC3    H1 5114   0.011   3.657  16.139  1.0028  1.0978 -2.5768
  337TMC3    H2 5115   4.517   3.587  15.809 -1.4006  0.4518  2.5656
  337TMC3    C7 5116   4.575   3.761  15.977 -0.2371 -0.1047  0.5607
  337TMC3    C8 5117   4.523   3.308  15.821 -0.2139 -0.3037  0.1846
  337TMC3    O1 5118   4.530   3.815  15.875 -0.1784 -0.2612  0.0243
  337TMC3    O2 5119   4.502   3.193  15.869 -0.3000 -0.2046  0.4818
  338MPD2     C 5120   1.219   2.829   1.081  0.4681 -0.3264 -0.8927
  338MPD2    C1 5121   1.124   2.843   0.981 -0.3554 -0.1677  0.4975
  338MPD2    C2 5122   1.036   2.943   0.984 -0.7132  1.3623 -0.1019
  338MPD2    C3 5123   1.035   3.035   1.087  0.6469  0.2594  0.3025
  338MPD2    C4 5124   1.131   3.025   1.188  0.1051 -0.3714  0.0977
  338MPD2    C5 5125   1.222   2.927   1.181 -0.0852  0.7410 -0.4767
  338MPD2     H 5126   0.967   2.954   0.901 -0.4074 -0.2608 -0.5750
  338MPD2    H1 5127   1.140   3.109   1.257  2.4636 -0.0402 -0.6085
  338MPD2    H2 5128   1.294   2.752   1.088  0.7999  0.1633  0.8430
  338MPD2    H3 5129   1.295   2.928   1.262 -0.0973  1.7530 -0.4799
  338MPD2     N 5130   0.945   3.140   1.080 -0.3003  0.3640  0.1352
  338MPD2    H5 5131   0.872   3.129   1.011  1.3818 -1.2965 -1.3468
  338MPD2    N1 5132   1.108   2.748   0.876  0.5852 -0.5901  0.4876
  338MPD2    H7 5133   1.035   2.768   0.809 -1.0889  0.6031  2.6516
  339TMC3    C1 5134   0.810   3.332   1.137 -0.0489  0.0865  0.2678
  339TMC3    C2 5135   0.745   3.377   1.246  0.6655 -0.0126  0.1266
  339TMC3    C3 5136   0.607   3.369   1.239  0.7702  0.2470 -0.3640
  339TMC3    C4 5137   0.743   3.284   1.024  0.3103  0.8113 -0.2330
  339TMC3    C5 5138   0.606   3.304   1.013  0.4383  0.2959 -0.1081
  339TMC3    C6 5139   0.532   3.336   1.127 -0.2134  0.6804  0.1565
  339TMC3     C 5140   0.929   3.251   1.164  0.9198 -0.1016 -0.2616
  339TMC3     O 5141   0.987   3.274   1.270  0.1257  0.1670 -0.3632
  339TMC3     H 5142   0.801   3.383   1.338 -0.4583  1.4794  0.7178
  339TMC3    H1 5143   0.804   3.264   0.936 -2.2372  1.9767 -2.2606
  339TMC3    H2 5144   0.424   3.339   1.136 -0.1344  2.5528  0.5204
  339TMC3    C7 5145   0.538   3.255   0.891 -0.5832  1.2351 -0.1624
  339TMC3    C8 5146   0.538   3.401   1.361  0.4365  0.2921 -0.3980
  339TMC3    O1 5147   0.598   3.176   0.818  0.4522 -0.2752  0.6345
  339TMC3    O2 5148   0.596   3.476   1.439 -0.2382  0.9807 -0.0248
  340MPD2     C 5149   1.299   0.744  10.753 -0.5206 -0.2514 -0.0166
  340MPD2    C1 5150   1.237   0.866  10.721  0.6998 -0.0777 -0.2948
  340MPD2    C2 5151   1.318   0.979  10.713 -0.2610 -0.6036  0.1984
  340MPD2    C3 5152   1.457   0.969  10.724  0.2065 -0.5831 -0.0659
  340MPD2    C4 5153   1.519   0.849  10.748 -0.4275  0.7410  0.1398
  340MPD2    C5 5154   1.436   0.740  10.773  0.5899 -0.1766  0.0888
  340MPD2     H 5155   1.266   1.074  10.716 -0.3221 -0.6811  1.7152
  340MPD2    H1 5156   1.625   0.825  10.751 -0.4788  0.6981  1.5116
  340MPD2    H2 5157   1.233   0.660  10.770 -1.6613  0.1557 -2.3704
  340MPD2    H3 5158   1.487   0.646  10.787  2.4479  0.7744 -0.1358
  340MPD2     N 5159   1.538   1.086  10.700 -0.9401 -0.2691  0.0924
  340MPD2    H5 5160   1.638   1.076  10.711 -0.9461 -1.3921 -0.8598
  340MPD2    N1 5161   1.094   0.870  10.700 -0.0135  0.1467  0.6849
  340MPD2    H7 5162   1.050   0.779  10.710 -1.3500  0.4522 -2.6080
  341TMC3    C1 5163   0.881   0.942  10.640  0.5819  0.4884  0.4547
  341TMC3    C2 5164   0.819   0.834  10.698  0.8689  0.3406 -0.2388
  341TMC3    C3 5165   0.691   0.813  10.664 -0.4362 -0.1837 -0.4946
  341TMC3    C4 5166   0.812   1.032  10.558  0.1135 -0.7427 -0.5872
  341TMC3    C5 5167   0.679   1.009  10.531  0.3768  0.5401 -0.6010
  341TMC3    C6 5168   0.620   0.895  10.581 -0.4599 -0.4542 -0.7219
  341TMC3     C 5169   1.025   0.974  10.653  0.3480  0.5681 -0.3960
  341TMC3     O 5170   1.058   1.080  10.603 -0.7206 -0.1745  0.9673
  341TMC3     H 5171   0.875   0.768  10.763 -0.2712  0.3927  0.7768
  341TMC3    H1 5172   0.861   1.113  10.505 -1.1168 -0.1197 -0.7713
  341TMC3    H2 5173   0.512   0.890  10.576 -0.6245 -1.0138  3.6564
  341TMC3    C7 5174   0.618   1.083  10.413  0.5955  0.9401 -0.0066
  341TMC3    C8 5175   0.653   0.673  10.669 -0.4487  0.4237 -0.0460
  341TMC3    O1 5176   0.674   1.187  10.379  0.3809 -0.2003 -0.2227
  341TMC3    O2 5177   0.745   0.597  10.683 -0.0037 -0.3922 -0.3452
  342MPD2     C 5178   3.102   3.967  17.543 -0.7185  0.0191 -0.4073
  342MPD2    C1 5179   3.222   3.961  17.479  0.7794  0.5365  0.1006
  342MPD2    C2 5180   3.291   4.082  17.461 -0.5099  0.0053 -0.5672
  342MPD2    C3 5181   3.233   4.204  17.492 -0.1960 -0.1472  0.2387
  342MPD2    C4 5182   3.103   4.205  17.548  0.2158 -0.6518 -0.0344
  342MPD2    C5 5183   3.043   4.086  17.579  0.5506  0.5438 -0.6783
  342MPD2     H 5184   3.387   4.082  17.410 -0.2877 -0.7768 -0.1559
  342MPD2    H1 5185   3.050   4.295  17.576  2.6623  0.2793  1.6375
  342MPD2    H2 5186   3.039   3.882  17.562  3.0116 -2.9269 -1.1563
  342MPD2    H3 5187   2.950   4.080  17.633  0.3626 -0.5556 -1.1222
  342MPD2     N 5188   3.291   4.325  17.479 -0.2042  0.7693  0.2446
  342MPD2    H5 5189   3.246   4.405  17.523 -1.3914  0.7452 -0.9488
  342MPD2    N1 5190   3.281   3.843  17.450  0.5243  0.1614  0.4699
  342MPD2    H7 5191   3.366   3.854  17.396 -1.2163 -0.2718 -2.3639
  343TMC3    C1 5192   3.301   3.614  17.395 -0.4357 -0.6208  0.1442
  343TMC3    C2 5193   3.374   3.639  17.282 -0.1497  0.4307  0.2972
  343TMC3    C3 5194   3.402   3.531  17.201 -0.5696 -0.0839 -0.0418
  343TMC3    C4 5195   3.253   3.484  17.419 -0.3403  0.3033 -0.3467
  343TMC3    C5 5196   3.284   3.380  17.334 -0.3508  1.2255  0.3968
  343TMC3    C6 5197   3.350   3.402  17.220 -0.5985  0.2931 -0.3758
  343TMC3     C 5198   3.220   3.718  17.453  0.4065  0.5405 -0.2486
  343TMC3     O 5199   3.108   3.682  17.485  0.4311  0.0175 -0.6271
  343TMC3     H 5200   3.411   3.735  17.247 -2.0129  1.0807  0.1123
  343TMC3    H1 5201   3.185   3.468  17.502 -1.1784  1.1981 -0.8667
  343TMC3    H2 5202   3.370   3.325  17.146  1.0856  0.3738  0.0089
  343TMC3    C7 5203   3.236   3.245  17.360 -0.3605 -0.2006 -0.0691
  343TMC3    C8 5204   3.524   3.556  17.122  0.0934  0.3780  0.1857
  343TMC3    O1 5205   3.255   3.170  17.267  0.6692 -0.0219  0.0226
  343TMC3    O2 5206   3.541   3.669  17.082  0.7111  0.1192 -0.1416
  344MPD2     C 5207   3.685   4.043  10.364 -0.3703  0.3601 -0.5895
  344MPD2    C1 5208   3.806   3.989  10.401 -0.6424 -0.3332  0.4668
  344MPD2    C2 5209   3.923   4.045  10.358  0.4840 -0.1385  0.2312
  344MPD2    C3 5210   3.920   4.154  10.271 -0.7708 -0.3668 -0.1579
  344MPD2    C4 5211   3.802   4.206  10.223 -0.0284  0.2342  0.0375
  344MPD2    C5 5212   3.683   4.148  10.273 -0.6869 -0.5811  0.0854
  344MPD2     H 5213   4.017   4.005  10.393  0.7604 -2.5034 -3.2132
  344MPD2    H1 5214   3.803   4.281  10.145 -0.4867  1.2119  0.9681
  344MPD2    H2 5215   3.591   4.003  10.401 -0.0506 -1.1086 -1.3792
  344MPD2    H3 5216   3.587   4.178  10.234 -0.4504  1.3227  0.9358
  344MPD2     N 5217   4.036   4.208  10.209 -0.3583 -0.9975 -0.2073
  344MPD2    H5 5218   4.034   4.271  10.130 -0.6380  2.0354  2.2477
  344MPD2    N1 5219   3.799   3.874  10.487  0.0674  0.5310 -0.7144
  344MPD2    H7 5220   3.710   3.844  10.525 -0.2068  1.6855 -0.4471
  345TMC3    C1 5221   4.258   4.262  10.155  0.2653  0.0595  0.1179
  345TMC3    C2 5222   4.350   4.337  10.218 -0.6767 -0.8027  0.3313
  345TMC3    C3 5223   4.396   4.448  10.147  0.2788 -0.7639  0.0009
  345TMC3    C4 5224   4.213   4.280  10.024  0.6485  0.6227  0.0231
  345TMC3    C5 5225   4.258   4.395   9.966 -0.1345 -0.2905 -0.2745
  345TMC3    C6 5226   4.356   4.472  10.022  0.6376 -0.1370  0.0329
  345TMC3     C 5227   4.169   4.182  10.241  1.1327  0.5130  0.1428
  345TMC3     O 5228   4.208   4.128  10.339 -0.5258  0.2226  0.3018
  345TMC3     H 5229   4.380   4.313  10.319 -3.5168  0.7724  1.5360
  345TMC3    H1 5230   4.136   4.213   9.989  1.6097 -0.2443 -0.4510
  345TMC3    H2 5231   4.392   4.557   9.965  2.2427  0.4073  1.8728
  345TMC3    C7 5232   4.184   4.438   9.849  0.1902 -0.9663  0.3346
  345TMC3    C8 5233   4.436   4.569  10.209  0.2824 -0.3536  0.1291
  345TMC3    O1 5234   4.121   4.353   9.782  0.1312  0.1620  0.1247
  345TMC3    O2 5235   4.394   4.674  10.169 -0.1255 -0.0495  0.0319
  346MPD2     C 5236   4.304   0.499  13.943 -0.5059  0.3988 -0.1835
  346MPD2    C1 5237   4.432   0.476  13.997 -0.0307  0.2859 -0.8498
  346MPD2    C2 5238   4.442   0.386  14.102  0.1287  0.3300 -0.5089
  346MPD2    C3 5239   4.330   0.343  14.161 -0.9160  0.3481 -0.1459
  346MPD2    C4 5240   4.206   0.373  14.106 -0.5048 -0.2607  0.3889
  346MPD2    C5 5241   4.185   0.455  13.996 -0.1741 -0.4345 -0.2938
  346MPD2     H 5242   4.542   0.352  14.128  0.0776  0.0637 -0.6669
  346MPD2    H1 5243   4.117   0.323  14.143  0.3060 -0.3741  2.2077
  346MPD2    H2 5244   4.283   0.557  13.854 -1.2823  0.4748  0.0494
  346MPD2    H3 5245   4.090   0.473  13.947  0.0186 -0.0341 -0.5210
  346MPD2     N 5246   4.342   0.252  14.264 -0.5966  0.0251  0.1305
  346MPD2    H5 5247   4.436   0.220  14.283 -0.9548 -0.8691  0.4068
  346MPD2    N1 5248   4.553   0.516  13.929  0.4255  0.4574 -0.2513
  346MPD2    H7 5249   4.641   0.479  13.965 -0.3534 -0.3826  0.7611
  347TMC3    C1 5250   4.293   0.079  14.418 -0.7683 -1.0983  0.7775
  347TMC3    C2 5251   4.257   4.690  14.389 -0.1732 -0.6338  0.1564
  347TMC3    C3 5252   4.339   4.592  14.435  0.1904 -0.4820  0.5191
  347TMC3    C4 5253   4.401   0.110  14.495  0.2386  0.8218  0.4853
  347TMC3    C5 5254   4.465   0.006  14.551  0.2072 -0.5258  0.4235
  347TMC3    C6 5255   4.441   4.617  14.528 -0.4022  0.0895  0.3182
  347TMC3     C 5256   4.239   0.188  14.341 -0.5934 -0.4461  0.3822
  347TMC3     O 5257   4.119   0.209  14.346  0.2337  0.1658  0.2154
  347TMC3     H 5258   4.178   4.670  14.317  0.6402 -2.0526 -0.3309
  347TMC3    H1 5259   4.431   0.214  14.502  1.1996  0.7381 -2.4102
  347TMC3    H2 5260   4.507   4.540  14.566  0.6627  0.9684  0.2344
  347TMC3    C7 5261   4.592   0.037  14.623  0.0738  0.1609  0.0844
  347TMC3    C8 5262   4.373   4.484  14.347 -0.5115  0.2563  0.1746
  347TMC3    O1 5263   4.675   4.692  14.639 -0.4020 -0.6655  0.1092
  347TMC3    O2 5264   4.461   4.404  14.380 -0.1999 -0.1232  0.2749
  348MPD2     C 5265   3.754   0.180  11.788  0.2707  0.0730 -0.6955
  348MPD2    C1 5266   3.828   0.127  11.686  0.1638  0.0167 -0.8544
  348MPD2    C2 5267   3.845   0.198  11.573  0.1960  0.4417 -0.2565
  348MPD2    C3 5268   3.795   0.334  11.559 -0.3819 -0.0333 -0.0773
  348MPD2    C4 5269   3.731   0.395  11.670  0.8664  0.4020  0.4356
  348MPD2    C5 5270   3.717   0.315  11.785 -0.1355 -0.0078 -0.4222
  348MPD2     H 5271   3.907   0.158  11.494 -2.0464  1.4907 -2.5339
  348MPD2    H1 5272   3.702   0.500  11.668 -1.2748 -0.2535 -2.0140
  348MPD2    H2 5273   3.725   0.121  11.874 -0.0614 -1.4137 -1.8184
  348MPD2    H3 5274   3.657   0.354  11.866  1.6428  1.4636  0.1863
  348MPD2     N 5275   3.819   0.392  11.429  0.5545 -0.4495 -0.9649
  348MPD2    H5 5276   3.855   0.339  11.350 -0.0842 -1.5742 -0.5093
  348MPD2    N1 5277   3.880   4.738  11.683 -0.0153 -0.1497 -0.5000
  348MPD2    H7 5278   3.924   4.707  11.597  1.5485  1.3786 -0.2579
  349TMC3    C1 5279   3.917   4.512  11.727 -0.2799 -0.2627 -0.5959
  349TMC3    C2 5280   3.887   4.408  11.811  0.2903  0.3886  0.7095
  349TMC3    C3 5281   3.841   4.289  11.765 -0.0323 -0.7106 -0.2494
  349TMC3    C4 5282   3.914   4.486  11.592 -0.3106 -0.1029 -0.0927
  349TMC3    C5 5283   3.872   4.365  11.544  0.3108  0.1370  0.3958
  349TMC3    C6 5284   3.839   4.268  11.632 -0.7741  0.6559  0.4518
  349TMC3     C 5285   3.885   4.648  11.781 -0.2253  0.3338  0.2293
  349TMC3     O 5286   3.832   4.653  11.892 -0.5929 -0.2097  0.1363
  349TMC3     H 5287   3.889   4.424  11.918 -2.4187  1.1878  0.6372
  349TMC3    H1 5288   3.934   4.564  11.520  0.9764 -0.1171  0.2427
  349TMC3    H2 5289   3.820   4.168  11.595  4.5212  0.2547 -1.2326
  349TMC3    C7 5290   3.761   4.400  11.459 -0.0833  0.0623 -0.2857
  349TMC3    C8 5291   3.803   4.194  11.869  0.1627 -0.1276 -0.6391
  349TMC3    O1 5292   3.650   4.383  11.510  0.0110  0.2330 -0.2491
  349TMC3    O2 5293   3.810   4.227  11.985 -1.3419 -0.0186  0.0826
  350MPD2     C 5294   2.468   3.853  10.568  0.0807 -0.2423 -0.2885
  350MPD2    C1 5295   2.349   3.783  10.584 -0.5971 -0.3808  0.8979
  350MPD2    C2 5296   2.267   3.809  10.693 -0.7231 -0.8914 -0.1058
  350MPD2    C3 5297   2.290   3.909  10.784 -0.5950 -0.5342  0.2035
  350MPD2    C4 5298   2.408   3.978  10.761  0.5021 -0.1430 -0.7865
  350MPD2    C5 5299   2.501   3.948  10.662 -0.0038  0.3708  0.2737
  350MPD2     H 5300   2.175   3.754  10.708 -0.2601 -1.7511 -0.4507
  350MPD2    H1 5301   2.432   4.071  10.811  0.3908 -0.6448  0.1883
  350MPD2    H2 5302   2.531   3.839  10.480 -0.9740 -1.6679 -0.8216
  350MPD2    H3 5303   2.582   4.019  10.650  0.4516 -0.6148 -2.4261
  350MPD2     N 5304   2.196   3.942  10.884 -0.1123 -0.2658  0.3373
  350MPD2    H5 5305   2.111   3.888  10.895 -0.8747  0.7314 -0.7468
  350MPD2    N1 5306   2.312   3.679  10.500 -0.5766  0.4811  0.6363
  350MPD2    H7 5307   2.217   3.650  10.519  0.2154 -2.1782  0.4656
  351TMC3    C1 5308   2.334   3.495  10.358  0.4793 -0.1489  0.3924
  351TMC3    C2 5309   2.423   3.396  10.318  0.3054 -0.1108  0.7226
  351TMC3    C3 5310   2.379   3.274  10.306 -0.3546 -0.1411  0.5053
  351TMC3    C4 5311   2.204   3.465  10.375 -0.4708 -0.7386  0.1701
  351TMC3    C5 5312   2.165   3.335  10.348 -0.1058  0.1639 -0.8231
  351TMC3    C6 5313   2.252   3.237  10.322  0.2007 -0.1103  0.1262
  351TMC3     C 5314   2.392   3.618  10.407  0.2161 -0.3000 -0.0948
  351TMC3     O 5315   2.506   3.634  10.384 -0.1285 -0.1171  0.1207
  351TMC3     H 5316   2.529   3.421  10.315  0.1243  0.6559  0.7135
  351TMC3    H1 5317   2.126   3.538  10.388  0.6611  0.2628  1.3932
  351TMC3    H2 5318   2.229   3.143  10.273 -1.8927  0.8994 -0.8765
  351TMC3    C7 5319   2.020   3.310  10.345 -0.1944  0.5788  0.5758
  351TMC3    C8 5320   2.479   3.176  10.267 -0.3586 -0.3827  0.2745
  351TMC3    O1 5321   1.939   3.398  10.361 -0.2740  0.2672 -0.3212
  351TMC3    O2 5322   2.558   3.209  10.184  0.1053 -0.0505  0.2541
  352MPD2     C 5323   1.495   0.286   0.681  0.1115 -0.0867 -0.1933
  352MPD2    C1 5324   1.379   0.217   0.711  0.0689 -0.5384 -0.0787
  352MPD2    C2 5325   1.381   0.077   0.693 -0.3665 -0.4426  0.5791
  352MPD2    C3 5326   1.493   0.011   0.651 -0.2545  1.0087 -0.2088
  352MPD2    C4 5327   1.605   0.088   0.611  0.1730  0.0688  0.3627
  352MPD2    C5 5328   1.604   0.221   0.632  0.3218  0.4242 -0.8222
  352MPD2     H 5329   1.298   0.012   0.717 -0.1549 -1.5294 -1.6069
  352MPD2    H1 5330   1.691   0.040   0.565 -0.1570 -1.7406  1.6183
  352MPD2    H2 5331   1.495   0.394   0.681  2.0296 -0.0927 -1.5077
  352MPD2    H3 5332   1.691   0.280   0.603  2.8044 -2.1149  1.4658
  352MPD2     N 5333   1.505   4.611   0.635 -0.7105 -0.3846 -0.9919
  352MPD2    H5 5334   1.592   4.576   0.596 -0.1313  0.6649 -0.6407
  352MPD2    N1 5335   1.260   0.285   0.747 -0.3449 -0.0473  0.1034
  352MPD2    H7 5336   1.262   0.383   0.724 -2.6418 -0.0810 -0.3128
  353TMC3    C1 5337   1.437   4.382   0.591  0.0450 -0.4213  0.5179
  353TMC3    C2 5338   1.559   4.324   0.639  0.3117  0.7747  0.8343
  353TMC3    C3 5339   1.555   4.188   0.644  0.0573 -0.5059 -0.0310
  353TMC3    C4 5340   1.343   4.307   0.526 -0.3336 -0.3442  0.1768
  353TMC3    C5 5341   1.348   4.173   0.532  0.2382 -0.1605 -0.4154
  353TMC3    C6 5342   1.456   4.118   0.593 -0.7501  0.5804  0.0541
  353TMC3     C 5343   1.395   4.518   0.621  0.4530 -0.8220  0.1344
  353TMC3     O 5344   1.282   4.545   0.634  0.0169  0.2081  0.2408
  353TMC3     H 5345   1.628   4.386   0.695  2.1456 -0.9450  0.4463
  353TMC3    H1 5346   1.262   4.360   0.475  0.6422 -0.8955 -1.9635
  353TMC3    H2 5347   1.450   4.010   0.602  0.6667  0.6827  2.1961
  353TMC3    C7 5348   1.225   4.104   0.496  0.3799 -0.7283  0.4824
  353TMC3    C8 5349   1.645   4.132   0.742 -0.5492 -0.7067  0.1208
  353TMC3    O1 5350   1.209   3.994   0.554  0.6122 -0.3760 -0.4444
  353TMC3    O2 5351   1.752   4.186   0.764 -0.7117  0.1939 -1.0800
  354TMC3    C1 5352   2.661   1.435  13.643 -0.3586  0.0879  0.0509
  354TMC3    C2 5353   2.754   1.508  13.717 -0.0411  0.1257  0.0654
  354TMC3    C3 5354   2.852   1.566  13.641  0.2494  0.2091 -1.1528
  354TMC3    C4 5355   2.673   1.401  13.509 -0.5282 -0.1533  0.3222
  354TMC3    C5 5356   2.782   1.438  13.444  0.0303 -0.0527  0.7684
  354TMC3    C6 5357   2.873   1.524  13.510 -0.0678  0.1163 -0.8937
  354TMC3     C 5358   2.539   1.381  13.709  0.0184  0.6099  0.0467
  354TMC3     O 5359   2.452   1.351  13.629 -0.4321  0.2549 -0.6870
  354TMC3     H 5360   2.727   1.531  13.820 -1.2908 -0.1535 -0.2009
  354TMC3    H1 5361   2.589   1.355  13.459 -0.5421 -1.2598  1.3697
  354TMC3    H2 5362   2.962   1.553  13.455 -0.9283 -0.9016 -2.8473
  354TMC3    C7 5363   2.751   1.476  13.311  0.1935 -0.2562  1.3772
  354TMC3    C8 5364   2.865   1.708  13.655 -0.0202 -0.2039 -0.1777
  354TMC3    O1 5365   2.632   1.489  13.287  0.4397  0.5333 -0.2568
  354TMC3    O2 5366   2.866   1.756  13.768 -0.2016  0.2712 -0.0629
  355MPD2     C 5367   2.466   2.601  11.951  0.2300  0.4526 -0.5957
  355MPD2    C1 5368   2.555   2.568  11.851 -0.9194  0.7593  0.1268
  355MPD2    C2 5369   2.658   2.480  11.872 -0.2469 -0.1396  0.1045
  355MPD2    C3 5370   2.668   2.413  11.994 -0.1557  0.7317 -0.8024
  355MPD2    C4 5371   2.574   2.438  12.094  0.4740 -0.4181 -0.4732
  355MPD2    C5 5372   2.483   2.536  12.069  0.2024  0.0763 -0.3149
  355MPD2     H 5373   2.733   2.477  11.793 -1.3769  0.6886 -1.0091
  355MPD2    H1 5374   2.598   2.399  12.193  0.2777 -2.0379 -1.0682
  355MPD2    H2 5375   2.387   2.674  11.935 -2.1398 -1.8267  0.5267
  355MPD2    H3 5376   2.418   2.559  12.153  0.9972 -1.0789  0.6166
  355MPD2     N 5377   2.770   2.317  12.013  0.0307 -0.0728 -0.6134
  355MPD2    H5 5378   2.780   2.273  12.105 -0.1265  0.9199 -0.1228
  355MPD2    N1 5379   2.555   2.636  11.726 -0.6260  0.1631 -1.0310
  355MPD2    H7 5380   2.504   2.723  11.730 -1.4099 -0.4380  2.4855
  356TMC3    C1 5381   2.949   2.168  11.963  0.8195  0.2579 -0.3766
  356TMC3    C2 5382   3.011   2.112  11.856  0.0295 -0.1403  0.1823
  356TMC3    C3 5383   3.141   2.073  11.864  0.5407  0.3618 -0.3002
  356TMC3    C4 5384   3.027   2.214  12.067 -0.0412  0.2134  0.8168
  356TMC3    C5 5385   3.166   2.202  12.060  0.2886 -0.7725 -0.2016
  356TMC3    C6 5386   3.221   2.136  11.958 -0.0665  0.3086  0.4518
  356TMC3     C 5387   2.851   2.254  11.918  0.3243  0.1558  0.8086
  356TMC3     O 5388   2.844   2.272  11.798  0.3283 -0.0993 -0.1881
  356TMC3     H 5389   2.953   2.081  11.770 -1.0232 -0.1252  0.9017
  356TMC3    H1 5390   2.982   2.274  12.144 -1.0774  0.1862  0.2347
  356TMC3    H2 5391   3.328   2.144  11.947 -0.1736  0.4822 -0.5306
  356TMC3    C7 5392   3.254   2.224  12.169 -0.3847  0.0535 -0.9403
  356TMC3    C8 5393   3.187   2.087  11.730  0.2531 -0.3405 -0.0513
  356TMC3    O1 5394   3.353   2.154  12.164  0.5259  0.3822  0.2220
  356TMC3    O2 5395   3.146   2.001  11.655  0.2640 -0.0461 -0.5834
  357MPD2     C 5396   2.342   2.051   0.679 -1.0460 -0.4645  0.5779
  357MPD2    C1 5397   2.368   1.917   0.663  0.2721  0.1660 -0.0449
  357MPD2    C2 5398   2.274   1.820   0.701  0.4588 -0.5714  0.4592
  357MPD2    C3 5399   2.152   1.855   0.750  0.1693 -0.2855  0.0062
  357MPD2    C4 5400   2.135   1.992   0.780 -0.1963  0.0028 -0.2813
  357MPD2    C5 5401   2.221   2.079   0.739  0.3762 -0.0549 -0.0062
  357MPD2     H 5402   2.300   1.717   0.682  2.2679 -0.3236  1.6876
  357MPD2    H1 5403   2.044   2.031   0.824  0.1762  0.1507  0.3731
  357MPD2    H2 5404   2.409   2.128   0.642  2.0931 -2.8977  1.1902
  357MPD2    H3 5405   2.200   2.182   0.767  0.7426 -0.8216  3.0537
  357MPD2     N 5406   2.053   1.766   0.777  0.1260  0.5737 -0.4424
  357MPD2    H5 5407   1.973   1.815   0.816  0.5922  1.2843 -0.3773
  357MPD2    N1 5408   2.491   1.887   0.598 -0.4390  0.4786  0.1074
  357MPD2    H7 5409   2.543   1.970   0.571  1.3986 -1.2081 -1.4897
  358TMC3    C1 5410   2.649   1.770   0.478 -0.1134 -0.0291  0.2052
  358TMC3    C2 5411   2.635   1.845   0.363 -0.4817  0.5237  0.3053
  358TMC3    C3 5412   2.693   1.785   0.251  0.0107 -1.0723 -0.1646
  358TMC3    C4 5413   2.727   1.655   0.486  0.2643  0.3427  0.2516
  358TMC3    C5 5414   2.791   1.606   0.374 -0.4384 -1.1009  0.3336
  358TMC3    C6 5415   2.779   1.676   0.259 -0.1426 -0.1789 -0.6819
  358TMC3     C 5416   2.535   1.768   0.567 -0.1259 -0.1086 -0.2153
  358TMC3     O 5417   2.495   1.657   0.597  0.2460  0.3478 -0.2799
  358TMC3     H 5418   2.558   1.921   0.355 -1.3874 -0.3921  0.3633
  358TMC3    H1 5419   2.734   1.613   0.585  0.3707  1.8154  0.8808
  358TMC3    H2 5420   2.797   1.612   0.174  0.2547  0.9947 -1.4867
  358TMC3    C7 5421   2.821   1.462   0.371  0.9032 -0.2529 -0.6713
  358TMC3    C8 5422   2.657   1.843   0.121 -0.1822 -0.0620 -0.4184
  358TMC3    O1 5423   2.934   1.427   0.346 -0.2146  0.2648 -0.1204
  358TMC3    O2 5424   2.720   1.791   0.035  0.4762 -0.2244 -0.8498
  359MPD2     C 5425   3.003   1.245  12.145 -0.3473  0.3566  0.0829
  359MPD2    C1 5426   3.045   1.116  12.169 -0.7153 -0.1511 -0.4527
  359MPD2    C2 5427   2.963   1.025  12.238  0.2951  0.0484 -0.1593
  359MPD2    C3 5428   2.836   1.061  12.271  0.2753 -0.0256 -0.2087
  359MPD2    C4 5429   2.793   1.192  12.242  0.2703  0.4917 -0.2309
  359MPD2    C5 5430   2.875   1.282  12.188 -0.7069 -0.0499 -0.2686
  359MPD2     H 5431   3.011   0.930  12.254 -0.1251  0.1620  1.6796
  359MPD2    H1 5432   2.696   1.228  12.273 -0.3356 -0.8732 -0.5567
  359MPD2    H2 5433   3.068   1.321  12.102  1.4703 -2.6457 -2.4274
  359MPD2    H3 5434   2.833   1.378  12.162 -0.8055 -0.1313 -0.4088
  359MPD2     N 5435   2.750   0.974  12.343  0.0966  0.0102  0.0009
  359MPD2    H5 5436   2.663   1.020  12.369 -0.3289 -1.0361  0.4201
  359MPD2    N1 5437   3.174   1.074  12.139  0.6533  0.6336  0.3919
  359MPD2    H7 5438   3.199   0.975  12.142  2.5846  1.1341  0.5753
  360TMC3    C1 5439   3.394   1.084  12.048 -0.1729  0.2646 -0.4432
  360TMC3    C2 5440   3.508   1.152  12.043  0.5086 -0.7926 -0.7695
  360TMC3    C3 5441   3.571   1.167  11.924 -0.0486  0.0953  0.6792
  360TMC3    C4 5442   3.361   0.992  11.952  0.1045  0.2120  0.3368
  360TMC3    C5 5443   3.432   0.997  11.835 -0.0290 -0.6469  0.4172
  360TMC3    C6 5444   3.531   1.091  11.819  0.4512 -0.4214 -0.7322
  360TMC3     C 5445   3.280   1.154  12.105 -0.0689 -0.3927  0.0249
  360TMC3     O 5446   3.302   1.268  12.141 -0.2176  0.1219 -0.8420
  360TMC3     H 5447   3.519   1.230  12.117  0.5442  0.6646 -2.3080
  360TMC3    H1 5448   3.262   0.951  11.966  0.6529 -0.9944  0.6765
  360TMC3    H2 5449   3.576   1.111  11.723  1.0174  3.7885  0.4087
  360TMC3    C7 5450   3.368   0.972  11.711  0.3041  0.4734 -0.1325
  360TMC3    C8 5451   3.642   1.299  11.902 -0.4820 -0.3325 -1.0201
  360TMC3    O1 5452   3.253   1.008  11.695 -0.8262  0.2982  0.0828
  360TMC3    O2 5453   3.617   1.384  11.982  0.4049 -0.7862  0.1155
  361MPD2     C 5454   4.231   4.106  16.785  0.2948  0.2777 -0.3730
  361MPD2    C1 5455   4.276   4.186  16.891  0.4565  0.1987 -0.4145
  361MPD2    C2 5456   4.382   4.150  16.960 -0.7290  0.0679 -0.5202
  361MPD2    C3 5457   4.444   4.030  16.930 -0.0953 -0.3016  0.4723
  361MPD2    C4 5458   4.402   3.953  16.820  0.3691  0.5110  0.0781
  361MPD2    C5 5459   4.300   3.999  16.749 -0.3723  0.4873 -0.4218
  361MPD2     H 5460   4.412   4.214  17.043 -0.5543 -0.5467 -0.1092
  361MPD2    H1 5461   4.459   3.869  16.782  1.7782  2.0162 -1.1474
  361MPD2    H2 5462   4.142   4.133  16.729 -1.1245  0.3987  1.9283
  361MPD2    H3 5463   4.269   3.936  16.666 -1.0652 -1.2233  1.1445
  361MPD2     N 5464   4.562   3.981  16.998 -0.4859 -0.8594  0.7328
  361MPD2    H5 5465   4.602   3.897  16.959 -0.5414 -0.3929 -0.3253
  361MPD2    N1 5466   4.211   4.304  16.926 -0.1754  0.6373 -0.4117
  361MPD2    H7 5467   4.267   4.371  16.976 -0.4640 -0.4234  1.3208
  362TMC3    C1 5468   4.067   4.475  16.925 -0.2397 -0.5048 -0.2106
  362TMC3    C2 5469   3.938   4.520  16.964  1.0472 -0.4897 -0.4152
  362TMC3    C3 5470   3.905   4.648  16.958 -0.6945 -0.0646 -0.5410
  362TMC3    C4 5471   4.164   4.563  16.880 -0.1989 -0.3250 -0.2447
  362TMC3    C5 5472   4.129   4.692  16.871 -1.3250  0.1193 -0.4454
  362TMC3    C6 5473   4.000   4.738  16.910 -0.0738  0.1524  0.1399
  362TMC3     C 5474   4.086   4.337  16.894 -0.1235  0.0073  0.2969
  362TMC3     O 5475   3.989   4.263  16.881 -0.2612 -0.1153 -0.4711
  362TMC3     H 5476   3.859   4.447  16.979  1.1538 -0.2883  1.0796
  362TMC3    H1 5477   4.260   4.523  16.847 -0.3747 -2.4231  1.8023
  362TMC3    H2 5478   3.977   0.100  16.888 -0.4460  0.1204  0.3640
  362TMC3    C7 5479   4.170   0.028  16.757 -0.0683 -0.5064 -0.2672
  362TMC3    C8 5480   3.772   4.680  16.987  0.1475  0.0889  0.2923
  362TMC3    O1 5481   4.091   0.104  16.705 -0.3705  0.0152 -0.2921
  362TMC3    O2 5482   3.689   4.590  16.974 -0.2588 -0.4783 -0.0011
  363TMC3    C1 5483   2.567   2.712   8.914 -0.1067 -0.4736 -0.5232
  363TMC3    C2 5484   2.662   2.699   9.019 -0.1029 -0.6017 -0.2893
  363TMC3    C3 5485   2.699   2.810   9.087 -0.2504  0.1128  0.9737
  363TMC3    C4 5486   2.510   2.837   8.875  0.3374 -0.0023  0.2116
  363TMC3    C5 5487   2.554   2.942   8.949 -0.2568 -0.2440  1.0299
  363TMC3    C6 5488   2.651   2.934   9.048 -0.1843 -0.0522 -0.0240
  363TMC3     C 5489   2.554   2.595   8.834 -0.3793  0.3831  0.0057
  363TMC3     O 5490   2.631   2.502   8.850 -0.1628  0.3658 -0.2746
  363TMC3     H 5491   2.690   2.603   9.058 -1.9394 -0.9312  0.2177
  363TMC3    H1 5492   2.459   2.843   8.779 -0.0906 -1.7388  0.3268
  363TMC3    H2 5493   2.670   3.018   9.113  0.2439  0.6963 -1.1237
  363TMC3    C7 5494   2.503   3.072   8.913 -0.1636  0.2567  0.0117
  363TMC3    C8 5495   2.782   2.805   9.206 -0.4648 -0.1071  0.0612
  363TMC3    O1 5496   2.398   3.077   8.850  0.2246  0.0885 -0.4182
  363TMC3    O2 5497   2.822   2.910   9.256  0.1624 -0.2620 -0.2629
  364MPD2     C 5498   2.002   2.284  10.756 -0.0551  0.0361  0.7167
  364MPD2    C1 5499   2.053   2.274  10.626  0.3493  0.1523 -0.1588
  364MPD2    C2 5500   2.077   2.145  10.578  0.2693  0.5529  0.1772
  364MPD2    C3 5501   2.096   2.039  10.663  0.6316  0.3403 -0.0609
  364MPD2    C4 5502   2.066   2.058  10.790 -0.1022 -0.2644 -0.2486
  364MPD2    C5 5503   2.013   2.175  10.836  0.9304 -0.1035 -0.3042
  364MPD2     H 5504   2.099   2.135  10.473  0.5899 -2.3109  0.5052
  364MPD2    H1 5505   2.078   1.970  10.853  0.5501 -0.7412 -1.0415
  364MPD2    H2 5506   1.964   2.380  10.790  0.7043 -0.1541  2.1344
  364MPD2    H3 5507   1.984   2.184  10.940 -0.1706 -2.2773 -0.4292
  364MPD2     N 5508   2.142   1.908  10.629 -0.2346  0.2065  0.2433
  364MPD2    H5 5509   2.139   1.828  10.692  0.6343  0.6470  0.8490
  364MPD2    N1 5510   2.060   2.391  10.546  0.3231  0.3686 -0.0356
  364MPD2    H7 5511   2.039   2.477  10.596  2.4767 -0.2672  2.0086
  365TMC3    C1 5512   2.133   2.539  10.372 -0.5402 -0.4286 -0.1239
  365TMC3    C2 5513   2.156   2.551  10.234 -0.4572  0.5518 -0.1411
  365TMC3    C3 5514   2.213   2.668  10.192 -1.1284  0.7517  0.6007
  365TMC3    C4 5515   2.152   2.642  10.455 -0.4566  0.4549 -0.0387
  365TMC3    C5 5516   2.160   2.761  10.397 -0.2808  0.0471  0.1751
  365TMC3    C6 5517   2.205   2.779  10.270  0.9800 -0.2281  0.4542
  365TMC3     C 5518   2.120   2.401  10.418  0.5162  0.0121  0.0299
  365TMC3     O 5519   2.158   2.312  10.347  0.2248  0.2650 -0.4590
  365TMC3     H 5520   2.131   2.464  10.175 -1.3713 -0.2123  1.3713
  365TMC3    H1 5521   2.166   2.635  10.562  0.3895  2.8495  0.0115
  365TMC3    H2 5522   2.248   2.874  10.241 -1.1937 -0.2368 -2.9143
  365TMC3    C7 5523   2.150   2.882  10.481  0.4671  0.2206 -0.5560
  365TMC3    C8 5524   2.209   2.705  10.053 -0.2383  0.0073 -0.2537
  365TMC3    O1 5525   2.212   2.981  10.442 -0.7108  0.3844 -0.4514
  365TMC3    O2 5526   2.186   2.823  10.021  0.0481  0.1837 -0.5179
  366MPD2     C 5527   4.484   2.270  15.662  0.6370 -0.2927 -0.1510
  366MPD2    C1 5528   4.586   2.354  15.616  0.0483 -0.0652  0.2859
  366MPD2    C2 5529   4.709   2.301  15.580  0.0532  0.1542  0.1981
  366MPD2    C3 5530   4.724   2.161  15.563  0.3394  0.6357  0.0318
  366MPD2    C4 5531   4.623   2.082  15.612  0.3427 -0.4197  0.2874
  366MPD2    C5 5532   4.508   2.136  15.665 -0.1124 -0.1801  0.3708
  366MPD2     H 5533   0.056   2.356  15.550  0.5839  0.0213  1.5057
  366MPD2    H1 5534   4.625   1.974  15.610  1.6586 -0.4051  1.5184
  366MPD2    H2 5535   4.384   2.303  15.689  1.6688  1.2363  1.8473
  366MPD2    H3 5536   4.428   2.072  15.701  0.4461 -0.5618  0.9435
  366MPD2     N 5537   0.097   2.108  15.493  0.4943  0.0009 -0.0679
  366MPD2    H5 5538   0.174   2.174  15.482 -0.1861  0.9311  0.7421
  366MPD2    N1 5539   4.571   2.492  15.610  0.1606 -0.6032 -0.1123
  366MPD2    H7 5540   4.650   2.547  15.578  0.0149 -1.2152 -1.5075
  367TMC3    C1 5541   4.490   2.699  15.581  0.5614 -0.2909  0.5847
  367TMC3    C2 5542   4.582   2.757  15.660  0.0403 -0.0135  0.2007
  367TMC3    C3 5543   4.606   2.888  15.646 -0.1397  0.2650 -0.6784
  367TMC3    C4 5544   4.405   2.768  15.499 -0.5011  0.1170  0.1701
  367TMC3    C5 5545   4.427   2.906  15.494  0.1951 -0.8035  0.0677
  367TMC3    C6 5546   4.537   2.966  15.555  0.9658 -0.0239 -0.0194
  367TMC3     C 5547   4.458   2.564  15.625  0.0605  0.1611  0.1720
  367TMC3     O 5548   4.342   2.528  15.622  0.0936  0.4413 -0.2617
  367TMC3     H 5549   4.643   2.701  15.729  0.1135  0.1460  0.2653
  367TMC3    H1 5550   4.324   2.724  15.442 -0.7127  0.8843 -0.1348
  367TMC3    H2 5551   4.556   3.072  15.547  2.1737 -0.0846  2.0442
  367TMC3    C7 5552   4.344   2.984  15.405  0.1266  0.2465  0.8413
  367TMC3    C8 5553   4.711   2.933  15.732 -0.3445 -0.1165  0.8159
  367TMC3    O1 5554   4.381   3.095  15.389  0.0606 -0.2995 -0.2528
  367TMC3    O2 5555   0.000   2.873  15.834 -0.2814 -0.5808  0.1954
  368MPD2     C 5556   1.993   4.369  13.268 -0.3946  0.9088 -0.4189
  368MPD2    C1 5557   2.032   4.502  13.249 -0.6799  0.4488 -0.0694
  368MPD2    C2 5558   2.168   4.545  13.262 -0.0586 -0.0568  0.4450
  368MPD2    C3 5559   2.257   4.455  13.302  0.0084 -0.1026 -0.3636
  368MPD2    C4 5560   2.226   4.323  13.323 -0.5279 -0.4260  0.2010
  368MPD2    C5 5561   2.095   4.285  13.306 -0.6133  0.4846  0.7834
  368MPD2     H 5562   2.196   4.645  13.234  1.4824 -0.9128 -0.9860
  368MPD2    H1 5563   2.303   4.254  13.356  1.3718  2.3540  1.5964
  368MPD2    H2 5564   1.888   4.346  13.260 -0.3473  0.6365 -0.2459
  368MPD2    H3 5565   2.063   4.181  13.309  2.7125 -0.5678  0.9937
  368MPD2     N 5566   2.395   4.489  13.311 -0.2874  0.2324  0.2696
  368MPD2    H5 5567   2.477   4.433  13.292 -0.3301 -0.2411  1.5284
  368MPD2    N1 5568   1.931   4.587  13.191  0.1494  0.3516 -0.0273
  368MPD2    H7 5569   1.841   4.541  13.178 -0.2592  0.5939  1.9770
  369TMC3    C1 5570   1.830   0.025  13.070  0.0755  0.9729  0.0304
  369TMC3    C2 5571   1.848   0.149  13.016  0.7255 -0.0428 -0.2200
  369TMC3    C3 5572   1.785   0.184  12.900  0.1346  0.5489  0.8524
  369TMC3    C4 5573   1.745   4.672  13.017 -0.3535 -0.2577 -0.3969
  369TMC3    C5 5574   1.671   4.720  12.903 -0.2518  0.4843  0.0454
  369TMC3    C6 5575   1.692   0.102  12.842 -0.7348  0.3500  0.5758
  369TMC3     C 5576   1.943   4.717  13.142 -0.0345  0.1180  0.1155
  369TMC3     O 5577   2.036   0.055  13.154  0.2220  0.0760  0.2513
  369TMC3     H 5578   1.920   0.216  13.061 -0.7424  0.3398  1.5907
  369TMC3    H1 5579   1.737   4.570  13.051 -0.9993 -0.4347 -1.0832
  369TMC3    H2 5580   1.619   0.149  12.776 -0.4878 -0.5825 -0.3630
  369TMC3    C7 5581   1.555   4.647  12.882 -0.2535 -0.1536  0.4745
  369TMC3    C8 5582   1.837   0.299  12.829 -0.2116 -0.0314 -0.1671
  369TMC3    O1 5583   1.532   4.563  12.968 -0.6058  0.8649 -0.4160
  369TMC3    O2 5584   1.808   0.312  12.709  0.3097  0.2971 -0.3445
  370TMC3    C1 5585   0.863   0.411  16.038  0.0224 -0.7684  0.0186
  370TMC3    C2 5586   0.794   0.379  16.146 -0.1784  0.0476 -0.4560
  370TMC3    C3 5587   0.694   0.288  16.131 -0.5554 -0.4439 -0.3758
  370TMC3    C4 5588   0.851   0.344  15.924 -0.4000 -0.7114  0.4690
  370TMC3    C5 5589   0.765   0.234  15.924 -0.3406 -0.0243 -0.2795
  370TMC3    C6 5590   0.675   0.204  16.022  0.6590 -1.1416  0.0963
  370TMC3     C 5591   0.979   0.491  16.058 -0.3793 -0.9231 -0.2752
  370TMC3     O 5592   1.030   0.485  16.167  0.1332 -0.1894  0.1773
  370TMC3     H 5593   0.820   0.407  16.247  0.2002  1.3120 -0.9043
  370TMC3    H1 5594   0.932   0.348  15.851 -2.4098  0.8848 -1.6619
  370TMC3    H2 5595   0.620   0.111  16.025 -2.5939  0.8033  0.8336
  370TMC3    C7 5596   0.796   0.142  15.816  0.2717 -0.5237  0.6673
  370TMC3    C8 5597   0.598   0.272  16.236  0.7962  0.4639  0.4586
  370TMC3    O1 5598   0.807   0.201  15.713 -0.2591 -0.0032  0.0933
  370TMC3    O2 5599   0.512   0.186  16.228 -0.2184 -0.3050  0.3743
  371TMC3    C1 5600   1.624   3.026  15.288 -0.9321 -0.6049 -0.3321
  371TMC3    C2 5601   1.528   3.060  15.383 -0.8590  0.2644 -0.3604
  371TMC3    C3 5602   1.474   3.185  15.377 -0.7628  0.1445  0.0089
  371TMC3    C4 5603   1.671   3.116  15.198 -0.0997 -0.2562 -0.0499
  371TMC3    C5 5604   1.605   3.238  15.198  0.1551  0.0047  0.4573
  371TMC3    C6 5605   1.513   3.274  15.289 -0.2193 -0.4324  0.5496
  371TMC3     C 5606   1.711   2.914  15.307  0.2223  0.3042 -0.4178
  371TMC3     O 5607   1.828   2.914  15.263  0.2020 -0.7035 -1.1931
  371TMC3     H 5608   1.500   2.990  15.461 -0.2354  0.5096  0.0773
  371TMC3    H1 5609   1.736   3.071  15.125  0.5509 -0.7728  0.8382
  371TMC3    H2 5610   1.475   3.376  15.283  0.3334 -0.2479  0.2150
  371TMC3    C7 5611   1.674   3.347  15.141  0.7564  0.2785 -0.2966
  371TMC3    C8 5612   1.359   3.203  15.459 -0.4646 -0.7693 -0.3969
  371TMC3    O1 5613   1.634   3.463  15.164  0.1920  0.2359 -0.8731
  371TMC3    O2 5614   1.310   3.100  15.500  1.1676  0.4293  0.3358
  372MPD2     C 5615   1.577   0.214  13.194  0.3889 -0.3350 -0.3287
  372MPD2    C1 5616   1.617   0.190  13.324 -0.0107 -0.3355 -0.0195
  372MPD2    C2 5617   1.543   0.091  13.393 -0.2617 -0.3306  0.1479
  372MPD2    C3 5618   1.447   0.014  13.323 -0.2220  0.0010 -0.2129
  372MPD2    C4 5619   1.418   0.032  13.189 -0.0063  0.1036  0.1138
  372MPD2    C5 5620   1.483   0.134  13.131 -0.2443 -0.6395  0.3167
  372MPD2     H 5621   1.563   0.064  13.496  0.0365  0.2583  0.2454
  372MPD2    H1 5622   1.335   4.727  13.136  0.0783  0.8336 -0.6403
  372MPD2    H2 5623   1.614   0.300  13.139 -1.9005 -0.1439 -1.5604
  372MPD2    H3 5624   1.449   0.152  13.030  2.4840 -0.3225 -0.5547
  372MPD2     N 5625   1.380   4.648  13.385  0.7242  0.4007 -0.1768
  372MPD2    H5 5626   1.391   4.644  13.486 -0.8480 -0.3078 -0.0310
  372MPD2    N1 5627   1.716   0.267  13.388  0.0647  0.7268  0.5430
  372MPD2    H7 5628   1.729   0.234  13.483  0.2293  0.9949  0.6137
  373TMC3    C1 5629   1.235   4.455  13.415 -0.8258  0.0073 -1.0976
  373TMC3    C2 5630   1.234   4.488  13.553  0.3188 -0.2648  0.5133
  373TMC3    C3 5631   1.156   4.408  13.638  0.6662  0.2669  0.8697
  373TMC3    C4 5632   1.164   4.349  13.366 -0.3862 -0.6503 -0.2616
  373TMC3    C5 5633   1.087   4.280  13.456 -0.2629  0.0676 -0.0324
  373TMC3    C6 5634   1.073   4.316  13.584 -0.4480  0.0385 -0.4482
  373TMC3     C 5635   1.299   4.549  13.325  0.5776  0.5624  0.2646
  373TMC3     O 5636   1.274   4.519  13.212  0.8597 -0.3853  0.2055
  373TMC3     H 5637   1.298   4.565  13.595  0.6355 -0.6335  0.7084
  373TMC3    H1 5638   1.182   4.316  13.265 -0.2997 -0.7785 -0.2049
  373TMC3    H2 5639   1.012   4.250  13.644  0.4194 -0.4310 -0.0821
  373TMC3    C7 5640   1.082   4.134  13.449  0.7533 -0.1021  0.1393
  373TMC3    C8 5641   1.200   4.395  13.776  0.1851  0.2236  0.2794
  373TMC3    O1 5642   1.021   4.069  13.530  0.3323  0.3765 -0.0047
  373TMC3    O2 5643   1.315   4.434  13.794  0.0004 -0.2350  0.0738
  374TMC3    C1 5644   2.116   0.665   9.968  0.0784 -0.0274 -0.4210
  374TMC3    C2 5645   2.246   0.717   9.954  0.1014 -0.8477 -0.0078
  374TMC3    C3 5646   2.281   0.758   9.827 -0.6186  0.0615  0.1742
  374TMC3    C4 5647   2.028   0.661   9.860 -0.3557  0.4566 -0.1661
  374TMC3    C5 5648   2.075   0.711   9.744  0.6192  0.7170 -0.2664
  374TMC3    C6 5649   2.198   0.757   9.722 -0.2024 -0.9896 -0.0414
  374TMC3     C 5650   2.053   0.669  10.105  0.2505 -0.1792 -0.6804
  374TMC3     O 5651   2.129   0.653  10.199  0.1340  0.2053  0.4942
  374TMC3     H 5652   2.314   0.726  10.037 -1.1973 -0.9216  1.0557
  374TMC3    H1 5653   1.924   0.631   9.864 -1.4071  4.1307 -0.5895
  374TMC3    H2 5654   2.245   0.764   9.624 -1.2843  0.2705 -0.4800
  374TMC3    C7 5655   1.982   0.700   9.637 -0.5257 -0.7499 -0.6021
  374TMC3    C8 5656   2.415   0.816   9.809 -0.7675 -0.7706  0.6900
  374TMC3    O1 5657   1.876   0.639   9.651  0.5377 -0.2826  0.0443
  374TMC3    O2 5658   2.422   0.893   9.710 -0.4820  0.0839  0.0113
  375MPD2     C 5659   2.425   0.436  16.183  1.0340 -0.6130  0.1888
  375MPD2    C1 5660   2.297   0.393  16.185 -0.0488  0.0764  0.7132
  375MPD2    C2 5661   2.258   0.299  16.093 -0.1515 -0.5198 -0.8412
  375MPD2    C3 5662   2.357   0.242  16.006  0.0122  0.3919  0.0781
  375MPD2    C4 5663   2.488   0.276  16.027  0.8031 -0.4102  0.4110
  375MPD2    C5 5664   2.525   0.376  16.113  0.5924 -0.8347 -0.6131
  375MPD2     H 5665   2.156   0.266  16.079  0.3461 -1.8608 -1.3195
  375MPD2    H1 5666   2.568   0.254  15.958  1.5203 -1.2226  1.4984
  375MPD2    H2 5667   2.455   0.522  16.242 -1.8749  0.6035 -0.1121
  375MPD2    H3 5668   2.630   0.400  16.125  0.2274  0.4354  0.0160
  375MPD2     N 5669   2.338   0.145  15.909  0.5664 -0.0892  0.1084
  375MPD2    H5 5670   2.420   0.091  15.883  0.7524 -0.3785  1.2995
  375MPD2    N1 5671   2.195   0.453  16.263 -0.1074 -0.2999  0.2681
  375MPD2    H7 5672   2.098   0.427  16.248 -0.2265  0.3155 -0.0272
  376TMC3    C1 5673   2.224   0.008  15.751 -0.1475  0.0028  0.2420
  376TMC3    C2 5674   2.339   4.712  15.694 -0.0724  0.6626 -0.3205
  376TMC3    C3 5675   2.332   4.649  15.576 -0.1526 -0.6625  0.9015
  376TMC3    C4 5676   2.107   4.725  15.687  0.0913 -0.4255 -0.0756
  376TMC3    C5 5677   2.107   4.673  15.564 -0.0671  0.5003 -0.1920
  376TMC3    C6 5678   2.218   4.619  15.505 -0.9274  0.6189 -0.6651
  376TMC3     C 5679   2.214   0.096  15.869 -0.5017  0.0781  0.3299
  376TMC3     O 5680   2.100   0.112  15.908 -0.2183 -0.5910 -0.9137
  376TMC3     H 5681   2.435   0.005  15.729  1.4589 -3.1319 -0.8186
  376TMC3    H1 5682   2.010   0.004  15.731  0.3692 -1.8119  1.1476
  376TMC3    H2 5683   2.214   4.570  15.408  2.8072  1.3380 -1.1862
  376TMC3    C7 5684   1.987   4.699  15.484  0.3552 -0.4518 -0.2674
  376TMC3    C8 5685   2.454   4.670  15.491  0.4263  0.6104 -0.3299
  376TMC3    O1 5686   1.922   0.061  15.508  0.5900  0.3384 -0.0038
  376TMC3    O2 5687   2.523   0.024  15.527  0.0560 -0.1070 -0.1977
  377MPD2     C 5688   0.611   0.179  12.626  0.7402  0.2555 -0.3014
  377MPD2    C1 5689   0.524   0.165  12.521 -0.0002 -0.2435 -0.5154
  377MPD2    C2 5690   0.406   0.094  12.541  0.0289  0.4848  0.6429
  377MPD2    C3 5691   0.382   0.027  12.660  0.6562 -0.0596  0.3658
  377MPD2    C4 5692   0.471   0.036  12.760  0.2731  0.3177 -0.1693
  377MPD2    C5 5693   0.575   0.127  12.747  0.3927  0.8165 -0.0472
  377MPD2     H 5694   0.331   0.107  12.464  1.3941 -1.4100 -1.0246
  377MPD2    H1 5695   0.466   4.720  12.852 -1.7327 -1.5207 -1.4105
  377MPD2    H2 5696   0.703   0.234  12.612  0.3935  0.4961 -1.7289
  377MPD2    H3 5697   0.642   0.137  12.832  0.6706 -1.8575  0.0354
  377MPD2     N 5698   0.273   4.680  12.679  0.6684  0.3762  0.4597
  377MPD2    H5 5699   0.264   4.629  12.766  2.5047 -0.4016  0.1921
  377MPD2    N1 5700   0.561   0.226  12.408 -0.2776 -0.7790 -0.0483
  377MPD2    H7 5701   0.659   0.253  12.412 -0.3358 -0.7386  0.9033
  378TMC3    C1 5702   0.566   0.418  11.972  0.4187  0.2236 -0.1150
  378TMC3    C2 5703   0.502   0.350  12.069 -0.2618 -0.3929  0.3909
  378TMC3    C3 5704   0.569   0.303  12.178  0.8482  0.2705 -0.0882
  378TMC3    C4 5705   0.701   0.439  11.978 -0.7931 -0.0745 -0.4211
  378TMC3    C5 5706   0.772   0.396  12.084 -0.0947  0.4505  0.5355
  378TMC3    C6 5707   0.704   0.324  12.183  0.3810  0.3549 -0.0391
  378TMC3     C 5708   0.485   0.482  11.871 -0.3526  0.2695 -0.4683
  378TMC3     O 5709   0.407   0.412  11.800  0.0875 -0.0917 -0.6051
  378TMC3     H 5710   0.395   0.339  12.062 -0.2346  0.0271 -0.7482
  378TMC3    H1 5711   0.753   0.491  11.899 -1.1834  1.2984  0.2259
  378TMC3    H2 5712   0.760   0.290  12.269  2.2152  1.7335 -0.7017
  378TMC3    C7 5713   0.921   0.385  12.086  1.0964  0.2521  0.5882
  378TMC3    C8 5714   0.493   0.234  12.285 -0.5069 -0.0445 -0.3990
  378TMC3    O1 5715   0.975   0.357  12.192 -0.0096 -0.2932  0.0583
  378TMC3    O2 5716   0.373   0.209  12.268 -0.0963  0.5002 -0.3331
  379MPD2     C 5717   1.104   3.224  16.306  0.4361  0.2409  0.5513
  379MPD2    C1 5718   1.047   3.104  16.351 -0.1126  0.0436  0.4949
  379MPD2    C2 5719   1.118   3.033  16.446 -0.0171  0.1656 -0.1437
  379MPD2    C3 5720   1.244   3.074  16.494 -0.6194  0.0257 -0.3745
  379MPD2    C4 5721   1.300   3.190  16.438  0.1079 -0.3789  0.3639
  379MPD2    C5 5722   1.229   3.262  16.345 -0.4924 -0.6095 -0.0379
  379MPD2     H 5723   1.077   2.943  16.491 -0.8665  1.0528  0.8615
  379MPD2    H1 5724   1.392   3.228  16.482  0.0709  0.0061  0.1015
  379MPD2    H2 5725   1.052   3.295  16.242 -1.1706 -0.0062  1.5823
  379MPD2    H3 5726   1.265   3.361  16.318 -0.9688 -0.8508 -1.5042
  379MPD2     N 5727   1.323   3.013  16.596 -0.8302  0.4410  0.6372
  379MPD2    H5 5728   1.416   3.047  16.616 -0.4156  1.1331 -2.5904
  379MPD2    N1 5729   0.935   3.053  16.269 -0.1110 -0.2052 -0.4366
  379MPD2    H7 5730   0.890   3.119  16.207 -0.6540  2.1492  2.4948
  380TMC3    C1 5731   0.817   2.895  16.166  0.7569 -0.1853 -0.3064
  380TMC3    C2 5732   0.827   2.779  16.092 -0.2591  0.2788  0.0248
  380TMC3    C3 5733   0.728   2.757  15.995  0.4553 -0.3681  0.3453
  380TMC3    C4 5734   0.708   2.977  16.161 -0.2844  0.1120  0.4588
  380TMC3    C5 5735   0.608   2.948  16.078  0.6447 -0.7103 -0.0901
  380TMC3    C6 5736   0.622   2.847  15.985  0.1928  0.1543  0.0498
  380TMC3     C 5737   0.914   2.915  16.268 -0.0692 -0.0546 -0.0222
  380TMC3     O 5738   0.984   2.818  16.296  0.7231 -0.0352  0.0219
  380TMC3     H 5739   0.922   2.727  16.084 -0.6907 -0.7387  1.6767
  380TMC3    H1 5740   0.709   3.067  16.222 -1.0933  1.9640 -2.2411
  380TMC3    H2 5741   0.546   2.830  15.910 -0.2499 -0.6735  0.6915
  380TMC3    C7 5742   0.536   3.068  16.038  0.4336  0.6661  0.8883
  380TMC3    C8 5743   0.764   2.664  15.896  0.2602 -0.5280  0.0280
  380TMC3    O1 5744   0.601   3.173  16.026  0.5664  0.1718 -0.2655
  380TMC3    O2 5745   0.726   2.691  15.782 -0.6027  0.0895  0.1055
  381TMC3    C1 5746   0.299   4.444  16.080  0.3607 -0.2541  0.2147
  381TMC3    C2 5747   0.437   4.461  16.091  0.3513  0.5244 -0.2841
  381TMC3    C3 5748   0.470   4.555  16.173  0.4823  0.1117 -0.1140
  381TMC3    C4 5749   0.208   4.503  16.158 -0.2298  0.2400  0.1746
  381TMC3    C5 5750   0.246   4.600  16.248  0.4426 -0.4123  0.5122
  381TMC3    C6 5751   0.379   4.631  16.246 -0.0334  0.1287 -0.2101
  381TMC3     C 5752   0.255   4.354  15.977 -0.8631  0.6615  0.2665
  381TMC3     O 5753   0.339   4.264  15.963  0.2331  0.0148 -0.4374
  381TMC3     H 5754   0.511   4.407  16.032 -1.3648 -2.7934  0.5783
  381TMC3    H1 5755   0.107   4.465  16.157  0.4231 -1.4874 -1.8004
  381TMC3    H2 5756   0.415   4.707  16.315 -1.0392  0.1546  0.2897
  381TMC3    C7 5757   0.182   4.586  16.377  0.0621 -0.3666  0.2956
  381TMC3    C8 5758   0.605   4.601  16.165  0.3035  0.3079  0.2476
  381TMC3    O1 5759   0.161   4.472  16.410 -0.2358 -0.0008  0.2434
  381TMC3    O2 5760   0.652   4.599  16.057 -0.1452  0.0426  0.3719
  382MPD2     C 5761   0.317   2.256  16.661 -0.0503 -0.3564 -0.9998
  382MPD2    C1 5762   0.351   2.303  16.786 -0.2848 -0.3962 -0.5410
  382MPD2    C2 5763   0.329   2.218  16.891  0.5413 -0.5881 -0.0527
  382MPD2    C3 5764   0.280   2.091  16.874 -0.3825  0.1318 -0.0365
  382MPD2    C4 5765   0.249   2.048  16.750 -0.0389 -0.7789 -0.1438
  382MPD2    C5 5766   0.264   2.131  16.644  0.5040 -0.2727  0.2951
  382MPD2     H 5767   0.336   2.266  16.988  0.1112  1.5093 -1.0607
  382MPD2    H1 5768   0.217   1.947  16.726  1.1600 -1.2897  0.3866
  382MPD2    H2 5769   0.322   2.316  16.570  0.6162  0.3561 -0.4975
  382MPD2    H3 5770   0.230   2.102  16.546  1.3782 -1.5352  0.3603
  382MPD2     N 5771   0.259   1.993  16.972  0.5941 -0.1738  0.4470
  382MPD2    H5 5772   0.243   1.896  16.946 -0.0317  0.8638 -2.9614
  382MPD2    N1 5773   0.411   2.434  16.813 -0.4007 -0.9354  0.1877
  382MPD2    H7 5774   0.425   2.453  16.911  0.2149  3.7344 -0.7992
  383TMC3    C1 5775   0.234   1.888  17.181 -0.0480 -0.5071  0.8548
  383TMC3    C2 5776   0.145   1.801  17.119  0.3880  0.4962 -0.7614
  383TMC3    C3 5777   0.101   1.693  17.195  0.3043 -0.6297 -1.0436
  383TMC3    C4 5778   0.276   1.881  17.308 -0.1332  0.2385  0.0775
  383TMC3    C5 5779   0.239   1.768  17.377  0.7363 -0.2895  0.7024
  383TMC3    C6 5780   0.154   1.671  17.322 -0.4544  0.5107 -0.2580
  383TMC3     C 5781   0.277   2.008  17.106 -0.0981 -0.5194 -0.0235
  383TMC3     O 5782   0.322   2.102  17.166 -0.1786 -0.0874  0.0661
  383TMC3     H 5783   0.108   1.817  17.018  1.3592  3.3514 -0.6553
  383TMC3    H1 5784   0.347   1.952  17.351  0.9335 -1.0713  0.4956
  383TMC3    H2 5785   0.105   1.598  17.386  1.2901  0.7450  1.3218
  383TMC3    C7 5786   0.272   1.757  17.511  0.0129  0.5329  0.9756
  383TMC3    C8 5787   0.006   1.602  17.138 -0.1658 -0.0247 -0.7590
  383TMC3    O1 5788   0.295   1.650  17.564 -0.0037  0.4391  0.3551
  383TMC3    O2 5789   4.709   1.642  17.028 -0.9072  0.1422  0.6890
  384MPD2     C 5790   0.649   3.863  11.790  0.4900 -0.2202  0.2122
  384MPD2    C1 5791   0.680   3.816  11.916  0.6465 -0.0811 -0.5165
  384MPD2    C2 5792   0.815   3.793  11.947 -0.9652  0.3872  0.6811
  384MPD2    C3 5793   0.909   3.806  11.846 -0.5065 -0.1487  1.0285
  384MPD2    C4 5794   0.876   3.846  11.717 -0.4557 -0.0361  0.3686
  384MPD2    C5 5795   0.743   3.872  11.693  0.8352  0.1034  0.4271
  384MPD2     H 5796   0.848   3.755  12.043  0.9953 -3.7988 -1.6642
  384MPD2    H1 5797   0.932   3.866  11.626 -1.3510  0.9953  0.0395
  384MPD2    H2 5798   0.550   3.899  11.764 -0.3933 -2.7014  0.0937
  384MPD2    H3 5799   0.703   3.921  11.605  0.6570 -0.1492  0.3668
  384MPD2     N 5800   1.044   3.778  11.891 -0.6701 -0.1362  0.0971
  384MPD2    H5 5801   1.056   3.765  11.991 -0.0014 -2.4161 -0.2834
  384MPD2    N1 5802   0.583   3.809  12.016 -0.2863  0.4441  0.2245
  384MPD2    H7 5803   0.614   3.800  12.112  0.8216  0.0629 -0.1674
  385TMC3    C1 5804   1.258   3.691  11.891  0.0703 -0.8468 -0.1637
  385TMC3    C2 5805   1.281   3.562  11.859  0.1381 -0.5645  0.2007
  385TMC3    C3 5806   1.272   3.465  11.960 -0.1850  0.0954  0.1003
  385TMC3    C4 5807   1.234   3.727  12.019 -0.3039 -0.4439 -0.0499
  385TMC3    C5 5808   1.220   3.636  12.113 -0.2292 -0.1572  0.3686
  385TMC3    C6 5809   1.244   3.501  12.091  0.0704 -0.2863  0.5781
  385TMC3     C 5810   1.156   3.751  11.807  0.4425 -0.3038 -0.2826
  385TMC3     O 5811   1.158   3.722  11.690 -0.2108 -0.0424  0.1681
  385TMC3     H 5812   1.282   3.528  11.756  2.0321  0.1561 -0.0174
  385TMC3    H1 5813   1.223   3.830  12.052 -0.1114 -1.0809  2.0359
  385TMC3    H2 5814   1.250   3.432  12.175 -1.1423 -2.3020 -0.9729
  385TMC3    C7 5815   1.123   3.662  12.218  0.3218  0.1829 -0.3854
  385TMC3    C8 5816   1.366   3.358  11.949  0.3738 -0.4466  0.3429
  385TMC3    O1 5817   1.049   3.759  12.203  0.4145 -0.6800 -0.1345
  385TMC3    O2 5818   1.409   3.322  12.055 -0.3544 -0.1953  0.3120
  386TMC3    C1 5819   2.486   1.144  11.704  0.5508  0.2565  0.2494
  386TMC3    C2 5820   2.432   1.190  11.591 -0.1318  0.0962 -0.5697
  386TMC3    C3 5821   2.347   1.293  11.588  0.2012  0.1319 -0.4142
  386TMC3    C4 5822   2.443   1.184  11.825  0.6398 -0.3936  0.0201
  386TMC3    C5 5823   2.352   1.289  11.823  0.7520 -0.4663 -0.0798
  386TMC3    C6 5824   2.302   1.342  11.707  0.0686  0.3923  0.1337
  386TMC3     C 5825   2.570   1.028  11.692 -0.4231 -0.3869  0.6497
  386TMC3     O 5826   2.630   1.004  11.586  0.6804  0.8809 -0.0481
  386TMC3     H 5827   2.466   1.143  11.500  0.1845 -0.7031 -0.0433
  386TMC3    H1 5828   2.494   1.158  11.917  0.5892  1.8201  0.6731
  386TMC3    H2 5829   2.221   1.414  11.709 -0.0697  0.2567 -0.7018
  386TMC3    C7 5830   2.277   1.307  11.944  0.5875 -0.3918 -1.0089
  386TMC3    C8 5831   2.247   1.292  11.486 -0.1444  0.2512 -0.4571
  386TMC3    O1 5832   2.287   1.227  12.035 -0.1988 -0.3893 -0.7190
  386TMC3    O2 5833   2.136   1.316  11.529  0.8489 -0.2184 -0.1524
  387MPD2     C 5834   4.010   1.378   9.852  0.5605 -0.3910 -0.4067
  387MPD2    C1 5835   4.036   1.290   9.954  0.5226  0.4447  0.5059
  387MPD2    C2 5836   4.026   1.150   9.927  0.1602 -0.1608  0.4155
  387MPD2    C3 5837   4.016   1.099   9.800 -0.1120 -0.2650  0.7705
  387MPD2    C4 5838   3.995   1.192   9.698 -0.2563  0.7776  0.4360
  387MPD2    C5 5839   3.983   1.327   9.727 -0.1733 -0.8449  0.6295
  387MPD2     H 5840   4.041   1.078  10.007 -0.2038  0.2228  0.8291
  387MPD2    H1 5841   3.981   1.162   9.595 -2.8391  0.7607  0.7809
  387MPD2    H2 5842   3.997   1.486   9.853 -0.2241 -0.4956  0.9658
  387MPD2    H3 5843   3.954   1.395   9.647  2.8340  0.2553  0.4842
  387MPD2     N 5844   4.050   0.965   9.786  0.2601  0.0705  0.3696
  387MPD2    H5 5845   4.078   0.920   9.872 -1.1850  1.2969  1.4790
  387MPD2    N1 5846   4.071   1.327  10.086  0.7054 -0.1093  0.0289
  387MPD2    H7 5847   4.090   1.253  10.154 -0.6422  0.5893  1.1605
  388TMC3    C1 5848   4.226   1.465  10.194 -0.7430  0.0506  0.7578
  388TMC3    C2 5849   4.268   1.576  10.256  0.6580  0.4621 -0.3775
  388TMC3    C3 5850   4.385   1.581  10.326  0.1850  0.3686 -0.3710
  388TMC3    C4 5851   4.302   1.353  10.203 -0.1786 -0.1984 -0.4344
  388TMC3    C5 5852   4.420   1.359  10.274 -0.3833 -0.0353 -0.4448
  388TMC3    C6 5853   4.463   1.467  10.346 -0.0955  1.1082  0.0991
  388TMC3     C 5854   4.101   1.459  10.122  0.5121  0.1509  0.1083
  388TMC3     O 5855   4.071   1.558  10.059  0.0689 -0.6893 -0.2692
  388TMC3     H 5856   4.207   1.659  10.222 -1.3396 -0.5583  0.7309
  388TMC3    H1 5857   4.289   1.282  10.122 -0.7708 -1.9072  1.1806
  388TMC3    H2 5858   4.565   1.478  10.379  0.1026  0.4314 -0.2985
  388TMC3    C7 5859   4.503   1.251  10.279  0.2734 -0.1901 -0.4925
  388TMC3    C8 5860   4.424   1.718  10.360  0.0357  0.7859  0.2173
  388TMC3    O1 5861   4.614   1.260  10.331  0.2198 -0.0096  0.4487
  388TMC3    O2 5862   4.367   1.816  10.312  0.4300 -0.3331 -0.1221
  389MPD2     C 5863   3.428   3.824  10.556  0.1483 -0.1354 -0.3992
  389MPD2    C1 5864   3.288   3.816  10.537  0.0921 -0.6928 -0.0320
  389MPD2    C2 5865   3.213   3.776  10.638  0.2823  0.2939  0.5472
  389MPD2    C3 5866   3.267   3.753  10.766  0.7481  0.6421 -0.3809
  389MPD2    C4 5867   3.398   3.767  10.786 -0.2657 -0.6613  0.5102
  389MPD2    C5 5868   3.481   3.798  10.675 -0.5472 -0.1878  0.0665
  389MPD2     H 5869   3.106   3.773  10.623  0.5643 -0.4580 -1.3179
  389MPD2    H1 5870   3.437   3.736  10.883  0.4779 -2.3292 -0.3056
  389MPD2    H2 5871   3.482   3.840  10.464  2.2372 -0.5235  0.7469
  389MPD2    H3 5872   3.587   3.793  10.694 -0.9681 -1.1923  2.1453
  389MPD2     N 5873   3.189   3.713  10.875  0.6799 -0.4536  0.1329
  389MPD2    H5 5874   3.226   3.691  10.967 -2.8138  1.0987  1.9240
  389MPD2    N1 5875   3.238   3.828  10.405 -0.2337 -0.6179 -0.5420
  389MPD2    H7 5876   3.300   3.851  10.328 -0.7892 -0.8692 -1.0754
  390TMC3    C1 5877   2.991   3.645  10.992 -0.5958 -0.6125 -0.3643
  390TMC3    C2 5878   3.067   3.625  11.100  0.0795 -0.1817 -0.0610
  390TMC3    C3 5879   3.008   3.648  11.226  0.9163 -0.0664  0.3873
  390TMC3    C4 5880   2.859   3.649  11.003 -0.1722  0.1647  0.2069
  390TMC3    C5 5881   2.797   3.655  11.127 -0.6331  0.4642  0.0162
  390TMC3    C6 5882   2.871   3.674  11.234  0.3182 -0.7273  0.5417
  390TMC3     C 5883   3.047   3.688  10.867 -0.3392 -0.0040  0.1891
  390TMC3     O 5884   2.969   3.701  10.776 -0.3212 -0.6132  0.1452
  390TMC3     H 5885   3.172   3.599  11.102 -0.3448 -2.0282 -1.9330
  390TMC3    H1 5886   2.800   3.632  10.913  1.2259  0.0676 -0.6951
  390TMC3    H2 5887   2.818   3.712  11.320  3.0772  2.7406  0.6977
  390TMC3    C7 5888   2.686   3.562  11.129 -1.0544  0.3116 -0.1570
  390TMC3    C8 5889   3.038   3.543  11.312  0.8470 -0.3673 -0.1475
  390TMC3    O1 5890   2.640   3.516  11.025  0.0846 -0.4957 -0.5609
  390TMC3    O2 5891   3.073   3.440  11.256 -0.1410  0.0783 -0.0955
  391MPD2     C 5892   3.278   0.442  11.097  0.0707 -0.1784  0.2823
  391MPD2    C1 5893   3.378   0.480  11.006 -0.0628  0.5213  0.1949
  391MPD2    C2 5894   3.336   0.525  10.885 -0.8140 -0.8867  0.4951
  391MPD2    C3 5895   3.205   0.516  10.852 -0.3035  0.1453 -0.5525
  391MPD2    C4 5896   3.108   0.470  10.934 -0.1236  0.3761  0.2050
  391MPD2    C5 5897   3.146   0.436  11.059 -0.5344  0.6876  0.2427
  391MPD2     H 5898   3.402   0.566  10.810 -0.3929  0.8040  1.8050
  391MPD2    H1 5899   3.007   0.465  10.894  0.2081  0.0407 -0.5920
  391MPD2    H2 5900   3.298   0.414  11.200  1.6377  0.0401  0.0349
  391MPD2    H3 5901   3.071   0.399  11.127 -2.5600  1.2017 -1.6920
  391MPD2     N 5902   3.168   0.587  10.733 -0.2625 -0.0583  0.0581
  391MPD2    H5 5903   3.241   0.629  10.676 -0.9774 -0.1337 -0.9084
  391MPD2    N1 5904   3.512   0.479  11.051  0.4007  0.0731  0.2713
  391MPD2    H7 5905   3.523   0.446  11.146 -1.6872  0.3191  0.5973
  392TMC3    C1 5906   3.058   0.686  10.564  0.2547  0.5406  0.0995
  392TMC3    C2 5907   2.985   0.668  10.447  0.1474  0.3567 -0.3316
  392TMC3    C3 5908   3.009   0.752  10.341 -0.0436 -0.3486 -0.1220
  392TMC3    C4 5909   3.137   0.798  10.585  0.2130  0.6472 -0.0146
  392TMC3    C5 5910   3.137   0.888  10.484  0.4698  0.3911 -0.2812
  392TMC3    C6 5911   3.088   0.861  10.358  0.1641  0.5426 -0.3963
  392TMC3     C 5912   3.049   0.591  10.669  1.1918 -0.0125  0.0304
  392TMC3     O 5913   2.952   0.517  10.686  0.2236  0.3797  0.4533
  392TMC3     H 5914   2.931   0.576  10.427  0.4082  0.0226  0.4884
  392TMC3    H1 5915   3.173   0.820  10.685 -0.6440 -0.3139  0.5120
  392TMC3    H2 5916   3.085   0.938  10.281 -1.0879 -1.6493 -2.5589
  392TMC3    C7 5917   3.193   1.015  10.514  0.2710  0.8918 -0.0860
  392TMC3    C8 5918   2.913   0.741  10.235  0.4624 -0.4203  0.3122
  392TMC3    O1 5919   3.220   1.045  10.628  0.2718 -0.0351 -0.2874
  392TMC3    O2 5920   2.830   0.653  10.240 -0.5938  0.3163  0.6020
  393TMC3    C1 5921   1.200   3.612  10.824 -0.2822  0.1307  0.3583
  393TMC3    C2 5922   1.062   3.600  10.853 -0.4578 -1.1618  0.5758
  393TMC3    C3 5923   1.020   3.512  10.953  0.2145 -0.0286  0.8581
  393TMC3    C4 5924   1.299   3.546  10.903 -0.9405 -0.4100  0.2572
  393TMC3    C5 5925   1.258   3.472  11.014  0.6520 -0.1306 -0.4691
  393TMC3    C6 5926   1.117   3.454  11.033  0.0030 -0.4268 -0.0472
  393TMC3     C 5927   1.237   3.714  10.725  0.5799  0.1959 -0.2732
  393TMC3     O 5928   1.155   3.785  10.668 -0.1250  0.1067 -0.1951
  393TMC3     H 5929   0.994   3.657  10.791 -0.1481 -0.4825  0.8696
  393TMC3    H1 5930   1.404   3.571  10.890 -0.8343 -1.2378 -0.5047
  393TMC3    H2 5931   1.085   3.402  11.123  1.1514  0.2296  0.7352
  393TMC3    C7 5932   1.351   3.432  11.118 -0.2664 -0.5902 -0.6073
  393TMC3    C8 5933   0.895   3.519  11.022 -0.0124  0.0932 -0.7181
  393TMC3    O1 5934   1.310   3.348  11.195 -0.5786  0.0441 -0.3266
  393TMC3    O2 5935   0.867   3.452  11.117 -0.2379 -0.1677  0.3246
  394TMC3    C1 5936   3.076   3.841  10.221  0.3863  0.2020 -0.4457
  394TMC3    C2 5937   3.024   3.743  10.152 -0.1708  0.2704 -0.2788
  394TMC3    C3 5938   3.021   3.752  10.015 -0.6166 -0.0169 -0.4579
  394TMC3    C4 5939   3.152   3.933  10.158 -0.7529  0.3096  0.5442
  394TMC3    C5 5940   3.136   3.950  10.024 -0.1688 -0.0316 -0.2760
  394TMC3    C6 5941   3.066   3.857   9.943  0.3148  0.3519 -0.3948
  394TMC3     C 5942   3.104   3.807  10.363  0.0212 -0.5992 -0.0492
  394TMC3     O 5943   3.016   3.745  10.424  0.7650  0.5389 -0.2994
  394TMC3     H 5944   2.964   3.664  10.195  1.0763 -2.5281 -3.6200
  394TMC3    H1 5945   3.215   4.004  10.211 -0.1393 -0.9047  1.4401
  394TMC3    H2 5946   3.075   3.862   9.835  3.8317 -0.4050 -0.1458
  394TMC3    C7 5947   3.260   3.979   9.965 -0.0407 -0.4707  0.9089
  394TMC3    C8 5948   3.007   3.627   9.933  0.5626  0.4885  0.9803
  394TMC3    O1 5949   3.312   3.895   9.896 -0.4573 -0.7723 -0.0705
  394TMC3    O2 5950   2.963   3.638   9.822 -1.1081  0.1576  0.1692
  395TMC3    C1 5951   2.967   0.659  14.545  0.6004  0.0953 -0.1762
  395TMC3    C2 5952   2.841   0.705  14.577 -0.4652  0.6943 -0.3296
  395TMC3    C3 5953   2.816   0.784  14.685 -0.0901  0.2887  0.2214
  395TMC3    C4 5954   3.069   0.707  14.622  0.1357 -0.7936  0.1609
  395TMC3    C5 5955   3.050   0.799  14.722 -0.5696 -0.2603  0.0463
  395TMC3    C6 5956   2.919   0.832  14.762  0.0910  0.1714 -0.9501
  395TMC3     C 5957   2.967   0.516  14.554 -0.2490  0.2960 -0.9250
  395TMC3     O 5958   3.022   0.450  14.639 -0.2897 -0.0639  0.0625
  395TMC3     H 5959   2.750   0.675  14.526  0.5335 -0.8022 -1.2008
  395TMC3    H1 5960   3.167   0.671  14.591  0.2966 -0.3786  0.1957
  395TMC3    H2 5961   2.900   0.893  14.849  1.3787 -1.7111  0.6356
  395TMC3    C7 5962   3.147   0.837  14.817 -0.2728 -0.4595 -0.3378
  395TMC3    C8 5963   2.699   0.763  14.770  0.2190  0.1873 -0.4708
  395TMC3    O1 5964   3.118   0.844  14.936  0.1096  0.0545 -0.2683
  395TMC3    O2 5965   2.702   0.806  14.881  0.2391  0.2171  0.5401
  396MPD2     C 5966   3.384   1.923  16.057 -0.1707 -0.2758 -0.4810
  396MPD2    C1 5967   3.444   1.951  16.177 -0.1611 -0.5090  0.5214
  396MPD2    C2 5968   3.422   2.071  16.240  0.3439  1.1521 -0.6333
  396MPD2    C3 5969   3.333   2.158  16.181  0.0777 -0.3446  0.0062
  396MPD2    C4 5970   3.266   2.129  16.065  0.1316  0.1723 -0.3621
  396MPD2    C5 5971   3.282   2.005  16.011 -0.8095 -0.8595  0.3752
  396MPD2     H 5972   3.467   2.096  16.336 -0.6290  1.7125 -0.3143
  396MPD2    H1 5973   3.200   2.205  16.023  0.2883 -0.1561 -1.1878
  396MPD2    H2 5974   3.405   1.837  15.995  1.4562  0.6430 -1.2001
  396MPD2    H3 5975   3.233   1.975  15.919  1.7496  0.3336 -1.3915
  396MPD2     N 5976   3.314   2.288  16.232  0.8796 -0.0306 -0.2734
  396MPD2    H5 5977   3.235   2.341  16.195  1.7547 -0.5058 -2.8005
  396MPD2    N1 5978   3.545   1.861  16.225  0.0043  0.0884  0.3056
  396MPD2    H7 5979   3.562   1.780  16.166 -0.2162  1.1737 -1.2682
  397TMC3    C1 5980   3.655   1.724  16.379 -0.6343  0.2554  0.4628
  397TMC3    C2 5981   3.676   1.649  16.267 -0.1994 -0.1432  0.3855
  397TMC3    C3 5982   3.615   1.533  16.249  0.5639  0.1952  0.7686
  397TMC3    C4 5983   3.570   1.677  16.473 -0.3449  0.3400  0.1722
  397TMC3    C5 5984   3.510   1.554  16.461  0.4242  0.3460  0.9936
  397TMC3    C6 5985   3.526   1.487  16.344 -0.1934 -0.1018 -0.5189
  397TMC3     C 5986   3.602   1.858  16.351  1.1516  0.8911  0.2034
  397TMC3     O 5987   3.599   1.940  16.443 -0.6322 -0.1826  0.7409
  397TMC3     H 5988   3.741   1.684  16.187  0.6359  0.1964  1.2070
  397TMC3    H1 5989   3.548   1.735  16.562  0.8496  0.1255  0.6157
  397TMC3    H2 5990   3.469   1.398  16.319 -0.4982 -0.5904  1.9301
  397TMC3    C7 5991   3.372   1.556  16.491  0.1887 -0.0156 -0.6685
  397TMC3    C8 5992   3.548   1.534  16.116  0.4192  0.4511 -0.0344
  397TMC3    O1 5993   3.294   1.560  16.399 -0.2478  0.7320  0.3325
  397TMC3    O2 5994   3.533   1.646  16.068 -0.5460 -0.2470  0.1497
  398MPD2     C 5995   1.021   3.021   0.143 -0.2577 -0.6720  0.4100
  398MPD2    C1 5996   1.141   2.973   0.197 -0.3606 -0.0485  0.0028
  398MPD2    C2 5997   1.223   3.055   0.271  0.1510  0.2355  0.3567
  398MPD2    C3 5998   1.191   3.191   0.280  0.3614  0.1484  0.2977
  398MPD2    C4 5999   1.085   3.245   0.214 -0.0922  0.3880 -0.0306
  398MPD2    C5 6000   0.997   3.155   0.143  0.7186 -0.4298  0.1856
  398MPD2     H 6001   1.296   3.000   0.329 -0.7489 -1.4978 -0.1410
  398MPD2    H1 6002   1.055   3.349   0.222 -0.3293  0.0357  3.5497
  398MPD2    H2 6003   0.948   2.959   0.092 -0.4308  0.0090 -0.1669
  398MPD2    H3 6004   0.907   3.199   0.101  0.7507  1.3385  2.0044
  398MPD2     N 6005   1.287   3.274   0.344 -0.6720 -0.3272  0.4437
  398MPD2    H5 6006   1.366   3.230   0.390  1.3980  1.7903 -1.0389
  398MPD2    N1 6007   1.179   2.834   0.189 -0.0809  0.0610 -0.4336
  398MPD2    H7 6008   1.262   2.808   0.241 -1.7984 -1.5539  1.5018
  399TMC3    C1 6009   1.185   2.615   0.116 -0.3834  0.5536  0.1499
  399TMC3    C2 6010   1.312   2.603   0.149  0.1905  0.1625 -0.5981
  399TMC3    C3 6011   1.366   2.481   0.166 -0.1749  0.4238  0.0306
  399TMC3    C4 6012   1.109   2.505   0.092 -0.7790 -0.8529 -0.6370
  399TMC3    C5 6013   1.162   2.383   0.112  0.1513  0.7074  0.1821
  399TMC3    C6 6014   1.290   2.369   0.155  0.7785 -0.2822 -0.1730
  399TMC3     C 6015   1.120   2.744   0.107 -1.0554 -0.5243 -0.2434
  399TMC3     O 6016   1.020   2.758   0.036 -0.6241 -0.1755  0.2392
  399TMC3     H 6017   1.375   2.691   0.155  0.8564 -0.4508  1.1821
  399TMC3    H1 6018   1.002   2.517   0.080 -0.8225  2.6343  3.2310
  399TMC3    H2 6019   1.326   2.267   0.167 -0.5251 -0.4712  2.0759
  399TMC3    C7 6020   1.077   2.268   0.119 -0.1115 -0.2777  0.0714
  399TMC3    C8 6021   1.506   2.479   0.171  0.1216  0.6602 -0.4779
  399TMC3    O1 6022   1.140   2.166   0.147  0.2906 -0.1076  0.1689
  399TMC3    O2 6023   1.557   2.580   0.222  0.0759  0.3588  0.3559
  400TMC3    C1 6024   4.467   1.126  16.690  0.0966 -0.6061  0.3791
  400TMC3    C2 6025   4.349   1.056  16.686  0.2483  0.7812  0.4043
  400TMC3    C3 6026   4.240   1.112  16.621  0.2348  0.1049 -1.0143
  400TMC3    C4 6027   4.480   1.239  16.623  0.0839 -0.1191  0.7700
  400TMC3    C5 6028   4.365   1.296  16.569  0.2153  0.6109 -0.2711
  400TMC3    C6 6029   4.242   1.231  16.567  0.1060 -0.1490  0.8591
  400TMC3     C 6030   4.572   1.085  16.780  0.5807 -0.1245 -0.3427
  400TMC3     O 6031   4.552   0.973  16.821  0.2449 -0.0728 -0.1800
  400TMC3     H 6032   4.333   0.965  16.743  0.7853 -0.5415 -1.5565
  400TMC3    H1 6033   4.572   1.296  16.623 -0.4381  0.7232  0.6744
  400TMC3    H2 6034   4.155   1.276  16.521  0.5134 -1.2718 -0.9914
  400TMC3    C7 6035   4.355   1.429  16.508 -0.5568  0.4652 -0.1314
  400TMC3    C8 6036   4.120   1.046  16.589 -0.5425  1.1327  0.1814
  400TMC3    O1 6037   4.258   1.451  16.437  0.1766 -0.4832 -0.3986
  400TMC3    O2 6038   4.017   1.115  16.589 -0.2311  0.4138 -0.1227
  401MPD2     C 6039   2.702   0.166   0.196  0.2207 -0.0071 -0.0435
  401MPD2    C1 6040   2.730   0.091   0.312 -0.0131  0.1463 -0.2425
  401MPD2    C2 6041   2.721   4.693   0.309 -0.1989  0.7270  0.2555
  401MPD2    C3 6042   2.652   4.635   0.202 -0.1878 -0.4301 -0.0660
  401MPD2    C4 6043   2.619   4.711   0.092  0.0823 -0.1685 -1.1768
  401MPD2    C5 6044   2.643   0.106   0.087  0.3565 -0.4484 -0.1046
  401MPD2     H 6045   2.751   4.627   0.390  0.4390  1.1207  0.3370
  401MPD2    H1 6046   2.570   4.663   0.008 -0.8494  0.0758 -0.7670
  401MPD2    H2 6047   2.717   0.274   0.203  0.8776 -0.1483  0.7946
  401MPD2    H3 6048   2.621   0.162  17.758 -1.1003 -0.9507 -0.0639
  401MPD2     N 6049   2.607   4.495   0.213 -0.7522 -0.1942  0.4432
  401MPD2    H5 6050   2.626   4.447   0.300 -1.8755  1.4980  1.6051
  401MPD2    N1 6051   2.792   0.150   0.425 -0.0586 -0.1874 -0.1456
  401MPD2    H7 6052   2.809   0.086   0.502  0.0993  0.3928  0.3033
  402TMC3    C1 6053   2.506   4.304   0.173 -0.9353 -0.2740  0.5437
  402TMC3    C2 6054   2.453   4.303   0.301 -0.0715 -0.5045 -0.1119
  402TMC3    C3 6055   2.429   4.183   0.370  0.0619  0.1867 -0.1973
  402TMC3    C4 6056   2.540   4.178   0.121 -0.5715 -0.0907 -0.0053
  402TMC3    C5 6057   2.515   4.063   0.194  0.5942 -0.6172 -0.5971
  402TMC3    C6 6058   2.460   4.065   0.320 -0.0291 -0.8542 -0.4710
  402TMC3     C 6059   2.550   4.426   0.113 -0.0146  0.0751  0.9713
  402TMC3     O 6060   2.537   4.444  17.755  0.0882 -0.2795 -0.0775
  402TMC3     H 6061   2.422   4.396   0.348 -0.3983 -0.8218  0.2972
  402TMC3    H1 6062   2.588   4.181   0.025  1.3179  0.3141  0.9608
  402TMC3    H2 6063   2.439   3.974   0.373 -0.3616  0.2226  1.2382
  402TMC3    C7 6064   2.566   3.929   0.144 -0.8618  0.7271 -0.0709
  402TMC3    C8 6065   2.459   4.188   0.511  0.6355  0.1022  0.9628
  402TMC3    O1 6066   2.482   3.846   0.171 -0.8329 -0.3774  0.8123
  402TMC3    O2 6067   2.518   4.097   0.566  0.0798 -0.4837  0.3896
  403MPD2     C 6068   1.100   2.922  12.975  0.0154 -0.2925 -0.3586
  403MPD2    C1 6069   1.005   2.939  13.076 -1.1885  0.2952 -0.0631
  403MPD2    C2 6070   1.045   2.920  13.211  0.5052 -0.3143  0.2026
  403MPD2    C3 6071   1.178   2.873  13.231 -0.4499  0.5794  0.8371
  403MPD2    C4 6072   1.273   2.867  13.124  0.5177  0.4112 -0.1062
  403MPD2    C5 6073   1.228   2.890  12.993 -0.1294  0.1976  0.2853
  403MPD2     H 6074   0.974   2.930  13.292 -0.8050  2.1294 -1.2337
  403MPD2    H1 6075   1.373   2.826  13.131  1.2962  1.9777 -2.3670
  403MPD2    H2 6076   1.074   2.940  12.871 -3.3482  1.1786  0.7617
  403MPD2    H3 6077   1.287   2.879  12.903  0.3423  1.8120  0.3936
  403MPD2     N 6078   1.214   2.838  13.363 -0.2247  0.5265  0.7502
  403MPD2    H5 6079   1.149   2.869  13.435 -0.3352  0.5402  0.6442
  403MPD2    N1 6080   0.877   2.982  13.028  0.2803  0.4651  0.5519
  403MPD2    H7 6081   0.862   2.998  12.929 -1.6027  3.0030  1.2368
  404TMC3    C1 6082   0.641   2.988  13.040 -0.1908 -0.5880 -0.1699
  404TMC3    C2 6083   0.530   2.924  13.094 -0.1627 -0.5742  0.5655
  404TMC3    C3 6084   0.412   2.940  13.017 -0.8931  0.3709  0.0616
  404TMC3    C4 6085   0.639   3.067  12.928  0.0309  0.7533 -0.4726
  404TMC3    C5 6086   0.521   3.074  12.857  0.6261 -0.2401  0.7025
  404TMC3    C6 6087   0.407   3.012  12.901 -0.9425 -0.2038  0.2669
  404TMC3     C 6088   0.768   2.977  13.110  0.5361  0.2298 -0.2583
  404TMC3     O 6089   0.761   2.925  13.221  0.1119  0.1966 -0.5402
  404TMC3     H 6090   0.542   2.854  13.175 -1.5496 -3.3758 -1.6257
  404TMC3    H1 6091   0.731   3.107  12.887  1.5516 -2.0720  0.2194
  404TMC3    H2 6092   0.310   3.032  12.858  0.6841  0.0991 -3.2416
  404TMC3    C7 6093   0.528   3.144  12.739 -0.1149 -1.2038 -0.6380
  404TMC3    C8 6094   0.300   2.849  13.041 -0.0435 -0.2846  0.0284
  404TMC3    O1 6095   0.622   3.221  12.715  0.1230  0.1613  0.0850
  404TMC3    O2 6096   0.226   2.839  12.946 -0.5162  0.1948  0.4229
  405MPD2     C 6097   1.459   2.997  14.516 -0.2895 -1.2047  0.2283
  405MPD2    C1 6098   1.483   2.935  14.397 -0.2760 -0.2990 -0.1317
  405MPD2    C2 6099   1.397   2.966  14.289  0.0249  0.9028 -0.6346
  405MPD2    C3 6100   1.285   3.052  14.313 -0.1682  0.4521  0.0955
  405MPD2    C4 6101   1.273   3.113  14.435 -0.4653 -0.5799 -0.6447
  405MPD2    C5 6102   1.359   3.084  14.530 -0.5886 -0.0413 -0.4499
  405MPD2     H 6103   1.403   2.914  14.194  1.1107  0.8450 -0.5362
  405MPD2    H1 6104   1.197   3.188  14.454  0.2231  0.1345 -0.6940
  405MPD2    H2 6105   1.532   2.980  14.593  1.7084  3.7041 -0.5766
  405MPD2    H3 6106   1.353   3.138  14.624  1.8851  2.2579 -1.5996
  405MPD2     N 6107   1.191   3.079  14.216 -0.0401 -0.2540 -0.2199
  405MPD2    H5 6108   1.215   3.062  14.119  0.7087 -1.3180  0.1521
  405MPD2    N1 6109   1.589   2.833  14.395  0.1608 -0.4044 -0.0982
  405MPD2    H7 6110   1.624   2.801  14.485 -0.2467 -0.2847  0.1022
  406TMC3    C1 6111   0.763   3.130  14.028 -0.3724 -0.0311  0.2093
  406TMC3    C2 6112   0.784   3.033  13.933 -0.4370  0.2982 -0.7859
  406TMC3    C3 6113   0.914   2.994  13.923 -1.1232  0.2471  0.7018
  406TMC3    C4 6114   0.860   3.169  14.122  0.9671  0.7001  0.1328
  406TMC3    C5 6115   0.983   3.119  14.110 -0.2810  0.2212  0.1242
  406TMC3    C6 6116   1.011   3.024  14.017 -0.0152 -0.0912  0.4160
  406TMC3     C 6117   0.621   3.178  14.038 -0.0923 -0.2794 -0.0848
  406TMC3     O 6118   0.566   3.174  13.933  0.1691  0.5483  0.5401
  406TMC3     H 6119   0.717   2.985  13.863  1.3451 -0.0753 -2.2573
  406TMC3    H1 6120   0.854   3.254  14.189  1.6673 -0.9463  2.2575
  406TMC3    H2 6121   1.105   2.970  14.016 -0.0607 -0.0704 -3.4120
  406TMC3    C7 6122   1.054   3.110  14.232 -0.2899 -0.5475 -0.5495
  406TMC3    C8 6123   0.937   2.862  13.858  0.5407  0.7121 -0.1806
  406TMC3    O1 6124   0.991   3.137  14.334 -0.0321 -0.5626 -0.3297
  406TMC3    O2 6125   0.900   2.842  13.747  0.6753  0.6189  0.7327
  407MPD2     C 6126   3.536   0.767   9.710  0.1853 -0.2202 -0.7210
  407MPD2    C1 6127   3.634   0.855   9.657 -0.0014 -0.0519  0.2353
  407MPD2    C2 6128   3.672   0.961   9.735 -0.0757  0.1148 -0.2857
  407MPD2    C3 6129   3.613   0.988   9.855  0.3263  0.5643  0.1620
  407MPD2    C4 6130   3.523   0.891   9.911  1.1209 -0.7123 -0.3891
  407MPD2    C5 6131   3.480   0.790   9.830  0.2303  0.7861  1.0653
  407MPD2     H 6132   3.755   1.019   9.695  0.4900 -1.5064 -1.4787
  407MPD2    H1 6133   3.470   0.912  10.003 -0.1065 -2.0279 -0.8075
  407MPD2    H2 6134   3.506   0.679   9.654 -1.5327 -0.2132  0.1764
  407MPD2    H3 6135   3.399   0.723   9.860  0.7237 -0.5571 -0.6072
  407MPD2     N 6136   3.659   1.103   9.926 -0.6688 -0.3401  0.2216
  407MPD2    H5 6137   3.684   1.179   9.864  0.2269  0.7341  1.9058
  407MPD2    N1 6138   3.701   0.837   9.528 -0.1550 -0.6192 -0.2790
  407MPD2    H7 6139   3.783   0.894   9.515 -0.8446  0.5432  0.4525
  408TMC3    C1 6140   3.801   0.740   9.346  0.8425 -0.1971 -0.1035
  408TMC3    C2 6141   3.860   0.619   9.319  0.6186 -0.2222 -0.5063
  408TMC3    C3 6142   3.986   0.623   9.275 -0.2917  0.2701 -0.0555
  408TMC3    C4 6143   3.855   0.856   9.320 -0.2207 -0.3256 -0.1108
  408TMC3    C5 6144   3.986   0.857   9.279  0.1330 -0.2452 -0.2532
  408TMC3    C6 6145   4.056   0.739   9.254  0.1041 -0.2604  0.7655
  408TMC3     C 6146   3.686   0.736   9.432  0.7638  0.1234  0.3188
  408TMC3     O 6147   3.614   0.637   9.444 -0.1124 -0.0192 -0.4141
  408TMC3     H 6148   3.811   0.527   9.345  0.2079  0.5034  1.2704
  408TMC3    H1 6149   3.801   0.948   9.337 -1.1954 -0.8439 -0.4159
  408TMC3    H2 6150   4.160   0.753   9.227 -0.7628 -0.0201 -2.4220
  408TMC3    C7 6151   4.072   0.957   9.327 -0.1182 -0.1868  0.3360
  408TMC3    C8 6152   4.070   0.506   9.304 -0.1934  0.4115 -0.1974
  408TMC3    O1 6153   4.175   0.919   9.380  0.2061 -0.3939  0.0223
  408TMC3    O2 6154   4.020   0.392   9.309 -0.1029 -0.0488  0.0393
  409MPD2     C 6155   3.362   1.102  16.890  0.3357  0.4117 -0.6266
  409MPD2    C1 6156   3.477   1.072  16.953  0.5782  0.4141 -0.1881
  409MPD2    C2 6157   3.596   1.131  16.916 -0.4178 -0.2718 -0.3775
  409MPD2    C3 6158   3.594   1.239  16.832  0.0823  0.3651  0.1129
  409MPD2    C4 6159   3.471   1.279  16.779 -0.2416 -1.2415 -0.8734
  409MPD2    C5 6160   3.359   1.205  16.800  0.4442  0.0469  0.3595
  409MPD2     H 6161   3.678   1.114  16.985 -1.2189 -0.5375  0.5114
  409MPD2    H1 6162   3.466   1.369  16.719 -0.4704 -2.0969 -2.1355
  409MPD2    H2 6163   3.264   1.059  16.911 -0.0895  0.7731 -1.8473
  409MPD2    H3 6164   3.264   1.234  16.757 -0.1179  1.6635  2.6472
  409MPD2     N 6165   3.708   1.312  16.806  0.3563 -0.1893  0.3060
  409MPD2    H5 6166   3.703   1.393  16.744 -1.0008  0.7077  1.5896
  409MPD2    N1 6167   3.491   0.979  17.057  0.1162  0.2953 -0.1474
  409MPD2    H7 6168   3.580   0.964  17.103 -0.1745  0.7293  0.5612
  410TMC3    C1 6169   3.932   1.395  16.816 -0.2133 -0.4272  0.0149
  410TMC3    C2 6170   4.052   1.389  16.886  0.1330  0.4036 -0.4951
  410TMC3    C3 6171   4.156   1.470  16.841 -1.2311 -0.7576 -1.2685
  410TMC3    C4 6172   3.910   1.485  16.717  0.0047 -0.3819  0.6082
  410TMC3    C5 6173   4.014   1.562  16.677 -0.8863  0.3237 -0.3933
  410TMC3    C6 6174   4.131   1.566  16.748  0.0742 -0.0656 -0.2119
  410TMC3     C 6175   3.842   1.280  16.840 -0.1009  0.1307  0.3679
  410TMC3     O 6176   3.880   1.188  16.911 -0.1481 -0.3198  0.2789
  410TMC3     H 6177   4.056   1.337  16.982  0.4997  1.6685  0.1762
  410TMC3    H1 6178   3.823   1.476  16.654  0.4966 -0.6320 -0.0379
  410TMC3    H2 6179   4.206   1.636  16.713 -1.1917  1.9779  1.1085
  410TMC3    C7 6180   3.979   1.656  16.576  0.1859  0.6081  0.5553
  410TMC3    C8 6181   4.280   1.475  16.908 -0.4856 -0.1660 -0.5425
  410TMC3    O1 6182   3.875   1.715  16.591 -0.0108 -0.5694  0.2186
  410TMC3    O2 6183   4.356   1.561  16.876  0.6039 -0.0185 -0.3351
  411MPD2     C 6184   3.865   1.439  14.806  0.4125  0.5866 -0.1193
  411MPD2    C1 6185   3.801   1.448  14.681  0.2017  0.7895  0.3633
  411MPD2    C2 6186   3.738   1.339  14.631 -0.2134  0.0773  0.4075
  411MPD2    C3 6187   3.774   1.219  14.679  0.2277  0.3847 -1.2143
  411MPD2    C4 6188   3.853   1.205  14.796 -0.4556 -0.0196  1.0768
  411MPD2    C5 6189   3.893   1.318  14.858 -0.1580 -0.0286  0.6516
  411MPD2     H 6190   3.675   1.350  14.544 -0.7738  4.4824  1.4045
  411MPD2    H1 6191   3.877   1.112  14.845 -1.0516 -1.3158 -1.0674
  411MPD2    H2 6192   3.890   1.527  14.864  1.7706  0.6308 -0.7589
  411MPD2    H3 6193   3.926   1.312  14.961  0.6646 -2.6415  0.2564
  411MPD2     N 6194   3.725   1.091  14.633  0.8256  0.1443  0.3542
  411MPD2    H5 6195   3.749   1.007  14.685  0.4160 -0.1358  0.0876
  411MPD2    N1 6196   3.766   1.573  14.644  0.1151  0.6453  0.2081
  411MPD2    H7 6197   3.787   1.646  14.712  1.9014  0.2584  0.0781
  412TMC3    C1 6198   3.668   0.936  14.449 -0.2655  0.1066 -0.2742
  412TMC3    C2 6199   3.576   0.912  14.350 -0.5619  0.1342  0.4712
  412TMC3    C3 6200   3.588   0.815  14.258 -1.3106  0.0535  0.4019
  412TMC3    C4 6201   3.798   0.877  14.436 -0.4006  0.0486 -0.4008
  412TMC3    C5 6202   3.811   0.784  14.336  0.6464  0.4351 -0.2047
  412TMC3    C6 6203   3.711   0.753  14.246 -0.0156  0.8701 -0.5541
  412TMC3     C 6204   3.663   1.069  14.510  0.1477  0.5572  0.0241
  412TMC3     O 6205   3.627   1.159  14.439  0.0027 -0.7054 -0.9375
  412TMC3     H 6206   3.493   0.981  14.344  0.7748  1.8666  2.0769
  412TMC3    H1 6207   3.883   0.903  14.498 -1.4046  0.0301  0.9896
  412TMC3    H2 6208   3.724   0.685  14.164 -0.0101  1.0375 -0.6925
  412TMC3    C7 6209   3.946   0.766  14.283 -0.2516 -0.0156 -0.7447
  412TMC3    C8 6210   3.508   0.840  14.150 -0.5888  0.5528 -0.4680
  412TMC3    O1 6211   3.983   0.654  14.255 -0.2937 -0.4231 -0.3875
  412TMC3    O2 6212   3.388   0.830  14.157 -0.0963 -0.0573  0.1018
  413MPD2     C 6213   0.603   4.013  15.533 -0.1236 -0.2849  0.0950
  413MPD2    C1 6214   0.518   3.973  15.436 -1.3876 -0.2769  0.2129
  413MPD2    C2 6215   0.540   3.851  15.374  0.2932 -0.2465 -0.1466
  413MPD2    C3 6216   0.656   3.775  15.391 -0.2150 -0.1405 -0.0470
  413MPD2    C4 6217   0.751   3.828  15.475  0.2022 -0.0395 -0.2872
  413MPD2    C5 6218   0.721   3.941  15.548 -0.5171  0.1704 -0.1965
  413MPD2     H 6219   0.469   3.818  15.300  0.8143  0.7135 -1.0754
  413MPD2    H1 6220   0.842   3.776  15.502  0.7696  1.7467  1.2837
  413MPD2    H2 6221   0.577   4.099  15.594  0.3476  1.3880 -2.0401
  413MPD2    H3 6222   0.805   3.963  15.613  0.2217 -2.5247 -0.2064
  413MPD2     N 6223   0.664   3.646  15.324  0.2965 -0.1108  0.3451
  413MPD2    H5 6224   0.598   3.624  15.250  1.9524 -1.7767 -0.6433
  413MPD2    N1 6225   0.401   4.050  15.429  0.3675  0.0505 -0.0063
  413MPD2    H7 6226   0.397   4.133  15.488  0.8439  1.9037 -2.5995
  414TMC3    C1 6227   0.729   3.435  15.256  0.1645 -0.0794  0.4147
  414TMC3    C2 6228   0.737   3.311  15.315  0.0246  0.1938  0.5191
  414TMC3    C3 6229   0.672   3.215  15.240 -0.3934  0.8519  0.2786
  414TMC3    C4 6230   0.683   3.464  15.128  1.0240 -0.1521 -0.0035
  414TMC3    C5 6231   0.635   3.366  15.057  0.1195  0.1410  0.5278
  414TMC3    C6 6232   0.621   3.239  15.114 -0.3192  0.4975  0.5928
  414TMC3     C 6233   0.755   3.546  15.345 -0.7088  0.6572  0.4002
  414TMC3     O 6234   0.848   3.537  15.424 -0.1252 -0.6011  0.2794
  414TMC3     H 6235   0.757   3.304  15.421 -0.6261  0.7845  0.6825
  414TMC3    H1 6236   0.682   3.563  15.085  2.6660  0.1131  0.5788
  414TMC3    H2 6237   0.566   3.166  15.056  1.7387  0.5177 -1.4165
  414TMC3    C7 6238   0.708   3.357  14.930 -0.4052  0.0552 -0.0796
  414TMC3    C8 6239   0.721   3.082  15.256  0.4265 -0.3071  0.7898
  414TMC3    O1 6240   0.659   3.302  14.832 -0.5167 -0.3629 -0.4645
  414TMC3    O2 6241   0.640   3.004  15.198 -0.0352 -0.0008 -0.2075
  415TMC3    C1 6242   1.611   3.268  10.084  0.9236 -1.0622 -0.4352
  415TMC3    C2 6243   1.742   3.310  10.073 -0.5905 -0.0642  0.0255
  415TMC3    C3 6244   1.818   3.253   9.975 -0.4276 -0.8080 -0.0691
  415TMC3    C4 6245   1.562   3.157  10.022  0.0599 -0.7475 -0.0171
  415TMC3    C5 6246   1.652   3.086   9.945  0.7873  0.4616 -0.3163
  415TMC3    C6 6247   1.778   3.138   9.920  0.5884 -0.0637 -0.2315
  415TMC3     C 6248   1.531   3.364  10.153 -0.1574 -0.6520 -0.2353
  415TMC3     O 6249   1.589   3.462  10.202  0.3408 -0.6058 -0.7934
  415TMC3     H 6250   1.784   3.381  10.143  3.0512 -1.1869 -1.0358
  415TMC3    H1 6251   1.456   3.138  10.032  0.3660 -2.2634  0.2924
  415TMC3    H2 6252   1.847   3.089   9.852  0.4751 -1.4521  0.6574
  415TMC3    C7 6253   1.625   2.949   9.912  0.3508  0.2675  0.3546
  415TMC3    C8 6254   1.954   3.286   9.955  0.2842 -0.2847 -0.2812
  415TMC3    O1 6255   1.713   2.894   9.853  0.3506 -0.4862  0.8314
  415TMC3    O2 6256   2.030   3.221   9.886  0.3263  0.0672 -0.6311
  416MPD2     C 6257   3.243   1.451  11.766 -0.7202  0.0419 -0.1796
  416MPD2    C1 6258   3.155   1.524  11.682  0.2134  0.1925 -0.0570
  416MPD2    C2 6259   3.159   1.498  11.550  0.1784  0.0347  0.3890
  416MPD2    C3 6260   3.231   1.388  11.496 -0.2149  0.6147  0.3885
  416MPD2    C4 6261   3.308   1.313  11.582  0.6174 -0.0764  0.2815
  416MPD2    C5 6262   3.315   1.346  11.714  0.1297 -0.0529 -0.6686
  416MPD2     H 6263   3.092   1.552  11.484  0.1777 -1.8611 -1.1499
  416MPD2    H1 6264   3.354   1.218  11.556 -1.8345 -0.6074 -2.0605
  416MPD2    H2 6265   3.252   1.475  11.872 -0.1259  0.4282 -0.3169
  416MPD2    H3 6266   3.387   1.295  11.778 -1.3015 -1.3612 -0.0983
  416MPD2     N 6267   3.218   1.348  11.363 -0.0956 -0.7120 -0.0327
  416MPD2    H5 6268   3.261   1.257  11.349  1.6670 -0.1178  1.4790
  416MPD2    N1 6269   3.073   1.621  11.737  0.2575  0.1802 -0.1766
  416MPD2    H7 6270   3.093   1.645  11.833 -0.7471  1.3937 -0.2677
  417TMC3    C1 6271   2.881   1.763  11.770  0.4692 -0.2426 -0.6633
  417TMC3    C2 6272   2.891   1.755  11.904 -0.2614 -0.3677  0.4299
  417TMC3    C3 6273   2.819   1.843  11.980  0.5977  0.1061  0.0967
  417TMC3    C4 6274   2.792   1.855  11.710 -0.1035  0.2990 -0.5100
  417TMC3    C5 6275   2.715   1.939  11.793 -0.0502 -0.2908  0.1945
  417TMC3    C6 6276   2.733   1.937  11.929 -0.2415 -0.3899  0.5821
  417TMC3     C 6277   2.963   1.684  11.685  0.2542  0.2759  0.5309
  417TMC3     O 6278   2.942   1.689  11.564  0.1256 -0.8523  0.3076
  417TMC3     H 6279   2.949   1.678  11.954  0.8029 -1.7293 -2.8597
  417TMC3    H1 6280   2.783   1.864  11.602  2.0333  1.1414 -0.6319
  417TMC3    H2 6281   2.680   2.010  11.988 -2.2000 -1.4706  0.1474
  417TMC3    C7 6282   2.627   2.041  11.739 -0.6071 -0.5191  0.3171
  417TMC3    C8 6283   2.863   1.883  12.111  0.0299  0.2989 -0.0169
  417TMC3    O1 6284   2.656   2.086  11.631 -0.0462 -0.0919 -0.9806
  417TMC3    O2 6285   2.781   1.949  12.171  0.3010  0.3123  0.8665
  418TMC3    C1 6286   1.628   3.496   0.365  0.4451  0.1001  0.4771
  418TMC3    C2 6287   1.494   3.517   0.346  0.0160  0.1012 -0.3106
  418TMC3    C3 6288   1.408   3.453   0.422  0.0649  0.1990 -0.0129
  418TMC3    C4 6289   1.684   3.408   0.463 -0.2420  0.2682  0.2035
  418TMC3    C5 6290   1.590   3.356   0.546  0.1503 -0.4667  0.1060
  418TMC3    C6 6291   1.455   3.373   0.522  0.2791 -0.5770 -0.0515
  418TMC3     C 6292   1.718   3.595   0.316  0.4790  0.2420  0.8464
  418TMC3     O 6293   1.665   3.706   0.306 -0.1477  0.3372 -0.0709
  418TMC3     H 6294   1.463   3.576   0.262 -1.2666 -1.2615 -0.8002
  418TMC3    H1 6295   1.789   3.410   0.491  0.2471 -0.7956 -1.6190
  418TMC3    H2 6296   1.393   3.305   0.580  1.8529 -1.5563  0.4912
  418TMC3    C7 6297   1.633   3.302   0.678  0.1004  0.7742 -0.4908
  418TMC3    C8 6298   1.291   3.407   0.346  0.2305  0.3215  0.2196
  418TMC3    O1 6299   1.570   3.334   0.779 -0.1141 -0.3174  0.6598
  418TMC3    O2 6300   1.228   3.490   0.285 -0.1263 -0.5056 -0.2026
  419MPD2     C 6301   0.069   1.488  12.122 -0.1721  0.2829 -0.2498
  419MPD2    C1 6302   0.027   1.615  12.144  0.9658 -0.1241  0.2947
  419MPD2    C2 6303   0.022   1.657  12.282  0.8418  0.3501 -0.8036
  419MPD2    C3 6304   0.062   1.579  12.385  0.5659  0.0010 -0.2748
  419MPD2    C4 6305   0.131   1.466  12.354  0.3793  0.5917  0.4756
  419MPD2    C5 6306   0.130   1.420  12.223 -0.5068 -0.3689 -0.1826
  419MPD2     H 6307   4.718   1.754  12.302  0.6360  0.0795  0.0287
  419MPD2    H1 6308   0.174   1.400  12.428  2.3739  2.9437  1.4256
  419MPD2    H2 6309   0.057   1.444  12.024 -0.7214 -2.2025  0.9149
  419MPD2    H3 6310   0.180   1.325  12.209 -1.1894 -0.7449 -0.0325
  419MPD2     N 6311   0.055   1.637  12.513  0.1701  0.3890 -0.1230
  419MPD2    H5 6312   0.023   1.733  12.506  4.6294  1.7048 -2.2478
  419MPD2    N1 6313   4.719   1.715  12.051  0.4681  1.0330  0.0154
  419MPD2    H7 6314   4.672   1.799  12.084 -0.7604 -0.5087  2.1799
  420TMC3    C1 6315   0.040   1.653  12.736  0.0936  0.8065  0.6218
  420TMC3    C2 6316   4.669   1.732  12.734 -0.2737  1.2164  0.0582
  420TMC3    C3 6317   4.647   1.807  12.843  0.3799  0.4414 -0.4136
  420TMC3    C4 6318   0.134   1.656  12.833  0.1005  0.0787 -0.2991
  420TMC3    C5 6319   0.115   1.749  12.934 -0.7887 -0.3921  0.1529
  420TMC3    C6 6320   4.736   1.814  12.947 -0.2559  0.3006  0.3351
  420TMC3     C 6321   0.069   1.566  12.629  0.3639  0.1485  0.5737
  420TMC3     O 6322   0.126   1.459  12.657  0.1343  0.2530 -0.1014
  420TMC3     H 6323   4.597   1.739  12.654  1.6362 -2.2911 -1.9228
  420TMC3    H1 6324   0.225   1.598  12.826 -0.8393 -1.1366 -2.4143
  420TMC3    H2 6325   4.712   1.859  13.043 -1.4265  0.5486 -0.0735
  420TMC3    C7 6326   0.210   1.758  13.051 -0.2512  0.9527 -0.4556
  420TMC3    C8 6327   4.520   1.877  12.854 -0.3078 -0.4566  0.4149
  420TMC3    O1 6328   0.298   1.674  13.054  0.3801 -0.0127  0.2213
  420TMC3    O2 6329   4.473   1.929  12.755 -0.0190 -0.1382 -0.2063
  421TMC3    C1 6330   1.367   2.786  13.537  0.5574  0.7065 -0.3325
  421TMC3    C2 6331   1.338   2.903  13.600 -0.3110  0.3455  0.9942
  421TMC3    C3 6332   1.364   2.912  13.735  0.5020  0.1602 -0.9068
  421TMC3    C4 6333   1.447   2.690  13.594 -0.2447 -0.7036 -0.0382
  421TMC3    C5 6334   1.475   2.699  13.723 -0.6281  0.0943  0.6196
  421TMC3    C6 6335   1.432   2.805  13.792  0.2653  0.0352 -0.0688
  421TMC3     C 6336   1.326   2.770  13.399 -0.1699 -0.5232  0.0788
  421TMC3     O 6337   1.398   2.696  13.332 -0.1738  0.5580  0.2015
  421TMC3     H 6338   1.282   2.977  13.544 -0.0344  0.5765  1.0223
  421TMC3    H1 6339   1.454   2.594  13.544 -1.9262 -0.1333 -1.3544
  421TMC3    H2 6340   1.459   2.810  13.897 -2.2220 -0.3365  0.5835
  421TMC3    C7 6341   1.578   2.618  13.788 -0.2128 -0.4339 -0.3216
  421TMC3    C8 6342   1.312   3.025  13.815  0.2025 -0.2510  0.4187
  421TMC3    O1 6343   1.639   2.671  13.879 -0.5430  0.1292  0.2032
  421TMC3    O2 6344   1.343   3.030  13.933 -0.2859 -0.0260  0.2113
  422TMC3    C1 6345   3.997   4.580  12.576 -0.1632 -0.9857  0.1266
  422TMC3    C2 6346   3.978   4.633  12.699  0.4141  0.7882  0.7252
  422TMC3    C3 6347   3.902   4.569  12.796 -0.0932  0.4390  0.0359
  422TMC3    C4 6348   3.927   4.464  12.536  0.0054  0.0439  0.1709
  422TMC3    C5 6349   3.857   4.400  12.627 -0.6188  0.1820  0.2978
  422TMC3    C6 6350   3.838   4.454  12.751 -0.5071  0.4811 -0.5093
  422TMC3     C 6351   4.081   4.656  12.482  0.2857  0.9382 -0.6950
  422TMC3     O 6352   4.120   0.022  12.524  0.0819  0.3670  0.0343
  422TMC3     H 6353   4.039   4.713  12.740 -1.3778  2.7952 -0.5064
  422TMC3    H1 6354   3.926   4.424  12.435  0.8029 -0.3706  0.3197
  422TMC3    H2 6355   3.775   4.394  12.816 -1.3390  1.8395 -0.0609
  422TMC3    C7 6356   3.760   4.303  12.573 -0.2936 -0.0029  1.0251
  422TMC3    C8 6357   3.871   4.625  12.923  0.3799  0.7209 -0.2805
  422TMC3    O1 6358   3.800   4.227  12.486 -0.1443  0.8104  0.6361
  422TMC3    O2 6359   3.890   0.005  12.942 -0.2696  0.0609  0.0101
  423MPD2     C 6360   0.779   0.653   0.379  0.6244  0.0203  0.1787
  423MPD2    C1 6361   0.798   0.519   0.408 -0.3699  0.1512  0.1017
  423MPD2    C2 6362   0.773   0.417   0.310 -0.9847  0.1923  0.0055
  423MPD2    C3 6363   0.722   0.461   0.187  0.0739  0.9474 -0.6502
  423MPD2    C4 6364   0.714   0.590   0.156 -0.2162 -0.3715 -0.1860
  423MPD2    C5 6365   0.737   0.687   0.253  0.8867 -0.1013 -0.9618
  423MPD2     H 6366   0.801   0.313   0.319  1.4423  0.7156 -1.4847
  423MPD2    H1 6367   0.665   0.625   0.066 -2.3252  1.5087  1.6727
  423MPD2    H2 6368   0.786   0.737   0.448 -0.2164  0.1919  0.0460
  423MPD2    H3 6369   0.724   0.792   0.229 -1.1007 -0.4169 -1.2878
  423MPD2     N 6370   0.684   0.369   0.091  0.0213  0.5699  0.0060
  423MPD2    H5 6371   0.661   0.403  17.759 -0.4368  0.0150 -0.0843
  423MPD2    N1 6372   0.847   0.475   0.533 -0.0783 -0.8574  0.1071
  423MPD2    H7 6373   0.879   0.379   0.540 -2.0079 -1.4998  0.2187
  424TMC3    C1 6374   0.902   0.501   0.761 -0.9066 -0.2554 -0.3795
  424TMC3    C2 6375   1.013   0.424   0.742 -0.2159 -0.3722  0.6480
  424TMC3    C3 6376   1.033   0.316   0.821  0.6539  1.1002 -0.5862
  424TMC3    C4 6377   0.809   0.463   0.852 -0.0454 -0.2332 -0.0447
  424TMC3    C5 6378   0.838   0.353   0.937  0.5504 -0.3327 -0.7862
  424TMC3    C6 6379   0.952   0.278   0.923  0.5873 -0.2893  0.3952
  424TMC3     C 6380   0.843   0.559   0.644  1.1363 -0.0968  0.4533
  424TMC3     O 6381   0.771   0.653   0.666  0.5912 -0.3138 -0.0862
  424TMC3     H 6382   1.084   0.451   0.664 -0.2489 -1.1728  0.3405
  424TMC3    H1 6383   0.721   0.525   0.861 -0.7633 -1.4280  1.0904
  424TMC3    H2 6384   0.966   0.182   0.971  2.6523 -0.9020 -1.4374
  424TMC3    C7 6385   0.718   0.288   0.991 -0.1648 -0.3435 -0.1774
  424TMC3    C8 6386   1.152   0.231   0.809  0.5275 -0.4394 -0.4234
  424TMC3    O1 6387   0.612   0.337   0.962  0.1985 -0.1586 -0.5530
  424TMC3    O2 6388   1.139   0.114   0.844  0.1298  0.8012 -0.1269
  425MPD2     C 6389   4.218   4.504  17.353  0.3144 -0.1159  0.4060
  425MPD2    C1 6390   4.128   4.402  17.336 -0.4928  0.3288 -0.2621
  425MPD2    C2 6391   3.993   4.425  17.325 -0.0896  0.3273  0.0998
  425MPD2    C3 6392   3.946   4.559  17.334 -0.1467 -0.6016  0.6680
  425MPD2    C4 6393   4.035   4.661  17.360 -0.0439 -0.5440  0.4438
  425MPD2    C5 6394   4.167   4.630  17.374  0.0954 -0.1068  0.0832
  425MPD2     H 6395   3.926   4.343  17.301  2.5617 -2.2884  1.5212
  425MPD2    H1 6396   4.005   0.024  17.359 -1.2297 -0.8834  1.3989
  425MPD2    H2 6397   4.325   4.487  17.345  0.6205  1.8988  0.2083
  425MPD2    H3 6398   4.233   4.715  17.382  0.9372 -0.8426  0.8695
  425MPD2     N 6399   3.808   4.568  17.322 -0.1567  0.3811  0.2536
  425MPD2    H5 6400   3.758   4.483  17.300  3.0234 -1.3615 -0.1119
  425MPD2    N1 6401   4.174   4.271  17.319  0.7764 -0.5169  0.3904
  425MPD2    H7 6402   4.100   4.208  17.290  3.4566 -2.0573 -3.2244
  426TMC3    C1 6403   4.295   4.085  17.308  0.3979  0.0040  0.3730
  426TMC3    C2 6404   4.191   4.045  17.226  0.4214 -0.0933 -0.3931
  426TMC3    C3 6405   4.170   3.913  17.205  0.0585  0.1384  0.2912
  426TMC3    C4 6406   4.352   3.989  17.388  0.6460  0.2065 -0.0220
  426TMC3    C5 6407   4.311   3.859  17.370 -0.7505 -0.4461  0.2876
  426TMC3    C6 6408   4.229   3.812  17.270 -0.6903 -0.0469 -0.5189
  426TMC3     C 6409   4.298   4.218  17.338 -0.3108 -0.1653 -0.2307
  426TMC3     O 6410   4.404   4.268  17.375  0.3543 -0.3017 -0.3131
  426TMC3     H 6411   4.149   4.108  17.148 -2.0869  0.1067  1.1205
  426TMC3    H1 6412   4.424   4.016  17.464  0.8905 -1.0610  0.1987
  426TMC3    H2 6413   4.202   3.708  17.255 -2.0921  0.3188 -0.4671
  426TMC3    C7 6414   4.337   3.782  17.487 -0.2888  0.1232  0.1085
  426TMC3    C8 6415   4.114   3.866  17.081 -0.6266  0.6343 -0.0529
  426TMC3    O1 6416   4.414   3.824  17.571  0.3936  0.2809  0.0875
  426TMC3    O2 6417   4.179   3.775  17.040  0.0652 -0.0095 -0.1255
  427MPD2     C 6418   2.568   1.372  14.587 -0.2689  0.2282 -0.5564
  427MPD2    C1 6419   2.547   1.393  14.724  0.0077 -0.3417  0.2129
  427MPD2    C2 6420   2.431   1.443  14.762 -0.1555 -0.2069 -0.4642
  427MPD2    C3 6421   2.339   1.489  14.673 -0.3924 -0.5059 -0.5232
  427MPD2    C4 6422   2.366   1.474  14.534 -0.5194 -1.2202 -0.5614
  427MPD2    C5 6423   2.476   1.408  14.494 -0.4107  0.3025  0.7328
  427MPD2     H 6424   2.415   1.466  14.867 -1.6928  1.0175 -0.9534
  427MPD2    H1 6425   2.305   1.517  14.455 -0.2121 -0.3697 -0.3321
  427MPD2    H2 6426   2.666   1.334  14.561 -0.9543 -2.0077  0.1014
  427MPD2    H3 6427   2.501   1.390  14.389 -0.0477 -1.9317  1.2003
  427MPD2     N 6428   2.213   1.542  14.715 -0.4265  0.6825 -1.2942
  427MPD2    H5 6429   2.158   1.586  14.642 -0.3005 -1.7049 -2.7999
  427MPD2    N1 6430   2.645   1.366  14.819  0.3824 -0.3890  0.6767
  427MPD2    H7 6431   2.605   1.372  14.912 -0.8204 -1.0620  0.1945
  428TMC3    C1 6432   2.827   1.251  14.918 -0.0581  0.0296  0.4028
  428TMC3    C2 6433   2.758   1.166  14.994  0.0713 -0.0008 -0.2467
  428TMC3    C3 6434   2.829   1.079  15.071  0.3363 -0.2775  0.2550
  428TMC3    C4 6435   2.961   1.269  14.931  1.0653 -0.0673  0.9757
  428TMC3    C5 6436   3.026   1.184  15.020 -0.0678  0.2792  0.2425
  428TMC3    C6 6437   2.961   1.085  15.084  0.9107 -0.0561  0.2493
  428TMC3     C 6438   2.776   1.319  14.799  0.9155  0.3832 -0.2984
  428TMC3     O 6439   2.843   1.299  14.699 -0.9156 -0.2912  0.0249
  428TMC3     H 6440   2.650   1.153  14.993  0.5185 -3.6616  0.4361
  428TMC3    H1 6441   3.020   1.342  14.877 -2.0965  0.6595 -1.4649
  428TMC3    H2 6442   3.007   1.023  15.160 -0.7719 -1.9000 -0.2219
  428TMC3    C7 6443   3.156   1.214  15.075 -0.2052 -0.5278 -0.8519
  428TMC3    C8 6444   2.745   1.019  15.179 -0.3361 -0.1552  0.0075
  428TMC3    O1 6445   3.171   1.185  15.194 -0.5195 -0.8694  0.0245
  428TMC3    O2 6446   2.656   1.086  15.229 -0.5767  0.4932 -0.2977
  429MPD2     C 6447   4.632   1.747  17.612  0.3133 -0.3618  1.0437
  429MPD2    C1 6448   4.567   1.690  17.507 -0.7213 -0.1264  0.0905
  429MPD2    C2 6449   4.552   1.768  17.392 -0.2668  0.2475 -0.2701
  429MPD2    C3 6450   4.600   1.901  17.384  0.1908  0.2537  0.0096
  429MPD2    C4 6451   4.668   1.954  17.493  0.2811  0.5434  0.3374
  429MPD2    C5 6452   4.687   1.867  17.607  0.2778 -0.0487  0.3749
  429MPD2     H 6453   4.509   1.723  17.303  1.5216 -1.6811 -0.1668
  429MPD2    H1 6454   4.718   2.050  17.496 -0.7696  1.0722  0.8386
  429MPD2    H2 6455   4.665   1.696  17.702  2.1425 -0.2842  0.4098
  429MPD2    H3 6456   0.003   1.901  17.692  2.1529 -0.7559 -0.6098
  429MPD2     N 6457   4.585   1.978  17.262  0.1872 -0.9412 -0.2982
  429MPD2    H5 6458   4.525   1.938  17.191 -2.1913  1.3885  0.3646
  429MPD2    N1 6459   4.539   1.552  17.496  0.4820 -0.5692 -0.0118
  429MPD2    H7 6460   4.482   1.520  17.418  1.3007 -0.3893 -0.6826
  430TMC3    C1 6461   4.593   2.146  17.111 -0.2055 -0.3857  0.9513
  430TMC3    C2 6462   4.508   2.251  17.098  0.3397  0.3344  0.5124
  430TMC3    C3 6463   4.448   2.264  16.966  0.6895 -0.6513  0.1077
  430TMC3    C4 6464   4.634   2.069  17.003  0.4381 -0.1000  0.1768
  430TMC3    C5 6465   4.578   2.091  16.877  0.4995  0.0963 -0.2314
  430TMC3    C6 6466   4.484   2.185  16.853  0.7526 -0.3678 -0.2113
  430TMC3     C 6467   4.629   2.106  17.242  0.0757 -0.3162 -0.1241
  430TMC3     O 6468   4.711   2.168  17.307 -0.1264 -0.4317  0.0537
  430TMC3     H 6469   4.477   2.299  17.190 -0.0437 -0.1760  0.6511
  430TMC3    H1 6470   4.703   1.986  17.013  2.6658  1.8717  1.1705
  430TMC3    H2 6471   4.423   2.179  16.764 -3.0703  0.4371  2.3709
  430TMC3    C7 6472   4.575   1.964  16.794 -0.2782 -0.6134 -0.2520
  430TMC3    C8 6473   4.356   2.385  16.940  0.2193  0.1886 -0.2327
  430TMC3    O1 6474   4.621   1.865  16.845 -0.2503  0.5259 -0.4452
  430TMC3    O2 6475   4.337   2.460  17.039 -0.0399  0.8412 -0.0623
  431MPD2     C 6476   4.435   2.502  12.251  0.6788  0.7842 -0.2667
  431MPD2    C1 6477   4.511   2.515  12.136 -0.3134 -0.0603  0.1425
  431MPD2    C2 6478   4.525   2.409  12.048  0.2012 -0.1245  0.5075
  431MPD2    C3 6479   4.483   2.282  12.084 -0.6276  0.3962 -0.1659
  431MPD2    C4 6480   4.397   2.280  12.195  0.2428 -0.2726 -0.3332
  431MPD2    C5 6481   4.367   2.386  12.279 -0.4161  0.1731  0.6162
  431MPD2     H 6482   4.596   2.422  11.967  0.9737 -2.5524  0.7848
  431MPD2    H1 6483   4.348   2.186  12.221 -1.6304  0.4734 -1.1787
  431MPD2    H2 6484   4.418   2.589  12.313 -0.1944  0.4744 -0.0718
  431MPD2    H3 6485   4.298   2.375  12.362 -1.4499  1.1034 -0.1089
  431MPD2     N 6486   4.506   2.167  12.004 -0.1276 -0.4481 -0.4038
  431MPD2    H5 6487   4.465   2.079  12.037 -3.1488  1.4663  0.9598
  431MPD2    N1 6488   4.571   2.638  12.105 -0.0973 -0.2043 -0.6786
  431MPD2    H7 6489   4.584   2.701  12.184 -0.9661 -0.4131 -0.3762
  432TMC3    C1 6490   4.592   2.029  11.818 -0.2974 -0.2740 -0.1892
  432TMC3    C2 6491   4.621   2.025  11.681 -0.3195  0.3943 -0.1636
  432TMC3    C3 6492   4.661   1.907  11.624 -1.0588 -0.6574 -0.1841
  432TMC3    C4 6493   4.616   1.921  11.895 -1.1165 -0.0631  0.3448
  432TMC3    C5 6494   4.668   1.808  11.837  0.6008  0.0096 -0.5869
  432TMC3    C6 6495   4.686   1.795  11.700  0.2400 -0.0855  0.5033
  432TMC3     C 6496   4.566   2.162  11.877  0.1248 -0.5591  0.5151
  432TMC3     O 6497   4.625   2.254  11.819 -0.0714  0.7073 -0.1032
  432TMC3     H 6498   4.596   2.110  11.618  2.4010  2.1013  1.0694
  432TMC3    H1 6499   4.602   1.922  12.003 -3.1223  0.6902  0.0829
  432TMC3    H2 6500   4.714   1.699  11.658  0.0921  0.2430 -0.3420
  432TMC3    C7 6501   4.721   1.694  11.914  0.7398 -0.5460 -1.4685
  432TMC3    C8 6502   4.690   1.927  11.483  0.1163 -0.3276 -0.7812
  432TMC3    O1 6503   0.032   1.602  11.854  0.1316 -0.2355 -0.3056
  432TMC3    O2 6504   4.692   1.824  11.418 -0.2999 -0.3869  0.2323
  433MPD2     C 6505   3.640   1.036  10.503  0.1824  0.5191 -0.3457
  433MPD2    C1 6506   3.712   0.945  10.575 -0.0206 -0.2459 -0.2147
  433MPD2    C2 6507   3.771   0.989  10.694  0.0331  0.4046  0.8723
  433MPD2    C3 6508   3.762   1.120  10.739 -0.1176  0.8308 -0.2632
  433MPD2    C4 6509   3.683   1.210  10.664  0.3322 -0.9735  0.2378
  433MPD2    C5 6510   3.623   1.159  10.551 -0.1514  0.2246 -0.5277
  433MPD2     H 6511   3.834   0.918  10.746  0.1855 -1.3141 -1.6277
  433MPD2    H1 6512   3.673   1.312  10.700  0.7522 -1.3173  1.3541
  433MPD2    H2 6513   3.590   1.010  10.411  1.4155 -0.1059 -0.8386
  433MPD2    H3 6514   3.566   1.234  10.497  1.1620 -1.6557 -4.4761
  433MPD2     N 6515   3.830   1.158  10.864  0.1964 -0.4137 -0.3810
  433MPD2    H5 6516   3.873   1.079  10.910 -1.5919 -1.4479 -0.4901
  433MPD2    N1 6517   3.741   0.819  10.517  0.5719  0.1951  0.5110
  433MPD2    H7 6518   3.701   0.800  10.426 -0.8110 -0.0411  1.1646
  434TMC3    C1 6519   3.866   0.621  10.490 -0.1192 -0.2062 -0.5790
  434TMC3    C2 6520   3.992   0.580  10.533 -0.3197 -0.6770  0.7512
  434TMC3    C3 6521   4.042   0.460  10.489 -0.1761 -0.4594 -0.5883
  434TMC3    C4 6522   3.782   0.548  10.415 -0.0700  0.0538  0.7996
  434TMC3    C5 6523   3.837   0.430  10.367  0.0663 -0.6139 -0.3049
  434TMC3    C6 6524   3.961   0.382  10.406  0.9343  0.0246 -0.5440
  434TMC3     C 6525   3.800   0.717  10.581 -0.3166  0.8068  0.2566
  434TMC3     O 6526   3.823   0.707  10.702  0.1845 -0.7432  0.3920
  434TMC3     H 6527   4.050   0.647  10.596 -0.1656 -2.2209  2.2452
  434TMC3    H1 6528   3.687   0.589  10.384  0.1108  1.6458  2.3346
  434TMC3    H2 6529   4.007   0.293  10.364 -0.7641 -1.8131  1.5299
  434TMC3    C7 6530   3.739   0.344  10.300  0.1777 -0.0887 -0.6627
  434TMC3    C8 6531   4.168   0.419  10.559 -0.1508  0.1648 -0.2736
  434TMC3    O1 6532   3.642   0.399  10.245  0.1411 -0.1286 -0.1139
  434TMC3    O2 6533   4.234   0.502  10.618 -0.0779  0.3602 -0.1315
  435MPD2     C 6534   1.083   0.013  15.311 -0.5251  0.1128  0.4765
  435MPD2    C1 6535   1.051   0.094  15.422  0.7396  0.6608  0.6741
  435MPD2    C2 6536   1.128   0.061  15.537 -0.5785  0.0361 -0.0889
  435MPD2    C3 6537   1.223   4.711  15.547  0.1716 -0.2286  0.3423
  435MPD2    C4 6538   1.250   4.640  15.430 -0.3626 -0.6645  0.0478
  435MPD2    C5 6539   1.180   4.663  15.312  0.0965 -0.9707  0.4428
  435MPD2     H 6540   1.090   0.085  15.636  2.1387 -2.2970  1.4898
  435MPD2    H1 6541   1.326   4.564  15.433 -0.7489 -1.0464  0.1025
  435MPD2    H2 6542   1.022   0.033  15.223  0.4182 -1.9424 -0.6205
  435MPD2    H3 6543   1.213   4.609  15.224  0.9289  0.8809 -0.4010
  435MPD2     N 6544   1.279   4.686  15.673 -0.0717 -0.0257  0.3957
  435MPD2    H5 6545   1.214   4.709  15.748  0.3149  1.4608  0.2595
  435MPD2    N1 6546   0.951   0.193  15.425 -0.3492  0.2184  0.0159
  435MPD2    H7 6547   0.942   0.236  15.516 -1.8644  0.2893 -0.1662
  436TMC3    C1 6548   0.707   0.479  15.543  0.4623  0.5126 -0.2541
  436TMC3    C2 6549   0.809   0.411  15.489  0.6666 -0.8024  0.0033
  436TMC3    C3 6550   0.779   0.346  15.368  0.0132  0.4290  0.1606
  436TMC3    C4 6551   0.578   0.489  15.492 -0.2027  0.1266 -0.3690
  436TMC3    C5 6552   0.552   0.415  15.377 -0.4521 -0.1839 -0.0265
  436TMC3    C6 6553   0.653   0.344  15.315 -0.4319  0.7630 -0.1118
  436TMC3     C 6554   0.744   0.561  15.656 -0.5972  0.3586  0.2176
  436TMC3     O 6555   0.861   0.591  15.664 -0.0070 -0.7892  0.3559
  436TMC3     H 6556   0.904   0.412  15.541  0.6750  0.2429 -0.0264
  436TMC3    H1 6557   0.488   0.540  15.527 -0.9288 -1.0273 -0.5600
  436TMC3    H2 6558   0.639   0.278  15.231  0.8560  0.7724 -0.3355
  436TMC3    C7 6559   0.429   0.345  15.376 -0.5000 -1.0869  0.6525
  436TMC3    C8 6560   0.868   0.234  15.324 -0.4280 -0.8111  0.3761
  436TMC3    O1 6561   0.389   0.328  15.491  0.3321 -0.3345 -0.1414
  436TMC3    O2 6562   0.840   0.175  15.219 -0.6551 -0.3334  1.0285
  437TMC3    C1 6563   3.445   2.819  13.152 -0.5748  0.3687  0.3555
  437TMC3    C2 6564   3.472   2.687  13.117 -0.2577 -0.5909  0.5100
  437TMC3    C3 6565   3.535   2.672  12.994 -0.3802 -0.2852  0.0458
  437TMC3    C4 6566   3.480   2.931  13.079  0.3008  0.0332 -0.4931
  437TMC3    C5 6567   3.539   2.911  12.957 -0.3829  0.0868 -0.4565
  437TMC3    C6 6568   3.561   2.779  12.912 -0.0971 -0.2267 -0.1303
  437TMC3     C 6569   3.399   2.837  13.290 -0.7432  0.0795  0.5849
  437TMC3     O 6570   3.434   2.749  13.368  0.2434 -0.1612  0.4811
  437TMC3     H 6571   3.455   2.611  13.192  1.6905  1.1031  2.6701
  437TMC3    H1 6572   3.471   3.035  13.106  0.3237 -0.2454  0.6128
  437TMC3    H2 6573   3.623   2.760  12.825  0.0256  0.9971 -0.3084
  437TMC3    C7 6574   3.596   3.030  12.890 -0.2827 -0.0564  0.5705
  437TMC3    C8 6575   3.567   2.539  12.950 -0.1588 -0.7344  0.2679
  437TMC3    O1 6576   3.542   3.138  12.890  0.0658 -0.0714 -0.4302
  437TMC3    O2 6577   3.583   2.529  12.830 -0.3473  0.6502  0.8769
  438MPD2     C 6578   1.916   3.272  16.750  0.3289  0.5579 -0.0154
  438MPD2    C1 6579   1.983   3.165  16.807 -0.0686  0.0268  0.6056
  438MPD2    C2 6580   1.990   3.164  16.947 -0.7273  0.4960 -0.5985
  438MPD2    C3 6581   1.929   3.263  17.026  0.4091 -0.1850 -0.1747
  438MPD2    C4 6582   1.848   3.351  16.958 -0.3571 -0.4976 -0.1493
  438MPD2    C5 6583   1.843   3.356  16.820 -0.4478 -0.1812  0.6610
  438MPD2     H 6584   2.040   3.079  16.993 -0.8620  1.3492  1.1264
  438MPD2    H1 6585   1.796   3.426  17.016  0.8753  0.0138  0.2907
  438MPD2    H2 6586   1.916   3.294  16.644 -0.7072 -0.5150 -0.2415
  438MPD2    H3 6587   1.787   3.431  16.765 -0.7993 -0.9621 -0.0462
  438MPD2     N 6588   1.932   3.277  17.168 -0.5764 -0.1968  0.2094
  438MPD2    H5 6589   1.878   3.350  17.213 -1.2637  0.6116 -1.9134
  438MPD2    N1 6590   2.054   3.071  16.732  0.0757 -0.3807  0.4085
  438MPD2    H7 6591   2.121   3.013  16.782  0.2901 -0.3021  0.2094
  439TMC3    C1 6592   2.106   2.935  16.537  0.1828 -0.1036  0.2505
  439TMC3    C2 6593   2.094   2.907  16.405  0.3074 -0.1139  0.2153
  439TMC3    C3 6594   2.167   2.799  16.356  0.5925  0.5205 -0.5890
  439TMC3    C4 6595   2.198   2.874  16.614 -0.1668  0.1441 -0.2336
  439TMC3    C5 6596   2.267   2.773  16.562  0.1921 -0.0863  0.6364
  439TMC3    C6 6597   2.265   2.738  16.430 -0.2052 -0.0502 -0.4365
  439TMC3     C 6598   2.035   3.048  16.592  0.0559 -0.0447  0.2655
  439TMC3     O 6599   1.957   3.107  16.514  0.7110  0.3587  0.1728
  439TMC3     H 6600   2.034   2.968  16.338 -1.3742 -0.8549  1.0376
  439TMC3    H1 6601   2.226   2.918  16.709  0.5697 -1.0702  0.1203
  439TMC3    H2 6602   2.303   2.642  16.397  1.1768  0.1420  0.5968
  439TMC3    C7 6603   2.393   2.733  16.634  0.6886  0.2614  0.7375
  439TMC3    C8 6604   2.183   2.767  16.214 -0.5561  0.7788 -0.4970
  439TMC3    O1 6605   2.392   2.744  16.757  0.3864  0.1262 -0.3127
  439TMC3    O2 6606   2.286   2.710  16.185  0.5848  0.4842  0.1527
  440MPD2     C 6607   0.409   2.807  14.712 -0.5012 -0.6421  0.2239
  440MPD2    C1 6608   0.399   2.802  14.850  0.8109  0.2545 -0.2905
  440MPD2    C2 6609   0.458   2.694  14.917  0.1145 -0.5394 -0.0709
  440MPD2    C3 6610   0.529   2.595  14.852  0.7743 -0.5588  0.5247
  440MPD2    C4 6611   0.538   2.604  14.713 -0.3475 -0.5209  1.1313
  440MPD2    C5 6612   0.485   2.707  14.652  0.2522 -0.3547 -0.3707
  440MPD2     H 6613   0.439   2.676  15.022 -1.1122  1.0033 -0.0109
  440MPD2    H1 6614   0.602   2.539  14.654 -1.6913 -0.2089 -0.6834
  440MPD2    H2 6615   0.369   2.881  14.644  0.1769 -0.6356 -0.1708
  440MPD2    H3 6616   0.508   2.709  14.546  1.7577  0.0292 -0.0286
  440MPD2     N 6617   0.596   2.496  14.917  0.4984 -0.1031  0.6548
  440MPD2    H5 6618   0.650   2.439  14.853 -2.9371 -2.4781 -0.1041
  440MPD2    N1 6619   0.325   2.898  14.914 -0.0122 -0.0467  0.2668
  440MPD2    H7 6620   0.271   2.964  14.859  0.3581 -1.6364 -1.9879
  441TMC3    C1 6621   0.693   2.387  15.106 -0.3171 -0.0103 -0.1070
  441TMC3    C2 6622   0.815   2.393  15.046 -0.5222 -0.2473  0.4633
  441TMC3    C3 6623   0.931   2.387  15.121 -0.6702 -0.5585 -0.4617
  441TMC3    C4 6624   0.683   2.359  15.237  0.1156 -0.7783  0.2305
  441TMC3    C5 6625   0.796   2.340  15.307 -0.7397 -0.3101 -1.0896
  441TMC3    C6 6626   0.926   2.351  15.249 -0.3234 -0.6120 -0.5913
  441TMC3     C 6627   0.577   2.461  15.050  0.2855 -0.0935  0.8186
  441TMC3     O 6628   0.505   2.507  15.135  0.2573  0.2407 -0.3305
  441TMC3     H 6629   0.814   2.435  14.946 -0.7806 -1.9256 -0.2328
  441TMC3    H1 6630   0.589   2.351  15.290  0.4991 -0.8052  0.8988
  441TMC3    H2 6631   1.014   2.363  15.312 -1.4545  2.1414  0.4314
  441TMC3    C7 6632   0.783   2.383  15.442 -0.3078 -0.7195 -0.4873
  441TMC3    C8 6633   1.016   2.507  15.121  0.1504 -0.3601 -0.5588
  441TMC3    O1 6634   0.702   2.465  15.480  0.3506  0.1845  0.2554
  441TMC3    O2 6635   1.140   2.497  15.111 -0.1545 -0.1826 -0.2324
  442MPD2     C 6636   4.075   4.074  16.376  0.3235 -0.0493 -0.3116
  442MPD2    C1 6637   3.940   4.062  16.403  0.1228 -0.8609 -0.2049
  442MPD2    C2 6638   3.866   3.960  16.346 -0.3188 -0.0259 -0.2348
  442MPD2    C3 6639   3.919   3.875  16.253 -0.6863  0.1182 -0.1370
  442MPD2    C4 6640   4.042   3.900  16.209 -0.1971 -0.6131  0.7446
  442MPD2    C5 6641   4.124   3.996  16.275  0.3230  0.2175 -0.3630
  442MPD2     H 6642   3.765   3.942  16.382 -0.9068 -0.1582 -1.9751
  442MPD2    H1 6643   4.096   3.827  16.150  1.8565  0.6591  1.0352
  442MPD2    H2 6644   4.143   4.144  16.423 -0.3127  0.6602 -0.4454
  442MPD2    H3 6645   4.226   4.017  16.246  0.6476  1.8600  1.9936
  442MPD2     N 6646   3.848   3.763  16.201 -0.0730  0.0130 -0.0298
  442MPD2    H5 6647   3.883   3.730  16.112  2.1368  1.0685  0.4513
  442MPD2    N1 6648   3.872   4.143  16.505 -0.3073 -0.4001  0.4747
  442MPD2    H7 6649   3.776   4.122  16.529 -1.0362  2.4001  0.0268
  443TMC3    C1 6650   3.819   4.341  16.635  0.0949  0.0913  0.3104
  443TMC3    C2 6651   3.805   4.471  16.591  0.2018 -0.0961 -0.0186
  443TMC3    C3 6652   3.693   4.547  16.623  0.2125 -0.3027 -0.3750
  443TMC3    C4 6653   3.718   4.291  16.708 -0.5115  0.2190 -0.5124
  443TMC3    C5 6654   3.617   4.372  16.752 -0.7301  0.5223  0.4817
  443TMC3    C6 6655   3.599   4.499  16.710  0.2663  0.3056 -0.3935
  443TMC3     C 6656   3.930   4.260  16.567 -0.7763 -0.2788 -0.0845
  443TMC3     O 6657   4.043   4.304  16.565 -0.0598 -0.4917 -0.0429
  443TMC3     H 6658   3.876   4.508  16.517 -1.6823  0.3315 -1.6249
  443TMC3    H1 6659   3.718   4.194  16.755 -0.5834  0.1628 -0.6276
  443TMC3    H2 6660   3.500   4.543  16.721 -0.3157 -0.9037 -0.7937
  443TMC3    C7 6661   3.525   4.315  16.850 -0.1928  0.6690 -0.0119
  443TMC3    C8 6662   3.633   4.596  16.507 -0.4873 -0.8036 -0.3734
  443TMC3    O1 6663   3.528   4.195  16.854  0.6526  0.4193  0.5893
  443TMC3    O2 6664   3.700   4.666  16.433  0.2520  0.2796  0.7020
  444MPD2     C 6665   3.806   3.549  17.040  0.4949  0.2528 -0.1229
  444MPD2    C1 6666   3.738   3.442  17.083 -0.3831 -0.2914 -0.2194
  444MPD2    C2 6667   3.811   3.324  17.093 -0.3585 -0.3568 -0.7781
  444MPD2    C3 6668   3.943   3.312  17.046  0.5840  0.6772  0.6326
  444MPD2    C4 6669   4.004   3.424  17.002  0.1455  0.8750  0.1228
  444MPD2    C5 6670   3.936   3.542  16.993 -0.6028 -0.3874  0.5908
  444MPD2     H 6671   3.762   3.230  17.116 -0.0579 -0.4311 -0.4520
  444MPD2    H1 6672   4.104   3.434  16.962  0.1008 -0.3559 -0.2890
  444MPD2    H2 6673   3.755   3.643  17.020  0.6965  0.5532  0.7384
  444MPD2    H3 6674   3.988   3.631  16.959 -0.7381 -0.5777 -0.1179
  444MPD2     N 6675   4.013   3.190  17.051 -0.1992  0.6832 -0.3182
  444MPD2    H5 6676   3.960   3.109  17.081  0.3067  1.0930  1.6580
  444MPD2    N1 6677   3.604   3.446  17.120 -0.3774  0.5294  0.7943
  444MPD2    H7 6678   3.578   3.361  17.169  0.0378  0.5910  1.1208
  445TMC3    C1 6679   4.182   3.027  17.018  0.5125  0.7690 -0.7768
  445TMC3    C2 6680   4.163   2.980  17.143 -0.3872 -0.0621  0.5351
  445TMC3    C3 6681   4.242   2.874  17.184  0.2891 -0.6598 -0.5502
  445TMC3    C4 6682   4.282   2.988  16.935 -0.3581 -0.0923 -0.4708
  445TMC3    C5 6683   4.347   2.871  16.970  0.3564  0.6027  0.2521
  445TMC3    C6 6684   4.332   2.817  17.094  0.1590 -0.4135  0.3944
  445TMC3     C 6685   4.141   3.162  17.002  0.0105  0.0015  0.4130
  445TMC3     O 6686   4.232   3.234  16.960 -0.0534 -0.0291 -0.8899
  445TMC3     H 6687   4.086   3.021  17.208  0.2709  1.9543  0.0308
  445TMC3    H1 6688   4.304   3.046  16.845 -0.2798  1.2155  0.3820
  445TMC3    H2 6689   4.359   2.713  17.108  0.8222 -0.1273  1.2492
  445TMC3    C7 6690   4.439   2.819  16.871 -0.3635  0.0498  0.0294
  445TMC3    C8 6691   4.207   2.815  17.308 -0.2510  0.3589  0.9782
  445TMC3    O1 6692   4.429   2.846  16.751 -0.5390  0.3819  0.4043
  445TMC3    O2 6693   4.101   2.850  17.357 -0.2796 -0.3304  0.3417
  446MPD2     C 6694   3.878   0.109  10.755 -0.3001  0.4819 -0.0579
  446MPD2    C1 6695   3.805   0.221  10.721  0.4606  0.2815  0.1550
  446MPD2    C2 6696   3.861   0.347  10.760 -0.2966  0.3781 -0.6964
  446MPD2    C3 6697   3.980   0.361  10.829  0.7305 -0.5953 -0.7638
  446MPD2    C4 6698   4.038   0.241  10.877  0.0413  0.4896  0.0342
  446MPD2    C5 6699   3.989   0.119  10.837 -0.5217 -0.0548  0.3071
  446MPD2     H 6700   3.809   0.438  10.731 -1.7435  0.0355  0.8973
  446MPD2    H1 6701   4.131   0.248  10.932 -0.8463  0.5324  1.5160
  446MPD2    H2 6702   3.849   0.006  10.734 -1.1786  0.8894 -0.8532
  446MPD2    H3 6703   4.044   0.031  10.866  1.2987  0.4713 -1.5641
  446MPD2     N 6704   4.033   0.488  10.857  0.0246 -0.7033  0.6798
  446MPD2    H5 6705   3.993   0.569  10.811  0.3800 -1.5920 -1.2270
  446MPD2    N1 6706   3.674   0.220  10.671  0.2613  0.2879  1.2987
  446MPD2    H7 6707   3.629   0.309  10.654 -0.8934 -0.8326 -1.5194
  447TMC3    C1 6708   4.197   0.649  10.905 -0.0778  0.1340  0.2898
  447TMC3    C2 6709   4.140   0.733  10.810  0.5867 -0.3354  0.0461
  447TMC3    C3 6710   4.223   0.825  10.752 -0.1223  0.7618 -0.0383
  447TMC3    C4 6711   4.329   0.661  10.936  0.8658  0.6094  0.0460
  447TMC3    C5 6712   4.406   0.748  10.869  0.1077 -0.4749 -0.3377
  447TMC3    C6 6713   4.359   0.827  10.771 -0.1309  0.0450  0.2662
  447TMC3     C 6714   4.139   0.516  10.933  0.7667 -0.0749 -0.1191
  447TMC3     O 6715   4.195   0.451  11.022 -0.4302 -0.5128 -0.5348
  447TMC3     H 6716   4.033   0.741  10.800  0.8967  1.4567 -1.9516
  447TMC3    H1 6717   4.373   0.598  11.012 -1.9783 -1.1201  0.2558
  447TMC3    H2 6718   4.418   0.905  10.724  0.2934  0.9221  2.2647
  447TMC3    C7 6719   4.543   0.709  10.877  0.1913 -0.0662 -0.1431
  447TMC3    C8 6720   4.161   0.928  10.683  0.1802 -0.7630 -0.4986
  447TMC3    O1 6721   4.570   0.590  10.885 -0.0196  0.6186 -0.1799
  447TMC3    O2 6722   4.088   0.900  10.595  0.6686  0.2833  0.2452
  448TMC3    C1 6723   2.139   0.046  17.233 -0.0785 -0.6799  0.3752
  448TMC3    C2 6724   2.119   4.669  17.170 -0.6694 -0.1024 -0.0315
  448TMC3    C3 6725   2.102   4.561  17.246 -0.2251 -0.2468 -0.0244
  448TMC3    C4 6726   2.172   0.062  17.364 -0.5071  0.2153 -0.1332
  448TMC3    C5 6727   2.173   4.685  17.433 -0.2678 -0.2857  0.7758
  448TMC3    C6 6728   2.135   4.566  17.383  0.1630 -0.3225 -0.5170
  448TMC3     C 6729   2.132   0.155  17.143 -0.0032 -0.6316  0.3692
  448TMC3     O 6730   2.179   0.152  17.029  0.6754  0.5400 -0.1786
  448TMC3     H 6731   2.104   4.670  17.062 -0.0517  0.1566 -0.1154
  448TMC3    H1 6732   2.188   0.162  17.403  1.6564  0.2274 -1.0596
  448TMC3    H2 6733   2.165   4.474  17.433  1.1560  0.2386 -0.0881
  448TMC3    C7 6734   2.235   4.684  17.561 -0.7582  0.3915 -0.3673
  448TMC3    C8 6735   2.049   4.442  17.184 -0.4673 -0.3502  0.6917
  448TMC3    O1 6736   2.315   0.037  17.581  0.7626 -0.0280 -0.4213
  448TMC3    O2 6737   2.056   4.334  17.243  0.0800  0.2373  0.6739
  449MPD2     C 6738   3.524   3.035  14.250  0.8050  0.5530 -0.5140
  449MPD2    C1 6739   3.422   3.065  14.160 -0.2736  0.2492 -0.7395
  449MPD2    C2 6740   3.331   2.964  14.135 -0.0129  0.5737  0.0373
  449MPD2    C3 6741   3.339   2.843  14.197 -0.1029 -0.0288 -0.0445
  449MPD2    C4 6742   3.440   2.806  14.282  0.4256  0.2965 -0.9911
  449MPD2    C5 6743   3.527   2.908  14.311  0.2613  0.2941  0.5112
  449MPD2     H 6744   3.252   2.981  14.063 -1.2193 -2.2395  0.6752
  449MPD2    H1 6745   3.452   2.713  14.335  2.4665  1.4389  0.5557
  449MPD2    H2 6746   3.597   3.111  14.277  1.2112 -0.4744  1.2289
  449MPD2    H3 6747   3.608   2.885  14.378  1.2834  1.7151 -0.2342
  449MPD2     N 6748   3.232   2.757  14.161  0.2183 -0.1697  0.4851
  449MPD2    H5 6749   3.165   2.799  14.097  0.0434 -0.0166  0.7670
  449MPD2    N1 6750   3.400   3.192  14.102  0.3669 -0.1183 -0.3344
  449MPD2    H7 6751   3.307   3.202  14.062 -0.7335 -1.4605  1.9203
  450TMC3    C1 6752   3.405   3.402  14.036 -0.0393  0.6111  0.3540
  450TMC3    C2 6753   3.446   3.454  13.918  0.0167 -0.5524 -0.7097
  450TMC3    C3 6754   3.354   3.506  13.830  0.5016 -0.0224 -0.2136
  450TMC3    C4 6755   3.270   3.397  14.062 -0.2570  0.2797 -0.4416
  450TMC3    C5 6756   3.179   3.437  13.967  0.2664 -0.4298 -0.5606
  450TMC3    C6 6757   3.221   3.507  13.854 -0.8532 -0.1261  0.6773
  450TMC3     C 6758   3.489   3.304  14.090 -0.2704 -0.0111  0.8145
  450TMC3     O 6759   3.602   3.322  14.125  0.1952  0.2880 -0.4523
  450TMC3     H 6760   3.552   3.464  13.898  0.3722 -1.8975  0.5046
  450TMC3    H1 6761   3.233   3.362  14.158 -1.6000 -2.7627 -2.0460
  450TMC3    H2 6762   3.154   3.533  13.773 -0.2611  1.4906  0.7106
  450TMC3    C7 6763   3.095   3.328  13.947  0.5140 -0.2261  0.2626
  450TMC3    C8 6764   3.392   3.573  13.701  0.3704 -0.3812  0.1102
  450TMC3    O1 6765   3.138   3.226  13.994  0.1413 -0.0615 -0.1034
  450TMC3    O2 6766   3.324   3.663  13.659  0.2527 -0.0002  0.1835
  451MPD2     C 6767   4.290   1.829   1.078 -0.2422 -0.4361  0.1532
  451MPD2    C1 6768   4.407   1.880   1.024  0.0356 -0.1210 -0.3123
  451MPD2    C2 6769   4.493   1.795   0.960 -0.1048  0.2109  0.6734
  451MPD2    C3 6770   4.460   1.659   0.950 -0.5097 -0.2086  1.1047
  451MPD2    C4 6771   4.345   1.613   1.006  0.3680  0.8783 -0.0079
  451MPD2    C5 6772   4.257   1.697   1.064 -0.3361  0.6182  0.3656
  451MPD2     H 6773   4.576   1.840   0.907  0.0166 -0.7624  0.0213
  451MPD2    H1 6774   4.326   1.506   1.015 -0.1743  0.9609 -0.2101
  451MPD2    H2 6775   4.217   1.888   1.132 -0.7161 -2.6512  1.9692
  451MPD2    H3 6776   4.169   1.662   1.118  0.7832  3.3432  3.9254
  451MPD2     N 6777   4.537   1.570   0.873  0.3949 -0.3032 -1.0024
  451MPD2    H5 6778   4.502   1.474   0.872 -1.4930  0.3667 -0.0017
  451MPD2    N1 6779   4.421   2.017   1.032 -0.6829  0.5412 -0.4269
  451MPD2    H7 6780   4.345   2.065   1.079 -0.8908 -0.0304 -0.1841
  452TMC3    C1 6781   4.691   1.461   0.734  0.1121 -0.5679 -0.5188
  452TMC3    C2 6782   4.591   1.372   0.700  0.6872  0.1938 -0.4707
  452TMC3    C3 6783   4.615   1.275   0.609 -0.4163  0.2329 -0.1737
  452TMC3    C4 6784   0.077   1.441   0.685  0.0291  0.1826 -0.8245
  452TMC3    C5 6785   0.100   1.327   0.611  0.8743  0.2779 -0.9059
  452TMC3    C6 6786   0.001   1.245   0.569  0.0287 -0.5003 -0.1620
  452TMC3     C 6787   4.657   1.582   0.815 -0.4620  0.2352  0.0736
  452TMC3     O 6788   4.731   1.677   0.802 -0.4392  0.1662  0.0604
  452TMC3     H 6789   4.488   1.383   0.732  0.5910 -0.1909 -0.6556
  452TMC3    H1 6790   0.155   1.514   0.700 -0.6125  0.9340 -1.1186
  452TMC3    H2 6791   0.022   1.163   0.500 -1.3882 -0.1817 -0.9721
  452TMC3    C7 6792   0.239   1.298   0.574 -0.4761  0.3512  0.1968
  452TMC3    C8 6793   4.511   1.186   0.554  0.7805  0.0383  0.2461
  452TMC3    O1 6794   0.314   1.396   0.579 -1.1146  0.0704  0.0348
  452TMC3    O2 6795   4.548   1.086   0.500 -0.2464 -0.1475 -0.0149
  453TMC3    C1 6796   1.176   4.508  11.548 -0.4112  0.5104 -0.3092
  453TMC3    C2 6797   1.047   4.447  11.544  0.9015 -0.3346 -0.6652
  453TMC3    C3 6798   0.985   4.470  11.426  0.2976 -0.4971 -0.3480
  453TMC3    C4 6799   1.221   4.589  11.456  0.3173 -0.4907 -0.5821
  453TMC3    C5 6800   1.151   4.604  11.341  0.6534  0.0082  0.2130
  453TMC3    C6 6801   1.033   4.538  11.324  0.1950 -0.2585 -0.4035
  453TMC3     C 6802   1.273   4.473  11.646  0.9150 -0.0550  0.2135
  453TMC3     O 6803   1.363   4.550  11.667  0.4085  0.0582  0.0618
  453TMC3     H 6804   1.008   4.373  11.612 -1.3414  2.2877  0.9050
  453TMC3    H1 6805   1.312   4.647  11.471  1.3040 -2.6909  2.1084
  453TMC3    H2 6806   0.994   4.518  11.225  4.2658  0.2275 -2.1018
  453TMC3    C7 6807   1.225   4.660  11.225  0.5326  0.1187  0.4169
  453TMC3    C8 6808   0.868   4.390  11.396 -0.3078 -0.5545  0.2949
  453TMC3    O1 6809   1.216   4.599  11.121  0.3512 -0.0624  0.7981
  453TMC3    O2 6810   0.775   4.440  11.339  0.3383 -0.4183 -0.1692
  454MPD2     C 6811   4.543   3.071  16.394  0.5946  0.3025  0.2366
  454MPD2    C1 6812   4.511   3.113  16.265 -0.8508  0.5795  0.0289
  454MPD2    C2 6813   4.473   3.243  16.252  0.0947 -0.0868 -0.0330
  454MPD2    C3 6814   4.460   3.326  16.364 -0.2797 -0.0943  0.1212
  454MPD2    C4 6815   4.490   3.280  16.492  0.4293  0.0466 -0.7929
  454MPD2    C5 6816   4.515   3.150  16.506 -0.3380  0.4390 -0.4832
  454MPD2     H 6817   4.448   3.272  16.150 -2.2112 -0.4767  0.4337
  454MPD2    H1 6818   4.467   3.341  16.578 -0.7481  0.0723 -1.1233
  454MPD2    H2 6819   4.570   2.968  16.413 -0.8273 -0.1306 -0.0428
  454MPD2    H3 6820   4.522   3.110  16.606 -0.7637 -0.2630 -0.7338
  454MPD2     N 6821   4.400   3.450  16.351  0.5709  0.2111  0.3856
  454MPD2    H5 6822   4.378   3.500  16.437 -0.9471 -1.6343  1.0854
  454MPD2    N1 6823   4.515   3.040  16.148 -0.2992 -0.1226 -0.5416
  454MPD2    H7 6824   4.497   3.091  16.062 -1.3728 -1.1976 -0.9599
  455TMC3    C1 6825   4.240   3.585  16.270 -0.0381 -0.1812  0.5842
  455TMC3    C2 6826   4.230   3.640  16.397  0.3130 -0.0630 -0.6267
  455TMC3    C3 6827   4.119   3.612  16.466 -0.0426  0.3768  0.0327
  455TMC3    C4 6828   4.150   3.496  16.229  0.5337 -0.3543 -0.0745
  455TMC3    C5 6829   4.033   3.475  16.307 -0.1878 -0.5161 -0.2500
  455TMC3    C6 6830   4.009   3.540  16.424  0.5907 -0.4355 -0.0608
  455TMC3     C 6831   4.364   3.517  16.239  0.2028 -0.0246 -0.1171
  455TMC3     O 6832   4.383   3.493  16.119 -0.0456 -0.0454  0.2768
  455TMC3     H 6833   4.311   3.699  16.438  0.1859 -0.0776 -0.3575
  455TMC3    H1 6834   4.152   3.458  16.127  0.8140 -0.3757 -0.0620
  455TMC3    H2 6835   3.926   3.508  16.486 -0.7464  1.3741 -0.9321
  455TMC3    C7 6836   3.949   3.367  16.258 -1.0357  0.9673 -0.3401
  455TMC3    C8 6837   4.097   3.695  16.580  0.2206 -0.5515 -0.3369
  455TMC3    O1 6838   3.930   3.358  16.139  0.3464  0.2898  0.2208
  455TMC3    O2 6839   4.202   3.724  16.640 -0.5221 -0.1206 -0.3290
  456MPD2     C 6840   2.216   3.345  16.239  0.0887  0.2159 -0.0832
  456MPD2    C1 6841   2.279   3.274  16.338  0.4565 -0.3765  0.1247
  456MPD2    C2 6842   2.264   3.326  16.468 -0.4722  0.4366 -0.0864
  456MPD2    C3 6843   2.186   3.439  16.500  0.8773  0.1052  0.4463
  456MPD2    C4 6844   2.142   3.505  16.390 -0.4806 -0.5511 -0.0953
  456MPD2    C5 6845   2.150   3.459  16.261  1.0062 -0.0184  0.3512
  456MPD2     H 6846   2.318   3.279  16.549 -0.5734  1.4003  0.5456
  456MPD2    H1 6847   2.097   3.602  16.410  0.7358  0.1238 -0.6597
  456MPD2    H2 6848   2.225   3.311  16.136  1.3813  1.2164 -0.3003
  456MPD2    H3 6849   2.113   3.516  16.176 -1.2837 -0.7792  0.8318
  456MPD2     N 6850   2.164   3.482  16.635 -0.3367  0.1382  0.1984
  456MPD2    H5 6851   2.219   3.443  16.711  1.0594 -1.3682 -1.5755
  456MPD2    N1 6852   2.346   3.154  16.295  0.2870  0.3411 -0.5001
  456MPD2    H7 6853   2.349   3.149  16.193  1.1887  1.0522 -0.5099
  457TMC3    C1 6854   2.084   3.617  16.815  0.2330 -0.7422 -0.2828
  457TMC3    C2 6855   2.041   3.740  16.842  0.2285  0.3811  0.2215
  457TMC3    C3 6856   2.068   3.800  16.962 -0.0819 -0.2926  0.1944
  457TMC3    C4 6857   2.156   3.554  16.911 -0.3263 -0.7002  0.2754
  457TMC3    C5 6858   2.177   3.617  17.031 -0.6396 -0.3649 -0.3095
  457TMC3    C6 6859   2.144   3.744  17.057 -0.8241 -0.5430 -0.3750
  457TMC3     C 6860   2.081   3.583  16.675  0.0379 -0.9978  0.0542
  457TMC3     O 6861   2.003   3.643  16.602 -0.3148  0.3815  0.5183
  457TMC3     H 6862   1.999   3.800  16.761  1.0942  0.6905  0.0060
  457TMC3    H1 6863   2.171   3.447  16.899  0.3675 -0.4045 -1.5061
  457TMC3    H2 6864   2.169   3.787  17.153  0.5219 -2.1101 -0.0355
  457TMC3    C7 6865   2.184   3.530  17.152  0.0922  0.7275  0.0150
  457TMC3    C8 6866   2.057   3.949  16.970  0.2808 -0.0345  0.3569
  457TMC3    O1 6867   2.248   3.428  17.133  0.1110  0.3855  0.1150
  457TMC3    O2 6868   2.129   3.996  17.058 -0.2273 -0.3958 -0.0545
  458MPD2     C 6869   3.927   3.177  12.545  0.0364 -0.6899 -0.5021
  458MPD2    C1 6870   3.997   3.089  12.621  0.3334 -0.3116 -0.1815
  458MPD2    C2 6871   3.926   3.027  12.721 -0.3655  0.2270  0.1837
  458MPD2    C3 6872   3.799   3.067  12.755 -0.2569 -0.2546  0.3908
  458MPD2    C4 6873   3.739   3.166  12.684 -0.0038 -0.4772 -0.1750
  458MPD2    C5 6874   3.800   3.217  12.566  0.4390 -0.0963  0.5805
  458MPD2     H 6875   3.973   2.949  12.780 -1.4206 -0.0940  0.5884
  458MPD2    H1 6876   3.635   3.196  12.695  0.0725  0.2098 -1.3486
  458MPD2    H2 6877   3.971   3.219  12.455  0.4683  0.6359  0.3179
  458MPD2    H3 6878   3.747   3.282  12.498 -1.6165  0.0132  2.2555
  458MPD2     N 6879   3.724   2.995  12.848  0.1404  0.0401  0.4202
  458MPD2    H5 6880   3.763   2.912  12.890 -0.5578 -0.7694 -0.5241
  458MPD2    N1 6881   4.135   3.062  12.596  0.1314 -0.3925  0.3615
  458MPD2    H7 6882   4.171   3.116  12.518 -1.5883  0.5962  0.2519
  459TMC3    C1 6883   4.349   2.950  12.630 -0.6648 -0.7751  0.6600
  459TMC3    C2 6884   4.416   3.061  12.570  0.0944 -1.6517  0.9638
  459TMC3    C3 6885   4.553   3.065  12.579 -0.5252  0.1061 -0.0284
  459TMC3    C4 6886   4.421   2.848  12.684 -0.6143 -0.2924 -0.4887
  459TMC3    C5 6887   4.554   2.849  12.678  0.7216  0.0439 -0.1488
  459TMC3    C6 6888   4.625   2.955  12.626  0.1179 -0.2073 -0.2465
  459TMC3     C 6889   4.217   2.981  12.674 -0.3645  0.6834  0.3597
  459TMC3     O 6890   4.196   2.929  12.783  0.5071  0.4008 -0.2689
  459TMC3     H 6891   4.357   3.146  12.538  0.5727 -1.0030  1.7798
  459TMC3    H1 6892   4.361   2.764  12.716 -1.0291 -0.3220 -1.3510
  459TMC3    H2 6893   4.733   2.954  12.615  0.2151 -0.4089  0.7452
  459TMC3    C7 6894   4.630   2.724  12.710 -0.0833 -0.0735 -0.0308
  459TMC3    C8 6895   4.623   3.161  12.500  0.3153  0.2927 -0.1101
  459TMC3    O1 6896   0.011   2.745  12.707  0.4993 -0.3013  0.2197
  459TMC3    O2 6897   4.726   3.211  12.547 -0.4033  0.5389 -0.5572
  460MPD2     C 6898   4.211   1.290  10.739  0.3358 -0.1094 -0.9506
  460MPD2    C1 6899   4.171   1.173  10.676  0.2127  0.0628  0.2362
  460MPD2    C2 6900   4.077   1.184  10.569  0.5387  0.1259 -0.0212
  460MPD2    C3 6901   4.023   1.306  10.531  0.5180 -0.4675  0.3964
  460MPD2    C4 6902   4.070   1.419  10.591  0.1598  0.1462  1.0736
  460MPD2    C5 6903   4.167   1.412  10.686 -0.6492  0.4156  0.6670
  460MPD2     H 6904   4.049   1.099  10.506 -0.7056  1.4173 -1.2075
  460MPD2    H1 6905   4.030   1.517  10.565  1.2689  0.2794 -0.1246
  460MPD2    H2 6906   4.289   1.299  10.813 -2.0892 -1.1761  1.7402
  460MPD2    H3 6907   4.202   1.508  10.720 -0.2806 -0.1631  1.9163
  460MPD2     N 6908   3.924   1.304  10.426 -0.0465 -1.2239  0.6482
  460MPD2    H5 6909   3.895   1.212  10.393  2.1832 -1.4917 -0.5683
  460MPD2    N1 6910   4.214   1.045  10.724 -0.1273 -0.0596  0.2667
  460MPD2    H7 6911   4.277   1.037  10.803 -0.4834  0.3984  0.5985
  461TMC3    C1 6912   3.778   1.393  10.255  0.2634  0.5643  0.5652
  461TMC3    C2 6913   3.748   1.263  10.218  0.0569  0.1494 -0.1967
  461TMC3    C3 6914   3.699   1.256  10.087  0.0255  0.3714 -0.5959
  461TMC3    C4 6915   3.770   1.507  10.172 -0.6172 -0.2641 -0.0858
  461TMC3    C5 6916   3.712   1.486  10.051 -0.3129  0.3050 -0.5220
  461TMC3    C6 6917   3.675   1.362  10.005  0.0666 -0.6824 -0.0358
  461TMC3     C 6918   3.871   1.414  10.366  0.6473 -0.3577 -0.2161
  461TMC3     O 6919   3.893   1.531  10.392  0.1706  0.3671 -0.6201
  461TMC3     H 6920   3.755   1.183  10.290  1.7191  0.3442 -0.1435
  461TMC3    H1 6921   3.790   1.607  10.208 -2.6462 -0.0589  0.4532
  461TMC3    H2 6922   3.631   1.346   9.907 -0.0534 -0.7886  0.0353
  461TMC3    C7 6923   3.711   1.599   9.958 -0.3305 -0.2993  0.1362
  461TMC3    C8 6924   3.645   1.123  10.058 -0.1806  0.5212 -1.0525
  461TMC3    O1 6925   3.627   1.594   9.871 -0.4985  0.5903  0.5445
  461TMC3    O2 6926   3.645   1.044  10.150  0.7825 -0.0014  0.2788
  462TMC3    C1 6927   4.510   1.566   0.267  0.2878 -0.1535 -0.1447
  462TMC3    C2 6928   4.632   1.510   0.286 -0.8356 -0.1796 -0.0949
  462TMC3    C3 6929   4.650   1.383   0.242 -0.3355  0.7620  0.5322
  462TMC3    C4 6930   4.402   1.510   0.204  0.3584 -0.3000 -0.1148
  462TMC3    C5 6931   4.431   1.388   0.149 -0.4661 -0.3072  0.4786
  462TMC3    C6 6932   4.541   1.319   0.186  0.6168 -0.1744  0.1721
  462TMC3     C 6933   4.491   1.704   0.309  0.2800  0.3320 -0.5706
  462TMC3     O 6934   4.375   1.733   0.340  0.5501  0.3760 -0.0389
  462TMC3     H 6935   4.717   1.560   0.332 -0.9742 -1.8271  1.9874
  462TMC3    H1 6936   4.307   1.562   0.195 -0.3130 -1.4611  0.2808
  462TMC3    H2 6937   4.570   1.233   0.127 -0.6940 -0.9671  0.6870
  462TMC3    C7 6938   4.317   1.321   0.086  0.4604  0.8805 -0.1376
  462TMC3    C8 6939   0.047   1.337   0.237 -0.3205  0.3501  0.8275
  462TMC3    O1 6940   4.319   1.199   0.095  0.6165  0.4616 -0.5291
  462TMC3    O2 6941   0.144   1.415   0.239 -0.0737  0.8358  0.0302
  463MPD2     C 6942   0.535   4.739   0.814 -0.0818  0.7688 -0.5607
  463MPD2    C1 6943   0.493   4.618   0.859 -0.4153  0.5091  0.2769
  463MPD2    C2 6944   0.579   4.511   0.867 -0.3976  0.0757 -0.1293
  463MPD2    C3 6945   0.705   4.529   0.816  0.0285 -0.5673 -0.6215
  463MPD2    C4 6946   0.744   4.649   0.763  0.2661 -0.3379 -0.2203
  463MPD2    C5 6947   0.655   0.009   0.758  0.4755 -0.1522 -0.5439
  463MPD2     H 6948   0.549   4.423   0.922  0.4232  0.8656  1.5673
  463MPD2    H1 6949   0.844   4.655   0.723 -0.8421 -0.3503 -2.9964
  463MPD2    H2 6950   0.483   0.091   0.834 -0.3830  0.5976 -0.5471
  463MPD2    H3 6951   0.691   0.109   0.736 -2.6464  1.0234 -0.3100
  463MPD2     N 6952   0.798   4.422   0.811 -0.1462 -0.1105  0.1479
  463MPD2    H5 6953   0.888   4.445   0.769  1.5013 -1.3477  2.9894
  463MPD2    N1 6954   0.377   4.613   0.939 -0.1639  0.1935  0.6030
  463MPD2    H7 6955   0.357   4.521   0.979  0.4854 -0.3155 -0.2336
  464TMC3    C1 6956   0.157   4.657   1.020 -1.0628 -0.3038 -0.0443
  464TMC3    C2 6957   0.037   4.720   0.996 -0.4682  0.2354 -0.4839
  464TMC3    C3 6958   4.665   4.666   1.050 -0.4383 -0.2260  1.0742
  464TMC3    C4 6959   0.160   4.544   1.097 -0.2584  0.0816  0.2442
  464TMC3    C5 6960   0.043   4.482   1.118  1.2617 -0.4115 -0.2149
  464TMC3    C6 6961   4.663   4.538   1.097 -0.5099  0.2884  0.0384
  464TMC3     C 6962   0.278   4.707   0.951  0.1857  0.3166  0.7308
  464TMC3     O 6963   0.259   0.069   0.891 -0.4687 -0.0551 -0.4486
  464TMC3     H 6964   0.017   0.069   0.939 -0.1292  0.0525 -0.8944
  464TMC3    H1 6965   0.255   4.503   1.131 -0.7559  0.1075  1.6772
  464TMC3    H2 6966   4.572   4.480   1.108  0.1204 -0.8228 -0.6788
  464TMC3    C7 6967   0.049   4.341   1.152  0.5877 -0.7689 -0.5098
  464TMC3    C8 6968   4.533   4.723   1.026  0.2576  0.2322  0.2721
  464TMC3    O1 6969   0.159   4.287   1.150  0.2137  0.5816  0.0287
  464TMC3    O2 6970   4.509   0.044   0.921  0.0790  0.0422  0.5295
  465MPD2     C 6971   1.164   3.480  16.565  0.3535 -0.2671 -0.2604
  465MPD2    C1 6972   1.057   3.400  16.576 -0.2617 -0.4527  0.5167
  465MPD2    C2 6973   0.942   3.427  16.508  0.2664 -0.1472  0.2864
  465MPD2    C3 6974   0.932   3.530  16.424  0.6795 -0.4717  0.3792
  465MPD2    C4 6975   1.034   3.622  16.413  0.0545 -0.3557  0.0434
  465MPD2    C5 6976   1.148   3.592  16.487 -0.2362 -0.3674 -0.0942
  465MPD2     H 6977   0.859   3.360  16.522  0.8996 -0.7670  1.1112
  465MPD2    H1 6978   1.033   3.701  16.339  1.6410  0.0039  0.4206
  465MPD2    H2 6979   1.260   3.471  16.615  0.2247  0.9725  0.2067
  465MPD2    H3 6980   1.225   3.668  16.487 -0.3185 -0.2833 -0.6449
  465MPD2     N 6981   0.813   3.532  16.346  0.7185 -0.5798 -0.0735
  465MPD2    H5 6982   0.749   3.454  16.350 -0.3129  0.3425  1.1258
  465MPD2    N1 6983   1.042   3.290  16.664  0.1927  0.4495 -0.1146
  465MPD2    H7 6984   0.952   3.244  16.659  0.7346 -0.8698  1.9546
  466TMC3    C1 6985   0.505   3.426  16.181  0.0771 -0.4083  0.0312
  466TMC3    C2 6986   0.412   3.513  16.130 -0.4290 -0.6339 -0.3105
  466TMC3    C3 6987   0.455   3.641  16.114  0.4724 -0.0955  0.3470
  466TMC3    C4 6988   0.637   3.454  16.165 -0.2318  0.0827 -0.0513
  466TMC3    C5 6989   0.670   3.590  16.169  0.0186  0.5061  0.2310
  466TMC3    C6 6990   0.580   3.686  16.141  0.7465 -0.8134 -0.3068
  466TMC3     C 6991   0.491   3.397  16.317  0.4464 -0.7390  0.3897
  466TMC3     O 6992   0.587   3.350  16.386 -0.3572 -0.1787 -0.0051
  466TMC3     H 6993   0.304   3.503  16.134 -0.4072 -0.0230  2.0173
  466TMC3    H1 6994   0.711   3.381  16.195 -1.7473 -1.2756  0.3657
  466TMC3    H2 6995   0.603   3.791  16.145 -2.0752 -0.2171  0.2048
  466TMC3    C7 6996   0.780   3.626  16.253  0.5911  0.4799 -0.0986
  466TMC3    C8 6997   0.345   3.740  16.115 -0.1152  0.7210 -0.2223
  466TMC3    O1 6998   0.820   3.743  16.245  0.0871 -0.0693 -0.0598
  466TMC3    O2 6999   0.246   3.708  16.049 -0.2872  0.2200 -0.6931
  467TMC3    C1 7000   2.292   1.946  13.989  0.2973  1.6017 -0.5958
  467TMC3    C2 7001   2.260   1.947  13.857  0.1890 -1.4023 -0.3001
  467TMC3    C3 7002   2.144   1.885  13.812  0.1513 -0.2974  0.3986
  467TMC3    C4 7003   2.207   1.898  14.083 -0.9137 -0.1558 -0.1838
  467TMC3    C5 7004   2.084   1.854  14.035 -0.0318 -0.4113  0.1228
  467TMC3    C6 7005   2.049   1.854  13.905  0.4334  0.2375 -0.3824
  467TMC3     C 7006   2.412   2.020  14.028 -0.1674  0.5137  0.5130
  467TMC3     O 7007   2.465   1.994  14.135  1.2172  0.1023  0.0666
  467TMC3     H 7008   2.341   1.974  13.790  1.5722 -0.0678  1.9065
  467TMC3    H1 7009   2.234   1.907  14.188  1.0361 -1.4045 -0.5873
  467TMC3    H2 7010   1.962   1.805  13.865  1.4153 -1.2008 -0.7590
  467TMC3    C7 7011   2.023   1.760  14.118 -0.7780  0.4372  0.0849
  467TMC3    C8 7012   2.111   1.920  13.683  0.1221  0.2798  0.1225
  467TMC3    O1 7013   2.093   1.707  14.205 -0.3071  0.7997 -0.5004
  467TMC3    O2 7014   2.174   2.009  13.627  0.1687 -0.1560  0.4394
  468MPD2     C 7015   1.030   0.964  11.059  0.3534 -0.8196  0.2279
  468MPD2    C1 7016   1.162   0.927  11.063 -0.4019 -0.7387 -0.2536
  468MPD2    C2 7017   1.196   0.791  11.070  0.1535  0.2183  0.7575
  468MPD2    C3 7018   1.099   0.700  11.071  1.2455  0.2324  0.0728
  468MPD2    C4 7019   0.969   0.738  11.066 -0.6701 -1.3513 -0.5055
  468MPD2    C5 7020   0.936   0.869  11.056  0.0795 -0.4668  0.0993
  468MPD2     H 7021   1.303   0.772  11.067 -0.0670 -1.1163  1.1402
  468MPD2    H1 7022   0.883   0.674  11.081 -1.7391  1.1003  3.5844
  468MPD2    H2 7023   0.994   1.066  11.045  0.7432 -0.2476  3.5660
  468MPD2    H3 7024   0.832   0.899  11.047  0.0147 -0.8368 -0.4128
  468MPD2     N 7025   1.112   0.560  11.067  0.7877 -0.7217 -0.4025
  468MPD2    H5 7026   1.022   0.516  11.054  1.3428 -1.5908 -1.2836
  468MPD2    N1 7027   1.271   1.020  11.053  0.0185  0.1421 -0.1484
  468MPD2    H7 7028   1.363   0.979  11.058 -0.2369 -0.4378 -0.1977
  469TMC3    C1 7029   1.379   1.219  11.073  0.4783  0.0237 -0.7234
  469TMC3    C2 7030   1.505   1.162  11.053 -0.2900 -0.5424 -0.6455
  469TMC3    C3 7031   1.606   1.212  11.123 -0.2345  0.1241  0.5671
  469TMC3    C4 7032   1.357   1.326  11.160  0.5546  0.5351  0.2252
  469TMC3    C5 7033   1.471   1.363  11.232  0.3918  0.1654  0.1037
  469TMC3    C6 7034   1.590   1.310  11.218  0.3089 -0.0610 -0.8596
  469TMC3     C 7035   1.255   1.154  11.036 -0.7707  0.4314 -0.6887
  469TMC3     O 7036   1.157   1.229  11.026 -0.1798 -0.1072  0.0687
  469TMC3     H 7037   1.517   1.082  10.980 -5.2739  0.1729 -2.2625
  469TMC3    H1 7038   1.253   1.353  11.180  0.4294  0.5431 -0.4500
  469TMC3    H2 7039   1.668   1.334  11.290 -1.3750 -0.7793  1.1950
  469TMC3    C7 7040   1.457   1.470  11.329 -0.4904 -0.5617  0.0819
  469TMC3    C8 7041   1.744   1.161  11.091 -0.7734  0.5298 -0.0715
  469TMC3    O1 7042   1.543   1.490  11.415 -0.1024  0.1278 -0.2361
  469TMC3    O2 7043   1.755   1.111  10.978 -0.0465 -1.0737 -0.3156
  470TMC3    C1 7044   3.547   1.444   0.028  0.2559  0.3918 -0.3528
  470TMC3    C2 7045   3.535   1.562   0.092  0.2028 -0.0235 -0.5532
  470TMC3    C3 7046   3.529   1.558   0.228 -0.5868 -0.3484 -0.2756
  470TMC3    C4 7047   3.560   1.330   0.097  0.3184  0.1268  0.3666
  470TMC3    C5 7048   3.545   1.326   0.237  0.5108  0.7121 -1.0736
  470TMC3    C6 7049   3.522   1.446   0.303 -0.1083  0.1180 -0.2172
  470TMC3     C 7050   3.534   1.439  17.642 -0.1338  0.4444 -0.1089
  470TMC3     O 7051   3.559   1.543  17.584  0.3768 -0.1451 -0.1347
  470TMC3     H 7052   3.521   1.657   0.041  2.8815  0.4915 -0.3199
  470TMC3    H1 7053   3.588   1.242   0.039  2.4371 -0.7893  2.7731
  470TMC3    H2 7054   3.492   1.449   0.407 -1.3887 -1.4783 -0.5232
  470TMC3    C7 7055   3.619   1.222   0.307 -0.0484 -0.2676  0.7413
  470TMC3    C8 7056   3.542   1.686   0.302  0.1396 -0.5232 -0.2954
  470TMC3    O1 7057   3.731   1.212   0.261 -0.1342  0.1738  0.4664
  470TMC3    O2 7058   3.486   1.692   0.409 -0.0075  0.8015  0.1304
  471MPD2     C 7059   3.981   2.612  16.685 -0.3987 -0.1505  0.0649
  471MPD2    C1 7060   4.019   2.499  16.613  0.8171 -0.4739  0.8988
  471MPD2    C2 7061   4.122   2.428  16.665 -0.0379 -0.1410  0.9399
  471MPD2    C3 7062   4.191   2.468  16.777 -0.1538 -0.1514 -0.5181
  471MPD2    C4 7063   4.148   2.585  16.848  0.0467 -0.3034  0.0874
  471MPD2    C5 7064   4.041   2.653  16.800  0.3854  0.5602 -0.0442
  471MPD2     H 7065   4.153   2.341  16.609  0.1050  0.3729  0.2150
  471MPD2    H1 7066   4.187   2.619  16.943 -1.0977  1.5123 -0.0873
  471MPD2    H2 7067   3.903   2.677  16.648  0.7390  1.4949  0.5839
  471MPD2    H3 7068   4.001   2.741  16.849 -1.2582  0.2900 -0.9247
  471MPD2     N 7069   4.291   2.379  16.823 -0.3741  0.0680  0.1740
  471MPD2    H5 7070   4.298   2.298  16.763 -0.4372  1.0381 -1.1406
  471MPD2    N1 7071   3.959   2.456  16.492  0.3036  0.1485  0.3381
  471MPD2    H7 7072   4.017   2.398  16.433  1.4618  0.8325  0.8205
  472TMC3    C1 7073   3.777   2.410  16.345  0.1384  0.4084  0.5646
  472TMC3    C2 7074   3.674   2.467  16.270 -0.2573 -0.2145 -0.1301
  472TMC3    C3 7075   3.650   2.419  16.149  0.6638 -0.7744  0.7123
  472TMC3    C4 7076   3.824   2.289  16.309  0.2456 -0.4902 -0.5822
  472TMC3    C5 7077   3.781   2.230  16.195  0.3995 -0.4310 -0.3649
  472TMC3    C6 7078   3.696   2.298  16.113 -0.2498 -0.1374  1.0066
  472TMC3     C 7079   3.829   2.488  16.458 -0.3007  0.6424 -0.7299
  472TMC3     O 7080   3.751   2.555  16.523  0.2350  0.1926  0.2174
  472TMC3     H 7081   3.621   2.556  16.301 -0.0384  0.1706 -0.8505
  472TMC3    H1 7082   3.899   2.243  16.372 -0.9116  0.5942  1.5898
  472TMC3    H2 7083   3.683   2.261  16.013  0.9879 -2.1458  1.5848
  472TMC3    C7 7084   3.848   2.114  16.147 -0.9187  0.9515 -0.1209
  472TMC3    C8 7085   3.532   2.474  16.082  0.3942  0.0384  0.0071
  472TMC3    O1 7086   3.845   2.092  16.029  0.5302 -0.1237  0.0953
  472TMC3    O2 7087   3.470   2.571  16.130 -0.5631  0.3258  0.2876
  473MPD2     C 7088   3.407   4.568  14.195 -0.5882 -0.8406  0.3574
  473MPD2    C1 7089   3.460   4.687  14.141  0.2373 -0.0470 -0.2819
  473MPD2    C2 7090   3.526   0.031  14.228 -0.2337 -0.1296 -0.5993
  473MPD2    C3 7091   3.521   0.006  14.362 -0.5281  0.3216 -0.4804
  473MPD2    C4 7092   3.453   4.638  14.411  0.4777  0.3249  0.0467
  473MPD2    C5 7093   3.410   4.546  14.326 -0.1069 -0.2521  1.0773
  473MPD2     H 7094   3.594   0.107  14.189  0.0701 -0.4440 -0.6822
  473MPD2    H1 7095   3.446   4.618  14.517 -0.9923 -2.6596 -0.6130
  473MPD2    H2 7096   3.368   4.488  14.134  0.1497 -1.0877  0.2065
  473MPD2    H3 7097   3.390   4.447  14.367 -1.3608 -0.5039 -0.1414
  473MPD2     N 7098   3.600   0.080  14.453 -0.2543  0.1936  0.0277
  473MPD2    H5 7099   3.621   0.035  14.541 -1.5787  1.8393  1.1573
  473MPD2    N1 7100   3.472   4.711  14.003  0.0693 -0.5073 -0.0193
  473MPD2    H7 7101   3.531   0.045  13.968  0.6431 -0.7644  0.4116
  474TMC3    C1 7102   3.765   0.233  14.515 -0.4758  0.0716  0.2822
  474TMC3    C2 7103   3.796   0.368  14.526 -0.6407  0.0125  0.2360
  474TMC3    C3 7104   3.920   0.404  14.578 -0.3789 -0.3142 -0.3992
  474TMC3    C4 7105   3.847   0.132  14.557 -0.3794  0.1986 -0.0866
  474TMC3    C5 7106   3.964   0.170  14.609  0.1115 -0.3116 -1.0870
  474TMC3    C6 7107   4.009   0.305  14.611  0.0247 -0.0927 -0.3146
  474TMC3     C 7108   3.649   0.205  14.426  0.3902 -0.7898 -0.3554
  474TMC3     O 7109   3.627   0.286  14.342  0.2557  0.9570 -0.5195
  474TMC3     H 7110   3.720   0.444  14.511  1.1884  1.6151 -0.8455
  474TMC3    H1 7111   3.836   0.024  14.555 -0.6192  0.1919  1.2522
  474TMC3    H2 7112   4.099   0.342  14.658 -0.5166  1.0619 -0.1802
  474TMC3    C7 7113   4.047   0.060  14.669 -0.2063 -0.3239 -0.0978
  474TMC3    C8 7114   3.920   0.533  14.642 -0.2461 -1.2356  0.6117
  474TMC3    O1 7115   4.022   4.683  14.645 -0.8196  0.2117  0.6872
  474TMC3    O2 7116   3.819   0.557  14.709  0.1486  0.7539  0.6800
  475MPD2     C 7117   1.761   3.544  11.404  0.3552  0.0993 -0.9755
  475MPD2    C1 7118   1.748   3.632  11.301  0.5941 -0.0954 -0.1624
  475MPD2    C2 7119   1.647   3.611  11.209  0.2967  0.5965 -0.4629
  475MPD2    C3 7120   1.559   3.511  11.223 -0.7156 -0.2338 -0.9326
  475MPD2    C4 7121   1.574   3.415  11.320  0.6707 -0.3420 -0.0441
  475MPD2    C5 7122   1.674   3.432  11.411  0.3771  0.3320  0.6222
  475MPD2     H 7123   1.604   3.681  11.139 -2.1328  0.0069  0.4309
  475MPD2    H1 7124   1.505   3.332  11.331  0.1725 -0.0260 -0.7623
  475MPD2    H2 7125   1.844   3.553  11.473  0.7228 -0.6736 -1.3118
  475MPD2    H3 7126   1.673   3.365  11.496  0.6150  0.4565  0.7258
  475MPD2     N 7127   1.455   3.517  11.129  1.0176 -0.4379  0.0541
  475MPD2    H5 7128   1.451   3.596  11.066 -2.1245 -0.8869 -0.3315
  475MPD2    N1 7129   1.842   3.740  11.294  0.1973 -0.1730  0.2067
  475MPD2    H7 7130   1.903   3.748  11.376  1.5614  0.2146 -0.8536
  476TMC3    C1 7131   1.953   3.927  11.201  0.4360 -0.0830 -0.7110
  476TMC3    C2 7132   2.017   3.956  11.083 -0.3383  0.8078 -0.4014
  476TMC3    C3 7133   2.134   4.027  11.100 -0.2943  0.1765  0.0334
  476TMC3    C4 7134   2.002   3.957  11.328  0.4115  0.2817  0.1985
  476TMC3    C5 7135   2.119   4.024  11.339  0.8089  0.1369  0.5618
  476TMC3    C6 7136   2.185   4.067  11.224  0.1219 -0.7184  0.4269
  476TMC3     C 7137   1.852   3.818  11.184 -0.1597 -0.0828  0.1992
  476TMC3     O 7138   1.798   3.794  11.079  0.1008 -0.1530 -0.0687
  476TMC3     H 7139   1.966   3.947  10.988  1.3257  1.6224 -1.3802
  476TMC3    H1 7140   1.950   3.938  11.421  2.0328  2.5818  1.5748
  476TMC3    H2 7141   2.285   4.108  11.227  0.8827 -2.2809 -3.3035
  476TMC3    C7 7142   2.150   4.091  11.461  0.3231 -0.1441  0.1827
  476TMC3    C8 7143   2.222   4.043  10.979  0.1905  0.2742 -0.8419
  476TMC3    O1 7144   2.089   4.052  11.558  0.2524 -0.4751  0.1870
  476TMC3    O2 7145   2.308   4.128  10.985  0.1630  0.2506  0.0719
  477MPD2     C 7146   0.111   0.273  11.813  0.2089  0.0407  0.4126
  477MPD2    C1 7147   0.038   0.199  11.720  0.4182 -1.4700 -0.7621
  477MPD2    C2 7148   4.716   0.080  11.762  0.3224 -0.0152  0.0956
  477MPD2    C3 7149   4.740   0.033  11.890  0.4647  0.0434  0.1620
  477MPD2    C4 7150   0.082   0.098  11.973  0.8487 -0.1195  0.5056
  477MPD2    C5 7151   0.129   0.222  11.934 -0.0003 -0.3689  0.4464
  477MPD2     H 7152   4.647   0.027  11.698  1.3041 -0.3685 -0.6764
  477MPD2    H1 7153   0.094   0.053  12.071 -1.1084  0.4082  0.9932
  477MPD2    H2 7154   0.159   0.366  11.785  0.4755 -0.4229 -0.6758
  477MPD2    H3 7155   0.194   0.283  11.996  2.3270  0.4013 -2.7761
  477MPD2     N 7156   4.671   4.652  11.920  0.0494 -0.0241  0.5210
  477MPD2    H5 7157   4.621   4.615  11.839  1.4905 -0.6872 -0.0630
  477MPD2    N1 7158   0.010   0.254  11.596 -0.0981 -0.4595 -0.0145
  477MPD2    H7 7159   0.053   0.341  11.568 -1.0515  0.2129  0.6536
  478TMC3    C1 7160   4.660   0.279  11.379  0.1666 -0.1314 -0.1972
  478TMC3    C2 7161   4.614   0.408  11.399  0.4390 -1.1441  0.1992
  478TMC3    C3 7162   4.522   0.459  11.310  0.0774  0.4095 -0.9232
  478TMC3    C4 7163   4.627   0.217  11.258  0.0782 -0.5276  0.2704
  478TMC3    C5 7164   4.542   0.283  11.164 -0.6223  0.9280 -0.6762
  478TMC3    C6 7165   4.485   0.402  11.187  0.1033  0.6890 -0.2973
  478TMC3     C 7166   4.686   0.194  11.499 -0.1872  0.5656 -0.0580
  478TMC3     O 7167   4.627   0.083  11.497  0.4948 -0.2761 -0.2311
  478TMC3     H 7168   4.623   0.461  11.493  0.9697 -1.4115  0.2992
  478TMC3    H1 7169   4.676   0.123  11.232  1.8689 -0.5638  3.7630
  478TMC3    H2 7170   4.401   0.443  11.132  1.3134  2.2351 -0.9607
  478TMC3    C7 7171   4.498   0.200  11.057 -0.5066 -0.4702  0.0760
  478TMC3    C8 7172   4.415   0.534  11.381  0.1655  0.5599  0.4412
  478TMC3    O1 7173   4.497   0.081  11.090  0.1572  0.1071  0.5542
  478TMC3    O2 7174   4.397   0.504  11.497  0.0890  0.1652 -0.9019
  479MPD2     C 7175   3.421   1.427  14.921 -0.8399  0.4063  0.0030
  479MPD2    C1 7176   3.360   1.352  15.022 -0.7419 -0.2031  0.5365
  479MPD2    C2 7177   3.409   1.362  15.154 -0.5847  0.7554  0.5649
  479MPD2    C3 7178   3.518   1.449  15.189 -0.2245  0.1107  0.6933
  479MPD2    C4 7179   3.585   1.510  15.082  0.6090  0.6432  0.0457
  479MPD2    C5 7180   3.528   1.508  14.954 -0.6395 -0.1941  0.0927
  479MPD2     H 7181   3.361   1.298  15.228 -0.9800 -0.4121 -0.7111
  479MPD2    H1 7182   3.675   1.570  15.092  0.8648  0.5440 -1.6568
  479MPD2    H2 7183   3.379   1.446  14.823  0.0932 -1.7424 -0.8014
  479MPD2    H3 7184   3.586   1.563  14.881  0.0910  0.0395  0.8399
  479MPD2     N 7185   3.559   1.471  15.325  0.2520  0.6203  0.2126
  479MPD2    H5 7186   3.644   1.525  15.333  0.3012  0.8277 -1.8927
  479MPD2    N1 7187   3.244   1.277  14.985 -0.0338 -0.7785 -0.2070
  479MPD2    H7 7188   3.220   1.289  14.887  0.4764 -0.2839 -0.2712
  480TMC3    C1 7189   3.178   1.290  15.512 -0.0464  0.2811  0.1764
  480TMC3    C2 7190   3.097   1.373  15.438  0.1928  0.1395 -0.4959
  480TMC3    C3 7191   3.156   1.485  15.377  0.4850  0.2685  0.5392
  480TMC3    C4 7192   3.309   1.299  15.503  0.4549  0.1058 -0.3305
  480TMC3    C5 7193   3.360   1.406  15.438 -0.0658 -0.1631 -0.1347
  480TMC3    C6 7194   3.286   1.511  15.390  0.6731 -0.0744  0.6818
  480TMC3     C 7195   3.136   1.147  15.508 -0.5692 -0.0037 -0.1339
  480TMC3     O 7196   3.228   1.065  15.485  0.6090 -0.3195 -0.0449
  480TMC3     H 7197   2.995   1.340  15.418 -0.7181  2.2803  0.7030
  480TMC3    H1 7198   3.368   1.232  15.564  1.2535 -0.3788 -1.6450
  480TMC3    H2 7199   3.339   1.598  15.352 -0.7263  0.2371 -0.5743
  480TMC3    C7 7200   3.501   1.413  15.441  0.8924 -0.2672 -0.0736
  480TMC3    C8 7201   3.082   1.553  15.273  0.2514 -0.0870  1.0571
  480TMC3    O1 7202   3.551   1.412  15.548  0.1569  0.6738  0.1327
  480TMC3    O2 7203   2.959   1.530  15.279  0.0203 -0.9300  0.1793
  481MPD2     C 7204   0.425   1.151  13.979 -0.2263  0.5419  0.4287
  481MPD2    C1 7205   0.486   1.259  14.040 -0.6747 -0.5258  0.0743
  481MPD2    C2 7206   0.457   1.292  14.173  0.7193  0.2601  0.9951
  481MPD2    C3 7207   0.364   1.214  14.243  0.1277  0.1123  0.6290
  481MPD2    C4 7208   0.298   1.111  14.181 -0.0677 -0.2303 -0.3134
  481MPD2    C5 7209   0.331   1.083  14.048 -0.2390 -0.2588  0.0046
  481MPD2     H 7210   0.506   1.373  14.226 -1.4908  1.7742  0.7210
  481MPD2    H1 7211   0.225   1.049  14.232  0.5153 -2.1778 -1.8462
  481MPD2    H2 7212   0.451   1.128  13.877 -0.3166 -3.5680  1.3210
  481MPD2    H3 7213   0.285   1.000  13.995 -1.9075 -0.4842  1.7789
  481MPD2     N 7214   0.355   1.242  14.382  0.4702  0.3809  0.2618
  481MPD2    H5 7215   0.393   1.332  14.410 -0.6709  1.1655 -0.6776
  481MPD2    N1 7216   0.588   1.321  13.966  0.0241  0.6852  0.1843
  481MPD2    H7 7217   0.607   1.270  13.880 -1.2921 -0.9290  0.8464
  482TMC3    C1 7218   0.695   1.486  13.850 -0.6138  0.3685  0.8134
  482TMC3    C2 7219   0.710   1.376  13.768 -0.0240 -0.2059  0.1449
  482TMC3    C3 7220   0.672   1.381  13.638  0.0940  0.2134 -0.9326
  482TMC3    C4 7221   0.642   1.606  13.806  0.3834 -0.0318  0.1298
  482TMC3    C5 7222   0.598   1.610  13.674 -0.6630 -0.3578 -0.2925
  482TMC3    C6 7223   0.612   1.500  13.592 -0.2699  0.5067  0.1553
  482TMC3     C 7224   0.648   1.442  13.982 -0.1628  0.2755  0.2433
  482TMC3     O 7225   0.619   1.526  14.063 -0.3709  0.2609 -0.5946
  482TMC3     H 7226   0.780   1.296  13.788  1.0338  0.6314 -0.1802
  482TMC3    H1 7227   0.619   1.689  13.871  2.5565  0.9825 -0.3834
  482TMC3    H2 7228   0.595   1.514  13.485  3.1627  3.1288 -0.0810
  482TMC3    C7 7229   0.502   1.717  13.639 -0.3532  0.4815 -0.2769
  482TMC3    C8 7230   0.595   1.263  13.609  0.1020 -0.2910  0.7211
  482TMC3    O1 7231   0.453   1.770  13.735  0.2469 -0.1721  0.1732
  482TMC3    O2 7232   0.575   1.201  13.713 -0.3030 -0.1931  0.1405
  483TMC3    C1 7233   2.948   0.259   0.548  0.0661  0.3474  0.5607
  483TMC3    C2 7234   3.041   0.358   0.556 -0.2683  0.3697  0.0025
  483TMC3    C3 7235   3.142   0.353   0.650 -0.4856  0.2143 -0.9122
  483TMC3    C4 7236   2.960   0.151   0.633  0.3882 -0.1366 -0.5923
  483TMC3    C5 7237   3.059   0.153   0.725  0.0851  0.5234 -0.2290
  483TMC3    C6 7238   3.152   0.251   0.744  0.4546  1.2248 -0.3386
  483TMC3     C 7239   2.853   0.267   0.437  0.0979 -0.1380 -0.4302
  483TMC3     O 7240   2.872   0.354   0.351 -0.4934 -0.0080  0.0381
  483TMC3     H 7241   3.027   0.446   0.495 -0.5801  1.7549  2.0543
  483TMC3    H1 7242   2.919   0.052   0.616  0.0484 -0.2296  0.7660
  483TMC3    H2 7243   3.218   0.247   0.830 -0.0930 -0.6796  0.0044
  483TMC3    C7 7244   3.082   0.018   0.784 -0.4792 -0.2846 -0.5512
  483TMC3    C8 7245   3.246   0.452   0.631  0.5320 -0.0463  0.4755
  483TMC3    O1 7246   2.992   4.680   0.795  0.1205 -0.2501 -0.2152
  483TMC3    O2 7247   3.227   0.543   0.552  0.5919 -0.3329  0.2210
  484MPD2     C 7248   4.516   3.273  12.166  0.0543  0.0353  0.2813
  484MPD2    C1 7249   4.600   3.264  12.273  0.9792  0.3510  0.3124
  484MPD2    C2 7250   4.716   3.335  12.272  0.2492  0.0788  0.2302
  484MPD2    C3 7251   0.008   3.420  12.163 -0.0946  0.3881 -0.1584
  484MPD2    C4 7252   4.670   3.420  12.051  0.4854 -0.1716  0.4375
  484MPD2    C5 7253   4.556   3.347  12.055 -0.0941 -0.2459 -0.8616
  484MPD2     H 7254   0.043   3.325  12.356  0.3291 -1.0207  0.0306
  484MPD2    H1 7255   4.682   3.483  11.963  1.4144 -1.3629 -0.2795
  484MPD2    H2 7256   4.426   3.214  12.156  0.6299 -1.2242  2.5326
  484MPD2    H3 7257   4.487   3.358  11.972  0.1303  0.7956 -0.9111
  484MPD2     N 7258   0.126   3.495  12.161  0.1217  0.2859 -0.3039
  484MPD2    H5 7259   0.151   3.532  12.070 -0.3047  1.1717 -0.0551
  484MPD2    N1 7260   4.559   3.178  12.382  0.1896 -0.0357  0.0458
  484MPD2    H7 7261   4.474   3.124  12.374 -0.8658  1.1912  3.0073
  485TMC3    C1 7262   0.305   3.634  12.258 -0.6599  0.2892 -0.4206
  485TMC3    C2 7263   0.381   3.663  12.370 -0.3718  0.4902 -0.1121
  485TMC3    C3 7264   0.471   3.769  12.344  0.2078 -0.1716  0.0508
  485TMC3    C4 7265   0.302   3.701  12.137  0.2888  0.3055 -0.1765
  485TMC3    C5 7266   0.379   3.809  12.127  0.1351 -0.5221 -0.4740
  485TMC3    C6 7267   0.448   3.849  12.236 -0.4741 -0.3683  0.0028
  485TMC3     C 7268   0.193   3.542  12.277  0.2910  0.2502 -0.3367
  485TMC3     O 7269   0.173   3.514  12.393 -0.1711  0.1570  0.3865
  485TMC3     H 7270   0.392   3.598  12.456  0.8509  0.6571 -0.1320
  485TMC3    H1 7271   0.257   3.664  12.046 -1.3298 -0.1639  0.8081
  485TMC3    H2 7272   0.505   3.941  12.229 -1.5230  0.5070  2.7443
  485TMC3    C7 7273   0.448   3.818  11.996  0.4192  0.0581  0.2819
  485TMC3    C8 7274   0.615   3.741  12.356 -0.2361 -0.2297  0.0034
  485TMC3    O1 7275   0.382   3.810  11.891  0.3253 -0.5039 -0.0560
  485TMC3    O2 7276   0.687   3.801  12.282  0.0804 -0.5672 -0.7487
  486MPD2     C 7277   3.212   2.313  13.153 -0.7989  0.2742 -0.4363
  486MPD2    C1 7278   3.218   2.249  13.031  0.7187 -0.0682 -0.1155
  486MPD2    C2 7279   3.157   2.318  12.926  0.7343  0.0417 -0.5717
  486MPD2    C3 7280   3.088   2.439  12.948 -0.1844 -0.1733 -0.7226
  486MPD2    C4 7281   3.107   2.509  13.064 -0.2430 -0.0646  0.5094
  486MPD2    C5 7282   3.161   2.436  13.168  0.4500  0.0349  0.3311
  486MPD2     H 7283   3.150   2.275  12.827  0.6467 -1.0324 -0.0966
  486MPD2    H1 7284   3.062   2.603  13.094 -0.0689 -0.0974  0.8725
  486MPD2    H2 7285   3.261   2.273  13.240  1.8849 -2.0941 -3.0380
  486MPD2    H3 7286   3.170   2.481  13.266 -1.1324 -0.6856  0.7964
  486MPD2     N 7287   3.018   2.499  12.845  0.7885  0.7597  0.2254
  486MPD2    H5 7288   3.022   2.440  12.762  0.2405 -1.0987  1.5359
  486MPD2    N1 7289   3.276   2.120  13.016  0.1506  0.0710  0.2714
  486MPD2    H7 7290   3.309   2.076  13.102  1.9553 -1.4089 -1.2040
  487TMC3    C1 7291   3.337   1.906  12.918 -0.5622  0.3162 -0.0298
  487TMC3    C2 7292   3.278   1.808  12.855  0.6082  0.1328 -0.2548
  487TMC3    C3 7293   3.319   1.680  12.880  0.0447  0.5641 -0.2946
  487TMC3    C4 7294   3.433   1.895  13.013 -0.0534 -0.7549  0.2635
  487TMC3    C5 7295   3.472   1.765  13.041  0.3356 -1.0969  0.1958
  487TMC3    C6 7296   3.426   1.660  12.965 -0.0201  0.1419 -0.1580
  487TMC3     C 7297   3.273   2.039  12.902  0.6076  0.8769  0.2695
  487TMC3     O 7298   3.210   2.059  12.796  0.4548 -0.7969  0.2708
  487TMC3     H 7299   3.200   1.832  12.784 -0.2919 -0.4064  0.5575
  487TMC3    H1 7300   3.479   1.980  13.061  1.0150 -1.7346  0.9782
  487TMC3    H2 7301   3.446   1.561  13.004 -0.7612 -0.6412 -1.7715
  487TMC3    C7 7302   3.544   1.739  13.164 -0.7470 -0.2592  0.6055
  487TMC3    C8 7303   3.213   1.583  12.890  0.6085 -0.7112 -0.2415
  487TMC3    O1 7304   3.617   1.640  13.167 -0.8088  0.4553 -0.4117
  487TMC3    O2 7305   3.232   1.480  12.947 -0.5045 -0.2237 -0.0505
  488MPD2     C 7306   3.154   3.438  16.498 -0.2010 -0.7003 -0.0952
  488MPD2    C1 7307   3.197   3.563  16.533 -0.8776 -0.4745  0.0541
  488MPD2    C2 7308   3.164   3.618  16.656  0.5259  0.1614 -0.6402
  488MPD2    C3 7309   3.099   3.543  16.750 -0.8569 -0.4988 -0.4352
  488MPD2    C4 7310   3.069   3.418  16.728 -0.2502 -0.4956 -0.0809
  488MPD2    C5 7311   3.090   3.367  16.601 -0.0460 -0.2145  0.5710
  488MPD2     H 7312   3.194   3.721  16.672  0.0356  0.4950 -1.8622
  488MPD2    H1 7313   3.011   3.368  16.805 -0.8557  0.3705  0.0133
  488MPD2    H2 7314   3.150   3.401  16.396  2.9690  0.4892 -0.6494
  488MPD2    H3 7315   3.054   3.267  16.577  2.2759 -0.9398  0.0842
  488MPD2     N 7316   3.069   3.616  16.869  0.0683  0.0904 -0.3331
  488MPD2    H5 7317   3.080   3.717  16.866 -0.6829  0.1512 -0.8651
  488MPD2    N1 7318   3.264   3.654  16.442 -0.0854  0.2066  0.0031
  488MPD2    H7 7319   3.306   3.741  16.473  0.1333 -0.3882  1.3814
  489TMC3    C1 7320   3.048   3.653  17.096  0.0655 -0.0207  0.4638
  489TMC3    C2 7321   3.132   3.763  17.077  0.3188 -0.5487 -0.6798
  489TMC3    C3 7322   3.108   3.882  17.138  0.0920 -0.0291  0.7268
  489TMC3    C4 7323   2.936   3.674  17.169 -0.0777  0.1257 -0.0413
  489TMC3    C5 7324   2.919   3.792  17.237  0.2558 -0.3118 -0.4634
  489TMC3    C6 7325   2.998   3.900  17.217  0.1891  0.9065  0.4653
  489TMC3     C 7326   3.048   3.554  16.988 -0.1860  0.6177 -0.1347
  489TMC3     O 7327   3.022   3.440  17.018  0.0657 -0.1265 -1.3659
  489TMC3     H 7328   3.224   3.745  17.023  0.5821  0.5528 -0.5952
  489TMC3    H1 7329   2.857   3.600  17.171  0.4542 -0.4340  0.2266
  489TMC3    H2 7330   2.987   3.989  17.277 -0.1375  1.0374  0.2135
  489TMC3    C7 7331   2.798   3.826  17.314 -0.8694  0.6600  0.2695
  489TMC3    C8 7332   3.193   3.994  17.107 -0.1722  0.1011  0.2722
  489TMC3    O1 7333   2.776   3.945  17.338 -0.2434 -0.5734  0.6565
  489TMC3    O2 7334   3.299   3.972  17.056  0.8621  0.4064 -0.1458
  490MPD2     C 7335   3.847   3.346  17.395  0.1979  0.1942 -0.0061
  490MPD2    C1 7336   3.841   3.229  17.470 -0.0219  0.1003 -0.5423
  490MPD2    C2 7337   3.957   3.171  17.518  0.7680 -0.2740  0.2311
  490MPD2    C3 7338   4.073   3.243  17.511 -0.2412 -0.0251 -0.6368
  490MPD2    C4 7339   4.078   3.352  17.431 -0.2852 -0.0096  0.1843
  490MPD2    C5 7340   3.967   3.408  17.381 -0.5509  0.4315 -0.2472
  490MPD2     H 7341   3.952   3.078  17.572 -1.4588  0.0786  0.6526
  490MPD2    H1 7342   4.164   3.415  17.412 -1.4742  1.3192 -0.7775
  490MPD2    H2 7343   3.757   3.388  17.351  0.2643  2.0565  1.6406
  490MPD2    H3 7344   3.982   3.506  17.338  1.3553  0.2389 -0.0538
  490MPD2     N 7345   4.191   3.205  17.577 -0.3586  0.9296  0.0251
  490MPD2    H5 7346   4.282   3.244  17.555 -0.7991  2.3426  0.6814
  490MPD2    N1 7347   3.734   3.138  17.483 -0.6330 -0.0043 -0.1866
  490MPD2    H7 7348   3.753   3.047  17.524  3.0411  0.2757 -1.2550
  491TMC3    C1 7349   3.559   3.007  17.415  0.1933  0.0842 -0.1142
  491TMC3    C2 7350   3.593   2.923  17.514  0.3553 -0.6082  0.5112
  491TMC3    C3 7351   3.551   2.795  17.503  0.1342 -0.3583  0.1975
  491TMC3    C4 7352   3.484   2.971  17.308 -0.0750 -0.8710  0.4616
  491TMC3    C5 7353   3.442   2.843  17.298  1.0159  0.2761  0.4495
  491TMC3    C6 7354   3.472   2.753  17.396  0.2602  0.9013 -0.3972
  491TMC3     C 7355   3.621   3.138  17.406 -0.1727  0.0568  0.0834
  491TMC3     O 7356   3.596   3.214  17.314 -0.5186 -0.2121 -0.1023
  491TMC3     H 7357   3.655   2.959  17.596  1.7018 -0.9565 -0.3453
  491TMC3    H1 7358   3.462   3.037  17.225  1.6458  1.1736  1.6507
  491TMC3    H2 7359   3.423   2.657  17.392  2.5176 -0.2236 -0.6781
  491TMC3    C7 7360   3.355   2.801  17.192  0.3626  0.6439 -0.1397
  491TMC3    C8 7361   3.600   2.695  17.592 -0.3767  0.1156 -0.2491
  491TMC3    O1 7362   3.383   2.689  17.146  0.5550  0.4810  0.0742
  491TMC3    O2 7363   3.616   2.721  17.711  0.4038  0.1791 -0.2438
  492MPD2     C 7364   4.323   3.534  11.010 -0.6333  0.2181 -0.3062
  492MPD2    C1 7365   4.210   3.463  10.999 -0.4000 -0.3279 -0.1581
  492MPD2    C2 7366   4.174   3.360  11.086 -0.2432  0.0072  0.0399
  492MPD2    C3 7367   4.261   3.326  11.190 -0.1449  0.2926 -1.0479
  492MPD2    C4 7368   4.374   3.402  11.198 -0.5573  0.1254  1.5518
  492MPD2    C5 7369   4.402   3.506  11.113  0.1606 -0.3002  0.2694
  492MPD2     H 7370   4.083   3.304  11.069  0.4152 -0.8309 -0.7400
  492MPD2    H1 7371   4.457   3.381  11.266  1.7116  0.2799 -1.1753
  492MPD2    H2 7372   4.359   3.611  10.944 -0.4382 -1.1418 -1.7979
  492MPD2    H3 7373   4.490   3.569  11.117  0.4855 -0.7617  0.4280
  492MPD2     N 7374   4.235   3.230  11.290 -0.4054  0.1282  0.8993
  492MPD2    H5 7375   4.309   3.208  11.355 -0.1230  2.7761  1.4984
  492MPD2    N1 7376   4.130   3.510  10.895  0.3231  0.2606  0.6331
  492MPD2    H7 7377   4.170   3.569  10.823  1.1079 -1.9973 -0.7671
  493TMC3    C1 7378   3.939   3.522  10.758  0.0307 -0.0365  0.2589
  493TMC3    C2 7379   3.974   3.641  10.700  0.1486  0.1617 -0.4767
  493TMC3    C3 7380   3.879   3.682  10.606 -0.6074 -0.3640  0.1832
  493TMC3    C4 7381   3.811   3.467  10.744  0.6498  0.1553  0.4608
  493TMC3    C5 7382   3.733   3.514  10.653 -0.6372 -0.0230 -0.0464
  493TMC3    C6 7383   3.759   3.620  10.575 -0.8774  0.4961 -0.0416
  493TMC3     C 7384   3.998   3.475  10.878  0.3077  0.1570 -0.4902
  493TMC3     O 7385   3.924   3.412  10.950  0.9379 -0.0544 -0.3545
  493TMC3     H 7386   4.068   3.692  10.714  1.1631 -1.7469 -0.3407
  493TMC3    H1 7387   3.785   3.371  10.789 -1.0093  0.7459  0.7619
  493TMC3    H2 7388   3.701   3.645  10.486 -0.2712  2.0344 -0.0091
  493TMC3    C7 7389   3.595   3.471  10.653 -0.6115  0.7881 -0.4000
  493TMC3    C8 7390   3.912   3.812  10.540  0.1065 -0.5069  0.2553
  493TMC3    O1 7391   3.531   3.486  10.547  0.4679 -0.2599 -0.2324
  493TMC3    O2 7392   4.027   3.842  10.529 -0.1795  0.1479  0.0381
  494TMC3    C1 7393   4.520   4.544   0.165 -0.5798  0.4739  0.0771
  494TMC3    C2 7394   4.569   4.438   0.241 -0.7090 -0.2503 -0.1120
  494TMC3    C3 7395   4.694   4.448   0.302 -1.3794 -0.0704 -0.2112
  494TMC3    C4 7396   4.598   4.652   0.135  0.3136 -0.8212  0.6098
  494TMC3    C5 7397   4.718   4.655   0.195 -0.2094  0.0560  0.1669
  494TMC3    C6 7398   0.028   4.560   0.281 -0.4275  0.4753  0.9133
  494TMC3     C 7399   4.381   4.578   0.198  1.1073 -0.0526  0.1516
  494TMC3     O 7400   4.362   4.569   0.319 -0.3455  0.7201  0.0940
  494TMC3     H 7401   4.501   4.355   0.259  0.8687 -2.4800 -4.5749
  494TMC3    H1 7402   4.566   4.738   0.077  0.0169 -1.0212  0.4727
  494TMC3    H2 7403   0.132   4.562   0.310 -0.3627  0.2079  0.6970
  494TMC3    C7 7404   0.051   0.041   0.196  0.2868  0.3907  0.3890
  494TMC3    C8 7405   0.014   4.333   0.358  0.3036  0.0186 -0.4663
  494TMC3    O1 7406   0.114   0.060   0.301 -0.3452  0.5452 -0.5129
  494TMC3    O2 7407   0.137   4.340   0.375 -0.1291  0.0330 -0.5632
  495TMC3    C1 7408   3.628   1.742  14.544 -0.4546 -0.0218  0.4859
  495TMC3    C2 7409   3.576   1.798  14.435  0.8586 -1.0002 -0.3642
  495TMC3    C3 7410   3.468   1.871  14.448  0.2635 -0.0494  0.2813
  495TMC3    C4 7411   3.596   1.792  14.666 -0.0792 -0.4126  0.0999
  495TMC3    C5 7412   3.484   1.868  14.678  0.2220 -0.2191 -0.3927
  495TMC3    C6 7413   3.422   1.921  14.568  0.5979  0.1438  0.6118
  495TMC3     C 7414   3.694   1.611  14.529  0.4545 -0.3562 -0.6175
  495TMC3     O 7415   3.656   1.549  14.434 -0.0876  0.0701 -0.3543
  495TMC3     H 7416   3.610   1.763  14.338  3.5811 -0.1072  0.2599
  495TMC3    H1 7417   3.644   1.754  14.756  0.3540  1.7554  0.7980
  495TMC3    H2 7418   3.325   1.966  14.581  0.5945  0.3064  0.0249
  495TMC3    C7 7419   3.415   1.847  14.802 -0.4172  0.5877 -0.5994
  495TMC3    C8 7420   3.380   1.873  14.329 -0.2590  0.9073  0.0621
  495TMC3    O1 7421   3.479   1.836  14.905  0.4807  0.1040 -0.1303
  495TMC3    O2 7422   3.278   1.939  14.354 -0.3999 -0.1768 -0.3720
  496MPD2     C 7423   0.882   1.809  15.420  0.4627 -0.0781 -0.0632
  496MPD2    C1 7424   0.769   1.733  15.384 -0.6614 -0.1801  0.9121
  496MPD2    C2 7425   0.651   1.737  15.462  0.1502  0.9806  0.5884
  496MPD2    C3 7426   0.650   1.819  15.570  0.4315 -0.2983  0.0353
  496MPD2    C4 7427   0.767   1.872  15.616  0.2990 -0.5158  0.2337
  496MPD2    C5 7428   0.883   1.869  15.542 -0.0930 -0.7432  0.4331
  496MPD2     H 7429   0.563   1.678  15.440  0.0077  1.9201 -1.4063
  496MPD2    H1 7430   0.770   1.924  15.711  0.5834  1.4488 -0.8473
  496MPD2    H2 7431   0.962   1.804  15.347  1.5424  1.2242  1.0420
  496MPD2    H3 7432   0.975   1.914  15.578  0.0804 -1.0219  0.3365
  496MPD2     N 7433   0.542   1.814  15.661 -0.9338  0.3743  0.3822
  496MPD2    H5 7434   0.557   1.826  15.761 -0.8411 -0.5642  0.4806
  496MPD2    N1 7435   0.786   1.649  15.271  0.4535 -0.1227  0.6011
  496MPD2    H7 7436   0.871   1.655  15.216 -0.2076  2.7992 -0.1432
  497TMC3    C1 7437   0.333   1.754  15.732  0.0596 -0.2250 -0.1032
  497TMC3    C2 7438   0.200   1.764  15.714 -0.1082  0.0402 -0.2934
  497TMC3    C3 7439   0.121   1.697  15.808  0.1672 -0.0578 -0.3872
  497TMC3    C4 7440   0.390   1.685  15.839  0.4388 -0.6904 -0.2602
  497TMC3    C5 7441   0.301   1.631  15.930 -0.0246  0.3620  0.1910
  497TMC3    C6 7442   0.167   1.630  15.910  0.4682 -0.3672 -0.0298
  497TMC3     C 7443   0.416   1.783  15.619  0.3475  0.0034  0.1096
  497TMC3     O 7444   0.366   1.793  15.507 -0.4911  0.1367 -0.1808
  497TMC3     H 7445   0.160   1.812  15.626  1.0350  0.3246 -0.6598
  497TMC3    H1 7446   0.497   1.665  15.840  0.8234  1.2386 -1.5063
  497TMC3    H2 7447   0.107   1.585  15.988  0.2552 -1.7698 -0.9916
  497TMC3    C7 7448   0.358   1.553  16.037  0.9809 -0.0952 -0.4752
  497TMC3    C8 7449   4.719   1.712  15.803  0.8055  0.3346 -0.3028
  497TMC3    O1 7450   0.290   1.465  16.095  0.3041  0.4886  0.6478
  497TMC3    O2 7451   4.662   1.700  15.910 -0.0646 -0.4015  0.0047
  498MPD2     C 7452   2.344   3.615  10.058 -0.3019  0.4330 -0.5759
  498MPD2    C1 7453   2.223   3.667  10.105 -0.1651  0.2033  0.8070
  498MPD2    C2 7454   2.108   3.593  10.087  0.5969  0.0715 -0.3266
  498MPD2    C3 7455   2.108   3.472  10.025  1.4246  0.6571 -0.4980
  498MPD2    C4 7456   2.228   3.423   9.979  0.5040  0.5602  0.0931
  498MPD2    C5 7457   2.342   3.490   9.999  0.1986 -0.0957  0.3629
  498MPD2     H 7458   2.016   3.639  10.124 -0.7254 -2.0311 -1.0284
  498MPD2    H1 7459   2.236   3.323   9.937  0.9529  0.0320  1.4189
  498MPD2    H2 7460   2.438   3.669  10.064  1.6453 -3.1375  0.9940
  498MPD2    H3 7461   2.435   3.446   9.965 -0.5840 -0.1609 -1.7045
  498MPD2     N 7462   1.979   3.403  10.013  1.0897  0.5283 -0.1970
  498MPD2    H5 7463   1.901   3.452  10.054  0.9672  0.6256 -0.5447
  498MPD2    N1 7464   2.218   3.790  10.177 -0.0466  0.3365 -0.5841
  498MPD2    H7 7465   2.126   3.818  10.209  0.3848 -1.1397  1.9837
  499TMC3    C1 7466   2.273   3.992  10.271 -0.4312  0.0393  0.0129
  499TMC3    C2 7467   2.367   4.058  10.343  0.6584  0.3125  0.3542
  499TMC3    C3 7468   2.336   4.173  10.409 -0.2381 -0.0270  0.0414
  499TMC3    C4 7469   2.144   4.035  10.262 -0.7620  0.6074  0.2264
  499TMC3    C5 7470   2.115   4.148  10.338  0.3519 -0.0945  0.0190
  499TMC3    C6 7471   2.212   4.222  10.405 -0.1114  0.0943  0.1176
  499TMC3     C 7472   2.320   3.875  10.196 -0.2892 -0.0726  0.4885
  499TMC3     O 7473   2.440   3.860  10.187 -0.2261 -0.4100 -0.4606
  499TMC3     H 7474   2.470   4.023  10.345  0.4874 -0.1848  0.1606
  499TMC3    H1 7475   2.068   3.992  10.198 -0.6278 -2.8784  2.4211
  499TMC3    H2 7476   2.178   4.309  10.459  0.0727  0.1023  0.2202
  499TMC3    C7 7477   2.004   4.225  10.289  0.3929  0.6287 -0.2491
  499TMC3    C8 7478   2.441   4.231  10.500  0.4631 -0.1066 -0.2391
  499TMC3    O1 7479   2.014   4.348  10.282  0.1478 -0.0422 -0.2620
  499TMC3    O2 7480   2.553   4.223  10.455  0.2539 -0.0023  0.1714
  500MPD2     C 7481   3.084   4.077  10.679  0.3763  0.7661  0.0751
  500MPD2    C1 7482   3.130   4.190  10.621 -0.9373 -0.2965 -0.6594
  500MPD2    C2 7483   3.039   4.264  10.546 -0.1647  0.0081  0.8303
  500MPD2    C3 7484   2.902   4.237  10.524  0.0319 -0.5052 -0.3137
  500MPD2    C4 7485   2.859   4.127  10.592  0.3544  0.4574 -0.1471
  500MPD2    C5 7486   2.949   4.045  10.660  0.3524  0.0020 -0.1554
  500MPD2     H 7487   3.073   4.356  10.501 -1.3959 -0.6548 -1.4365
  500MPD2    H1 7488   2.755   4.101  10.572  0.4533  0.0713 -0.1499
  500MPD2    H2 7489   3.145   4.006  10.733 -1.8902 -2.0190 -1.0352
  500MPD2    H3 7490   2.919   3.952  10.708  1.0829 -0.1442  0.0232
  500MPD2     N 7491   2.813   4.332  10.467 -0.1836  0.2386 -0.4217
  500MPD2    H5 7492   2.715   4.310  10.459 -0.3897  0.9140  0.2583
  500MPD2    N1 7493   3.264   4.232  10.621 -0.0786  0.3896 -0.1967
  500MPD2    H7 7494   3.297   4.306  10.559 -0.9044  1.0551  0.1535
  501TMC3    C1 7495   3.489   4.220  10.681  0.3847 -0.2989  0.1029
  501TMC3    C2 7496   3.516   4.325  10.605 -0.5212  0.2321  0.0292
  501TMC3    C3 7497   3.650   4.341  10.572  0.2143 -0.1458  0.3518
  501TMC3    C4 7498   3.585   4.134  10.730  0.0387  0.0795  0.8303
  501TMC3    C5 7499   3.718   4.162  10.702 -0.2646  0.3007  0.5282
  501TMC3    C6 7500   3.756   4.267  10.623 -0.6000 -0.3554  0.0224
  501TMC3     C 7501   3.354   4.170  10.700 -0.2537  0.2709  0.7940
  501TMC3     O 7502   3.338   4.099  10.799 -0.1646  0.8741  0.0753
  501TMC3     H 7503   3.444   4.399  10.571  0.9136  1.0377 -1.2677
  501TMC3    H1 7504   3.567   4.049  10.795 -0.2696 -1.0876 -0.7718
  501TMC3    H2 7505   3.857   4.276  10.583 -0.6671  1.1077  0.1616
  501TMC3    C7 7506   3.814   4.065  10.756  0.5329  0.5675  0.2427
  501TMC3    C8 7507   3.688   4.464  10.503  0.4723  0.0241  0.3480
  501TMC3    O1 7508   3.765   3.974  10.825  0.0813 -0.3260  0.0682
  501TMC3    O2 7509   3.797   4.520  10.519 -0.8486  0.3835  0.0682
  502TMC3    C1 7510   2.683   2.777  14.604  0.2784  0.2503 -0.1034
  502TMC3    C2 7511   2.624   2.903  14.599  0.6054  0.6296  1.9937
  502TMC3    C3 7512   2.505   2.914  14.667  0.3386 -0.3267  0.6720
  502TMC3    C4 7513   2.613   2.666  14.629 -0.2445 -1.0004 -0.2246
  502TMC3    C5 7514   2.487   2.683  14.682  0.8472 -0.3726  1.0619
  502TMC3    C6 7515   2.433   2.805  14.717 -0.2598 -0.7796  1.1846
  502TMC3     C 7516   2.800   2.784  14.682 -0.0559 -0.0894 -0.7652
  502TMC3     O 7517   2.871   2.877  14.656  0.1236 -0.4530 -0.1538
  502TMC3     H 7518   2.677   2.993  14.572  0.7603 -0.9234 -2.7882
  502TMC3    H1 7519   2.646   2.565  14.605  2.3032  0.1586 -1.5517
  502TMC3    H2 7520   2.336   2.810  14.764 -1.1338 -0.7830 -0.6476
  502TMC3    C7 7521   2.437   2.566  14.745 -0.3273 -0.5014 -0.8355
  502TMC3    C8 7522   2.505   3.035  14.747 -0.0179 -0.6214  0.3212
  502TMC3    O1 7523   2.525   2.499  14.794  0.1635 -0.6687  0.2096
  502TMC3    O2 7524   2.606   3.101  14.764  0.4159  0.5474  0.4530
  503MPD2     C 7525   0.221   3.347  17.052 -0.2066 -0.2699  0.8275
  503MPD2    C1 7526   0.264   3.416  17.166  0.2567  0.3533 -0.1407
  503MPD2    C2 7527   0.334   3.343  17.254 -0.4672  0.0339 -0.2776
  503MPD2    C3 7528   0.372   3.206  17.237  0.2017  0.1188  0.1708
  503MPD2    C4 7529   0.338   3.148  17.115  0.5202  0.3546  0.2274
  503MPD2    C5 7530   0.258   3.222  17.028  0.1208  0.7101 -0.3159
  503MPD2     H 7531   0.348   3.389  17.352 -1.5187  0.3794 -0.2836
  503MPD2    H1 7532   0.355   3.041  17.105 -1.0421  0.1326 -0.0752
  503MPD2    H2 7533   0.154   3.390  16.978  2.0334  2.4684  0.3854
  503MPD2    H3 7534   0.213   3.177  16.941 -0.8811  2.9144 -0.9459
  503MPD2     N 7535   0.441   3.133  17.341  0.2348  0.4041  0.4274
  503MPD2    H5 7536   0.468   3.183  17.426  0.8375 -1.4828  1.3548
  503MPD2    N1 7537   0.236   3.560  17.182  0.3315 -0.1636 -0.2960
  503MPD2    H7 7538   0.282   3.613  17.256  0.7474 -0.0568 -0.6292
  504TMC3    C1 7539   0.606   2.980  17.427 -0.6378  0.1711  0.0769
  504TMC3    C2 7540   0.587   3.026  17.560 -0.3115 -0.0938  1.1620
  504TMC3    C3 7541   0.683   2.994  17.648 -0.3569 -0.0822  0.3147
  504TMC3    C4 7542   0.709   2.897  17.388 -0.0675 -0.2142  0.7051
  504TMC3    C5 7543   0.799   2.861  17.488  0.5656  0.7095 -0.7668
  504TMC3    C6 7544   0.793   2.907  17.618 -0.3242  0.1985 -0.0684
  504TMC3     C 7545   0.505   3.014  17.327 -0.8593  0.0867 -0.1648
  504TMC3     O 7546   0.505   2.938  17.230 -0.7337  0.0230 -0.2117
  504TMC3     H 7547   0.507   3.095  17.581 -0.4003  0.5687 -1.3922
  504TMC3    H1 7548   0.723   2.876  17.282 -0.6174  0.7080  0.4485
  504TMC3    H2 7549   0.864   2.873  17.693  0.2635  1.3926 -0.0859
  504TMC3    C7 7550   0.928   2.835  17.430 -0.0909 -0.1221 -0.4376
  504TMC3    C8 7551   0.648   3.023   0.019 -0.2088 -0.7827  1.0167
  504TMC3    O1 7552   0.918   2.764  17.328 -0.3823  0.4568 -0.2577
  504TMC3    O2 7553   0.604   3.135   0.046  0.1291  0.2126  0.2281
  505MPD2     C 7554   0.639   2.588  10.033 -0.1292  0.5690  0.4176
  505MPD2    C1 7555   0.673   2.602  10.163 -0.5894  0.6921  0.5383
  505MPD2    C2 7556   0.649   2.718  10.231  0.4056  0.2716  0.2302
  505MPD2    C3 7557   0.579   2.818  10.165  0.3750 -0.0663 -0.5428
  505MPD2    C4 7558   0.542   2.804  10.035 -0.6766  0.3685  0.1640
  505MPD2    C5 7559   0.574   2.688   9.968 -0.3722 -0.1917  0.3475
  505MPD2     H 7560   0.684   2.734  10.332 -0.7753  0.7183  0.5635
  505MPD2    H1 7561   0.482   2.877   9.982  0.0147  0.6746 -0.2130
  505MPD2    H2 7562   0.665   2.503   9.970  0.7363  2.2788 -1.5341
  505MPD2    H3 7563   0.544   2.669   9.865 -0.0966 -2.8501  0.7615
  505MPD2     N 7564   0.558   2.943  10.230  0.3550 -0.2389  0.0776
  505MPD2    H5 7565   0.596   2.950  10.323  1.7741 -0.1626 -0.5086
  505MPD2    N1 7566   0.751   2.498  10.221 -0.1467  0.6534 -0.0626
  505MPD2    H7 7567   0.776   2.425  10.156 -3.5351  0.2607 -0.9578
  506TMC3    C1 7568   0.900   2.390  10.368  0.0767 -0.2289 -0.6404
  506TMC3    C2 7569   0.986   2.376  10.264 -0.1827 -0.4685 -0.5359
  506TMC3    C3 7570   1.117   2.397  10.285 -0.3406 -0.6959 -0.2806
  506TMC3    C4 7571   0.955   2.409  10.493  1.0361  0.0944 -0.7856
  506TMC3    C5 7572   1.090   2.431  10.515  0.1569  0.1039 -0.4712
  506TMC3    C6 7573   1.178   2.413  10.408 -0.0368  0.5338  0.7498
  506TMC3     C 7574   0.806   2.497  10.347 -0.3002 -0.9762 -0.3207
  506TMC3     O 7575   0.774   2.559  10.448  0.1270 -0.5728  0.6113
  506TMC3     H 7576   0.960   2.385  10.159 -0.7858 -1.4617 -0.4689
  506TMC3    H1 7577   0.886   2.406  10.576 -1.4861 -1.3827 -2.9494
  506TMC3    H2 7578   1.273   2.464  10.419 -0.6379  1.7741  0.2210
  506TMC3    C7 7579   1.115   2.558  10.580 -0.5216 -0.6879  0.6695
  506TMC3    C8 7580   1.186   2.422  10.164 -0.6271  0.7509  0.3477
  506TMC3    O1 7581   1.227   2.577  10.625  0.3883  0.3360 -0.1578
  506TMC3    O2 7582   1.158   2.358  10.065  0.0891  0.2899 -0.0626
  507TMC3    C1 7583   1.526   2.544  14.509 -0.7378 -1.3618 -0.2430
  507TMC3    C2 7584   1.437   2.489  14.421  0.1601  0.1411  0.6573
  507TMC3    C3 7585   1.463   2.491  14.283  0.0769  0.5830  0.6295
  507TMC3    C4 7586   1.633   2.606  14.453  0.3437  0.0883 -0.2596
  507TMC3    C5 7587   1.647   2.627  14.318  0.3867 -0.0525 -1.3902
  507TMC3    C6 7588   1.574   2.569  14.229 -0.3518 -0.4799  0.2208
  507TMC3     C 7589   1.469   2.615  14.623  0.0288  0.4749  0.1581
  507TMC3     O 7590   1.544   2.655  14.712 -0.0025  0.0962 -0.0110
  507TMC3     H 7591   1.350   2.434  14.456 -0.4181  1.2588  0.9836
  507TMC3    H1 7592   1.710   2.648  14.518 -0.0250  1.2748 -0.5752
  507TMC3    H2 7593   1.594   2.570  14.123  0.0519 -0.6675  0.2972
  507TMC3    C7 7594   1.623   2.767  14.288  0.4983 -0.0991 -0.1630
  507TMC3    C8 7595   1.342   2.514  14.208 -0.3998  0.3115  0.0774
  507TMC3    O1 7596   1.601   2.796  14.171  0.5911  0.0210  0.2320
  507TMC3    O2 7597   1.245   2.552  14.271  0.6035 -0.1491  0.7522
  508MPD2     C 7598   1.878   4.535  15.176  0.3949 -0.4065 -0.4778
  508MPD2    C1 7599   1.903   4.638  15.263 -0.1150 -0.0637  0.1427
  508MPD2    C2 7600   1.879   0.028  15.217  0.4695  0.8340 -0.3218
  508MPD2    C3 7601   1.841   0.045  15.081 -0.4111 -0.4540 -0.0340
  508MPD2    C4 7602   1.833   4.683  14.989  0.4122  0.8131  0.8019
  508MPD2    C5 7603   1.841   4.560  15.045  0.4286 -0.4076 -0.4639
  508MPD2     H 7604   1.885   0.120  15.274  0.9708  0.4918  0.1745
  508MPD2    H1 7605   1.800   4.694  14.887  0.5315 -2.4495  0.4238
  508MPD2    H2 7606   1.899   4.430  15.192  0.2607 -0.3687 -0.0451
  508MPD2    H3 7607   1.831   4.468  14.987 -0.9004 -0.7072  0.2300
  508MPD2     N 7608   1.836   0.182  15.045  0.2940 -0.5854 -0.3563
  508MPD2    H5 7609   1.857   0.255  15.112  1.1520  1.6273 -3.0379
  508MPD2    N1 7610   1.960   4.608  15.389 -0.7320 -0.3538  0.7575
  508MPD2    H7 7611   1.999   4.514  15.395 -1.0696 -0.5306  0.1864
  509TMC3    C1 7612   1.794   0.587  14.834  1.0260 -0.4893  0.0437
  509TMC3    C2 7613   1.883   0.644  14.924  0.2666 -0.0314  0.3916
  509TMC3    C3 7614   1.958   0.559  15.002  0.4825  0.3931  0.2286
  509TMC3    C4 7615   1.777   0.453  14.830 -0.9729 -0.4197  0.1347
  509TMC3    C5 7616   1.855   0.371  14.914  0.2565  0.6474  0.4134
  509TMC3    C6 7617   1.951   0.423  14.994  1.3220 -0.3069  0.0075
  509TMC3     C 7618   1.694   0.669  14.766 -0.4307  0.1168  0.6395
  509TMC3     O 7619   1.605   0.608  14.707 -0.4958 -0.5465  0.3772
  509TMC3     H 7620   1.921   0.745  14.919 -1.4761  0.6298  0.6737
  509TMC3    H1 7621   1.705   0.410  14.762 -1.1083  0.7068 -0.4323
  509TMC3    H2 7622   2.019   0.353  15.042  0.1203  0.0697  2.2589
  509TMC3    C7 7623   1.809   0.231  14.923 -0.3398  0.5065 -1.0765
  509TMC3    C8 7624   2.068   0.600  15.092  0.0456 -0.4094 -0.1154
  509TMC3    O1 7625   1.739   0.180  14.835  0.1745  0.0050  0.1380
  509TMC3    O2 7626   2.151   0.517  15.132 -0.3022 -0.0690 -0.3768
  510MPD2     C 7627   4.224   2.699  14.455  0.3217 -1.1529 -0.1684
  510MPD2    C1 7628   4.343   2.640  14.489 -0.7870 -0.1443 -0.0052
  510MPD2    C2 7629   4.450   2.646  14.402 -1.0033 -0.0831 -0.0609
  510MPD2    C3 7630   4.429   2.712  14.278  0.0437 -0.0398 -0.1005
  510MPD2    C4 7631   4.309   2.771  14.243 -0.8109 -0.0988  0.1975
  510MPD2    C5 7632   4.212   2.772  14.341 -0.2172 -1.2195 -0.0840
  510MPD2     H 7633   4.547   2.602  14.422 -1.3952 -0.4875  0.9392
  510MPD2    H1 7634   4.287   2.816  14.147  1.4392  0.0275 -0.2551
  510MPD2    H2 7635   4.142   2.713  14.525  2.0932 -0.0492  1.6851
  510MPD2    H3 7636   4.114   2.813  14.318 -0.7056 -2.2684  0.1311
  510MPD2     N 7637   4.529   2.688  14.181  0.1192  0.1401  0.2789
  510MPD2    H5 7638   4.606   2.623  14.194  2.5075  2.7904 -0.6146
  510MPD2    N1 7639   4.356   2.568  14.609  0.4802  0.1921  0.0264
  510MPD2    H7 7640   4.448   2.535  14.635 -0.4180 -1.6080  0.9322
  511TMC3    C1 7641   4.276   2.431  14.803  0.0887  0.4289 -0.0218
  511TMC3    C2 7642   4.178   2.403  14.899 -0.0329  0.1441  0.3629
  511TMC3    C3 7643   4.208   2.300  14.982 -0.2415  0.1339 -1.0425
  511TMC3    C4 7644   4.396   2.365  14.803  0.1078  0.3744 -0.1497
  511TMC3    C5 7645   4.435   2.294  14.909  0.0317  0.5494 -0.5022
  511TMC3    C6 7646   4.334   2.253  15.005 -0.0351 -0.0707  0.0193
  511TMC3     C 7647   4.249   2.524  14.689  0.4299  0.5004 -0.1943
  511TMC3     O 7648   4.132   2.534  14.661  0.3979  0.4187  0.1622
  511TMC3     H 7649   4.079   2.446  14.896 -0.5993 -0.7649  4.8064
  511TMC3    H1 7650   4.463   2.368  14.718  2.5621 -0.5982  1.7273
  511TMC3    H2 7651   4.364   2.196  15.093 -0.1556 -1.2905 -0.7348
  511TMC3    C7 7652   4.556   2.213  14.892  0.0315  0.7100  0.1490
  511TMC3    C8 7653   4.113   2.294  15.093  0.5079  0.6790 -0.5827
  511TMC3    O1 7654   4.628   2.258  14.801  0.4447 -0.1511  0.0836
  511TMC3    O2 7655   4.028   2.381  15.103 -0.1057  0.4485  0.0438
  512TMC3    C1 7656   4.362   1.345  13.004  0.5150 -0.0586  0.0240
  512TMC3    C2 7657   4.363   1.401  13.134  0.3696  0.1722  0.2398
  512TMC3    C3 7658   4.324   1.319  13.236  0.3089 -0.5879  0.2806
  512TMC3    C4 7659   4.335   1.215  12.982 -0.2112 -0.8013 -0.3024
  512TMC3    C5 7660   4.307   1.136  13.087  0.1075 -0.4501  0.3133
  512TMC3    C6 7661   4.309   1.182  13.214 -0.0127  0.4033  0.0522
  512TMC3     C 7662   4.379   1.443  12.900  0.3091 -0.9883 -0.0646
  512TMC3     O 7663   4.371   1.561  12.938 -0.3772  0.7961 -0.3216
  512TMC3     H 7664   4.403   1.501  13.145 -2.1909  1.2663 -0.4581
  512TMC3    H1 7665   4.354   1.174  12.883  0.3297 -0.9139 -0.1542
  512TMC3    H2 7666   4.295   1.116  13.299  1.3897 -0.7789 -0.6218
  512TMC3    C7 7667   4.260   1.000  13.056  0.8236 -0.4494  0.6644
  512TMC3    C8 7668   4.363   1.361  13.371  0.5926  0.1824 -0.7123
  512TMC3    O1 7669   4.240   0.983  12.936 -0.5421 -0.5667 -0.4408
  512TMC3    O2 7670   4.403   1.276  13.447 -0.8023  0.2499 -0.7943
  513MPD2     C 7671   0.751   2.282  12.750 -0.0319 -0.2649 -0.2598
  513MPD2    C1 7672   0.782   2.181  12.660  0.4782  0.7355  0.2582
  513MPD2    C2 7673   0.852   2.065  12.700 -0.1190 -0.1794  0.4959
  513MPD2    C3 7674   0.875   2.048  12.839  0.5508 -0.5573 -0.0542
  513MPD2    C4 7675   0.837   2.147  12.929  0.2712 -0.4712  0.7535
  513MPD2    C5 7676   0.780   2.261  12.885 -0.5921 -0.3175  0.2881
  513MPD2     H 7677   0.888   1.992  12.629 -0.4368  0.1473 -0.0043
  513MPD2    H1 7678   0.855   2.138  13.035 -2.0110  2.5615  1.4220
  513MPD2    H2 7679   0.694   2.370  12.722 -0.4320 -1.1574 -2.2428
  513MPD2    H3 7680   0.751   2.335  12.959 -0.5036  1.2527 -1.2581
  513MPD2     N 7681   0.934   1.929  12.880  0.2499 -0.0676 -0.3922
  513MPD2    H5 7682   0.948   1.855  12.812  0.0137 -1.5476  1.1687
  513MPD2    N1 7683   0.736   2.202  12.526  0.6372 -0.1029  0.5671
  513MPD2    H7 7684   0.690   2.292  12.518  0.0844 -0.2828  1.7206
  514TMC3    C1 7685   0.696   2.139  12.302 -0.1245 -0.0097 -0.6710
  514TMC3    C2 7686   0.712   2.272  12.288  0.4043  0.4240 -0.6273
  514TMC3    C3 7687   0.791   2.323  12.185  0.0905 -0.1933  0.0881
  514TMC3    C4 7688   0.760   2.053  12.214 -0.1476 -0.2719 -0.1460
  514TMC3    C5 7689   0.852   2.101  12.129 -0.2161 -0.0156 -0.3520
  514TMC3    C6 7690   0.868   2.238  12.104 -0.4080 -0.3081 -0.6308
  514TMC3     C 7691   0.734   2.099  12.432 -0.2855 -0.3899  0.0369
  514TMC3     O 7692   0.785   1.988  12.436  0.3007 -0.3031 -0.2316
  514TMC3     H 7693   0.655   2.336  12.355  0.0107 -0.0160 -0.5370
  514TMC3    H1 7694   0.739   1.948  12.225 -3.3472  0.3562 -0.2809
  514TMC3    H2 7695   0.941   2.277  12.034 -0.7684  0.5052 -0.5570
  514TMC3    C7 7696   0.959   2.004  12.111  0.4434 -0.2754  0.2293
  514TMC3    C8 7697   0.752   2.449  12.137  0.5477  0.3202  0.2563
  514TMC3    O1 7698   1.052   2.015  12.029 -0.7346  0.2057  0.3039
  514TMC3    O2 7699   0.684   2.520  12.215  0.2302  0.7500 -0.6021
  515MPD2     C 7700   3.541   3.130  15.160 -0.1611 -0.2473 -0.3375
  515MPD2    C1 7701   3.557   3.170  15.028 -0.2418 -0.1944  0.1695
  515MPD2    C2 7702   3.646   3.271  14.997  0.4520  0.8442  0.6213
  515MPD2    C3 7703   3.719   3.339  15.100 -0.0866  0.9498  0.2238
  515MPD2    C4 7704   3.705   3.298  15.232 -0.3569 -0.5967  0.3368
  515MPD2    C5 7705   3.614   3.194  15.262  0.1970 -0.2776  0.3152
  515MPD2     H 7706   3.647   3.301  14.893  1.5755  2.6178  1.1410
  515MPD2    H1 7707   3.766   3.346  15.308 -1.1803 -0.1631  0.7288
  515MPD2    H2 7708   3.483   3.044  15.191  0.2125 -0.3603  0.0438
  515MPD2    H3 7709   3.610   3.150  15.361  0.8925 -3.2084 -0.9465
  515MPD2     N 7710   3.815   3.438  15.075  0.4304  0.1838  0.3052
  515MPD2    H5 7711   3.853   3.486  15.156  0.6958 -0.2756  0.4507
  515MPD2    N1 7712   3.495   3.096  14.918 -0.2174  0.8115 -0.5309
  515MPD2    H7 7713   3.526   3.123  14.825 -0.5162  0.9295 -0.5951
  516TMC3    C1 7714   3.367   2.948  14.797  0.3889 -0.2380  0.1848
  516TMC3    C2 7715   3.323   3.053  14.716  0.1533  0.4003 -0.2429
  516TMC3    C3 7716   3.266   3.008  14.604 -0.0199  0.7592  0.1542
  516TMC3    C4 7717   3.342   2.816  14.785 -0.0172  0.5975 -0.3131
  516TMC3    C5 7718   3.273   2.782  14.680  0.1059  0.0367 -0.9856
  516TMC3    C6 7719   3.239   2.877  14.582 -0.4334  0.0095 -0.8081
  516TMC3     C 7720   3.418   2.985  14.925  0.1205 -0.7212 -0.4471
  516TMC3     O 7721   3.385   2.915  15.022 -0.8009 -0.2333 -0.6595
  516TMC3     H 7722   3.322   3.159  14.737  0.4991 -0.0165  1.9518
  516TMC3    H1 7723   3.346   2.754  14.874 -0.7300 -0.7695 -1.2335
  516TMC3    H2 7724   3.203   2.854  14.482 -1.8737  2.5899 -0.8610
  516TMC3    C7 7725   3.220   2.646  14.689 -0.1294 -1.0703 -0.2879
  516TMC3    C8 7726   3.213   3.113  14.515 -0.4926  0.0477  0.5357
  516TMC3    O1 7727   3.293   2.562  14.739  0.2144  0.3275 -0.1064
  516TMC3    O2 7728   3.109   3.081  14.463  0.0635 -0.5280 -0.3611
  517MPD2     C 7729   3.201   0.377  17.418 -0.2386 -0.1477 -0.0877
  517MPD2    C1 7730   3.306   0.332  17.500 -0.3358  0.0325  0.5659
  517MPD2    C2 7731   3.372   0.415  17.580  0.2166 -0.2541 -0.2444
  517MPD2    C3 7732   3.339   0.551  17.580  0.0625 -0.4983 -0.0130
  517MPD2    C4 7733   3.251   0.599  17.484  0.1026  0.1247  0.4670
  517MPD2    C5 7734   3.178   0.511  17.412  0.6873  0.3912 -0.2552
  517MPD2     H 7735   3.462   0.378  17.628 -0.5028 -3.5356 -1.3722
  517MPD2    H1 7736   3.231   0.706  17.481 -0.1676  0.0827  0.8315
  517MPD2    H2 7737   3.144   0.310  17.355 -0.2979 -1.0912  0.9685
  517MPD2    H3 7738   3.106   0.549  17.339  1.2751  2.4597  0.2340
  517MPD2     N 7739   3.409   0.641  17.657 -0.5741 -0.7507 -0.3235
  517MPD2    H5 7740   3.390   0.739  17.639 -0.0040 -0.2272  1.9635
  517MPD2    N1 7741   3.351   0.195  17.495 -0.4469 -0.4522  0.0916
  517MPD2    H7 7742   3.439   0.174  17.539 -0.2305 -0.7871 -0.4943
  518TMC3    C1 7743   3.387   4.721  17.413 -0.3370  0.4187  0.3182
  518TMC3    C2 7744   3.350   4.589  17.432 -0.5266  0.0299  0.4135
  518TMC3    C3 7745   3.447   4.489  17.436  0.1366 -0.3007 -0.4315
  518TMC3    C4 7746   3.517   0.008  17.385 -0.7205 -0.9882  0.6602
  518TMC3    C5 7747   3.604   4.649  17.383  0.1866 -0.5240 -0.5191
  518TMC3    C6 7748   3.577   4.521  17.416 -0.2562 -0.2767  1.0446
  518TMC3     C 7749   3.294   0.092  17.428 -0.0594  0.0210  0.4159
  518TMC3     O 7750   3.179   0.079  17.391 -0.0431  0.3483 -0.3979
  518TMC3     H 7751   3.245   4.567  17.446 -0.0158 -1.3704  2.0377
  518TMC3    H1 7752   3.543   0.110  17.358  0.6322 -1.7230 -0.8157
  518TMC3    H2 7753   3.650   4.453  17.459 -0.2614 -1.7578 -1.2513
  518TMC3    C7 7754   3.739   4.688  17.363  0.2774 -0.4328  0.3336
  518TMC3    C8 7755   3.408   4.354  17.414 -1.3995 -0.1387 -0.0965
  518TMC3    O1 7756   3.772   0.064  17.388  0.0196 -0.0858  0.2069
  518TMC3    O2 7757   3.489   4.280  17.350 -0.2075 -0.4001  0.0575
  519MPD2     C 7758   0.017   2.880  14.353  0.1016  0.1245 -0.2477
  519MPD2    C1 7759   0.012   2.967  14.247  0.2926 -0.2363  0.1063
  519MPD2    C2 7760   0.119   2.974  14.161  0.8872  0.0492 -0.2927
  519MPD2    C3 7761   0.224   2.887  14.176 -0.0522  0.0266  0.1533
  519MPD2    C4 7762   0.232   2.808  14.289 -0.4059 -0.2533 -0.6610
  519MPD2    C5 7763   0.125   2.801  14.378 -0.8249  1.0555  0.9011
  519MPD2     H 7764   0.114   3.042  14.077 -0.3160 -0.6138 -0.7564
  519MPD2    H1 7765   0.317   2.744  14.310 -1.9630 -2.5183 -1.3803
  519MPD2    H2 7766   4.680   2.876  14.428  0.7377 -0.2654  0.3905
  519MPD2    H3 7767   0.131   2.725  14.455  2.7617  0.2063 -0.2029
  519MPD2     N 7768   0.328   2.872  14.082  0.3946  0.1797 -0.2392
  519MPD2    H5 7769   0.405   2.811  14.109 -1.7191 -1.4100  2.1371
  519MPD2    N1 7770   4.639   3.046  14.243 -0.1078 -0.0229  0.0740
  519MPD2    H7 7771   4.565   3.025  14.309 -0.3429  0.1966 -0.1191
  520TMC3    C1 7772   0.444   2.918  13.872  0.0661 -0.3170 -0.3849
  520TMC3    C2 7773   0.416   2.970  13.750  0.0171 -0.5898 -0.2317
  520TMC3    C3 7774   0.466   2.907  13.638 -0.4731  0.2817 -0.8771
  520TMC3    C4 7775   0.528   2.815  13.886  0.7382  0.3830  0.1955
  520TMC3    C5 7776   0.581   2.756  13.774  0.3312  0.0736  0.2028
  520TMC3    C6 7777   0.558   2.804  13.648  0.2387  0.6329  0.3382
  520TMC3     C 7778   0.324   2.931  13.957  0.5565 -0.8285  0.2921
  520TMC3     O 7779   0.227   2.974  13.893  0.6677  0.1492 -0.2001
  520TMC3     H 7780   0.372   3.069  13.740  1.3148  0.2115  2.0114
  520TMC3    H1 7781   0.552   2.765  13.979  1.1682 -0.6799 -0.4844
  520TMC3    H2 7782   0.595   2.772  13.552  0.7674 -0.0830  0.7859
  520TMC3    C7 7783   0.665   2.641  13.794  0.0423 -0.3972  0.5337
  520TMC3    C8 7784   0.407   2.939  13.504 -0.0197 -0.3216 -0.5903
  520TMC3    O1 7785   0.694   2.610  13.909  0.4983  0.0119  0.1110
  520TMC3    O2 7786   0.460   2.905  13.400 -0.1452  0.0178 -0.2956
  521MPD2     C 7787   1.870   1.001  17.137 -0.0267 -0.4535  0.8011
  521MPD2    C1 7788   1.761   0.989  17.059  0.3806 -0.7093  0.1470
  521MPD2    C2 7789   1.783   0.944  16.928 -0.7939  0.1692  0.7113
  521MPD2    C3 7790   1.912   0.931  16.872  0.2404 -0.6512  0.2646
  521MPD2    C4 7791   2.020   0.951  16.957  0.1022 -1.3833  0.6124
  521MPD2    C5 7792   1.996   0.982  17.087 -0.0852 -1.5833  0.4621
  521MPD2     H 7793   1.702   0.927  16.858  0.3850  1.5775 -0.9983
  521MPD2    H1 7794   2.123   0.941  16.927 -0.2739 -0.1321 -1.1013
  521MPD2    H2 7795   1.854   1.030  17.241 -0.7933 -1.9034  1.0877
  521MPD2    H3 7796   2.080   0.992  17.155 -0.0412  3.2264 -0.2968
  521MPD2     N 7797   1.926   0.893  16.739  0.1486 -1.1096 -0.1632
  521MPD2    H5 7798   1.846   0.887  16.676 -0.0165  2.6962 -0.3398
  521MPD2    N1 7799   1.638   1.027  17.107  0.4805  0.7484  0.0292
  521MPD2    H7 7800   1.631   1.033  17.208  0.2198 -3.2170  0.2601
  522TMC3    C1 7801   2.032   0.782  16.549  0.2478  0.6432 -0.3180
  522TMC3    C2 7802   2.124   0.682  16.525 -0.5281 -0.8905 -0.0421
  522TMC3    C3 7803   2.105   0.608  16.406  0.4181  0.1526  0.1842
  522TMC3    C4 7804   1.949   0.827  16.457  0.0958 -0.2155  0.1953
  522TMC3    C5 7805   1.942   0.764  16.336  0.1801  0.3244 -0.2646
  522TMC3    C6 7806   2.016   0.650  16.311  0.3090 -0.2647  0.1743
  522TMC3     C 7807   2.044   0.844  16.685  0.3683 -0.6769 -0.6358
  522TMC3     O 7808   2.153   0.828  16.736 -0.3044 -0.2272  0.1326
  522TMC3     H 7809   2.183   0.643  16.607  0.7222  0.7387 -0.1636
  522TMC3    H1 7810   1.905   0.923  16.481  0.7114  0.4720 -1.3813
  522TMC3    H2 7811   1.989   0.596  16.220 -0.0085 -1.4494  0.9749
  522TMC3    C7 7812   1.873   0.831  16.228 -0.6460 -0.1119 -0.4201
  522TMC3    C8 7813   2.221   0.536  16.368 -0.4517 -0.0045  0.5562
  522TMC3    O1 7814   1.911   0.814  16.112  0.5483  0.3792  0.5288
  522TMC3    O2 7815   2.322   0.548  16.438  0.0525  0.1215 -0.3804
  523MPD2     C 7816   3.886   1.919  10.007  0.1183 -0.0804  0.5109
  523MPD2    C1 7817   3.804   1.831   9.945 -0.0008  0.1394 -0.2118
  523MPD2    C2 7818   3.712   1.868   9.848  0.4651 -0.9438  0.0484
  523MPD2    C3 7819   3.709   2.001   9.801 -0.4996  0.0030  1.0735
  523MPD2    C4 7820   3.793   2.094   9.861  0.3170 -0.0077  0.1947
  523MPD2    C5 7821   3.876   2.051   9.964  0.7560  0.2939  0.1809
  523MPD2     H 7822   3.639   1.800   9.805 -0.5692 -0.2730  0.7324
  523MPD2    H1 7823   3.812   2.194   9.822 -1.3635 -0.1485 -0.9973
  523MPD2    H2 7824   3.967   1.894  10.074  0.5762 -1.8424 -0.6888
  523MPD2    H3 7825   3.956   2.117   9.994 -0.2644  1.1001  1.1091
  523MPD2     N 7826   3.616   2.045   9.701 -0.0782  0.5404  0.3795
  523MPD2    H5 7827   3.624   2.144   9.681  1.3651  0.1721 -0.8285
  523MPD2    N1 7828   3.801   1.694   9.991 -0.3433 -0.5868 -0.4753
  523MPD2    H7 7829   3.864   1.673  10.067  0.9575  0.2027 -1.3347
  524TMC3    C1 7830   3.446   2.035   9.549 -0.0454 -0.1460  0.4842
  524TMC3    C2 7831   3.396   1.964   9.435  0.5495 -0.8129  0.6201
  524TMC3    C3 7832   3.316   2.033   9.352  0.1468  0.1990  0.0911
  524TMC3    C4 7833   3.401   2.164   9.581  0.4420  0.8424 -0.5365
  524TMC3    C5 7834   3.308   2.219   9.500 -0.0411 -0.4819  0.2187
  524TMC3    C6 7835   3.254   2.153   9.386  0.3043 -1.1104  0.0508
  524TMC3     C 7836   3.537   1.962   9.630 -0.0415 -0.8352 -0.4731
  524TMC3     O 7837   3.538   1.841   9.618 -0.2902  0.3313  0.2610
  524TMC3     H 7838   3.449   1.873   9.410 -0.1918 -1.0690 -0.0403
  524TMC3    H1 7839   3.439   2.227   9.661  1.9681 -2.0633  1.0130
  524TMC3    H2 7840   3.186   2.204   9.319  0.9073 -0.4227 -0.0409
  524TMC3    C7 7841   3.259   2.354   9.532  0.3589  0.3437 -0.2344
  524TMC3    C8 7842   3.310   1.989   9.216 -0.0380 -0.4020  0.5191
  524TMC3    O1 7843   3.308   2.410   9.626 -0.0166 -0.4388 -0.1428
  524TMC3    O2 7844   3.379   1.898   9.177  0.3177 -0.0111  0.2756
  525MPD2     C 7845   1.858   2.356  14.333  0.0517  0.3437  0.2309
  525MPD2    C1 7846   1.912   2.386  14.454 -0.0723 -0.6328  0.0904
  525MPD2    C2 7847   2.002   2.498  14.462 -0.6056 -0.2514  0.4317
  525MPD2    C3 7848   2.025   2.572  14.349 -0.0299 -0.2039 -0.0095
  525MPD2    C4 7849   1.964   2.544  14.231  1.1072  0.0666 -0.1042
  525MPD2    C5 7850   1.882   2.439  14.228 -0.8657 -0.3019  0.1045
  525MPD2     H 7851   2.049   2.524  14.556 -1.9456  0.1614  0.9892
  525MPD2    H1 7852   1.969   2.604  14.140  1.2985  3.0069  1.8346
  525MPD2    H2 7853   1.798   2.268  14.310  2.5697 -1.6177  1.1380
  525MPD2    H3 7854   1.824   2.405  14.143  0.4009 -1.5290 -0.2583
  525MPD2     N 7855   2.099   2.693  14.345  0.4216  0.9532  0.3815
  525MPD2    H5 7856   2.093   2.744  14.257 -0.6828 -0.7821 -0.5455
  525MPD2    N1 7857   1.889   2.315  14.574  0.0821 -0.3356  0.3647
  525MPD2    H7 7858   1.957   2.330  14.648 -1.0500  1.4587  1.0442
  526TMC3    C1 7859   1.818   2.134  14.709  0.3011 -0.3342 -0.3567
  526TMC3    C2 7860   1.705   2.100  14.784  0.3889  0.3341 -0.3631
  526TMC3    C3 7861   1.715   2.027  14.895  0.1795 -0.2454  0.1088
  526TMC3    C4 7862   1.938   2.105  14.750 -0.7937 -0.0581 -0.4547
  526TMC3    C5 7863   1.945   2.034  14.861 -0.3743 -0.1058  0.2090
  526TMC3    C6 7864   1.838   2.004  14.949 -0.4786 -0.3712  0.1592
  526TMC3     C 7865   1.795   2.209  14.591 -0.2118 -0.0023  0.0666
  526TMC3     O 7866   1.698   2.189  14.519  0.3458  0.0644  0.0992
  526TMC3     H 7867   1.615   2.133  14.734  0.3354  0.8823  0.0922
  526TMC3    H1 7868   2.025   2.122  14.686 -0.8611 -0.8572 -0.7654
  526TMC3    H2 7869   1.851   1.936  15.032 -0.9079 -1.3338 -0.5655
  526TMC3    C7 7870   2.068   1.965  14.900 -0.0472  0.7279 -0.4035
  526TMC3    C8 7871   1.603   1.998  14.983 -0.3691  0.4213  0.0338
  526TMC3    O1 7872   2.076   1.929  15.014  0.3196  0.3138  0.0376
  526TMC3    O2 7873   1.623   1.944  15.093  0.0413  0.1819  0.4906
  527MPD2     C 7874   0.488   4.653   1.261  0.8236 -0.1555 -1.2584
  527MPD2    C1 7875   0.449   0.043   1.230 -0.3186 -0.4553 -0.1977
  527MPD2    C2 7876   0.537   0.133   1.166 -0.2460  0.0095  0.8397
  527MPD2    C3 7877   0.665   0.096   1.133  0.1258  0.0228 -0.1661
  527MPD2    C4 7878   0.712   4.714   1.169 -0.3604 -0.2972 -0.4147
  527MPD2    C5 7879   0.616   4.619   1.219 -0.0672  0.7020 -0.0137
  527MPD2     H 7880   0.505   0.235   1.147 -1.4798 -0.3096  1.2466
  527MPD2    H1 7881   0.812   4.685   1.140  0.3321  0.1942  1.4700
  527MPD2    H2 7882   0.429   4.577   1.311 -0.2131  1.3000 -0.2670
  527MPD2    H3 7883   0.647   4.518   1.243  2.4511  0.8640 -2.6040
  527MPD2     N 7884   0.753   0.181   1.067 -0.3555 -0.5155  0.5238
  527MPD2    H5 7885   0.847   0.141   1.064 -0.6146 -1.0103 -1.1316
  527MPD2    N1 7886   0.330   0.102   1.269  0.0059  0.6241  0.5958
  527MPD2    H7 7887   0.324   0.199   1.241  0.5215  1.0765  2.0608
  528TMC3    C1 7888   0.126   0.123   1.385  0.3644  0.3411  0.0916
  528TMC3    C2 7889   0.060   0.182   1.287  0.6767 -0.0240  0.0143
  528TMC3    C3 7890   4.666   0.204   1.307 -0.0959  0.0319  0.6241
  528TMC3    C4 7891   0.065   0.073   1.496 -0.0187  0.4070  0.0901
  528TMC3    C5 7892   4.669   0.094   1.511  0.6118  0.6047 -0.6932
  528TMC3    C6 7893   4.600   0.153   1.414 -0.4718 -0.1397 -0.3260
  528TMC3     C 7894   0.242   0.039   1.353  0.2788  0.6675 -0.3339
  528TMC3     O 7895   0.264   4.676   1.417 -0.1074  0.1817  0.2338
  528TMC3     H 7896   0.103   0.211   1.192  0.6610  1.8212  0.5775
  528TMC3    H1 7897   0.130   0.018   1.563  0.9860  1.1163 -0.3092
  528TMC3    H2 7898   4.492   0.154   1.421 -0.2229  0.1941  3.0853
  528TMC3    C7 7899   4.590   0.028   1.618 -0.4229 -0.1168 -0.1375
  528TMC3    C8 7900   4.593   0.275   1.206 -0.5570 -0.7878  0.0266
  528TMC3    O1 7901   4.470   0.018   1.607 -0.3048 -0.2827 -0.2198
  528TMC3    O2 7902   4.635   0.272   1.092  0.1349 -0.4463  0.0970
  529MPD2     C 7903   1.993   3.494   0.891  1.2719 -0.0292 -0.5939
  529MPD2    C1 7904   2.106   3.563   0.873 -0.0075 -0.6858  1.0325
  529MPD2    C2 7905   2.095   3.673   0.794 -0.1282 -0.8976  0.3984
  529MPD2    C3 7906   1.970   3.715   0.739 -0.5697 -0.3481 -0.1149
  529MPD2    C4 7907   1.864   3.627   0.758 -0.7189  0.0127  0.2477
  529MPD2    C5 7908   1.876   3.525   0.834  0.7464 -0.2496 -0.3232
  529MPD2     H 7909   2.186   3.728   0.774 -1.3849 -0.0646 -2.9762
  529MPD2    H1 7910   1.773   3.652   0.705 -0.1194  1.2574 -0.1977
  529MPD2    H2 7911   1.987   3.414   0.964 -0.2386 -0.0771 -0.7760
  529MPD2    H3 7912   1.788   3.465   0.855  0.8722  0.1666  1.3840
  529MPD2     N 7913   1.940   3.829   0.661 -0.2424 -0.4310  0.4602
  529MPD2    H5 7914   1.842   3.847   0.644  0.2868  1.3171 -0.7709
  529MPD2    N1 7915   2.232   3.521   0.930  0.1485  0.3870 -0.0607
  529MPD2    H7 7916   2.321   3.569   0.917  0.8454 -0.3017  2.1824
  530TMC3    C1 7917   2.377   3.405   1.067 -0.7037  0.3702  0.3288
  530TMC3    C2 7918   2.459   3.517   1.073 -0.3048  0.1794  0.1303
  530TMC3    C3 7919   2.586   3.502   1.126 -0.8161 -0.1550  0.1858
  530TMC3    C4 7920   2.422   3.283   1.106 -0.1438 -0.3921  0.0879
  530TMC3    C5 7921   2.550   3.277   1.158 -0.0641 -0.6341  0.1941
  530TMC3    C6 7922   2.635   3.379   1.161 -0.1170  0.4995 -0.1961
  530TMC3     C 7923   2.251   3.404   0.999  0.2549  0.1631 -0.6513
  530TMC3     O 7924   2.179   3.303   1.014  0.3290 -0.3477  0.0164
  530TMC3     H 7925   2.419   3.615   1.050 -0.6367 -0.8078 -3.6045
  530TMC3    H1 7926   2.363   3.193   1.096  1.0802 -1.0348 -1.3492
  530TMC3    H2 7927   2.723   3.365   1.222  1.8171 -1.6173 -3.4632
  530TMC3    C7 7928   2.598   3.152   1.212  0.0108 -0.0797  0.2509
  530TMC3    C8 7929   2.665   3.616   1.143  0.4776  0.3263 -0.4059
  530TMC3    O1 7930   2.715   3.125   1.198 -0.2285 -0.3783  0.2271
  530TMC3    O2 7931   2.613   3.727   1.152 -0.0310 -0.1303  0.0915
  531MPD2     C 7932   1.263   1.677  12.341  0.5340 -0.1553 -0.2326
  531MPD2    C1 7933   1.154   1.700  12.427 -0.5129 -0.4502  0.1267
  531MPD2    C2 7934   1.047   1.781  12.383 -0.4179  0.0599  0.5575
  531MPD2    C3 7935   1.070   1.841  12.266 -0.1935 -0.6166  0.3861
  531MPD2    C4 7936   1.181   1.825  12.180 -0.3663  0.1384 -0.3212
  531MPD2    C5 7937   1.281   1.742  12.223  0.1595  0.0723  0.8777
  531MPD2     H 7938   0.965   1.801  12.450 -0.3507 -0.2939  0.7506
  531MPD2    H1 7939   1.194   1.863  12.079  1.4758  0.6209  0.1106
  531MPD2    H2 7940   1.347   1.617  12.374 -0.5830  0.0662  2.9855
  531MPD2    H3 7941   1.367   1.719  12.161 -0.0315 -0.0529  0.6607
  531MPD2     N 7942   0.963   1.928  12.229  0.4905 -0.3237  0.5869
  531MPD2    H5 7943   0.886   1.951  12.291  0.2376  0.3179  0.0345
  531MPD2    N1 7944   1.156   1.639  12.552 -0.3655  0.1438  0.5631
  531MPD2    H7 7945   1.231   1.573  12.573  0.0757 -0.0623 -1.6054
  532TMC3    C1 7946   1.111   1.630  12.790 -0.4658 -1.1275 -0.5682
  532TMC3    C2 7947   1.019   1.685  12.875  0.4573 -1.0353 -0.8957
  532TMC3    C3 7948   1.049   1.767  12.982 -0.2302 -0.5480 -0.6434
  532TMC3    C4 7949   1.246   1.637  12.820 -0.1892  0.0592  1.1754
  532TMC3    C5 7950   1.279   1.719  12.927  0.0215  0.2096 -0.1169
  532TMC3    C6 7951   1.185   1.787  13.009 -0.1391  0.6502 -0.3369
  532TMC3     C 7952   1.069   1.661  12.659  0.2487  0.2124  0.7302
  532TMC3     O 7953   0.964   1.730  12.665  0.0229  0.3419 -0.3260
  532TMC3     H 7954   0.913   1.667  12.870  0.4332 -0.9645 -0.6239
  532TMC3    H1 7955   1.314   1.586  12.753 -1.3250 -0.1448  0.1715
  532TMC3    H2 7956   1.217   1.863  13.079 -0.7830  1.7021 -1.1894
  532TMC3    C7 7957   1.414   1.761  12.961  0.7109  0.0081  0.0364
  532TMC3    C8 7958   0.981   1.891  13.000  0.6726  0.5007  0.6032
  532TMC3    O1 7959   1.424   1.855  13.040  0.8967  0.6061 -0.0351
  532TMC3    O2 7960   0.990   1.952  13.105 -0.1515 -0.0603  0.2932
  533TMC3    C1 7961   2.133   2.903  14.419  0.3996  0.9996  0.2294
  533TMC3    C2 7962   2.210   2.988  14.495  0.4111 -0.0771  0.0593
  533TMC3    C3 7963   2.162   3.117  14.529  0.2307 -0.2801  0.2064
  533TMC3    C4 7964   2.003   2.934  14.403 -0.0587 -0.1747  0.7348
  533TMC3    C5 7965   1.949   3.045  14.454  0.1991 -0.1943  0.3615
  533TMC3    C6 7966   2.027   3.143  14.510  0.4318  0.2065 -0.4104
  533TMC3     C 7967   2.149   2.762  14.445 -0.7430 -0.7686 -0.4174
  533TMC3     O 7968   2.150   2.724  14.562  0.1678 -0.1347 -0.4874
  533TMC3     H 7969   2.313   2.960  14.512  0.1397  0.2574  2.2400
  533TMC3    H1 7970   1.934   2.861  14.363  1.5680  0.4810 -3.3179
  533TMC3    H2 7971   1.986   3.237  14.546 -0.4678  0.2182 -1.4484
  533TMC3    C7 7972   1.845   3.004  14.541 -0.4953  0.5360  0.8701
  533TMC3    C8 7973   2.256   3.222  14.514 -0.5288  0.0200 -1.2563
  533TMC3    O1 7974   1.847   2.885  14.563  0.5122  0.2093 -0.2720
  533TMC3    O2 7975   2.217   3.333  14.550  0.5579 -0.6517 -0.1308
  534MPD2     C 7976   4.720   4.035   1.158 -0.0734 -0.2338 -0.2245
  534MPD2    C1 7977   4.634   4.138   1.148 -0.4987  0.2566 -0.1950
  534MPD2    C2 7978   4.505   4.109   1.109 -0.5759 -1.4408  0.4245
  534MPD2    C3 7979   4.468   3.978   1.082 -0.5490  0.1953  0.3391
  534MPD2    C4 7980   4.559   3.880   1.097 -0.6946 -0.1136 -0.5460
  534MPD2    C5 7981   4.682   3.907   1.141 -0.3317 -0.2332  0.0299
  534MPD2     H 7982   4.431   4.187   1.099 -1.2314 -2.1596 -0.3351
  534MPD2    H1 7983   4.531   3.776   1.080  0.4263 -0.4053 -0.6303
  534MPD2    H2 7984   0.079   4.052   1.194 -0.2376  1.6508 -0.6881
  534MPD2    H3 7985   0.010   3.826   1.161 -0.4652  0.2770  2.4593
  534MPD2     N 7986   4.340   3.944   1.024  0.3180 -0.1230 -0.4464
  534MPD2    H5 7987   4.335   3.843   1.014  1.0822 -0.3400  1.4510
  534MPD2    N1 7988   4.669   4.278   1.151 -0.5882  0.0373  0.0550
  534MPD2    H7 7989   4.599   4.346   1.123  0.0994  0.3589 -0.8997
  535TMC3    C1 7990   4.110   3.980   0.973  0.1275  0.0255  0.0911
  535TMC3    C2 7991   4.000   4.055   1.012 -0.2296 -0.8290 -0.4521
  535TMC3    C3 7992   3.903   4.074   0.916  0.6084 -0.6074 -0.5749
  535TMC3    C4 7993   4.115   3.908   0.849  0.0783 -1.1307 -0.7382
  535TMC3    C5 7994   4.014   3.931   0.757 -0.2739  0.0728 -0.0542
  535TMC3    C6 7995   3.913   4.018   0.789  0.6727  0.3494  0.6205
  535TMC3     C 7996   4.229   4.031   1.029 -0.2128  0.5432  0.3008
  535TMC3     O 7997   4.220   4.143   1.080 -0.3552 -0.6497  0.2147
  535TMC3     H 7998   3.984   4.090   1.113 -0.9268 -1.0728 -0.4794
  535TMC3    H1 7999   4.206   3.859   0.815  2.4033  2.4338  0.3724
  535TMC3    H2 8000   3.833   4.033   0.718 -0.7535 -1.7820  1.7738
  535TMC3    C7 8001   4.066   3.940   0.623 -0.2165 -0.4262  0.3278
  535TMC3    C8 8002   3.780   4.146   0.945 -0.2322 -0.2101 -0.0369
  535TMC3    O1 8003   4.150   3.861   0.597  0.9431 -0.1949  0.2236
  535TMC3    O2 8004   3.681   4.090   0.903  0.0065 -0.3161 -0.0328
  536MPD2     C 8005   3.200   2.887  15.989  0.0004  0.3491  0.3597
  536MPD2    C1 8006   3.107   2.804  16.037 -0.0775  0.8467 -0.2827
  536MPD2    C2 8007   2.993   2.775  15.958 -0.1685 -0.1352  0.3881
  536MPD2    C3 8008   2.977   2.826  15.832  0.5302  0.0844 -0.0331
  536MPD2    C4 8009   3.082   2.905  15.782 -0.3106 -0.7279  0.3423
  536MPD2    C5 8010   3.187   2.938  15.862 -0.8646 -0.1244 -0.1326
  536MPD2     H 8011   2.925   2.699  15.995  0.7850 -0.1174  2.1890
  536MPD2    H1 8012   3.072   2.957  15.687  3.4072  2.0272  1.4475
  536MPD2    H2 8013   3.275   2.923  16.059  1.8637 -0.5829 -1.1469
  536MPD2    H3 8014   3.237   3.030  15.834  1.3760 -1.1560  0.4137
  536MPD2     N 8015   2.873   2.796  15.742  0.1967  0.2794  0.0954
  536MPD2    H5 8016   2.890   2.823  15.646  0.5486 -2.6359 -0.6432
  536MPD2    N1 8017   3.124   2.761  16.172  0.6769  0.3253 -0.1424
  536MPD2    H7 8018   3.218   2.765  16.209  0.8458  1.7116 -0.7212
  537TMC3    C1 8019   3.111   2.596  16.332  0.2349 -0.3367  0.0543
  537TMC3    C2 8020   3.089   2.619  16.464 -0.4349 -0.8107 -0.1116
  537TMC3    C3 8021   3.182   2.571  16.552  0.0178  0.0181  0.6296
  537TMC3    C4 8022   3.221   2.528  16.286 -0.3222 -0.4464 -0.1274
  537TMC3    C5 8023   3.307   2.473  16.378 -0.7101  0.0343  0.7221
  537TMC3    C6 8024   3.287   2.490  16.511 -0.6097  0.3647  0.2891
  537TMC3     C 8025   3.040   2.682  16.242  0.2421  0.4132  0.3227
  537TMC3     O 8026   2.918   2.677  16.235  0.9432  0.3387  0.2785
  537TMC3     H 8027   3.002   2.681  16.485  1.2048  1.7301 -0.7951
  537TMC3    H1 8028   3.236   2.520  16.179 -1.4137 -0.1489 -0.3050
  537TMC3    H2 8029   3.353   2.447  16.586  1.5890  1.9258 -0.7297
  537TMC3    C7 8030   3.367   2.344  16.345 -0.0986 -0.2839 -0.0779
  537TMC3    C8 8031   3.205   2.643  16.677 -0.3571 -0.1424 -0.0664
  537TMC3    O1 8032   3.452   2.300  16.422  0.5133  0.1329  0.6799
  537TMC3    O2 8033   3.312   2.624  16.731 -0.5870 -0.4714 -0.1253
  538TMC3    C1 8034   4.390   1.709  11.301 -0.1828  0.2192 -0.2580
  538TMC3    C2 8035   4.514   1.668  11.262  0.7114  0.1357 -0.7023
  538TMC3    C3 8036   4.552   1.694  11.130 -1.0442 -0.4582 -0.8225
  538TMC3    C4 8037   4.314   1.775  11.217 -0.0599 -0.8073  0.0202
  538TMC3    C5 8038   4.349   1.803  11.084 -1.1558  0.2599  0.4195
  538TMC3    C6 8039   4.468   1.757  11.037  0.4070  0.6663 -0.0043
  538TMC3     C 8040   4.331   1.657  11.422  0.2315  0.2884 -0.1121
  538TMC3     O 8041   4.245   1.726  11.472 -0.0997  0.2786 -0.0646
  538TMC3     H 8042   4.584   1.611  11.322 -0.6042  1.2302  1.8613
  538TMC3    H1 8043   4.212   1.795  11.247 -0.1631  1.3335 -1.7107
  538TMC3    H2 8044   4.506   1.797  10.943  2.0879  1.2190  0.8923
  538TMC3    C7 8045   4.238   1.829  10.994 -0.2285  0.3647 -0.0305
  538TMC3    C8 8046   4.692   1.656  11.102  0.2069  0.3776  0.5608
  538TMC3    O1 8047   4.146   1.887  11.050  0.0181 -0.1352 -0.5548
  538TMC3    O2 8048   0.031   1.655  11.196  0.2090  0.4027  0.4710
  539MPD2     C 8049   4.196   0.715  11.472 -0.1255  0.5235 -1.1194
  539MPD2    C1 8050   4.277   0.736  11.365 -0.2105  0.6599 -0.2006
  539MPD2    C2 8051   4.269   0.856  11.300  0.3794  0.4419 -0.7512
  539MPD2    C3 8052   4.174   0.954  11.341 -0.1380  0.3894  0.4958
  539MPD2    C4 8053   4.108   0.934  11.459  0.4865 -0.3383  1.0390
  539MPD2    C5 8054   4.121   0.815  11.525 -0.0048  0.0638 -0.0903
  539MPD2     H 8055   4.333   0.882  11.216  0.9801  2.6330  0.3880
  539MPD2    H1 8056   4.042   1.014  11.490  0.3330 -0.0661  0.0060
  539MPD2    H2 8057   4.192   0.617  11.519 -0.4291  0.6771 -0.8246
  539MPD2    H3 8058   4.056   0.794  11.609 -1.3834 -0.6477 -1.3308
  539MPD2     N 8059   4.159   1.072  11.276 -0.1858 -0.2188 -0.0515
  539MPD2    H5 8060   4.095   1.137  11.321 -1.2670 -0.7748 -0.7946
  539MPD2    N1 8061   4.362   0.638  11.305 -0.0176 -0.0546 -0.4673
  539MPD2    H7 8062   4.407   0.666  11.218 -0.3663  0.4695 -0.4751
  540TMC3    C1 8063   4.144   1.223  11.102  0.4352  0.4808  0.4103
  540TMC3    C2 8064   4.053   1.220  11.003  0.2905  0.5424  0.2436
  540TMC3    C3 8065   3.937   1.292  11.018 -0.3289  0.0004  0.5920
  540TMC3    C4 8066   4.129   1.307  11.205  0.8115  0.3827 -0.0901
  540TMC3    C5 8067   4.017   1.387  11.212  0.4300  0.1409 -0.3660
  540TMC3    C6 8068   3.923   1.378  11.119  0.1358 -0.7371  0.0903
  540TMC3     C 8069   4.207   1.097  11.147 -0.4914 -0.9028  0.2136
  540TMC3     O 8070   4.258   1.030  11.059 -0.1984 -0.2422  0.1973
  540TMC3     H 8071   4.070   1.133  10.941  0.1149  0.4958  0.2606
  540TMC3    H1 8072   4.204   1.299  11.283  0.4130  1.8140  0.4469
  540TMC3    H2 8073   3.835   1.436  11.145  0.3227  0.7512 -2.6567
  540TMC3    C7 8074   3.972   1.381  11.353  0.1326 -0.0901 -0.2946
  540TMC3    C8 8075   3.837   1.290  10.913  0.2152  0.4308  0.0971
  540TMC3    O1 8076   3.985   1.270  11.406 -0.0406 -0.3642 -0.5115
  540TMC3    O2 8077   3.766   1.390  10.906  0.0797 -0.1423  0.4502
  541MPD2     C 8078   2.870   2.007  13.605  0.4973 -0.4378 -0.4805
  541MPD2    C1 8079   2.868   1.908  13.510  0.2842 -0.9140 -0.6946
  541MPD2    C2 8080   2.854   1.941  13.378 -0.6206  0.3657 -0.8492
  541MPD2    C3 8081   2.864   2.073  13.335  0.1101 -0.6188 -0.2737
  541MPD2    C4 8082   2.886   2.171  13.436  0.1054 -0.9140 -0.1632
  541MPD2    C5 8083   2.889   2.139  13.575  0.0852  0.4678  0.7127
  541MPD2     H 8084   2.847   1.863  13.303  1.0986 -0.9196  0.3347
  541MPD2    H1 8085   2.903   2.273  13.405 -0.9586 -0.6387  0.1574
  541MPD2    H2 8086   2.875   1.992  13.712 -0.2616  3.2760  0.0653
  541MPD2    H3 8087   2.899   2.218  13.648  1.9305  2.2436 -1.4414
  541MPD2     N 8088   2.859   2.116  13.203  0.2487 -0.3961  0.1432
  541MPD2    H5 8089   2.834   2.214  13.192 -0.1125 -0.3346  1.5240
  541MPD2    N1 8090   2.855   1.769  13.530 -0.1742  0.2389  0.4124
  541MPD2    H7 8091   2.836   1.705  13.454 -0.7198 -0.9639  1.5510
  542TMC3    C1 8092   2.851   2.133  12.974 -0.0703  0.2899  0.5039
  542TMC3    C2 8093   2.895   2.085  12.851 -0.4539 -0.1657 -0.8942
  542TMC3    C3 8094   2.842   2.137  12.736  0.3584  0.5528  0.2430
  542TMC3    C4 8095   2.762   2.242  12.986 -0.0712 -0.0511 -0.2550
  542TMC3    C5 8096   2.707   2.272  12.865  0.4800 -0.0612  0.3322
  542TMC3    C6 8097   2.742   2.229  12.740 -0.4122 -0.1272 -0.7742
  542TMC3     C 8098   2.863   2.042  13.086 -0.2151  0.1278 -0.3409
  542TMC3     O 8099   2.935   1.942  13.074 -0.5974 -0.3011 -0.3359
  542TMC3     H 8100   2.940   1.986  12.850 -0.0848 -0.0140  0.6387
  542TMC3    H1 8101   2.705   2.259  13.077 -2.6278 -0.3994 -1.8021
  542TMC3    H2 8102   2.692   2.270  12.654 -0.7982  2.3769  0.6476
  542TMC3    C7 8103   2.590   2.353  12.862  0.0761 -0.0216 -0.0229
  542TMC3    C8 8104   2.885   2.091  12.609  0.0591  0.1067 -0.1263
  542TMC3    O1 8105   2.538   2.376  12.757  0.3779  0.0121 -0.3738
  542TMC3    O2 8106   2.831   2.141  12.513  0.1851 -0.4264  0.0456
  543TMC3    C1 8107   1.927   3.181  17.381 -0.1045  0.2710 -0.5855
  543TMC3    C2 8108   1.915   3.054  17.438 -0.3319 -0.1147 -0.5329
  543TMC3    C3 8109   1.837   3.047  17.549  0.0499 -0.3850 -0.5294
  543TMC3    C4 8110   1.861   3.287  17.434  0.7566  1.0230  0.7319
  543TMC3    C5 8111   1.785   3.270  17.542 -0.6486  0.0654  0.4877
  543TMC3    C6 8112   1.778   3.155  17.608 -0.7477 -0.0690  0.7361
  543TMC3     C 8113   1.999   3.194  17.253 -0.0866 -0.3423  0.1378
  543TMC3     O 8114   2.061   3.089  17.227 -0.1882  0.2473 -0.3664
  543TMC3     H 8115   1.964   2.970  17.390 -1.5420 -0.7707 -0.6159
  543TMC3    H1 8116   1.896   3.387  17.411 -1.0365  0.9978 -2.1738
  543TMC3    H2 8117   1.721   3.148  17.700  0.5456 -0.5472  1.5022
  543TMC3    C7 8118   1.740   3.384  17.614 -0.6007 -0.5777 -0.7666
  543TMC3    C8 8119   1.781   2.918  17.583 -0.3687  0.3895  0.6549
  543TMC3    O1 8120   1.724   3.363  17.733  0.3958 -0.7935  0.8667
  543TMC3    O2 8121   1.726   2.904  17.692 -0.4431 -0.2167 -0.0432
  544MPD2     C 8122   1.623   2.442  17.448  0.3570 -0.9794 -0.0392
  544MPD2    C1 8123   1.679   2.504  17.343  0.2636  0.4627  0.6269
  544MPD2    C2 8124   1.738   2.632  17.356 -0.7044  0.0826 -0.1606
  544MPD2    C3 8125   1.724   2.706  17.468  0.2021  0.9702  0.2566
  544MPD2    C4 8126   1.686   2.631  17.582  0.1568  0.2337 -0.0128
  544MPD2    C5 8127   1.627   2.505  17.570  0.3375  0.2569  0.4156
  544MPD2     H 8128   1.769   2.682  17.265  0.8140 -1.5050 -0.5211
  544MPD2    H1 8129   1.681   2.671  17.683  1.5312 -1.3323  0.6701
  544MPD2    H2 8130   1.586   2.340  17.452  0.0895 -0.8231  1.4903
  544MPD2    H3 8131   1.579   2.459  17.655 -0.7154  0.1931 -0.2214
  544MPD2     N 8132   1.779   2.835  17.474 -0.2236  0.4564 -0.5284
  544MPD2    H5 8133   1.815   2.870  17.386 -2.9204  2.4660 -0.8269
  544MPD2    N1 8134   1.693   2.425  17.228 -0.8768  0.6033 -0.7188
  544MPD2    H7 8135   1.632   2.343  17.228 -2.9107  2.1315  2.0125
  545TMC3    C1 8136   1.740   2.373  17.005  0.1698  0.2015 -0.3055
  545TMC3    C2 8137   1.631   2.419  16.940 -0.6767 -0.5241  0.3589
  545TMC3    C3 8138   1.615   2.398  16.806  0.0322 -0.5997 -0.7766
  545TMC3    C4 8139   1.849   2.328  16.939 -0.0964 -0.1367  0.5850
  545TMC3    C5 8140   1.839   2.316  16.803 -0.2787  0.0905  0.0566
  545TMC3    C6 8141   1.722   2.348  16.738  0.3322  0.4482 -0.3447
  545TMC3     C 8142   1.775   2.456  17.117  0.5016 -0.4109 -0.3257
  545TMC3     O 8143   1.856   2.544  17.101  0.1200  0.3733  1.1208
  545TMC3     H 8144   1.545   2.460  16.992  0.4373  0.7576  1.2082
  545TMC3    H1 8145   1.941   2.308  16.992  0.2316  0.5328  0.2700
  545TMC3    H2 8146   1.716   2.332  16.631 -0.1978  2.0363 -0.5558
  545TMC3    C7 8147   1.928   2.232  16.727 -0.0525 -0.2405  0.2791
  545TMC3    C8 8148   1.506   2.463  16.738  0.2415 -0.0247  0.2433
  545TMC3    O1 8149   1.894   2.204  16.611  0.3042  0.1823 -0.3578
  545TMC3    O2 8150   1.421   2.511  16.814 -0.2044  1.1889  0.0780
  546MPD2     C 8151   3.230   2.826  17.648  0.4691  0.1183  0.1370
  546MPD2    C1 8152   3.160   2.855  17.530  0.6760  0.1757 -0.3495
  546MPD2    C2 8153   3.164   2.988  17.482  0.9781  0.3742 -0.1078
  546MPD2    C3 8154   3.248   3.081  17.542  0.4137 -0.1167 -0.1553
  546MPD2    C4 8155   3.312   3.057  17.658 -0.3429  0.0840  0.3970
  546MPD2    C5 8156   3.308   2.927  17.705 -0.6035 -0.3452 -0.5168
  546MPD2     H 8157   3.124   3.017  17.385 -2.8471 -1.4224  0.9371
  546MPD2    H1 8158   3.375   3.130  17.708  2.8466 -0.6217 -2.5759
  546MPD2    H2 8159   3.240   2.724  17.683 -0.3653 -0.5052 -1.3987
  546MPD2    H3 8160   3.367   2.914   0.034 -2.3150  0.1110  0.6625
  546MPD2     N 8161   3.258   3.214  17.491  0.0922 -0.2098  0.5305
  546MPD2    H5 8162   3.306   3.286  17.543 -0.6796  1.1753 -0.6478
  546MPD2    N1 8163   3.096   2.749  17.455  0.0968 -0.2629  0.4335
  546MPD2    H7 8164   3.118   2.654  17.483 -0.3194 -0.2431  0.8285
  547TMC3    C1 8165   2.961   2.655  17.286  0.1177 -0.0296 -0.2165
  547TMC3    C2 8166   2.883   2.680  17.177  0.1276  0.8331 -0.3225
  547TMC3    C3 8167   2.851   2.578  17.093 -0.3498 -0.7853  0.1232
  547TMC3    C4 8168   3.006   2.530  17.319 -0.5689  0.1493  0.0608
  547TMC3    C5 8169   2.958   2.429  17.241  0.2211 -0.4987  0.4505
  547TMC3    C6 8170   2.887   2.446  17.124 -1.4897 -0.3785 -0.0499
  547TMC3     C 8171   3.008   2.776  17.355  0.6680 -0.3628 -0.0964
  547TMC3     O 8172   2.961   2.880  17.321  0.3963  0.4107  0.0246
  547TMC3     H 8173   2.846   2.779  17.153 -2.1246 -0.0957 -0.6908
  547TMC3    H1 8174   3.100   2.515  17.372 -0.5199 -0.5686 -0.2360
  547TMC3    H2 8175   2.852   2.362  17.065 -0.7433  1.0156 -2.4661
  547TMC3    C7 8176   2.927   2.298  17.297  0.1871 -0.4230  0.2262
  547TMC3    C8 8177   2.777   2.613  16.974  0.4369  0.0636  0.9078
  547TMC3    O1 8178   2.879   2.213  17.225  0.4282  0.0609  0.5121
  547TMC3    O2 8179   2.706   2.715  16.977 -0.5537 -0.3954 -0.7048
  548MPD2     C 8180   2.998   3.581  12.470 -0.0372  0.3738 -0.2041
  548MPD2    C1 8181   2.918   3.506  12.551 -0.0863  0.3375  0.1784
  548MPD2    C2 8182   2.971   3.397  12.628  0.1924 -0.2458  0.1359
  548MPD2    C3 8183   3.099   3.351  12.609  0.7445 -0.2375 -0.0404
  548MPD2    C4 8184   3.188   3.432  12.540  0.2180  0.4675  0.0893
  548MPD2    C5 8185   3.132   3.536  12.466 -0.0808  0.0482  0.7189
  548MPD2     H 8186   2.907   3.349  12.702 -2.0553  0.6856 -1.1921
  548MPD2    H1 8187   3.291   3.401  12.527 -0.6298 -2.2687 -0.0313
  548MPD2    H2 8188   2.961   3.654  12.400 -1.3951 -0.3153 -0.2148
  548MPD2    H3 8189   3.184   3.601  12.397 -2.0947 -0.0483 -0.8943
  548MPD2     N 8190   3.145   3.227  12.663 -0.4631 -0.0479 -0.3059
  548MPD2    H5 8191   3.088   3.175  12.729 -2.8226  0.4257 -1.9780
  548MPD2    N1 8192   2.783   3.538  12.547 -0.0940 -0.6226  0.3573
  548MPD2    H7 8193   2.773   3.616  12.482 -1.1376 -0.9849  0.0909
  549TMC3    C1 8194   2.555   3.507  12.546  0.4443 -0.4357  0.5728
  549TMC3    C2 8195   2.536   3.626  12.487  0.1716  0.1096 -0.6149
  549TMC3    C3 8196   2.440   3.637  12.392 -0.1544  0.7471 -0.7352
  549TMC3    C4 8197   2.490   3.390  12.514  0.7066 -0.0781 -0.0113
  549TMC3    C5 8198   2.402   3.403  12.405 -0.0604 -0.5145 -0.3459
  549TMC3    C6 8199   2.372   3.526  12.356  0.3974 -0.3712 -0.2015
  549TMC3     C 8200   2.682   3.476  12.614 -0.5691 -0.2051  0.0162
  549TMC3     O 8201   2.680   3.398  12.707  0.4870 -0.7505  0.1637
  549TMC3     H 8202   2.584   3.709  12.538  0.4382 -1.4799  1.7018
  549TMC3    H1 8203   2.515   3.297  12.564  2.0688  0.0175 -0.5197
  549TMC3    H2 8204   2.299   3.521  12.277  2.4723  1.6225 -2.2148
  549TMC3    C7 8205   2.349   3.285  12.345  0.1121 -0.2684  0.5100
  549TMC3    C8 8206   2.405   3.759  12.330 -0.5786 -0.3987 -0.1133
  549TMC3    O1 8207   2.268   3.307  12.255 -0.4466 -0.0987 -0.2075
  549TMC3    O2 8208   2.317   3.761  12.244  0.7544 -0.0381 -0.1378
  550TMC3    C1 8209   1.605   2.032  11.823  0.3139  0.4094  0.4995
  550TMC3    C2 8210   1.565   2.076  11.950 -0.3169 -0.1881 -0.7009
  550TMC3    C3 8211   1.441   2.127  11.972  0.0369 -0.5219  0.2021
  550TMC3    C4 8212   1.514   2.019  11.729 -1.0146 -0.0259 -0.2876
  550TMC3    C5 8213   1.385   2.051  11.754 -0.3759 -0.3590 -0.1228
  550TMC3    C6 8214   1.353   2.104  11.873  0.4965 -0.4352 -0.3941
  550TMC3     C 8215   1.746   2.035  11.792  0.2571 -0.9456  0.0882
  550TMC3     O 8216   1.827   2.071  11.874  0.3290 -0.0814 -0.6746
  550TMC3     H 8217   1.646   2.114  12.012 -0.9103 -0.0667  0.0013
  550TMC3    H1 8218   1.553   1.993  11.632 -1.9410 -1.7843 -0.1975
  550TMC3    H2 8219   1.252   2.142  11.886  1.0983  1.7498 -2.0839
  550TMC3    C7 8220   1.297   2.102  11.647 -0.4792  0.0851 -0.5440
  550TMC3    C8 8221   1.411   2.215  12.081 -0.3310  0.0088 -0.1020
  550TMC3    O1 8222   1.211   2.184  11.675  1.2986  0.6095 -0.4026
  550TMC3    O2 8223   1.489   2.308  12.095 -0.4831  0.3631  0.4154
  551TMC3    C1 8224   4.048   4.288  13.341  0.6162 -0.2494  0.3653
  551TMC3    C2 8225   4.123   4.403  13.312  0.7162  0.0451  0.5661
  551TMC3    C3 8226   4.141   4.495  13.417  0.2181  0.0106 -0.3033
  551TMC3    C4 8227   3.997   4.261  13.466  0.5570  0.3737  0.0805
  551TMC3    C5 8228   4.008   4.359  13.559  0.1475  0.1796  0.3448
  551TMC3    C6 8229   4.070   4.484  13.535 -0.6086  0.0787  0.1442
  551TMC3     C 8230   4.030   4.195  13.234 -0.4758 -0.0801 -0.3136
  551TMC3     O 8231   3.936   4.114  13.246 -0.6213  0.0558  0.3909
  551TMC3     H 8232   4.150   4.421  13.209  0.4373 -2.0541  0.1204
  551TMC3    H1 8233   3.957   4.166  13.501 -2.4792  1.6554  0.1115
  551TMC3    H2 8234   4.099   4.553  13.614 -2.8354  1.4077 -0.1795
  551TMC3    C7 8235   3.987   4.322  13.696 -0.1634  0.2022  0.5707
  551TMC3    C8 8236   4.264   4.565  13.425 -0.4721 -0.2880  0.3576
  551TMC3    O1 8237   4.029   4.214  13.730 -0.3010  0.3713  0.1759
  551TMC3    O2 8238   4.285   4.641  13.517 -0.1662 -0.1871 -0.5687
  552MPD2     C 8239   1.257   1.562  13.279  0.3827 -1.0741  0.3890
  552MPD2    C1 8240   1.264   1.428  13.311 -0.3435  0.1848 -0.0485
  552MPD2    C2 8241   1.326   1.389  13.424 -1.0912 -0.3781  0.1223
  552MPD2    C3 8242   1.393   1.479  13.502 -0.1715 -0.2837  0.4439
  552MPD2    C4 8243   1.407   1.613  13.458  0.1637  0.2744 -0.3330
  552MPD2    C5 8244   1.337   1.647  13.347  0.4415  0.0281 -0.0038
  552MPD2     H 8245   1.324   1.283  13.444 -0.7651 -0.8874 -2.5950
  552MPD2    H1 8246   1.463   1.697  13.498  1.5046 -0.6866 -0.1856
  552MPD2    H2 8247   1.195   1.607  13.202  2.1568 -1.9159 -1.5488
  552MPD2    H3 8248   1.356   1.748  13.312  1.2744  0.3381  1.3356
  552MPD2     N 8249   1.457   1.456  13.628 -0.4763 -0.0595  0.0785
  552MPD2    H5 8250   1.521   1.529  13.657 -0.9479  0.2197  0.4327
  552MPD2    N1 8251   1.200   1.332  13.231  0.3368  0.6759  0.3300
  552MPD2    H7 8252   1.180   1.248  13.284 -1.7052  2.0476  1.7541
  553TMC3    C1 8253   1.052   1.249  13.070  0.1773 -0.4743  0.3401
  553TMC3    C2 8254   1.079   1.232  12.936  0.4582 -0.6082  0.0268
  553TMC3    C3 8255   1.130   1.109  12.899 -0.4988  0.5169  0.5361
  553TMC3    C4 8256   1.051   1.144  13.153 -0.0099 -0.1629 -0.2621
  553TMC3    C5 8257   1.090   1.018  13.109  0.2188 -0.7629 -0.0049
  553TMC3    C6 8258   1.129   0.993  12.979  0.1216  0.0072  0.2032
  553TMC3     C 8259   1.122   1.362  13.116 -0.1037 -0.1303 -0.1714
  553TMC3     O 8260   1.136   1.464  13.054  0.0107  0.1628  0.2222
  553TMC3     H 8261   1.105   1.315  12.871 -0.0575 -0.4937 -0.0326
  553TMC3    H1 8262   1.015   1.154  13.255 -1.0774 -1.7905 -0.4755
  553TMC3    H2 8263   1.172   0.897  12.956  0.9591  0.4024  0.1096
  553TMC3    C7 8264   1.201   0.985  13.189 -0.3976  1.0635  0.0037
  553TMC3    C8 8265   1.217   1.111  12.786 -0.1087  0.0679  0.7879
  553TMC3    O1 8266   1.186   1.002  13.309  0.4009 -0.1204 -0.3496
  553TMC3    O2 8267   1.305   1.199  12.788 -0.6820  0.3081  0.9137
  554TMC3    C1 8268   3.821   0.569  11.275 -0.7880 -0.9916  0.4440
  554TMC3    C2 8269   3.751   0.498  11.181  0.3806 -0.9150 -0.5351
  554TMC3    C3 8270   3.744   0.547  11.051 -0.5672 -0.1154 -0.2053
  554TMC3    C4 8271   3.879   0.694  11.260 -0.5157 -0.6639  0.1749
  554TMC3    C5 8272   3.865   0.740  11.130  0.3230  0.0214  0.9608
  554TMC3    C6 8273   3.821   0.660  11.026  0.9829  0.5808 -0.1178
  554TMC3     C 8274   3.797   0.528  11.409 -0.4201 -0.2843 -0.4121
  554TMC3     O 8275   3.775   0.620  11.485 -0.1319 -0.4462 -1.2158
  554TMC3     H 8276   3.714   0.400  11.208 -2.7984  0.6941  0.9694
  554TMC3    H1 8277   3.925   0.741  11.346  0.5717 -1.1217 -0.1567
  554TMC3    H2 8278   3.796   0.716  10.937 -1.3572  2.5430  1.7712
  554TMC3    C7 8279   3.822   0.872  11.123  0.2572 -0.2821  0.2674
  554TMC3    C8 8280   3.609   0.546  10.985 -0.7435  0.3716 -0.1270
  554TMC3    O1 8281   3.843   0.932  11.018 -0.1869 -0.2107  0.5913
  554TMC3    O2 8282   3.608   0.607  10.880 -0.0294 -0.1742  0.4264
  555TMC3    C1 8283   1.953   4.175  14.928  0.0417  0.5794  0.0698
  555TMC3    C2 8284   2.086   4.200  14.949  0.5212  0.5728  0.2633
  555TMC3    C3 8285   2.168   4.096  14.966  0.2539  0.3492  0.1790
  555TMC3    C4 8286   1.892   4.056  14.946  0.2338 -0.4785  0.2589
  555TMC3    C5 8287   1.983   3.955  14.968 -0.2942  0.4452  0.8085
  555TMC3    C6 8288   2.117   3.970  14.983  0.0772  0.3244  0.2923
  555TMC3     C 8289   1.893   4.263  14.829 -0.4212  0.1213 -0.3137
  555TMC3     O 8290   1.972   4.343  14.776  0.2677 -0.4973 -0.2361
  555TMC3     H 8291   2.138   4.289  14.918 -0.2763  1.0671  0.3593
  555TMC3    H1 8292   1.786   4.035  14.932 -0.1789  0.9723  1.2569
  555TMC3    H2 8293   2.178   3.881  14.986 -1.4793 -0.7657 -0.4847
  555TMC3    C7 8294   1.921   3.829  14.980 -0.3752 -0.9148 -0.8529
  555TMC3    C8 8295   2.305   4.112  14.987  0.8029 -0.6936  0.1971
  555TMC3    O1 8296   1.817   3.823  15.044  0.4654 -0.0989  0.1820
  555TMC3    O2 8297   2.359   4.211  14.941  0.5024  0.0107 -0.5718
  556MPD2     C 8298   0.090   2.375  10.303 -0.3600 -1.1922  0.6952
  556MPD2    C1 8299   0.111   2.288  10.414  0.2214 -0.4542 -0.4301
  556MPD2    C2 8300   0.111   2.161  10.394 -1.0451 -0.7106  0.4146
  556MPD2    C3 8301   0.087   2.107  10.270  0.4457 -0.1598 -0.3567
  556MPD2    C4 8302   0.056   2.186  10.162  0.2849  0.0008  0.0423
  556MPD2    C5 8303   0.048   2.317  10.181  0.2633 -0.3080  0.0003
  556MPD2     H 8304   0.119   2.094  10.480 -0.9331 -1.1896  0.0339
  556MPD2    H1 8305   0.019   2.151  10.066  0.9123 -0.6837  0.0541
  556MPD2    H2 8306   0.104   2.482  10.302 -0.9915 -1.1279 -1.5071
  556MPD2    H3 8307   0.022   2.386  10.101  1.0972 -0.8751 -0.7546
  556MPD2     N 8308   0.087   1.964  10.272  0.4371 -0.1808  0.1637
  556MPD2    H5 8309   0.120   1.920  10.357  1.8660  1.5020  0.4900
  556MPD2    N1 8310   0.132   2.337  10.545  0.1355 -0.0645  0.3860
  556MPD2    H7 8311   0.144   2.273  10.623 -0.6779 -0.4932  0.1534
  557TMC3    C1 8312   0.074   1.744  10.208  0.8149 -0.4943  0.0294
  557TMC3    C2 8313   0.007   1.650  10.131  0.3394  0.0633 -0.1776
  557TMC3    C3 8314   0.013   1.522  10.167  0.2462  0.5646 -0.3032
  557TMC3    C4 8315   0.148   1.702  10.319 -0.0108  0.3723  0.4434
  557TMC3    C5 8316   0.153   1.565  10.350 -0.4605  0.3679  0.1252
  557TMC3    C6 8317   0.078   1.481  10.274 -0.3235 -0.3176  0.8188
  557TMC3     C 8318   0.045   1.880  10.177  0.4728  0.8194 -0.6039
  557TMC3     O 8319   4.718   1.909  10.081 -0.1503 -0.5700  0.2141
  557TMC3     H 8320   4.689   1.674  10.043  1.8376  2.2001 -0.5873
  557TMC3    H1 8321   0.195   1.769  10.389  0.7579  0.3687 -0.0769
  557TMC3    H2 8322   0.084   1.374  10.288  0.3791 -0.3625  0.2052
  557TMC3    C7 8323   0.130   1.533  10.483  0.0735 -0.8085 -0.9706
  557TMC3    C8 8324   4.731   1.425  10.064  0.2117 -0.0246 -0.4268
  557TMC3    O1 8325   0.019   1.492  10.507  0.3712  0.2148 -0.2572
  557TMC3    O2 8326   0.073   1.337  10.052  0.3077 -0.2943  0.4926
  558TMC3    C1 8327   2.726   4.523  10.356  0.2005 -0.5855  0.3877
  558TMC3    C2 8328   2.634   4.544  10.457 -0.6119  0.5061 -0.3290
  558TMC3    C3 8329   2.515   4.595  10.425  0.2901  0.5413 -0.4674
  558TMC3    C4 8330   2.705   4.561  10.227  0.0829 -0.7130 -1.0519
  558TMC3    C5 8331   2.586   4.605  10.199  1.0315  0.1490 -1.0758
  558TMC3    C6 8332   2.486   4.641  10.292 -0.3843 -0.0478 -0.1780
  558TMC3     C 8333   2.843   4.447  10.396 -0.1239 -0.6729 -0.9800
  558TMC3     O 8334   2.953   4.487  10.360 -0.1783 -0.4279  0.0360
  558TMC3     H 8335   2.658   4.518  10.560  0.3044  0.8479 -0.4521
  558TMC3    H1 8336   2.774   4.539  10.146 -0.3979 -1.1156 -1.3559
  558TMC3    H2 8337   2.389   4.683  10.269 -1.4313 -3.7487 -2.5685
  558TMC3    C7 8338   2.563   4.648  10.057  0.5127  0.5048 -1.1267
  558TMC3    C8 8339   2.415   4.631  10.532  0.8154  0.2841 -0.3103
  558TMC3    O1 8340   2.657   4.698   9.996  0.0851  0.3667 -0.3379
  558TMC3    O2 8341   2.299   4.619  10.500 -0.0743 -0.1377  0.2447
  559MPD2     C 8342   2.701   0.167  10.287 -0.4121  0.0725  0.2788
  559MPD2    C1 8343   2.688   0.211  10.422 -0.2843 -0.1401 -0.3120
  559MPD2    C2 8344   2.809   0.226  10.497  0.0334  0.0370  0.0503
  559MPD2    C3 8345   2.936   0.221  10.437 -0.2599  0.1001  0.8114
  559MPD2    C4 8346   2.948   0.165  10.311 -0.0726 -0.2357 -0.0622
  559MPD2    C5 8347   2.833   0.150  10.237 -0.1266 -1.3667  0.0418
  559MPD2     H 8348   2.812   0.260  10.600 -2.5065 -1.4085  0.6193
  559MPD2    H1 8349   3.039   0.150  10.255  0.2708  0.6583  0.2513
  559MPD2    H2 8350   2.612   0.152  10.228  0.5331  1.4988 -1.5110
  559MPD2    H3 8351   2.845   0.107  10.138  1.3792 -2.0758  0.5295
  559MPD2     N 8352   3.047   0.262  10.519 -0.1940 -0.2682 -0.7686
  559MPD2    H5 8353   3.022   0.302  10.609  1.8384 -1.5555  0.3797
  559MPD2    N1 8354   2.558   0.242  10.475  0.4663 -0.7276  0.0827
  559MPD2    H7 8355   2.478   0.217  10.418  0.7840  1.1854 -1.2075
  560TMC3    C1 8356   3.259   0.236  10.615 -0.6168  1.0150  0.1001
  560TMC3    C2 8357   3.198   0.221  10.740 -0.5105  0.2201 -0.1299
  560TMC3    C3 8358   3.271   0.150  10.832  0.7222 -0.1886 -0.2755
  560TMC3    C4 8359   3.394   0.212  10.595 -0.5528  0.2820 -0.3490
  560TMC3    C5 8360   3.459   0.152  10.700  0.1212 -0.5869  0.1426
  560TMC3    C6 8361   3.402   0.122  10.817  0.5993 -0.2525 -0.4102
  560TMC3     C 8362   3.178   0.227  10.496 -0.3105  0.2164  0.2120
  560TMC3     O 8363   3.218   0.148  10.407  0.0948 -0.1433 -0.4647
  560TMC3     H 8364   3.097   0.251  10.763  0.0664 -0.7193  3.6756
  560TMC3    H1 8365   3.440   0.231  10.499 -0.9490  1.4550 -0.3061
  560TMC3    H2 8366   3.453   0.072  10.899  0.4837  1.8761  0.9605
  560TMC3    C7 8367   3.598   0.107  10.677 -0.2313 -0.2045  0.3308
  560TMC3    C8 8368   3.202   0.104  10.948 -0.3074  0.7311 -0.2734
  560TMC3    O1 8369   3.628   0.001  10.724  0.0799 -1.0787 -0.3456
  560TMC3    O2 8370   3.080   0.124  10.949 -0.2806 -0.3390 -0.8342
  561TMC3    C1 8371   0.419   4.196  11.009  0.1734  0.0557 -0.1622
  561TMC3    C2 8372   0.324   4.127  11.076  0.4695 -0.3280  0.2396
  561TMC3    C3 8373   0.240   4.178  11.167  0.1954 -0.4954  0.0370
  561TMC3    C4 8374   0.427   4.333  11.030 -0.0601 -0.2308 -0.4644
  561TMC3    C5 8375   0.345   4.389  11.124  0.1100 -0.0334 -0.3282
  561TMC3    C6 8376   0.245   4.315  11.185 -0.4289 -0.4649  0.0270
  561TMC3     C 8377   0.473   4.133  10.890 -0.2616  0.0527 -0.2028
  561TMC3     O 8378   0.405   4.046  10.837  0.0372  0.1679 -0.1183
  561TMC3     H 8379   0.317   4.020  11.058 -0.6509 -0.3016  0.5699
  561TMC3    H1 8380   0.515   4.381  10.989 -1.3525  2.0648 -0.5141
  561TMC3    H2 8381   0.201   4.351  11.277 -1.6417 -0.6951 -0.4641
  561TMC3    C7 8382   0.380   4.519  11.182 -0.2536  0.3991 -0.5199
  561TMC3    C8 8383   0.167   4.079  11.253  0.0217 -0.4305  0.6856
  561TMC3    O1 8384   0.310   4.568  11.273 -0.4084 -0.4729 -0.1028
  561TMC3    O2 8385   0.191   3.956  11.238  0.4926 -0.4383 -0.0538
  562TMC3    C1 8386   1.496   0.267  15.491  0.3241  0.0079  0.2424
  562TMC3    C2 8387   1.393   0.345  15.444  0.5541 -0.4376 -0.8556
  562TMC3    C3 8388   1.344   0.302  15.324  0.5884 -0.4598 -0.1273
  562TMC3    C4 8389   1.539   0.158  15.422 -0.2143  0.0131  0.2134
  562TMC3    C5 8390   1.487   0.130  15.297  0.0289  0.0803  0.7415
  562TMC3    C6 8391   1.403   0.217  15.238 -1.2491  0.4238  0.3021
  562TMC3     C 8392   1.573   0.324  15.600  0.1195  0.3181  0.5274
  562TMC3     O 8393   1.692   0.287  15.617 -0.3503 -0.1924 -0.1129
  562TMC3     H 8394   1.362   0.436  15.496 -0.3070 -2.3522  2.0083
  562TMC3    H1 8395   1.625   0.101  15.456  0.9969  1.8487  0.1913
  562TMC3    H2 8396   1.377   0.194  15.135 -2.0761 -1.1955  0.8637
  562TMC3    C7 8397   1.530   0.012  15.218  0.1505  0.0200 -0.2342
  562TMC3    C8 8398   1.226   0.379  15.299  0.2676  0.8337  0.1366
  562TMC3    O1 8399   1.498   0.009  15.100 -0.3902 -0.0898  0.5055
  562TMC3    O2 8400   1.172   0.434  15.396  0.5043  0.2818 -0.8381
  563MPD2     C 8401   4.356   1.414  15.637 -0.6000 -0.7004  0.2023
  563MPD2    C1 8402   4.379   1.396  15.774  0.4360  0.4987  1.2789
  563MPD2    C2 8403   4.503   1.356  15.819 -0.1736  0.0630 -0.5606
  563MPD2    C3 8404   4.613   1.346  15.739  0.3160  0.2849 -0.6407
  563MPD2    C4 8405   4.593   1.371  15.603 -0.0909  0.5250 -0.3719
  563MPD2    C5 8406   4.467   1.404  15.554 -0.2135 -0.3168 -0.5348
  563MPD2     H 8407   4.510   1.312  15.918 -4.2800 -0.9193 -0.7145
  563MPD2    H1 8408   4.677   1.384  15.535  0.7189 -0.4625  0.4327
  563MPD2    H2 8409   4.263   1.453  15.597 -1.4501 -1.3489  1.5353
  563MPD2    H3 8410   4.459   1.423  15.447 -0.6197  2.2365 -0.0506
  563MPD2     N 8411   0.001   1.320  15.793 -0.1029 -0.2712  0.1103
  563MPD2    H5 8412   4.736   1.300  15.892  0.6459 -1.0550 -0.0043
  563MPD2    N1 8413   4.269   1.399  15.858 -0.2876 -0.5504  0.2331
  563MPD2    H7 8414   4.177   1.413  15.817  0.3141  0.2967 -0.8634
  564TMC3    C1 8415   4.172   1.320  16.057 -0.2463  0.2627 -0.3112
  564TMC3    C2 8416   4.082   1.249  15.982 -0.7299 -0.4828 -0.5567
  564TMC3    C3 8417   4.016   1.145  16.045  0.0491 -0.6506  0.8192
  564TMC3    C4 8418   4.215   1.278  16.181 -0.7236 -0.5856 -0.1224
  564TMC3    C5 8419   4.163   1.164  16.231 -0.1208 -0.4299 -0.6564
  564TMC3    C6 8420   4.055   1.107  16.176 -0.1328 -0.1296  0.4139
  564TMC3     C 8421   4.282   1.387  15.991  0.8480 -0.0516 -0.9097
  564TMC3     O 8422   4.382   1.419  16.058 -0.3765  0.3197 -0.4868
  564TMC3     H 8423   4.045   1.298  15.892 -0.9095 -0.5895 -0.5413
  564TMC3    H1 8424   4.303   1.318  16.231 -1.7430 -1.4646  2.3758
  564TMC3    H2 8425   4.006   1.024  16.225 -1.1530 -0.3460 -0.9696
  564TMC3    C7 8426   4.277   1.075  16.254 -0.6309 -0.3272 -0.2925
  564TMC3    C8 8427   4.015   1.027  15.969 -0.6744 -0.3847 -0.7623
  564TMC3    O1 8428   4.374   1.115  16.308  0.0051 -0.2344 -0.4195
  564TMC3    O2 8429   4.020   0.924  16.035  0.2016 -0.4041 -0.5961
  565TMC3    C1 8430   0.190   3.372   9.250  0.4973  0.4792 -0.1115
  565TMC3    C2 8431   0.220   3.276   9.336 -0.0120  0.0437 -0.1873
  565TMC3    C3 8432   0.116   3.203   9.380  0.1018  0.7046  0.1652
  565TMC3    C4 8433   0.066   3.409   9.215 -0.5922 -0.3006  0.0605
  565TMC3    C5 8434   4.704   3.329   9.250  0.6410  0.3882  0.5492
  565TMC3    C6 8435   4.724   3.219   9.331 -0.2851  0.1813  0.3951
  565TMC3     C 8436   0.276   3.484   9.266 -0.3351  0.1890 -0.6079
  565TMC3     O 8437   0.220   3.596   9.266  0.1433  0.4250 -0.3556
  565TMC3     H 8438   0.318   3.250   9.374 -1.4051 -0.6020  3.0185
  565TMC3    H1 8439   0.045   3.496   9.154  1.1283 -0.2513 -0.4512
  565TMC3    H2 8440   4.640   3.186   9.390 -1.4535 -2.7798 -2.9277
  565TMC3    C7 8441   4.567   3.377   9.239 -0.0027 -0.4309  0.4253
  565TMC3    C8 8442   0.130   3.086   9.464  0.7250 -0.0118 -0.6754
  565TMC3    O1 8443   4.541   3.491   9.215  0.1356  0.2381 -0.0394
  565TMC3    O2 8444   0.240   3.066   9.516  0.2467  0.5047 -1.1277
  566MPD2     C 8445   1.211   4.171  14.236  0.3819 -0.7163 -0.2723
  566MPD2    C1 8446   1.303   4.264  14.182 -0.1482  0.8875  0.5936
  566MPD2    C2 8447   1.274   4.312  14.057  0.5525 -0.2862  0.4614
  566MPD2    C3 8448   1.154   4.278  13.995 -0.0992 -0.1391  0.3499
  566MPD2    C4 8449   1.064   4.192  14.055  0.2254  0.3482 -0.3054
  566MPD2    C5 8450   1.093   4.139  14.179 -0.2805 -0.6419 -0.2510
  566MPD2     H 8451   1.357   4.358  14.006 -0.6751  0.8522 -0.5105
  566MPD2    H1 8452   0.971   4.165  14.008 -1.0989 -1.9274  3.6533
  566MPD2    H2 8453   1.231   4.116  14.328 -0.7052  1.6576  1.3710
  566MPD2    H3 8454   1.027   4.062  14.217 -0.8661 -0.2321 -0.4464
  566MPD2     N 8455   1.119   4.318  13.857  0.3450 -0.4043  0.1816
  566MPD2    H5 8456   1.027   4.284  13.830  0.9551 -1.2826 -0.7408
  566MPD2    N1 8457   1.421   4.302  14.250  0.1683 -0.7338 -0.4080
  566MPD2    H7 8458   1.451   4.240  14.324  3.1502  1.6545  0.3855
  567TMC3    C1 8459   1.615   4.427  14.278 -0.1173 -0.3925 -0.3295
  567TMC3    C2 8460   1.685   4.540  14.256 -0.3917  0.0258 -0.0755
  567TMC3    C3 8461   1.813   4.536  14.294 -0.2033  0.1501 -0.0482
  567TMC3    C4 8462   1.678   4.315  14.329 -0.2596  0.4564 -0.8417
  567TMC3    C5 8463   1.807   4.319  14.363  0.0383 -0.1485 -0.1980
  567TMC3    C6 8464   1.883   4.431  14.351 -0.7242 -0.0602 -0.0618
  567TMC3     C 8465   1.486   4.419  14.226  0.0604  0.1639 -0.0877
  567TMC3     O 8466   1.455   4.512  14.156 -0.5933 -0.0390 -0.0672
  567TMC3     H 8467   1.633   4.631  14.230 -0.6173 -0.4836 -1.3850
  567TMC3    H1 8468   1.627   4.222  14.351  0.9757  0.0951  0.4758
  567TMC3    H2 8469   1.988   4.431  14.376 -0.6489  1.2918 -0.3433
  567TMC3    C7 8470   1.864   4.196  14.422  0.1027 -0.5910 -0.3331
  567TMC3    C8 8471   1.886   4.656  14.285  0.1696 -0.9848 -0.2919
  567TMC3    O1 8472   1.972   4.156  14.382 -0.5164 -0.1331 -0.4310
  567TMC3    O2 8473   1.983   4.664  14.358  0.4197 -0.4006  0.1646
  568MPD2     C 8474   4.484   4.691  16.566  0.4959  0.0738 -0.1578
  568MPD2    C1 8475   4.365   0.017  16.596  0.2165  0.4426  0.0698
  568MPD2    C2 8476   4.303   0.092  16.495 -0.1867  0.1646  0.0047
  568MPD2    C3 8477   4.357   0.097  16.368 -0.8532 -0.3702  0.6572
  568MPD2    C4 8478   4.474   0.034  16.339  0.2040 -0.2195 -0.1399
  568MPD2    C5 8479   4.537   4.702  16.436  0.0432 -0.1182 -0.0746
  568MPD2     H 8480   4.210   0.145  16.511 -0.4459 -0.3885  0.3583
  568MPD2    H1 8481   4.513   0.030  16.238  1.8489 -1.7194  0.5407
  568MPD2    H2 8482   4.528   4.629  16.644  0.9795  1.0038  0.3077
  568MPD2    H3 8483   4.625   4.650  16.400  1.9760  2.7338  0.4261
  568MPD2     N 8484   4.297   0.178  16.267 -0.5497 -0.8958  0.7605
  568MPD2    H5 8485   4.217   0.229  16.303 -2.4224 -0.8293 -3.5543
  568MPD2    N1 8486   4.297   4.733  16.720 -0.1527 -0.7675  0.5837
  568MPD2    H7 8487   4.355   4.671  16.776 -0.5135 -1.0155  0.6838
  569TMC3    C1 8488   4.218   0.261  16.079  0.2611 -0.0225  0.1081
  569TMC3    C2 8489   4.111   0.320  16.145 -0.3064 -0.2360  0.4699
  569TMC3    C3 8490   4.018   0.382  16.073  0.0892  1.0529  0.1467
  569TMC3    C4 8491   4.231   0.291  15.941 -0.2501  0.0725  0.8445
  569TMC3    C5 8492   4.129   0.359  15.880  0.1573  0.1577  0.3664
  569TMC3    C6 8493   4.016   0.398  15.943 -0.0478 -0.4667  0.0064
  569TMC3     C 8494   4.330   0.193  16.140  0.0797  0.3856  0.2567
  569TMC3     O 8495   4.425   0.167  16.067 -0.2028  0.4044  0.3077
  569TMC3     H 8496   4.087   0.307  16.250 -0.7700 -1.0847  0.2599
  569TMC3    H1 8497   4.319   0.260  15.885  1.6001 -0.9597  4.3534
  569TMC3    H2 8498   3.939   0.439  15.879  1.0981 -0.8910 -1.6338
  569TMC3    C7 8499   4.173   0.455  15.772  0.6489  0.2000  0.4652
  569TMC3    C8 8500   3.948   0.503  16.129  0.1832  0.3568  0.0516
  569TMC3    O1 8501   4.276   0.439  15.714 -0.0708 -0.3955  0.1300
  569TMC3    O2 8502   3.869   0.559  16.058  0.3738 -0.0055 -0.0023
  570TMC3    C1 8503   3.352   3.722  16.236  0.1637 -0.7799 -0.2439
  570TMC3    C2 8504   3.402   3.691  16.110 -0.5484 -0.0018  0.4104
  570TMC3    C3 8505   3.438   3.790  16.029  0.0784 -0.2847  0.0746
  570TMC3    C4 8506   3.328   3.850  16.278 -0.9067 -0.3333 -0.1942
  570TMC3    C5 8507   3.348   3.944  16.179  0.2127  0.4622 -0.3699
  570TMC3    C6 8508   3.420   3.917  16.070 -0.0073 -0.3201  1.0031
  570TMC3     C 8509   3.301   3.618  16.314 -0.0277  0.1496 -0.1149
  570TMC3     O 8510   3.289   3.510  16.252  0.6625 -0.2323  0.3669
  570TMC3     H 8511   3.415   3.589  16.075  1.4721 -0.3299  2.0935
  570TMC3    H1 8512   3.249   3.870  16.350 -0.7648  2.6783 -0.8785
  570TMC3    H2 8513   3.446   3.992  15.995 -1.2685 -0.1193  0.7750
  570TMC3    C7 8514   3.352   4.082  16.237 -0.1441 -0.7835  0.8861
  570TMC3    C8 8515   3.551   3.771  15.940 -0.2433 -0.5070 -0.2751
  570TMC3    O1 8516   3.342   4.093  16.359  0.2447  0.1352 -0.1512
  570TMC3    O2 8517   3.637   3.856  15.959 -0.4001 -0.2786  0.0398
  571MPD2     C 8518   1.393   0.580  17.102 -0.2371 -0.1933 -0.9290
  571MPD2    C1 8519   1.337   0.520  17.215 -0.2309  0.1389 -0.1117
  571MPD2    C2 8520   1.376   0.564  17.342 -0.4653  0.2796  0.0563
  571MPD2    C3 8521   1.481   0.654  17.352  0.7845  0.0110  0.0138
  571MPD2    C4 8522   1.524   0.720  17.238 -0.6197  0.2212 -0.3077
  571MPD2    C5 8523   1.473   0.682  17.119 -0.0284 -0.5712 -0.0071
  571MPD2     H 8524   1.330   0.521  17.430  2.7806  0.0390  1.6110
  571MPD2    H1 8525   1.597   0.797  17.256 -0.7093  0.4571 -0.9657
  571MPD2    H2 8526   1.366   0.546  17.002  0.8013 -0.1061 -1.2400
  571MPD2    H3 8527   1.511   0.725  17.027  0.3760 -1.5039 -0.2688
  571MPD2     N 8528   1.541   0.699  17.476 -0.3891 -0.5169  0.6485
  571MPD2    H5 8529   1.594   0.785  17.475 -2.6901  0.9043  1.4724
  571MPD2    N1 8530   1.256   0.405  17.204 -0.1367  0.1807  0.6171
  571MPD2    H7 8531   1.248   0.365  17.111 -0.8001  0.9842  0.3347
  572TMC3    C1 8532   1.595   0.711  17.697  0.5675 -1.0504  0.2574
  572TMC3    C2 8533   1.646   0.644   0.047  0.3137 -0.1842  0.6031
  572TMC3    C3 8534   1.696   0.711   0.151  0.4938 -0.8205 -0.6758
  572TMC3    C4 8535   1.585   0.849  17.706 -0.0219 -1.0445 -0.1840
  572TMC3    C5 8536   1.637   0.912   0.055 -0.3270  0.6753  0.6218
  572TMC3    C6 8537   1.688   0.843   0.161 -0.3206 -0.1681  0.0865
  572TMC3     C 8538   1.529   0.632  17.590 -0.0130  0.0062 -0.2593
  572TMC3     O 8539   1.479   0.525  17.624 -0.8476  0.0713  0.1823
  572TMC3     H 8540   1.660   0.538   0.026 -0.8556 -0.4412  1.0978
  572TMC3    H1 8541   1.554   0.918  17.628 -0.1544  0.5889  1.2979
  572TMC3    H2 8542   1.725   0.899   0.246 -0.4070 -0.4054  0.2808
  572TMC3    C7 8543   1.623   1.058   0.061  0.5003 -0.7527 -0.6557
  572TMC3    C8 8544   1.796   0.643   0.233 -0.4098 -0.4821  0.3229
  572TMC3    O1 8545   1.522   1.106   0.013 -0.2519  0.6331  0.2581
  572TMC3    O2 8546   1.877   0.573   0.168 -0.1032 -0.4734  0.3637
  573MPD2     C 8547   2.425   2.110  17.760  0.1871 -0.0256  0.4100
  573MPD2    C1 8548   2.522   2.010  17.754  0.1775 -0.3233  0.3818
  573MPD2    C2 8549   2.565   1.967  17.628 -0.0452  0.0425 -0.3589
  573MPD2    C3 8550   2.511   2.024  17.507 -0.2751  0.1546 -0.4563
  573MPD2    C4 8551   2.420   2.126  17.516 -0.1888  0.0504 -0.0100
  573MPD2    C5 8552   2.382   2.162  17.642  0.1406  0.6624 -0.7661
  573MPD2     H 8553   2.646   1.894  17.622 -0.8926 -0.9319  0.1663
  573MPD2    H1 8554   2.366   2.172  17.435  2.4616 -0.1893 -1.9033
  573MPD2    H2 8555   2.391   2.146   0.095 -2.6054  0.5876 -0.7972
  573MPD2    H3 8556   2.310   2.243  17.645 -1.5886 -0.8918 -0.6886
  573MPD2     N 8557   2.552   1.991  17.379  0.3554 -0.5737  0.5833
  573MPD2    H5 8558   2.531   2.053  17.301 -0.7587 -0.8637  0.6530
  573MPD2    N1 8559   2.571   1.953   0.113 -0.0223  0.0594  0.1367
  573MPD2    H7 8560   2.540   1.997   0.199 -2.7362 -1.2586 -0.1742
  574TMC3    C1 8561   2.696   1.902  17.214 -0.2786 -1.0481 -0.1663
  574TMC3    C2 8562   2.602   1.910  17.104 -0.4228  0.2056  0.0878
  574TMC3    C3 8563   2.644   1.864  16.981 -0.3513 -0.2587 -0.1207
  574TMC3    C4 8564   2.819   1.854  17.194 -0.3388  0.1442 -0.2242
  574TMC3    C5 8565   2.855   1.814  17.069  0.5245  0.5595 -0.1193
  574TMC3    C6 8566   2.768   1.806  16.963  0.4913 -0.1416  0.0353
  574TMC3     C 8567   2.649   1.899  17.349 -0.4457  0.2459  0.1262
  574TMC3     O 8568   2.692   1.802  17.410 -0.2348 -0.1080  0.0569
  574TMC3     H 8569   2.502   1.946  17.124 -0.7142 -0.0511 -0.9334
  574TMC3    H1 8570   2.887   1.845  17.278  0.4865 -0.9317 -1.0124
  574TMC3    H2 8571   2.798   1.779  16.863 -0.8054 -1.3814 -0.0198
  574TMC3    C7 8572   2.998   1.822  17.045  0.3695  0.1816 -0.5771
  574TMC3    C8 8573   2.555   1.881  16.863  0.2258 -0.1641  0.4459
  574TMC3    O1 8574   3.078   1.816  17.143 -0.2412 -0.5698 -0.0019
  574TMC3    O2 8575   2.589   1.817  16.770  0.1365  0.0506 -0.1889
  575TMC3    C1 8576   0.219   2.722  10.213 -0.2232  0.6613  0.5514
  575TMC3    C2 8577   0.316   2.628  10.244 -0.2645  0.9251 -0.1608
  575TMC3    C3 8578   0.338   2.524  10.160 -0.4263 -0.3846  0.1740
  575TMC3    C4 8579   0.159   2.720  10.092  0.1015 -0.5755  0.2395
  575TMC3    C5 8580   0.188   2.610  10.010 -0.2053 -0.6005 -0.1665
  575TMC3    C6 8581   0.275   2.515  10.043 -0.1664  0.0564  0.7257
  575TMC3     C 8582   0.193   2.841  10.294  0.2683  0.3391  0.3194
  575TMC3     O 8583   0.152   2.938  10.232  0.1423 -0.0144  0.1494
  575TMC3     H 8584   0.372   2.637  10.336 -2.8778 -0.3379  1.5703
  575TMC3    H1 8585   0.079   2.787  10.063 -1.5068 -2.4560  0.3222
  575TMC3    H2 8586   0.297   2.431   9.978  1.2885 -0.4000  1.8299
  575TMC3    C7 8587   0.113   2.591   9.891 -0.1916 -0.2353 -0.0000
  575TMC3    C8 8588   0.416   2.403  10.208  0.1759  0.3738  0.8114
  575TMC3    O1 8589   0.087   2.476   9.859  0.6649 -0.2705 -0.5420
  575TMC3    O2 8590   0.450   2.316  10.128  0.4603 -0.5709 -0.2755
  576MPD2     C 8591   4.233   4.301  12.542 -0.0817  0.0512 -0.0647
  576MPD2    C1 8592   4.344   4.381  12.519 -0.9526 -0.3913  0.3984
  576MPD2    C2 8593   4.379   4.466  12.622  0.1904 -0.0921  0.7103
  576MPD2    C3 8594   4.309   4.472  12.740  0.2578  0.5799 -0.8380
  576MPD2    C4 8595   4.202   4.391  12.766  0.1930 -0.3455 -0.4360
  576MPD2    C5 8596   4.164   4.307  12.668  0.1966 -0.0970  0.2511
  576MPD2     H 8597   4.456   4.536  12.590  0.7247 -0.1777  1.8153
  576MPD2    H1 8598   4.140   4.410  12.854  0.3764  1.8527 -0.7860
  576MPD2    H2 8599   4.181   4.243  12.467  0.8333  0.2331 -0.8268
  576MPD2    H3 8600   4.075   4.247  12.680  1.4647 -1.6349  1.9765
  576MPD2     N 8601   4.343   4.573  12.825 -0.1511 -0.1976  0.4582
  576MPD2    H5 8602   4.415   4.633  12.787  0.8047 -0.5700  1.6936
  576MPD2    N1 8603   4.412   4.387  12.398  0.1891 -0.2398  0.0431
  576MPD2    H7 8604   4.472   4.468  12.382 -0.0574 -0.2492 -0.9627
  577TMC3    C1 8605   4.452   4.327  12.178  0.4993  0.4706  0.5365
  577TMC3    C2 8606   4.459   4.234  12.078  0.2234 -0.1931  0.4054
  577TMC3    C3 8607   4.518   4.266  11.961  0.1007 -0.1737 -0.1532
  577TMC3    C4 8608   4.507   4.454  12.167 -0.5777 -0.0136 -1.2123
  577TMC3    C5 8609   4.568   4.481  12.048 -0.3633  0.8489  0.1901
  577TMC3    C6 8610   4.588   4.390  11.944  0.6811  0.4739 -0.1964
  577TMC3     C 8611   4.379   4.297  12.293  0.2332  0.6523  0.5062
  577TMC3     O 8612   4.308   4.199  12.289 -0.2145  0.5134  0.2319
  577TMC3     H 8613   4.414   4.137  12.100 -2.6754  0.8157 -0.9774
  577TMC3    H1 8614   4.471   4.540  12.223  1.6859 -1.3146  2.2264
  577TMC3    H2 8615   4.650   4.412  11.858  1.4699 -0.1866  0.2170
  577TMC3    C7 8616   4.654   4.598  12.050  0.5141  0.8257  0.0716
  577TMC3    C8 8617   4.525   4.166  11.865  0.5853  0.5948 -0.6197
  577TMC3    O1 8618   4.693   4.641  12.160  0.7557 -0.0960 -0.6274
  577TMC3    O2 8619   4.497   4.059  11.903  0.4550 -0.0963 -0.6603
  578MPD2     C 8620   2.385   4.435   0.759  0.1859  0.1577  0.2716
  578MPD2    C1 8621   2.463   4.342   0.693 -0.1990 -0.9068 -0.0853
  578MPD2    C2 8622   2.592   4.310   0.750  0.1122 -0.1055  0.8828
  578MPD2    C3 8623   2.633   4.373   0.865  0.1775 -0.2514  0.1196
  578MPD2    C4 8624   2.544   4.460   0.931  0.1666  0.2444 -0.0463
  578MPD2    C5 8625   2.412   4.486   0.887 -1.0324 -0.1291  0.1025
  578MPD2     H 8626   2.663   4.247   0.698  0.5856 -1.1781  2.8511
  578MPD2    H1 8627   2.572   4.514   1.020  0.2645  1.6364 -0.9232
  578MPD2    H2 8628   2.293   4.472   0.714  0.4900  2.7797  1.7878
  578MPD2    H3 8629   2.356   4.563   0.939  2.5724  3.1256 -0.8879
  578MPD2     N 8630   2.764   4.344   0.913  0.2215  0.1450  0.8170
  578MPD2    H5 8631   2.813   4.281   0.851  0.0433  0.3876  0.4279
  578MPD2    N1 8632   2.414   4.296   0.572  0.2052  0.3083  0.0855
  578MPD2    H7 8633   2.332   4.335   0.526  0.1401 -1.2015 -1.0797
  579TMC3    C1 8634   2.948   4.329   1.071  0.6015  0.0503 -0.5889
  579TMC3    C2 8635   3.030   4.398   1.158  0.4565 -0.0436  0.0019
  579TMC3    C3 8636   3.139   4.331   1.206  0.9591 -0.7892 -0.4236
  579TMC3    C4 8637   2.967   4.192   1.036  0.4920  0.3406 -0.5933
  579TMC3    C5 8638   3.074   4.128   1.088 -0.0474  0.3190  1.1156
  579TMC3    C6 8639   3.164   4.194   1.164 -0.1271  0.0422 -0.0313
  579TMC3     C 8640   2.832   4.401   1.025  0.1052  0.4430  0.6075
  579TMC3     O 8641   2.793   4.500   1.088  0.4861  0.1563  0.4413
  579TMC3     H 8642   3.018   4.501   1.188 -0.4302  0.1685 -1.0657
  579TMC3    H1 8643   2.887   4.145   0.979 -0.1373  1.1767 -0.3935
  579TMC3    H2 8644   3.243   4.131   1.204  0.7335  1.7017  0.9493
  579TMC3    C7 8645   3.128   4.025   1.013  0.4345  0.1463 -0.0892
  579TMC3    C8 8646   3.260   4.411   1.220 -0.3838 -0.7127  0.0384
  579TMC3    O1 8647   3.254   4.013   1.018 -0.6011  0.4215 -0.6211
  579TMC3    O2 8648   3.256   4.522   1.273  0.2842 -0.0845  0.3767
  580TMC3    C1 8649   2.478   3.320  11.991 -0.3612 -0.3850 -0.2291
  580TMC3    C2 8650   2.432   3.304  11.863  0.8099  0.7056  0.4564
  580TMC3    C3 8651   2.425   3.181  11.806  0.3070 -0.4520  0.2562
  580TMC3    C4 8652   2.524   3.219  12.064  0.2853  0.6891 -0.7923
  580TMC3    C5 8653   2.529   3.098  12.000  0.2478 -0.2053  0.3074
  580TMC3    C6 8654   2.470   3.072  11.874  0.2895 -0.4754 -0.3056
  580TMC3     C 8655   2.506   3.466  12.028 -0.2444 -0.6136 -0.3746
  580TMC3     O 8656   2.421   3.540  11.983 -0.7244 -0.5177  0.2639
  580TMC3     H 8657   2.391   3.381  11.799  1.4651  0.8423  0.2039
  580TMC3    H1 8658   2.577   3.237  12.157 -1.6187  0.5015  0.3333
  580TMC3    H2 8659   2.483   2.977  11.823 -3.1356 -0.7495 -0.6216
  580TMC3    C7 8660   2.605   2.999  12.071 -1.2802  1.0507 -0.0541
  580TMC3    C8 8661   2.406   3.162  11.669 -0.0423 -0.4966  0.0976
  580TMC3    O1 8662   2.633   3.026  12.185  0.3087 -0.2853  0.0082
  580TMC3    O2 8663   2.343   3.064  11.633 -0.0849 -0.1611 -0.1991
  581MPD2     C 8664   4.493   2.365  15.308 -0.2580  0.2091  0.6906
  581MPD2    C1 8665   4.592   2.391  15.214 -0.1080 -0.9034 -0.4922
  581MPD2    C2 8666   4.584   2.505  15.130 -0.3381 -0.0594 -0.0241
  581MPD2    C3 8667   4.471   2.583  15.143 -0.1067  0.2889  0.2019
  581MPD2    C4 8668   4.366   2.549  15.227 -0.0621 -0.3606 -0.2148
  581MPD2    C5 8669   4.386   2.452  15.314 -0.1675  0.3363 -0.2145
  581MPD2     H 8670   4.662   2.536  15.061  2.2232 -0.9185  2.4978
  581MPD2    H1 8671   4.275   2.608  15.240  0.9797  0.7807  1.8220
  581MPD2    H2 8672   4.491   2.279  15.375 -0.4162 -0.0510  0.3548
  581MPD2    H3 8673   4.303   2.429  15.381 -1.1992  0.2624 -1.5083
  581MPD2     N 8674   4.463   2.704  15.068 -0.3455  0.3494 -0.5572
  581MPD2    H5 8675   4.545   2.751  15.031  0.7474 -2.0753 -1.2094
  581MPD2    N1 8676   4.702   2.301  15.212  0.6467 -0.1861 -0.1067
  581MPD2    H7 8677   4.698   2.229  15.283  1.2294 -0.3253 -0.2151
  582TMC3    C1 8678   0.166   2.198  15.168  0.8576 -0.4529  0.2529
  582TMC3    C2 8679   0.285   2.260  15.208 -0.3588  0.1020 -0.6649
  582TMC3    C3 8680   0.359   2.190  15.301 -0.0488 -0.3452  0.0893
  582TMC3    C4 8681   0.113   2.080  15.219  0.3171 -0.2742  0.1088
  582TMC3    C5 8682   0.195   2.014  15.309 -0.4670  0.1202 -0.2146
  582TMC3    C6 8683   0.316   2.064  15.350  0.0366 -0.3495  0.2805
  582TMC3     C 8684   0.073   2.307  15.129 -0.1129 -0.8887 -1.1850
  582TMC3     O 8685   0.105   2.405  15.063 -0.4040 -0.3476 -0.3696
  582TMC3     H 8686   0.308   2.363  15.182 -2.1931  0.9809  1.1749
  582TMC3    H1 8687   0.011   2.047  15.200  0.7567 -1.1303 -0.7709
  582TMC3    H2 8688   0.371   2.024  15.434  1.4460 -2.5260 -1.6854
  582TMC3    C7 8689   0.103   1.996  15.420  0.5485 -0.0838 -0.3973
  582TMC3    C8 8690   0.371   2.278  15.422 -0.5939 -0.0298 -0.2526
  582TMC3    O1 8691   0.020   1.909  15.409 -0.2054  0.3115 -0.4541
  582TMC3    O2 8692   0.269   2.341  15.457  0.1548 -0.2313  0.1712
  583MPD2     C 8693   0.071   4.600  16.635 -0.0005 -0.1079  0.4601
  583MPD2    C1 8694   0.123   4.712  16.574  0.1285 -0.7894  0.2611
  583MPD2    C2 8695   0.136   0.086  16.643  0.6733 -0.1618 -0.0262
  583MPD2    C3 8696   0.119   0.083  16.780 -0.0279 -0.2186 -0.7958
  583MPD2    C4 8697   0.064   4.715  16.834  0.6790  0.8711 -0.4312
  583MPD2    C5 8698   0.041   4.603  16.765  0.0723 -0.0287 -0.4085
  583MPD2     H 8699   0.173   0.171  16.588  1.3219 -0.0269  0.6080
  583MPD2    H1 8700   0.042   4.705  16.940  1.4303 -2.4817 -0.5888
  583MPD2    H2 8701   0.048   4.505  16.589  0.3955 -0.5644  1.2082
  583MPD2    H3 8702   4.738   4.517  16.814  1.0013  0.8312  1.9524
  583MPD2     N 8703   0.167   0.197  16.855  0.4009 -0.0602  0.2005
  583MPD2    H5 8704   0.209   0.266  16.793 -1.4143 -0.4384 -1.4565
  583MPD2    N1 8705   0.172   4.704  16.442 -0.4860 -0.6520  0.5208
  583MPD2    H7 8706   0.207   0.049  16.400  1.9037 -2.8864 -2.0360
  584TMC3    C1 8707   0.235   0.323  17.051  0.2417 -0.0313  0.8108
  584TMC3    C2 8708   0.296   0.415  16.974  0.3135  0.5761  0.8927
  584TMC3    C3 8709   0.382   0.503  17.040  0.0693  0.4371 -0.0574
  584TMC3    C4 8710   0.240   0.317  17.185 -0.3112 -0.0018  0.9654
  584TMC3    C5 8711   0.318   0.407  17.248  0.0216 -0.0583  1.4177
  584TMC3    C6 8712   0.386   0.499  17.172 -0.0781 -0.2535  0.3114
  584TMC3     C 8713   0.154   0.216  16.985  0.2099 -0.4935  0.0875
  584TMC3     O 8714   0.083   0.153  17.062  0.0634  0.2883  0.3276
  584TMC3     H 8715   0.298   0.420  16.866  0.1531 -0.9316  0.8245
  584TMC3    H1 8716   0.175   0.247  17.236 -0.4695  0.9932  2.1130
  584TMC3    H2 8717   0.449   0.566  17.231 -0.9019 -0.2146  1.1543
  584TMC3    C7 8718   0.322   0.423  17.395 -0.7247 -0.0048 -0.0309
  584TMC3    C8 8719   0.448   0.609  16.973 -0.8543  0.1952  0.2019
  584TMC3    O1 8720   0.411   0.491  17.439  0.4814 -0.2745 -0.2220
  584TMC3    O2 8721   0.398   0.642  16.866 -0.0537  0.3531  0.3365
  585MPD2     C 8722   4.585   3.554   0.500 -0.9692  0.4635 -0.2471
  585MPD2    C1 8723   4.650   3.554   0.377  0.0002 -0.2234 -0.0120
  585MPD2    C2 8724   4.636   3.441   0.301  0.7093  0.7183 -0.2826
  585MPD2    C3 8725   4.584   3.329   0.351  0.0077  0.0269  0.5853
  585MPD2    C4 8726   4.538   3.326   0.479 -0.9892  0.5206  0.4745
  585MPD2    C5 8727   4.529   3.445   0.549 -0.5718 -0.6898 -0.2293
  585MPD2     H 8728   4.679   3.439   0.201  3.4420 -0.2242  0.8941
  585MPD2    H1 8729   4.492   3.236   0.519 -0.9939 -0.5360 -1.9541
  585MPD2    H2 8730   4.596   3.644   0.560 -3.3865  0.9205 -0.5178
  585MPD2    H3 8731   4.484   3.449   0.648 -1.0710 -0.1993 -0.4746
  585MPD2     N 8732   4.547   3.217   0.271 -0.1007  0.3038 -0.4853
  585MPD2    H5 8733   4.515   3.131   0.314 -3.1514  1.8691  0.3695
  585MPD2    N1 8734   4.698   3.674   0.333 -0.0148 -0.4032 -0.1328
  585MPD2    H7 8735   4.683   3.755   0.393 -1.7526 -1.9372  1.5049
  586TMC3    C1 8736   4.515   3.089   0.068 -0.2933 -0.1267 -0.2316
  586TMC3    C2 8737   4.577   3.044  17.723 -0.2358  0.5715 -0.0380
  586TMC3    C3 8738   4.516   3.008  17.609  0.0855  0.0237 -0.5316
  586TMC3    C4 8739   4.381   3.092   0.071 -0.4814  0.3614  0.2033
  586TMC3    C5 8740   4.311   3.061  17.719  0.2081  0.9207 -0.1533
  586TMC3    C6 8741   4.379   3.020  17.602  0.8165  0.5342  0.0267
  586TMC3     C 8742   4.580   3.196   0.137 -0.5548  0.3105  0.7520
  586TMC3     O 8743   4.645   3.259   0.059  0.4223  0.1297  0.3386
  586TMC3     H 8744   4.684   3.034  17.728 -0.2784  0.3781  0.5091
  586TMC3    H1 8745   4.331   3.145   0.151 -2.1512  1.3643 -1.4899
  586TMC3    H2 8746   4.327   3.008  17.508 -0.9826 -0.2134  1.1306
  586TMC3    C7 8747   4.183   3.127  17.694  0.0974  1.0042 -0.5248
  586TMC3    C8 8748   4.589   2.985  17.492 -0.7717  0.3951  0.0605
  586TMC3    O1 8749   4.095   3.112   0.019 -0.3781 -0.5657 -0.1804
  586TMC3    O2 8750   4.689   2.915  17.501  0.8517  0.1182  0.4542
  587TMC3    C1 8751   1.882   2.393  15.945  0.1054 -0.2140 -0.5399
  587TMC3    C2 8752   1.922   2.388  16.080 -0.4849  0.4167  0.3213
  587TMC3    C3 8753   2.057   2.408  16.106 -0.0229 -0.4442  0.3775
  587TMC3    C4 8754   1.974   2.402  15.839  0.3375 -0.3758  0.4593
  587TMC3    C5 8755   2.099   2.397  15.871 -1.1236 -0.0603  0.7293
  587TMC3    C6 8756   2.145   2.414  15.999 -0.8177 -0.4647 -0.0380
  587TMC3     C 8757   1.738   2.398  15.916  0.3257  0.5432 -0.2031
  587TMC3     O 8758   1.699   2.455  15.817 -0.5230  0.4621 -0.5755
  587TMC3     H 8759   1.853   2.373  16.163  0.5413 -0.6957  0.9630
  587TMC3    H1 8760   1.941   2.406  15.735  0.1581 -0.4410  0.5133
  587TMC3    H2 8761   2.249   2.412  16.030  0.0118  0.0918 -2.8110
  587TMC3    C7 8762   2.191   2.361  15.762 -0.6887  0.6261  0.0152
  587TMC3    C8 8763   2.103   2.422  16.247  0.7884 -0.1923  0.2130
  587TMC3    O1 8764   2.145   2.336  15.655  0.7948  0.2264 -0.4859
  587TMC3    O2 8765   2.215   2.390  16.276 -0.0451 -0.2937 -0.0596
  588TMC3    C1 8766   4.109   0.764   9.693 -0.0383 -0.5909  0.4896
  588TMC3    C2 8767   4.046   0.645   9.656 -0.1321 -0.4378 -0.1473
  588TMC3    C3 8768   4.115   0.531   9.702  1.0651 -0.7794  0.0200
  588TMC3    C4 8769   4.223   0.761   9.773  0.2644  0.0714  0.4477
  588TMC3    C5 8770   4.289   0.645   9.798 -1.0084  1.2927 -0.6092
  588TMC3    C6 8771   4.239   0.528   9.759  0.4084  0.0950 -0.1867
  588TMC3     C 8772   4.039   0.890   9.676  0.5280  0.4356 -0.5361
  588TMC3     O 8773   3.957   0.908   9.589 -0.6451  0.1027 -0.1790
  588TMC3     H 8774   3.955   0.645   9.597 -0.6764  1.2314  0.6728
  588TMC3    H1 8775   4.279   0.851   9.795 -0.8502  0.3753  2.0155
  588TMC3    H2 8776   4.291   0.440   9.793  1.1779  0.9998  0.9768
  588TMC3    C7 8777   4.399   0.645   9.894  0.2462 -0.2177 -0.0086
  588TMC3    C8 8778   4.046   0.401   9.675  0.0804 -0.0049  0.1237
  588TMC3    O1 8779   4.479   0.552   9.912 -0.2635  0.2887  0.1375
  588TMC3    O2 8780   3.949   0.399   9.600 -0.1007  0.3962  0.3079
  589TMC3    C1 8781   3.283   2.235   0.870 -0.1160  0.1406 -0.7897
  589TMC3    C2 8782   3.359   2.331   0.923  0.5279 -0.2022 -0.0636
  589TMC3    C3 8783   3.480   2.351   0.866 -0.3897  0.6729  0.2926
  589TMC3    C4 8784   3.320   2.161   0.764  0.5590 -0.2222  0.9307
  589TMC3    C5 8785   3.431   2.201   0.698 -0.7007 -0.4699 -0.3156
  589TMC3    C6 8786   3.517   2.291   0.751  0.1115 -0.0833  0.3168
  589TMC3     C 8787   3.164   2.191   0.934 -0.3517  0.2613 -0.0186
  589TMC3     O 8788   3.119   2.078   0.907 -0.3437  0.5822 -0.5916
  589TMC3     H 8789   3.332   2.372   1.019  0.7021  1.4562 -0.7276
  589TMC3    H1 8790   3.260   2.080   0.724  0.6223 -0.3601  1.1134
  589TMC3    H2 8791   3.616   2.311   0.712 -0.8733  1.2800 -1.4613
  589TMC3    C7 8792   3.470   2.124   0.576 -0.2748 -0.3610 -0.1736
  589TMC3    C8 8793   3.571   2.431   0.950  0.4146 -0.2538  0.1145
  589TMC3    O1 8794   3.377   2.068   0.517 -0.1224 -0.0634 -0.3028
  589TMC3    O2 8795   3.514   2.499   1.032 -0.6237 -0.2043 -0.2394
  590MPD2     C 8796   2.599   4.511  15.194  0.9272 -0.0106 -0.2850
  590MPD2    C1 8797   2.590   4.605  15.293 -0.6394  0.0769 -0.8384
  590MPD2    C2 8798   2.688   4.706  15.307 -0.0760  0.3624 -0.0033
  590MPD2    C3 8799   2.793   4.723  15.218  0.6934  0.2056 -0.0178
  590MPD2    C4 8800   2.801   4.630  15.111  0.0916 -0.1616 -0.6601
  590MPD2    C5 8801   2.706   4.525  15.105 -0.0158  0.2909 -0.6927
  590MPD2     H 8802   2.679   0.043  15.382 -2.0671  0.3203 -0.2200
  590MPD2    H1 8803   2.877   4.646  15.036  0.6452  2.0320  0.3968
  590MPD2    H2 8804   2.529   4.428  15.185  0.3477  0.4139  0.2616
  590MPD2    H3 8805   2.705   4.468  15.013 -1.4589  0.9755 -1.1145
  590MPD2     N 8806   2.885   0.093  15.237 -0.6091  0.1340  0.1501
  590MPD2    H5 8807   2.872   0.150  15.320  1.8157  0.0790  0.5628
  590MPD2    N1 8808   2.476   4.590  15.379  0.4606  0.1793 -0.1499
  590MPD2    H7 8809   2.415   4.515  15.349 -1.2326  0.9808  1.2628
  591TMC3    C1 8810   3.063   0.245  15.203  0.0998  0.6961 -0.0330
  591TMC3    C2 8811   3.194   0.257  15.175 -0.6094 -0.3783  0.1171
  591TMC3    C3 8812   3.264   0.356  15.238  0.6013  0.5595 -0.3711
  591TMC3    C4 8813   3.000   0.325  15.290 -0.1976  1.1341 -1.1452
  591TMC3    C5 8814   3.064   0.432  15.335 -0.0040  0.2479  0.0200
  591TMC3    C6 8815   3.195   0.455  15.310 -0.4512 -0.0326  0.0322
  591TMC3     C 8816   2.994   0.126  15.155  0.3743  0.2722 -0.1840
  591TMC3     O 8817   3.047   0.067  15.064  0.3431 -0.7416 -0.4444
  591TMC3     H 8818   3.246   0.185  15.113 -1.8143 -0.5011 -0.7420
  591TMC3    H1 8819   2.893   0.319  15.311 -0.4411  0.6450 -2.5627
  591TMC3    H2 8820   3.246   0.532  15.366  2.8230 -2.3065  0.2458
  591TMC3    C7 8821   2.985   0.512  15.432 -0.3128  1.0611 -0.2148
  591TMC3    C8 8822   3.404   0.374  15.233  0.1046  0.0172 -0.3027
  591TMC3    O1 8823   2.896   0.448  15.485  0.0056 -0.4837  0.3159
  591TMC3    O2 8824   3.461   0.277  15.186  0.0991  0.2636  0.4235
  592MPD2     C 8825   3.248   2.435  11.350 -0.3493  0.6963 -0.9698
  592MPD2    C1 8826   3.221   2.499  11.469 -0.0673  0.1440  0.2591
  592MPD2    C2 8827   3.202   2.426  11.581 -0.3326 -0.7985  0.1374
  592MPD2    C3 8828   3.200   2.286  11.584  0.6548  1.0418  0.7225
  592MPD2    C4 8829   3.216   2.221  11.462  0.4107 -0.3520  0.5383
  592MPD2    C5 8830   3.237   2.300  11.351  0.3100  0.0966 -0.5366
  592MPD2     H 8831   3.199   2.477  11.677 -0.1436  3.0591 -1.9258
  592MPD2    H1 8832   3.223   2.114  11.445 -2.2719 -0.5722  0.8386
  592MPD2    H2 8833   3.284   2.488  11.263 -1.4057  1.7906 -0.7495
  592MPD2    H3 8834   3.242   2.247  11.257 -1.9047  0.6092 -0.9392
  592MPD2     N 8835   3.198   2.222  11.709 -0.4088 -0.9593 -0.1178
  592MPD2    H5 8836   3.191   2.281  11.792  1.8940 -0.8692 -0.0022
  592MPD2    N1 8837   3.229   2.638  11.470  0.2581  0.0891  0.9359
  592MPD2    H7 8838   3.248   2.682  11.381  1.1322 -0.3643  0.9042
  593TMC3    C1 8839   3.204   2.858  11.577 -0.1865 -0.1963 -0.3672
  593TMC3    C2 8840   3.152   2.929  11.682  0.1124  0.2840  0.4142
  593TMC3    C3 8841   3.153   3.069  11.676  0.1858 -0.1217  0.1041
  593TMC3    C4 8842   3.255   2.912  11.465 -0.3065  0.2268  0.1924
  593TMC3    C5 8843   3.274   3.047  11.475  0.2167 -0.4012 -0.3001
  593TMC3    C6 8844   3.224   3.133  11.574  0.8261  0.4871  0.2290
  593TMC3     C 8845   3.170   2.717  11.573 -0.3217 -0.3185 -0.5095
  593TMC3     O 8846   3.096   2.676  11.663 -0.0926  0.0923  0.7719
  593TMC3     H 8847   3.099   2.885  11.766 -1.3701  1.2629 -0.0149
  593TMC3    H1 8848   3.303   2.852  11.388  0.8223 -0.8293  1.7322
  593TMC3    H2 8849   3.231   3.240  11.562 -0.2722  0.2949 -2.1958
  593TMC3    C7 8850   3.374   3.119  11.402 -0.3692  0.6376 -0.2301
  593TMC3    C8 8851   3.147   3.135  11.807 -0.1380 -0.2103 -0.5403
  593TMC3    O1 8852   3.439   3.191  11.475 -0.5088 -0.2917  0.1342
  593TMC3    O2 8853   3.080   3.077  11.888 -0.0078 -0.0010 -0.4105
  594MPD2     C 8854   2.075   1.533  13.668 -0.5268 -0.1795 -0.8177
  594MPD2    C1 8855   2.040   1.501  13.797 -0.0004 -0.4813 -0.8720
  594MPD2    C2 8856   2.128   1.535  13.897 -0.0352 -0.0513 -0.0417
  594MPD2    C3 8857   2.251   1.592  13.878 -0.2307 -0.6896 -0.3180
  594MPD2    C4 8858   2.276   1.627  13.751 -0.6489 -0.4276 -0.0076
  594MPD2    C5 8859   2.189   1.598  13.646 -0.1827 -0.0436 -0.0428
  594MPD2     H 8860   2.110   1.517  14.003  3.1217 -1.4156  0.2555
  594MPD2    H1 8861   2.370   1.675  13.726 -0.6480  0.8327  2.4515
  594MPD2    H2 8862   2.004   1.519  13.588 -0.6770 -0.0604 -0.7040
  594MPD2    H3 8863   2.217   1.628  13.546 -0.3855  0.1024 -0.0557
  594MPD2     N 8864   2.344   1.605  13.988 -0.2284 -0.3657  0.0065
  594MPD2    H5 8865   2.319   1.564  14.077 -1.2077 -1.1658 -0.6412
  594MPD2    N1 8866   1.911   1.460  13.820 -0.5565  0.0201 -0.1689
  594MPD2    H7 8867   1.851   1.443  13.741  1.7364 -1.2659 -1.6324
  595TMC3    C1 8868   2.754   1.689  14.210  0.2414 -0.8103 -0.6129
  595TMC3    C2 8869   2.685   1.660  14.096 -0.2153  0.1623  0.9084
  595TMC3    C3 8870   2.547   1.650  14.098 -0.4577 -0.1921  1.2955
  595TMC3    C4 8871   2.692   1.721  14.333  0.0823 -0.2133  0.0962
  595TMC3    C5 8872   2.558   1.702  14.333 -0.5067  0.0333 -0.0393
  595TMC3    C6 8873   2.481   1.671  14.221 -0.5912 -0.5514 -0.1934
  595TMC3     C 8874   2.894   1.728  14.195 -0.0569  0.1662 -0.4331
  595TMC3     O 8875   2.940   1.793  14.288  0.5882  0.3147 -0.3230
  595TMC3     H 8876   2.727   1.642  13.998 -3.5932  1.6674 -0.8530
  595TMC3    H1 8877   2.746   1.744  14.424 -1.3606 -0.4762  1.0081
  595TMC3    H2 8878   2.373   1.673  14.218 -0.6319  1.2308  2.2380
  595TMC3    C7 8879   2.474   1.761  14.435 -0.3491  0.5427 -0.4269
  595TMC3    C8 8880   2.473   1.646  13.979  0.2401  0.2976  0.2654
  595TMC3    O1 8881   2.351   1.779  14.412 -0.3680  0.3763 -0.0304
  595TMC3    O2 8882   2.524   1.709  13.882 -0.0713  0.0795  0.2750
  596MPD2     C 8883   0.795   4.136  16.624  0.3723 -0.5714  0.1940
  596MPD2    C1 8884   0.868   4.228  16.552  0.1390 -0.0605  0.2474
  596MPD2    C2 8885   0.931   4.177  16.433 -0.0560 -0.1253  0.3540
  596MPD2    C3 8886   0.921   4.043  16.384  0.1281 -0.2130 -0.5980
  596MPD2    C4 8887   0.849   3.960  16.464 -0.0205 -0.2689  0.1800
  596MPD2    C5 8888   0.780   4.010  16.572  0.2985  0.3445  0.1077
  596MPD2     H 8889   0.974   4.249  16.365 -1.7715  0.4419 -0.1246
  596MPD2    H1 8890   0.823   3.862  16.426 -1.2564  0.4225 -0.7838
  596MPD2    H2 8891   0.747   4.168  16.716  2.3056 -1.8577  1.6487
  596MPD2    H3 8892   0.726   3.940  16.635  0.6866 -1.1098 -1.1725
  596MPD2     N 8893   0.957   4.004  16.254  0.2906 -0.1116 -0.5510
  596MPD2    H5 8894   0.906   3.920  16.230  0.8509 -0.4457 -0.5942
  596MPD2    N1 8895   0.893   4.367  16.577 -0.2345  0.6623  0.5760
  596MPD2    H7 8896   0.960   4.410  16.514 -0.1285  0.9680  0.8939
  597TMC3    C1 8897   0.897   4.566  16.696 -0.4152  0.0585  0.3090
  597TMC3    C2 8898   1.030   4.588  16.661 -0.0303 -0.3622  0.1716
  597TMC3    C3 8899   1.082   4.710  16.692 -0.4091  0.7104  0.5261
  597TMC3    C4 8900   0.815   4.663  16.754  0.1334  0.4987 -0.2948
  597TMC3    C5 8901   0.865   0.045  16.790 -0.1783 -0.5832 -0.2458
  597TMC3    C6 8902   1.002   0.067  16.760 -0.0685 -0.5329  0.1800
  597TMC3     C 8903   0.835   4.436  16.678  0.3740  0.0327  0.3833
  597TMC3     O 8904   0.738   4.414  16.749 -0.3488  0.1434 -0.5710
  597TMC3     H 8905   1.092   4.514  16.613 -0.1283 -1.0398  1.0907
  597TMC3    H1 8906   0.718   4.630  16.790  0.1140 -0.4263 -1.2094
  597TMC3    H2 8907   1.036   0.170  16.771  0.3544 -0.4068 -2.3550
  597TMC3    C7 8908   0.799   0.105  16.907  0.7912  0.0966 -0.7183
  597TMC3    C8 8909   1.198   0.022  16.619 -0.0769  0.4851  0.2105
  597TMC3    O1 8910   0.707   0.037  16.959  0.3524 -0.3084 -0.1084
  597TMC3    O2 8911   1.229   0.138  16.639 -0.0486 -0.2374  0.3216
  598TMC3    C1 8912   0.091   1.301  15.234  0.4558 -0.7941  0.0364
  598TMC3    C2 8913   0.001   1.198  15.244  0.4511 -0.8166  0.1132
  598TMC3    C3 8914   4.612   1.232  15.222  1.3865 -0.0091 -0.9775
  598TMC3    C4 8915   0.064   1.423  15.181 -0.5041 -0.3766  0.0816
  598TMC3    C5 8916   4.677   1.454  15.159  0.0472  0.1139  0.5371
  598TMC3    C6 8917   4.575   1.363  15.187  0.3122 -0.1297 -0.1114
  598TMC3     C 8918   0.228   1.271  15.271 -0.1141 -1.1157 -0.3532
  598TMC3     O 8919   0.308   1.348  15.226  0.0409  0.0885  0.0906
  598TMC3     H 8920   0.041   1.098  15.233  1.5524 -0.3416 -0.2037
  598TMC3    H1 8921   0.146   1.494  15.188 -1.9278  1.0417  2.3685
  598TMC3    H2 8922   4.469   1.379  15.169 -0.0793 -2.8270 -0.2995
  598TMC3    C7 8923   4.639   1.583  15.124 -0.1600  0.2878  0.4259
  598TMC3    C8 8924   4.511   1.124  15.229  0.7219 -0.5854 -0.0697
  598TMC3    O1 8925   4.527   1.631  15.142  0.1060 -0.0280 -0.1786
  598TMC3    O2 8926   4.397   1.161  15.201  0.4617 -0.5460 -0.4120
  599MPD2     C 8927   3.923   2.986  15.707  0.0082 -0.9479  0.3273
  599MPD2    C1 8928   4.000   3.031  15.811 -0.9550  0.3096 -0.1421
  599MPD2    C2 8929   3.969   3.152  15.865 -0.2587  0.2804  0.0632
  599MPD2    C3 8930   3.853   3.220  15.825  0.1377 -0.2776  0.1543
  599MPD2    C4 8931   3.786   3.176  15.714 -0.4986  0.5452 -0.2971
  599MPD2    C5 8932   3.822   3.065  15.652  0.2406  0.1001  0.6497
  599MPD2     H 8933   4.014   3.179  15.959  1.5863  0.6244 -0.9156
  599MPD2    H1 8934   3.706   3.224  15.658  1.8244  2.7302 -1.7123
  599MPD2    H2 8935   3.946   2.893  15.655 -1.0081 -1.8284  1.4484
  599MPD2    H3 8936   3.765   3.036  15.565  3.3849  1.4411 -1.8667
  599MPD2     N 8937   3.805   3.321  15.905  0.0999 -0.5194 -0.0831
  599MPD2    H5 8938   3.881   3.339  15.970  0.2042  1.2383 -0.6861
  599MPD2    N1 8939   4.118   2.965  15.868 -0.4736 -0.2892 -0.5733
  599MPD2    H7 8940   4.163   3.014  15.945 -0.3316 -0.6811 -0.4045
  600TMC3    C1 8941   3.658   3.427  16.038  0.0619 -0.0671 -0.4171
  600TMC3    C2 8942   3.591   3.348  16.123  0.1428 -0.8384  0.4988
  600TMC3    C3 8943   3.565   3.389  16.252 -0.7125  0.1573  0.7417
  600TMC3    C4 8944   3.717   3.540  16.088 -0.3965  0.4923  0.0547
  600TMC3    C5 8945   3.702   3.579  16.217  0.7269  0.1599  0.4437
  600TMC3    C6 8946   3.627   3.502  16.303  0.7695 -0.0632  0.5169
  600TMC3     C 8947   3.675   3.366  15.913  0.3008  0.0548  0.3476
  600TMC3     O 8948   3.573   3.313  15.873 -0.1613 -0.5147  0.3950
  600TMC3     H 8949   3.575   3.248  16.084  1.8985 -1.2291  0.7956
  600TMC3    H1 8950   3.775   3.596  16.016 -0.1424 -0.1255 -0.2270
  600TMC3    H2 8951   3.596   3.538  16.401  0.7924 -0.3892  0.6453
  600TMC3    C7 8952   3.760   3.693  16.277 -0.4053  0.3951  0.4897
  600TMC3    C8 8953   3.509   3.291  16.342 -0.3375 -0.5116 -0.7131
  600TMC3    O1 8954   3.724   3.699  16.394  0.4326  0.0981 -0.0630
  600TMC3    O2 8955   3.551   3.305  16.456 -0.0383  0.1204  0.1656
  601MPD2     C 8956   1.795   1.540   0.108 -0.2872  0.6952 -0.6450
  601MPD2    C1 8957   1.674   1.494   0.069 -1.0033 -0.3925 -0.0156
  601MPD2    C2 8958   1.649   1.359   0.070  0.2713  0.7381  0.1249
  601MPD2    C3 8959   1.749   1.265   0.110  0.9408 -0.0454 -0.1815
  601MPD2    C4 8960   1.866   1.315   0.152  0.3401 -0.5659 -1.0833
  601MPD2    C5 8961   1.889   1.448   0.145 -0.5822 -0.3572  0.1200
  601MPD2     H 8962   1.551   1.328   0.035 -0.4137  2.0313  0.8911
  601MPD2    H1 8963   1.948   1.250   0.180  0.5130  0.6095  1.1342
  601MPD2    H2 8964   1.828   1.643   0.099  1.3666  0.1507 -0.8211
  601MPD2    H3 8965   1.985   1.492   0.169  0.6053 -3.6515  1.4778
  601MPD2     N 8966   1.741   1.123   0.092 -0.7447  0.3405 -0.2761
  601MPD2    H5 8967   1.820   1.061   0.106  1.4979  3.3592  0.3758
  601MPD2    N1 8968   1.577   1.579   0.009 -0.1545  0.0990 -0.7781
  601MPD2    H7 8969   1.504   1.526  17.723 -1.5454  2.2822 -1.0932
  602TMC3    C1 8970   1.457   1.784  17.698 -0.0302  0.3089 -0.1158
  602TMC3    C2 8971   1.449   1.921  17.701  0.1537 -0.3303 -0.8775
  602TMC3    C3 8972   1.325   1.979  17.696  0.0354  0.8044 -0.0242
  602TMC3    C4 8973   1.344   1.710  17.684 -0.1164  0.1602 -0.3166
  602TMC3    C5 8974   1.218   1.768  17.690 -0.2674  0.1342  0.1478
  602TMC3    C6 8975   1.209   1.906  17.700 -0.4677 -0.5778 -0.3367
  602TMC3     C 8976   1.575   1.721   0.005  0.7207 -0.1378  0.2859
  602TMC3     O 8977   1.657   1.794   0.056 -0.0335  0.6178  0.4073
  602TMC3     H 8978   1.540   1.979  17.711 -0.1804 -0.0249  0.4017
  602TMC3    H1 8979   1.346   1.603  17.669 -0.3696  0.4788 -2.5065
  602TMC3    H2 8980   1.110   1.949  17.703 -2.1368 -4.5467  1.8699
  602TMC3    C7 8981   1.100   1.691  17.647  0.5862  0.4847  0.4187
  602TMC3    C8 8982   1.317   2.123  17.660  1.0426 -0.4101  0.6677
  602TMC3    O1 8983   1.088   1.575  17.681 -0.2869  0.2073 -0.2708
  602TMC3    O2 8984   1.418   2.190  17.679 -0.1979 -0.1898 -0.1132
  603TMC3    C1 8985   4.681   2.947  10.852  0.4342 -1.0447  0.1677
  603TMC3    C2 8986   4.711   2.934  10.987 -0.2044  0.0647  0.2014
  603TMC3    C3 8987   4.692   3.043  11.065  0.3470 -0.7025 -0.0906
  603TMC3    C4 8988   4.629   3.061  10.793  0.3525  0.3323  0.3955
  603TMC3    C5 8989   4.620   3.168  10.877 -0.7439 -0.4634  0.0050
  603TMC3    C6 8990   4.654   3.157  11.009 -0.2249 -0.1729  0.1073
  603TMC3     C 8991   4.674   2.822  10.769 -0.2609  0.3471  0.0286
  603TMC3     O 8992   4.676   2.720  10.833  0.0684 -0.4413 -0.0115
  603TMC3     H 8993   4.740   2.836  11.024  1.6850  0.1078 -1.1760
  603TMC3    H1 8994   4.603   3.076  10.689  0.8594  1.0632  0.3767
  603TMC3    H2 8995   4.614   3.232  11.076  0.1000  0.6062 -0.5708
  603TMC3    C7 8996   4.586   3.298  10.819  0.4752  0.6746 -0.4032
  603TMC3    C8 8997   4.674   3.007  11.211 -0.1016 -0.0982 -0.3868
  603TMC3    O1 8998   4.631   3.397  10.875 -0.5535  0.1218  0.2966
  603TMC3    O2 8999   4.679   2.889  11.242  0.2056 -0.6022  0.6429
  604MPD2     C 9000   0.626   0.816  16.091  0.4182 -0.1158  0.3389
  604MPD2    C1 9001   0.539   0.711  16.080 -0.3402  0.3693 -0.0697
  604MPD2    C2 9002   0.560   0.622  15.976 -0.2176  0.7127  0.3054
  604MPD2    C3 9003   0.648   0.650  15.866 -0.7191  0.0665  0.4241
  604MPD2    C4 9004   0.730   0.761  15.886 -0.5570 -0.4348 -0.2574
  604MPD2    C5 9005   0.721   0.842  15.995 -0.2135  0.8310 -0.0771
  604MPD2     H 9006   0.498   0.535  15.958 -0.0329  1.0246 -1.8662
  604MPD2    H1 9007   0.787   0.802  15.803  1.3396 -0.5164  0.9832
  604MPD2    H2 9008   0.603   0.900  16.157 -0.3300 -0.5967  0.6828
  604MPD2    H3 9009   0.771   0.938  15.987  0.9814  0.3913  2.2256
  604MPD2     N 9010   0.645   0.567  15.752 -0.1534  0.3550  0.5388
  604MPD2    H5 9011   0.569   0.502  15.735 -0.1779  0.4354  0.3291
  604MPD2    N1 9012   0.454   0.689  16.183 -0.7148 -0.1905  0.5395
  604MPD2    H7 9013   0.456   0.744  16.268  2.4739 -0.1722  0.4388
  605TMC3    C1 9014   0.297   0.589  16.320  0.2144  0.1259 -0.1017
  605TMC3    C2 9015   0.383   0.642  16.414  0.1053 -0.3852  0.0861
  605TMC3    C3 9016   0.332   0.728  16.510  0.1676  0.5092 -0.1785
  605TMC3    C4 9017   0.163   0.616  16.320  0.0797 -0.1931 -0.4693
  605TMC3    C5 9018   0.113   0.697  16.421 -1.0493 -0.3672  0.0172
  605TMC3    C6 9019   0.199   0.760  16.512  0.3720  0.3375 -0.1440
  605TMC3     C 9020   0.355   0.591  16.187 -0.0265  0.3780 -0.1982
  605TMC3     O 9021   0.317   0.521  16.095 -0.0827 -0.3973  0.4583
  605TMC3     H 9022   0.487   0.614  16.419  0.5207  1.3252  1.1515
  605TMC3    H1 9023   0.103   0.573  16.241 -0.0012 -1.7427  0.4483
  605TMC3    H2 9024   0.163   0.820  16.595 -0.2224 -2.9718  1.9609
  605TMC3    C7 9025   4.717   0.748  16.398 -0.5183  0.0717 -0.1545
  605TMC3    C8 9026   0.432   0.836  16.525 -0.2603 -0.0369 -0.1831
  605TMC3    O1 9027   4.672   0.830  16.478  0.3033 -0.2912  0.0461
  605TMC3    O2 9028   0.504   0.849  16.428  0.1532  0.1543 -0.3784
  606TMC3    C1 9029   1.332   4.452  17.409  0.2025 -1.0292 -0.6295
  606TMC3    C2 9030   1.304   4.402  17.540 -0.3952 -0.2025  0.5771
  606TMC3    C3 9031   1.289   4.270  17.560  0.4897  0.3500 -0.0131
  606TMC3    C4 9032   1.357   4.377  17.303  0.3475 -0.0065 -0.2202
  606TMC3    C5 9033   1.338   4.244  17.333 -0.4497  0.3088  0.3158
  606TMC3    C6 9034   1.316   4.187  17.454  0.5615 -0.0399  0.0545
  606TMC3     C 9035   1.369   4.593  17.397  0.3614  0.2526  0.0339
  606TMC3     O 9036   1.338   4.651  17.499 -0.3011  0.0943  0.0581
  606TMC3     H 9037   1.301   4.467  17.627  0.1431 -0.5856  0.8790
  606TMC3    H1 9038   1.361   4.410  17.200  2.1110  1.5014  0.3355
  606TMC3    H2 9039   1.321   4.080  17.475  1.0817  0.1338  0.8425
  606TMC3    C7 9040   1.375   4.144  17.230 -0.0714 -0.6972  0.4404
  606TMC3    C8 9041   1.343   4.231  17.694  0.2027  0.0050 -0.5941
  606TMC3    O1 9042   1.455   4.176  17.143 -0.2640  0.4619 -0.0309
  606TMC3    O2 9043   1.412   4.311  17.759 -0.1997 -0.0066 -0.0359
  607MPD2     C 9044   3.657   2.574  11.505 -0.5441 -0.2186 -0.1628
  607MPD2    C1 9045   3.654   2.696  11.567 -0.5094  0.2587  0.3407
  607MPD2    C2 9046   3.570   2.713  11.672 -0.0361  0.0508 -0.1070
  607MPD2    C3 9047   3.496   2.608  11.719  0.5879 -0.4274  0.3442
  607MPD2    C4 9048   3.501   2.486  11.664 -0.5870 -0.6660 -0.7724
  607MPD2    C5 9049   3.577   2.469  11.550  0.1772 -0.1432  0.4997
  607MPD2     H 9050   3.564   2.808  11.724 -3.4091 -2.0806  3.3150
  607MPD2    H1 9051   3.436   2.410  11.705  1.2679 -0.8473  1.8434
  607MPD2    H2 9052   3.735   2.551  11.433  0.0958 -1.2805  0.8602
  607MPD2    H3 9053   3.594   2.372  11.505 -0.0688 -0.3428  0.8366
  607MPD2     N 9054   3.434   2.638  11.843  0.5101  0.2502 -0.0955
  607MPD2    H5 9055   3.453   2.725  11.892  0.8590 -0.4736  1.0635
  607MPD2    N1 9056   3.734   2.805  11.530  0.0399  0.2540 -0.1824
  607MPD2    H7 9057   3.725   2.890  11.585  0.3496  0.7822 -0.9437
  608TMC3    C1 9058   3.943   2.898  11.469  0.0947 -0.3332 -0.2359
  608TMC3    C2 9059   3.970   2.937  11.596 -0.2620  0.5316  0.2548
  608TMC3    C3 9060   4.051   3.048  11.617 -0.2445  0.8007  0.0620
  608TMC3    C4 9061   4.006   2.961  11.365 -0.5769  0.1667  0.0139
  608TMC3    C5 9062   4.099   3.062  11.389 -0.2340 -0.4620 -0.8466
  608TMC3    C6 9063   4.129   3.106  11.517 -0.6198 -0.4259  0.9729
  608TMC3     C 9064   3.841   2.799  11.439 -0.4227 -0.6723  0.5520
  608TMC3     O 9065   3.874   2.729  11.339 -0.2514 -0.3990 -0.1151
  608TMC3     H 9066   3.925   2.881  11.677  2.0677 -2.0896 -0.2420
  608TMC3    H1 9067   3.988   2.931  11.263  4.4306 -1.1682 -0.4708
  608TMC3    H2 9068   4.186   3.194  11.543 -0.1265 -0.6022  0.4941
  608TMC3    C7 9069   4.130   3.145  11.276 -0.3459  0.2862 -0.6478
  608TMC3    C8 9070   4.016   3.151  11.713  0.3069 -0.4484 -0.3640
  608TMC3    O1 9071   4.062   3.118  11.177  0.0702  0.2339  0.3165
  608TMC3    O2 9072   4.101   3.233  11.742 -0.0170 -0.2474  0.0957
  609TMC3    C1 9073   2.137   2.312   9.030 -0.2439  0.2139  0.3665
  609TMC3    C2 9074   2.036   2.289   8.937  0.6222  0.2099  0.2363
  609TMC3    C3 9075   2.063   2.221   8.824  0.0409 -0.2354 -0.3734
  609TMC3    C4 9076   2.266   2.275   9.012  0.2575 -0.2154  0.1060
  609TMC3    C5 9077   2.292   2.201   8.902  0.1039  0.4730  0.5908
  609TMC3    C6 9078   2.195   2.175   8.804  0.0213 -0.1781  0.0575
  609TMC3     C 9079   2.087   2.336   9.165 -0.0683  0.0446 -0.2414
  609TMC3     O 9080   2.165   2.319   9.256  0.0545  0.1195  0.1768
  609TMC3     H 9081   1.933   2.302   8.971  0.7613  0.8368  0.4235
  609TMC3    H1 9082   2.338   2.293   9.091  1.7688 -1.3700 -1.0035
  609TMC3    H2 9083   2.227   2.118   8.718  1.8296 -1.1476  1.3864
  609TMC3    C7 9084   2.430   2.126   8.888 -0.0545  0.9741 -0.0282
  609TMC3    C8 9085   1.964   2.208   8.722 -0.1337 -0.9425  0.5057
  609TMC3    O1 9086   2.513   2.152   8.975  0.4094 -0.1201  0.3067
  609TMC3    O2 9087   1.867   2.285   8.731 -0.0594  0.0521 -0.0791
  610TMC3    C1 9088   3.975   2.564  12.868  0.2807 -0.1093  0.2406
  610TMC3    C2 9089   4.025   2.622  12.759 -0.4577  0.5507 -0.2707
  610TMC3    C3 9090   4.095   2.550  12.673 -0.0216 -0.2647  0.1233
  610TMC3    C4 9091   4.006   2.430  12.899  0.3341  0.5535  0.2417
  610TMC3    C5 9092   4.067   2.351  12.804 -1.2347 -0.0106 -0.3118
  610TMC3    C6 9093   4.117   2.416  12.688  0.2629  0.0220 -0.0845
  610TMC3     C 9094   3.911   2.646  12.969  0.6854  0.1615 -0.2999
  610TMC3     O 9095   3.878   2.758  12.935  0.4407 -0.2367  0.0989
  610TMC3     H 9096   4.015   2.730  12.759 -0.3230  0.5622 -0.0341
  610TMC3    H1 9097   3.967   2.375  12.984 -0.2591  0.3691 -0.1442
  610TMC3    H2 9098   4.169   2.361  12.610 -0.8019 -1.0639 -0.0284
  610TMC3    C7 9099   4.128   2.227  12.832 -0.6800  0.0314  0.1458
  610TMC3    C8 9100   4.162   2.620  12.567 -0.2235 -0.5299  0.1962
  610TMC3    O1 9101   4.221   2.202  12.754 -0.0151 -0.0384 -0.2368
  610TMC3    O2 9102   4.278   2.590  12.547 -0.5403 -0.0042  0.0981
  611MPD2     C 9103   3.688   2.809  10.720  1.0423 -0.4093 -0.2414
  611MPD2    C1 9104   3.590   2.861  10.638  0.1754  0.2955  0.1835
  611MPD2    C2 9105   3.624   2.959  10.544  0.4424 -0.1270  0.1221
  611MPD2    C3 9106   3.752   3.009  10.537 -0.1172  0.3800 -0.4721
  611MPD2    C4 9107   3.847   2.957  10.619  0.8513 -0.3669  0.3882
  611MPD2    C5 9108   3.813   2.859  10.710  0.5317  0.5369 -0.1990
  611MPD2     H 9109   3.544   2.996  10.481 -1.5307 -1.5148  1.8120
  611MPD2    H1 9110   3.950   2.990  10.606  0.1174  0.8894 -2.1829
  611MPD2    H2 9111   3.658   2.739  10.797  1.9225  0.5069  0.9419
  611MPD2    H3 9112   3.895   2.836  10.777  1.0051 -1.0098 -1.3055
  611MPD2     N 9113   3.795   3.107  10.443 -0.1685 -0.2077 -0.7972
  611MPD2    H5 9114   3.892   3.136  10.441  0.3534 -1.7034  3.3220
  611MPD2    N1 9115   3.455   2.815  10.656 -0.3177 -0.0787  0.0094
  611MPD2    H7 9116   3.431   2.768  10.744 -0.0162 -0.5870 -0.1823
  612TMC3    C1 9117   3.801   3.267  10.274  0.3861 -0.0166 -0.2865
  612TMC3    C2 9118   3.917   3.312  10.326  0.7834 -0.1226 -0.9403
  612TMC3    C3 9119   3.987   3.401  10.254 -0.3719  0.5683 -0.0024
  612TMC3    C4 9120   3.750   3.311  10.159 -0.0967  0.0284 -1.1986
  612TMC3    C5 9121   3.823   3.402  10.087 -0.4143  0.5534  0.4903
  612TMC3    C6 9122   3.942   3.446  10.133 -0.2498  0.0856  0.1193
  612TMC3     C 9123   3.723   3.163  10.343 -0.1183 -0.1764  0.8873
  612TMC3     O 9124   3.601   3.161  10.330 -0.1097  0.5075  0.8051
  612TMC3     H 9125   3.950   3.288  10.427 -1.0757  2.3495  0.2514
  612TMC3    H1 9126   3.648   3.289  10.129 -1.1996  1.4148  1.5114
  612TMC3    H2 9127   3.999   3.520  10.077  0.9245 -0.2588  0.8571
  612TMC3    C7 9128   3.750   3.501  10.011 -0.0509  0.1638  0.0443
  612TMC3    C8 9129   4.083   3.486  10.319 -0.6036 -0.2439 -0.3706
  612TMC3    O1 9130   3.631   3.514  10.027  0.1383  0.0233  0.3003
  612TMC3    O2 9131   4.093   3.603  10.286 -0.0743  0.4925  0.4060
  613MPD2     C 9132   2.413   4.193  16.010  0.3367  0.3255  0.6091
  613MPD2    C1 9133   2.375   4.074  15.954 -0.1103 -0.5527  0.1865
  613MPD2    C2 9134   2.240   4.039  15.943 -0.8543 -0.2748  0.2737
  613MPD2    C3 9135   2.144   4.130  15.980  0.0779  0.1173 -0.0967
  613MPD2    C4 9136   2.186   4.248  16.038  0.6181 -0.2149 -0.8492
  613MPD2    C5 9137   2.316   4.272  16.062 -0.2130  0.4756 -0.6079
  613MPD2     H 9138   2.215   3.947  15.891  1.9925 -0.3382 -0.9936
  613MPD2    H1 9139   2.114   4.324  16.063 -0.7632 -1.4682 -1.0143
  613MPD2    H2 9140   2.516   4.220  16.026  0.3495  0.1707  0.7795
  613MPD2    H3 9141   2.336   4.368  16.108  1.1852 -1.3218  2.4998
  613MPD2     N 9142   2.006   4.112  15.946 -0.4416  0.1052 -0.6288
  613MPD2    H5 9143   1.936   4.181  15.970  1.7345  2.5064 -1.2290
  613MPD2    N1 9144   2.485   3.990  15.908 -0.5676 -0.0510  0.0930
  613MPD2    H7 9145   2.582   4.017  15.913  0.4705 -3.8270  0.3830
  614TMC3    C1 9146   2.572   3.778  15.809 -0.9337 -0.0030  0.0925
  614TMC3    C2 9147   2.544   3.645  15.781 -0.0275  0.0116 -0.2999
  614TMC3    C3 9148   2.589   3.591  15.661  0.7015  0.1507  0.0565
  614TMC3    C4 9149   2.653   3.849  15.721 -0.3340 -0.2227  0.0184
  614TMC3    C5 9150   2.713   3.780  15.620 -1.0516  0.8405  0.2153
  614TMC3    C6 9151   2.677   3.657  15.574  0.7645 -0.3937 -0.5278
  614TMC3     C 9152   2.465   3.851  15.880  0.7095 -0.8845  0.1602
  614TMC3     O 9153   2.364   3.782  15.878 -0.2903 -0.2492 -0.2160
  614TMC3     H 9154   2.502   3.578  15.855  1.8197 -1.3420 -0.4599
  614TMC3    H1 9155   2.699   3.948  15.725 -1.9057  0.4666  0.8776
  614TMC3    H2 9156   2.700   3.613  15.478  1.4419 -1.2865  0.0386
  614TMC3    C7 9157   2.750   3.859  15.506  0.2506 -0.5829  0.2898
  614TMC3    C8 9158   2.485   3.529  15.584 -0.1208  0.2697 -0.3690
  614TMC3    O1 9159   2.852   3.926  15.511 -0.2957  0.7352  0.1185
  614TMC3    O2 9160   2.511   3.487  15.472 -0.6342  0.3290  0.5136
  615MPD2     C 9161   2.167   0.943  15.746  0.4154 -0.4373 -0.0679
  615MPD2    C1 9162   2.047   1.004  15.774 -0.8530  0.7873 -0.2591
  615MPD2    C2 9163   1.930   0.950  15.727 -0.1019  0.6324 -1.0544
  615MPD2    C3 9164   1.935   0.834  15.649  0.0415 -1.0555  0.1394
  615MPD2    C4 9165   2.055   0.773  15.625  0.3827  0.3691  1.1499
  615MPD2    C5 9166   2.173   0.826  15.671  0.0288 -0.7590  0.5560
  615MPD2     H 9167   1.836   0.999  15.749  0.5312  1.2860  0.2308
  615MPD2    H1 9168   2.055   0.678  15.573  0.6343  0.6395  0.6545
  615MPD2    H2 9169   2.254   0.984  15.795  0.2333  0.1871 -0.2660
  615MPD2    H3 9170   2.266   0.772  15.658  0.0925 -0.2588 -1.1079
  615MPD2     N 9171   1.819   0.779  15.591 -0.5785 -0.3497 -0.0110
  615MPD2    H5 9172   1.834   0.702  15.526 -0.5314  1.6525 -2.3678
  615MPD2    N1 9173   2.035   1.129  15.843  0.1067 -0.6271 -0.3342
  615MPD2    H7 9174   1.939   1.153  15.864  1.2316  1.6185  2.2380
  616TMC3    C1 9175   2.080   1.337  15.936  0.2656 -0.0258  0.4586
  616TMC3    C2 9176   2.141   1.459  15.914  0.6386 -0.2255  0.2090
  616TMC3    C3 9177   2.081   1.568  15.958  0.2576  0.2472  0.1657
  616TMC3    C4 9178   1.970   1.328  16.017  0.5075  0.4385 -0.1350
  616TMC3    C5 9179   1.920   1.445  16.063  0.0238  0.0630 -0.6592
  616TMC3    C6 9180   1.968   1.568  16.024  0.1612  0.4219 -0.3062
  616TMC3     C 9181   2.131   1.225  15.862 -0.6178  0.1335  0.2669
  616TMC3     O 9182   2.240   1.232  15.808  0.4477 -0.0756 -0.6675
  616TMC3     H 9183   2.210   1.461  15.831 -0.6199 -0.0329 -0.8435
  616TMC3    H1 9184   1.915   1.236  16.038  0.1263  0.3028 -1.7835
  616TMC3    H2 9185   1.920   1.659  16.061 -0.6550 -0.5006  0.9040
  616TMC3    C7 9186   1.812   1.434  16.154  0.2591  0.5950 -0.9403
  616TMC3    C8 9187   2.119   1.695  15.906 -0.5972 -0.4800  0.4976
  616TMC3    O1 9188   1.730   1.527  16.162  0.1768  0.4521 -0.2095
  616TMC3    O2 9189   2.038   1.782  15.900  0.7571 -0.2042  0.1463
  617MPD2     C 9190   0.014   3.751  13.608  0.4687 -0.0833 -0.0960
  617MPD2    C1 9191   0.049   3.733  13.746  0.0269  0.6164  0.5330
  617MPD2    C2 9192   4.693   3.766  13.846 -0.1854 -0.7058  0.2512
  617MPD2    C3 9193   4.566   3.816  13.814  0.2724 -0.5897 -0.5273
  617MPD2    C4 9194   4.543   3.838  13.681 -0.5435  0.2621 -0.7090
  617MPD2    C5 9195   4.633   3.804  13.579  0.0604  0.9626  0.4998
  617MPD2     H 9196   4.712   3.776  13.952  0.0819  1.1200  0.0272
  617MPD2    H1 9197   4.444   3.872  13.654 -0.6293  0.9796  0.4872
  617MPD2    H2 9198   0.084   3.721  13.532 -0.0680  0.7730 -0.9290
  617MPD2    H3 9199   4.595   3.809  13.478  0.1656  1.8067  0.5026
  617MPD2     N 9200   4.465   3.837  13.915  0.3945  0.4317  0.4254
  617MPD2    H5 9201   4.372   3.858  13.879  0.0617  1.6705  2.0083
  617MPD2    N1 9202   0.173   3.673  13.772 -0.4954 -0.0807  0.3040
  617MPD2    H7 9203   0.231   3.646  13.693  0.2671  0.3284  0.7205
  618TMC3    C1 9204   0.356   3.595  13.886 -0.4066  0.1853  0.2674
  618TMC3    C2 9205   0.363   3.480  13.818  0.0911 -0.0317 -0.0875
  618TMC3    C3 9206   0.486   3.443  13.773 -0.1915  0.1456 -0.0804
  618TMC3    C4 9207   0.460   3.682  13.899 -0.2701 -0.1329  0.0485
  618TMC3    C5 9208   0.578   3.645  13.851 -0.6309  0.0209 -0.4754
  618TMC3    C6 9209   0.602   3.517  13.791  0.3033  0.1639  0.1892
  618TMC3     C 9210   0.227   3.658  13.895 -0.0719 -0.3600  0.6183
  618TMC3     O 9211   0.209   3.716  14.002 -0.2906  0.3472  0.2880
  618TMC3     H 9212   0.267   3.431  13.807 -0.4642  0.0810  4.1364
  618TMC3    H1 9213   0.438   3.781  13.935  1.5196  0.0671  0.5597
  618TMC3    H2 9214   0.697   3.496  13.744  0.9415 -0.3006  1.6810
  618TMC3    C7 9215   0.685   3.749  13.869 -0.6230 -0.2219 -0.2350
  618TMC3    C8 9216   0.483   3.347  13.665 -1.0400 -0.0969  0.3702
  618TMC3    O1 9217   0.683   3.817  13.970 -0.2019 -0.1138 -0.1407
  618TMC3    O2 9218   0.373   3.307  13.628  0.1588  0.5689 -0.3947
  619MPD2     C 9219   1.912   0.783  13.459 -0.0353 -0.1969 -0.1474
  619MPD2    C1 9220   1.844   0.784  13.339 -0.0497 -0.2417  0.4914
  619MPD2    C2 9221   1.730   0.719  13.322 -0.1310 -0.1661 -0.1607
  619MPD2    C3 9222   1.669   0.667  13.429  0.0936  0.4127 -0.7363
  619MPD2    C4 9223   1.725   0.672  13.553  0.3683  0.2427  0.2885
  619MPD2    C5 9224   1.842   0.746  13.569  1.0357 -0.5989  0.8640
  619MPD2     H 9225   1.677   0.741  13.231 -0.8101 -0.9330  0.0454
  619MPD2    H1 9226   1.682   0.625  13.640  1.1253  0.1537  0.6139
  619MPD2    H2 9227   2.008   0.830  13.479 -1.4742  1.9936  1.6619
  619MPD2    H3 9228   1.885   0.742  13.668 -0.7257 -2.1967  1.5792
  619MPD2     N 9229   1.538   0.616  13.419  0.1741  0.1317 -0.1118
  619MPD2    H5 9230   1.485   0.592  13.503  0.9899 -4.6138 -0.9449
  619MPD2    N1 9231   1.898   0.838  13.224 -0.5410  0.6681 -0.3320
  619MPD2    H7 9232   1.832   0.839  13.147  1.0873  2.7403 -1.7102
  620TMC3    C1 9233   2.009   0.972  13.077  0.4404  0.3814  0.1410
  620TMC3    C2 9234   1.917   0.929  12.980 -0.3281 -0.4561  0.2046
  620TMC3    C3 9235   1.877   1.015  12.880 -0.5803 -0.4125 -0.2240
  620TMC3    C4 9236   2.053   1.098  13.071 -0.0669  0.6090  0.1859
  620TMC3    C5 9237   2.009   1.186  12.981 -0.5469  0.4604 -0.1507
  620TMC3    C6 9238   1.921   1.149  12.882  0.1234 -1.0193 -0.6065
  620TMC3     C 9239   2.005   0.914  13.213 -1.0233  0.0532  0.9103
  620TMC3     O 9240   2.067   0.973  13.302  0.1700 -0.1181  0.4714
  620TMC3     H 9241   1.884   0.826  12.986  0.1188 -0.5329  1.3939
  620TMC3    H1 9242   2.116   1.142  13.148  1.1580 -1.0060  0.0966
  620TMC3    H2 9243   1.906   1.216  12.798  0.2697  0.6855  0.7261
  620TMC3    C7 9244   2.006   1.329  13.010 -0.1616 -0.0188 -0.3793
  620TMC3    C8 9245   1.746   1.008  12.826  0.6522  0.5669  0.2477
  620TMC3    O1 9246   2.094   1.373  13.086 -0.6731 -0.3695 -0.4261
  620TMC3    O2 9247   1.693   1.109  12.782 -0.2340  0.0234  0.0198
  621MPD2     C 9248   1.690   1.569   9.308  0.6042  0.0516 -0.0009
  621MPD2    C1 9249   1.790   1.504   9.380  0.0449  0.4478 -0.0201
  621MPD2    C2 9250   1.896   1.577   9.433 -0.3610 -0.1519 -0.7108
  621MPD2    C3 9251   1.911   1.711   9.401 -0.4452  0.2017 -0.0444
  621MPD2    C4 9252   1.803   1.772   9.337  0.2236  0.0043  0.4519
  621MPD2    C5 9253   1.691   1.702   9.298  0.3608  0.3940 -0.3491
  621MPD2     H 9254   1.960   1.521   9.499 -1.5999 -1.1409 -0.3592
  621MPD2    H1 9255   1.813   1.877   9.312 -0.5772  0.2149  1.0098
  621MPD2    H2 9256   1.602   1.520   9.269  0.7090  0.0502 -0.2358
  621MPD2    H3 9257   1.605   1.750   9.252 -0.8581 -1.9177 -0.4714
  621MPD2     N 9258   2.041   1.772   9.432 -0.0618 -0.1809 -0.2550
  621MPD2    H5 9259   2.106   1.708   9.477  0.2860  1.0169  0.9481
  621MPD2    N1 9260   1.775   1.369   9.422 -0.2675  0.1414 -1.1299
  621MPD2    H7 9261   1.852   1.335   9.478  1.1183  0.5485 -2.8069
  622TMC3    C1 9262   1.679   1.157   9.480  0.4160  0.2959 -0.4005
  622TMC3    C2 9263   1.787   1.137   9.562  0.7995  0.0939 -0.5059
  622TMC3    C3 9264   1.780   1.041   9.662  0.0630 -0.3242  0.1882
  622TMC3    C4 9265   1.565   1.080   9.503  0.4041 -0.1721  0.1209
  622TMC3    C5 9266   1.563   0.992   9.608 -0.6332 -0.7189 -0.1854
  622TMC3    C6 9267   1.663   0.978   9.694 -0.4974  0.1097 -0.2200
  622TMC3     C 9268   1.664   1.282   9.407 -0.2858 -0.3996 -0.5590
  622TMC3     O 9269   1.560   1.295   9.340 -0.0341  0.2868 -0.1283
  622TMC3     H 9270   1.887   1.166   9.531  0.3175  0.6714 -1.5356
  622TMC3    H1 9271   1.473   1.090   9.446  1.4290  0.3430 -1.4421
  622TMC3    H2 9272   1.661   0.899   9.768  1.7012  0.0577 -0.2063
  622TMC3    C7 9273   1.454   0.901   9.616 -0.3524  0.4922 -0.5984
  622TMC3    C8 9274   1.887   1.052   9.763 -0.8947 -0.9194 -0.0494
  622TMC3    O1 9275   1.476   0.789   9.658 -0.2009  0.4921  0.5129
  622TMC3    O2 9276   1.999   1.072   9.721 -0.2887  0.4741  0.2591
  623MPD2     C 9277   0.755   1.525  15.810 -0.1309 -0.2431  0.1492
  623MPD2    C1 9278   0.716   1.414  15.881  1.0994  0.7953 -0.4626
  623MPD2    C2 9279   0.773   1.394  16.012 -0.0175  0.3547 -0.2189
  623MPD2    C3 9280   0.880   1.469  16.053  0.0672 -0.0348  0.4824
  623MPD2    C4 9281   0.931   1.568  15.976 -0.0049  0.3148  0.8957
  623MPD2    C5 9282   0.864   1.600  15.859  0.2613  0.2628  0.4850
  623MPD2     H 9283   0.738   1.308  16.069 -0.5571  0.6575 -0.0860
  623MPD2    H1 9284   1.017   1.628  16.006  0.6059 -0.3506  0.4855
  623MPD2    H2 9285   0.715   1.558  15.715 -1.6090  0.6299  1.0768
  623MPD2    H3 9286   0.923   1.671  15.803 -2.9042  1.6750 -1.0496
  623MPD2     N 9287   0.935   1.421  16.177 -0.1984 -0.1218  0.1293
  623MPD2    H5 9288   0.901   1.333  16.213  0.9464 -1.1910 -1.4111
  623MPD2    N1 9289   0.617   1.331  15.825 -0.0166  0.3402 -0.0095
  623MPD2    H7 9290   0.571   1.370  15.744  0.0090 -0.9639 -0.6553
  624TMC3    C1 9291   1.210   1.235  16.417  0.2882 -0.2800  0.6597
  624TMC3    C2 9292   1.111   1.172  16.483  1.0263 -0.3161 -0.1561
  624TMC3    C3 9293   0.989   1.233  16.492  0.7826 -0.2612  0.7750
  624TMC3    C4 9294   1.194   1.350  16.353 -0.2572 -0.4110  0.2655
  624TMC3    C5 9295   1.071   1.411  16.363  0.2368 -0.8007 -0.4226
  624TMC3    C6 9296   0.972   1.354  16.432 -0.2212 -0.4886 -0.3855
  624TMC3     C 9297   1.318   1.145  16.378  0.0647 -0.0904 -0.1031
  624TMC3     O 9298   1.336   1.053  16.452  0.4389  0.2233  0.4231
  624TMC3     H 9299   1.132   1.083  16.540  1.2778 -1.0362 -1.3862
  624TMC3    H1 9300   1.265   1.404  16.291 -0.5143  2.6120  2.6353
  624TMC3    H2 9301   0.873   1.399  16.435 -0.9752 -2.1325 -0.5953
  624TMC3    C7 9302   1.037   1.480  16.240  1.0313  0.2633  0.9089
  624TMC3    C8 9303   0.875   1.158  16.539 -0.6443  0.0106  0.2115
  624TMC3    O1 9304   1.105   1.574  16.208  0.2931  0.0208 -0.2992
  624TMC3    O2 9305   0.885   1.037  16.524 -0.3142 -0.5480 -0.6948
  625MPD2     C 9306   1.524   2.206   0.424  0.0731 -0.8656  0.4760
  625MPD2    C1 9307   1.502   2.310   0.510 -0.2269 -0.3953  0.1711
  625MPD2    C2 9308   1.613   2.365   0.572 -0.4028 -0.9776  0.4578
  625MPD2    C3 9309   1.742   2.312   0.548 -0.1455 -0.5684  0.3297
  625MPD2    C4 9310   1.758   2.210   0.457  0.5024 -0.3044 -0.2518
  625MPD2    C5 9311   1.644   2.150   0.406 -0.1881 -0.5294 -0.2290
  625MPD2     H 9312   1.596   2.449   0.639 -0.0459  0.8925 -1.8194
  625MPD2    H1 9313   1.850   2.155   0.443  0.9349  0.3475  0.0590
  625MPD2    H2 9314   1.438   2.152   0.385  0.2654 -1.4453  0.8585
  625MPD2    H3 9315   1.653   2.059   0.348 -0.0292  0.2221 -1.3850
  625MPD2     N 9316   1.851   2.371   0.620  0.1060 -0.0329 -0.2570
  625MPD2    H5 9317   1.830   2.441   0.690 -2.4393 -1.0618  0.0033
  625MPD2    N1 9318   1.377   2.367   0.546  0.1091  0.2939  0.4767
  625MPD2    H7 9319   1.371   2.451   0.602  1.1085 -0.7097  2.0928
  626TMC3    C1 9320   1.158   2.391   0.583 -0.0783 -0.3997 -0.1857
  626TMC3    C2 9321   1.044   2.428   0.517  0.6771  0.2883  0.1231
  626TMC3    C3 9322   0.967   2.532   0.561 -0.2235  0.0676 -0.2407
  626TMC3    C4 9323   1.196   2.446   0.706  0.4754  0.4265 -0.7557
  626TMC3    C5 9324   1.127   2.558   0.736 -0.3615 -0.1960  0.5695
  626TMC3    C6 9325   1.020   2.608   0.665 -0.2506  0.1083 -0.1222
  626TMC3     C 9326   1.259   2.321   0.509 -0.1076 -0.5124  0.5053
  626TMC3     O 9327   1.225   2.217   0.456 -0.0400 -0.3743  0.6241
  626TMC3     H 9328   1.029   2.393   0.415  0.0961 -1.3057  0.7744
  626TMC3    H1 9329   1.274   2.417   0.776 -1.3497  1.4911  1.6949
  626TMC3    H2 9330   0.957   2.689   0.700  0.0910  0.2428  0.1772
  626TMC3    C7 9331   1.180   2.627   0.855  0.1351 -0.4234 -0.8313
  626TMC3    C8 9332   0.878   2.590   0.458 -0.3594  0.8462 -0.1211
  626TMC3    O1 9333   1.262   2.578   0.929  1.1810 -0.2869  0.2006
  626TMC3    O2 9334   0.894   2.561   0.339  0.3730  0.1487 -0.4152
  627MPD2     C 9335   3.800   2.729  14.703 -0.3150  0.2581 -0.7405
  627MPD2    C1 9336   3.889   2.703  14.802  0.3013 -0.3208 -0.2626
  627MPD2    C2 9337   3.871   2.589  14.880  0.1561  0.4939 -0.2241
  627MPD2    C3 9338   3.763   2.497  14.856 -0.0056 -0.1112 -0.2443
  627MPD2    C4 9339   3.671   2.528  14.756 -0.2856 -0.0962 -0.5425
  627MPD2    C5 9340   3.690   2.646  14.682 -0.1111  0.2252 -0.0096
  627MPD2     H 9341   3.942   2.569  14.959 -0.8799 -0.9401  0.3399
  627MPD2    H1 9342   3.575   2.479  14.754 -0.7868  0.8214  0.8869
  627MPD2    H2 9343   3.816   2.820  14.647  2.1046  1.9246  2.6447
  627MPD2    H3 9344   3.614   2.670  14.608  0.0258 -2.6335 -1.0823
  627MPD2     N 9345   3.774   2.384  14.935 -0.3168  0.3132  0.1721
  627MPD2    H5 9346   3.863   2.368  14.981 -0.5448  0.0680  0.5379
  627MPD2    N1 9347   4.003   2.786  14.827  0.8135  0.3270 -0.3922
  627MPD2    H7 9348   4.058   2.766  14.909 -0.0836 -0.6672 -0.0318
  628TMC3    C1 9349   4.172   2.949  14.797 -0.7173  0.4738  0.1481
  628TMC3    C2 9350   4.217   2.908  14.919 -0.3595 -0.0797  0.2092
  628TMC3    C3 9351   4.340   2.862  14.935  0.8651  0.0061 -0.3223
  628TMC3    C4 9352   4.261   2.959  14.694 -0.8883  0.1929 -0.3846
  628TMC3    C5 9353   4.391   2.936  14.717  0.3633  0.5599 -0.0384
  628TMC3    C6 9354   4.425   2.869  14.830  0.0021  0.1470 -0.3674
  628TMC3     C 9355   4.043   2.889  14.752  0.2479 -0.7487 -0.7503
  628TMC3     O 9356   4.000   2.937  14.649 -0.5667 -0.4853  0.5522
  628TMC3     H 9357   4.142   2.897  14.997 -0.1004 -1.9408  0.2050
  628TMC3    H1 9358   4.228   3.007  14.603 -1.2051 -1.9004 -1.3918
  628TMC3    H2 9359   4.531   2.850  14.842 -0.0975 -1.1326 -1.5266
  628TMC3    C7 9360   4.496   3.016  14.655 -0.0548  0.3034  0.2190
  628TMC3    C8 9361   4.342   2.758  15.032 -0.3034  0.0465  0.1712
  628TMC3    O1 9362   4.611   2.979  14.660 -0.7090 -0.5838  0.2770
  628TMC3    O2 9363   4.232   2.713  15.065  0.0741 -0.0588 -0.2065
  629MPD2     C 9364   2.413   2.013  15.655 -0.7065 -0.1397 -0.1569
  629MPD2    C1 9365   2.493   1.912  15.695  0.0752  0.8323  0.1248
  629MPD2    C2 9366   2.435   1.808  15.767  0.0411  0.7756 -0.1038
  629MPD2    C3 9367   2.297   1.814  15.796 -0.1999  0.2302  0.5421
  629MPD2    C4 9368   2.224   1.931  15.772 -0.2901 -0.1264  0.5921
  629MPD2    C5 9369   2.283   2.028  15.696  0.1674  0.5040 -0.1852
  629MPD2     H 9370   2.490   1.716  15.787 -0.6832  0.4544  0.4224
  629MPD2    H1 9371   2.117   1.941  15.783 -0.4679 -2.0135  0.6584
  629MPD2    H2 9372   2.449   2.099  15.600  1.8469 -1.7558 -1.0423
  629MPD2    H3 9373   2.213   2.103  15.661  0.5770  1.2370  0.5501
  629MPD2     N 9374   2.249   1.708  15.871  0.7618  0.4932 -0.2350
  629MPD2    H5 9375   2.307   1.630  15.900 -0.5530 -0.1794  0.5857
  629MPD2    N1 9376   2.631   1.918  15.662  0.1003 -0.0134  0.4141
  629MPD2    H7 9377   2.663   1.993  15.602  1.3626 -0.6863  0.2352
  630TMC3    C1 9378   2.869   1.856  15.655  0.4351  0.0519 -0.1984
  630TMC3    C2 9379   2.916   1.979  15.619 -0.4745 -0.3912  0.1754
  630TMC3    C3 9380   3.051   2.001  15.611  0.2702  0.1763 -1.0811
  630TMC3    C4 9381   2.963   1.755  15.671  0.0807 -0.3906  0.4725
  630TMC3    C5 9382   3.095   1.782  15.668  0.1498  0.3221 -0.2614
  630TMC3    C6 9383   3.145   1.906  15.639  0.7842  0.2978 -0.7879
  630TMC3     C 9384   2.726   1.816  15.684  0.1075 -0.5759 -0.8966
  630TMC3     O 9385   2.717   1.710  15.748  0.0103  0.2797 -0.0707
  630TMC3     H 9386   2.851   2.065  15.629 -1.0096 -0.6004 -1.4691
  630TMC3    H1 9387   2.931   1.651  15.662  0.7196 -0.3514 -2.2212
  630TMC3    H2 9388   3.249   1.934  15.629  0.5974  0.4232 -2.3739
  630TMC3    C7 9389   3.185   1.707  15.754  0.1463 -0.6492  0.0323
  630TMC3    C8 9390   3.088   2.147  15.608  0.4373  0.5862  0.3803
  630TMC3    O1 9391   3.301   1.741  15.767  0.1194 -0.4104 -0.1551
  630TMC3    O2 9392   3.003   2.221  15.556  0.0281 -0.5415  0.5453
  631MPD2     C 9393   0.793   0.919  15.344  0.3542 -1.1536  0.0923
  631MPD2    C1 9394   0.882   0.977  15.257  0.5188 -0.3468  0.3452
  631MPD2    C2 9395   1.012   0.925  15.260 -0.6395  0.6879 -0.1988
  631MPD2    C3 9396   1.049   0.831  15.353 -0.3072 -0.7300  0.1495
  631MPD2    C4 9397   0.960   0.789  15.449  0.0144 -0.2613 -0.3961
  631MPD2    C5 9398   0.837   0.840  15.444 -0.4180  0.5997 -0.5491
  631MPD2     H 9399   1.085   0.951  15.184  0.5222  2.1757  1.4331
  631MPD2    H1 9400   0.979   0.722  15.533 -0.2654  1.5643  1.1400
  631MPD2    H2 9401   0.687   0.942  15.346 -0.0850 -3.1004 -1.3743
  631MPD2    H3 9402   0.766   0.819  15.522 -0.1680  0.1271 -0.4502
  631MPD2     N 9403   1.181   0.778  15.346 -0.7297  0.2728  0.7208
  631MPD2    H5 9404   1.241   0.787  15.264 -1.0014  1.2172  0.6256
  631MPD2    N1 9405   0.836   1.073  15.161  0.4959 -0.8114 -0.0531
  631MPD2    H7 9406   0.737   1.093  15.159  0.3414 -1.4389  1.2115
  632TMC3    C1 9407   0.844   1.266  15.048 -0.0183 -0.2401  0.8015
  632TMC3    C2 9408   0.788   1.338  15.152  0.1881  0.4663  0.4591
  632TMC3    C3 9409   0.752   1.464  15.136 -0.1617  0.2889 -0.6548
  632TMC3    C4 9410   0.891   1.329  14.936  0.5204 -0.3386  0.8784
  632TMC3    C5 9411   0.851   1.460  14.918  0.2782  0.0640  0.5512
  632TMC3    C6 9412   0.784   1.533  15.021  0.3019  0.0390  0.2812
  632TMC3     C 9413   0.915   1.149  15.079 -0.0127 -0.3575  0.8704
  632TMC3     O 9414   1.032   1.155  15.057 -0.4421  0.2123  0.2993
  632TMC3     H 9415   0.755   1.287  15.242 -0.4725  1.2011  0.6337
  632TMC3    H1 9416   0.936   1.274  14.854 -1.1001  1.4152 -1.1614
  632TMC3    H2 9417   0.766   1.639  15.005 -2.5539 -0.3515  0.8134
  632TMC3    C7 9418   0.896   1.531  14.798  0.2972 -0.1010 -0.1034
  632TMC3    C8 9419   0.706   1.541  15.246  0.5583 -0.0432  0.6527
  632TMC3    O1 9420   0.963   1.455  14.726  0.5607 -0.1282 -0.0074
  632TMC3    O2 9421   0.635   1.485  15.329 -0.2905  0.0527 -0.0903
  633MPD2     C 9422   0.627   4.221  17.236 -0.2546  0.0386  0.1364
  633MPD2    C1 9423   0.584   4.159  17.128  0.3986 -0.9022 -0.4624
  633MPD2    C2 9424   0.595   4.021  17.123 -0.6040  0.1097  0.5746
  633MPD2    C3 9425   0.650   3.956  17.230  0.0936  0.3566 -0.6072
  633MPD2    C4 9426   0.695   4.021  17.341 -0.3570 -0.5520  0.3478
  633MPD2    C5 9427   0.679   4.155  17.346 -0.3622 -0.7398 -0.0778
  633MPD2     H 9428   0.561   3.972  17.033  1.2877 -0.2646  0.0694
  633MPD2    H1 9429   0.728   3.975  17.433 -1.6708  0.3749  1.3034
  633MPD2    H2 9430   0.621   4.329  17.238  0.7522  0.0497  3.1968
  633MPD2    H3 9431   0.695   4.206  17.441  1.5656  0.7521 -1.2118
  633MPD2     N 9432   0.672   3.816  17.232  0.7340  0.4600 -0.4219
  633MPD2    H5 9433   0.731   3.776  17.304  0.0399  0.5405  0.1911
  633MPD2    N1 9434   0.529   4.226  17.014 -0.2903  0.1360  0.1191
  633MPD2    H7 9435   0.492   4.169  16.938 -0.1911 -0.2855  0.3871
  634TMC3    C1 9436   0.438   4.391  16.875  0.1055  0.3316  0.8592
  634TMC3    C2 9437   0.428   4.283  16.784  0.2632 -0.5462  0.6795
  634TMC3    C3 9438   0.418   4.315  16.651  0.3354 -0.3308 -0.2248
  634TMC3    C4 9439   0.449   4.527  16.830 -0.1422  0.0445 -0.1826
  634TMC3    C5 9440   0.435   4.548  16.691  0.9953  0.3571 -0.0382
  634TMC3    C6 9441   0.417   4.442  16.604  0.3720  0.0295  0.2669
  634TMC3     C 9442   0.499   4.360  17.000  0.2870 -0.0162  0.5635
  634TMC3     O 9443   0.532   4.456  17.070 -0.6068  0.2201 -0.4321
  634TMC3     H 9444   0.395   4.183  16.809  2.6116 -2.0059 -2.0183
  634TMC3    H1 9445   0.479   4.604  16.900  2.4911  0.4918 -1.8398
  634TMC3    H2 9446   0.416   4.447  16.496  1.7164  1.7538  0.3453
  634TMC3    C7 9447   0.491   4.662  16.621 -0.0493  0.4752  0.0894
  634TMC3    C8 9448   0.405   4.204  16.556 -0.0290  0.3848  0.3265
  634TMC3    O1 9449   0.523   4.648  16.505 -0.3489  0.5743  0.1392
  634TMC3    O2 9450   0.453   4.095  16.602 -0.2965 -0.4467  0.6405
  635TMC3    C1 9451   1.115   0.224  17.242 -0.1148  0.3027 -0.3383
  635TMC3    C2 9452   1.180   0.152  17.142 -0.0503 -0.0028 -0.2186
  635TMC3    C3 9453   1.119   0.034  17.103 -0.4755  0.0450 -0.3346
  635TMC3    C4 9454   1.015   0.170  17.309  0.2412 -0.6003 -0.2759
  635TMC3    C5 9455   0.949   0.059  17.262 -0.1066  0.0124  0.3246
  635TMC3    C6 9456   1.005   4.733  17.155 -0.8108  0.4761  1.2531
  635TMC3     C 9457   1.187   0.341  17.299 -1.0144  0.2650  0.9793
  635TMC3     O 9458   1.177   0.365  17.418  0.1195 -0.1541  0.1232
  635TMC3     H 9459   1.258   0.198  17.082  0.1335  0.3678  0.3022
  635TMC3    H1 9460   0.981   0.224  17.397 -0.5961  0.7111 -1.4092
  635TMC3    H2 9461   0.956   4.646  17.111 -2.1108  0.2972  3.0511
  635TMC3    C7 9462   0.856   4.717  17.341 -0.0036  0.0842  0.3007
  635TMC3    C8 9463   1.196   4.688  17.013 -0.4469 -0.2126 -0.6370
  635TMC3    O1 9464   0.799   4.625  17.279  0.0671 -0.3496 -0.8593
  635TMC3    O2 9465   1.282   0.002  16.945  0.4163 -0.4325  0.3261
  636MPD2     C 9466   1.534   4.460  15.151 -0.2088  0.4046 -0.1254
  636MPD2    C1 9467   1.579   4.514  15.269 -0.5768  0.4912  0.0393
  636MPD2    C2 9468   1.626   4.435  15.364 -0.3167  0.0733 -0.4925
  636MPD2    C3 9469   1.647   4.301  15.337 -0.5838  1.3190  0.1217
  636MPD2    C4 9470   1.624   4.246  15.210 -0.4523  0.0313 -1.4122
  636MPD2    C5 9471   1.565   4.327  15.121  0.1319 -0.1385  0.2400
  636MPD2     H 9472   1.651   4.484  15.457  1.6026 -1.6803 -0.0766
  636MPD2    H1 9473   1.651   4.142  15.195  2.4649  0.5736  0.0069
  636MPD2    H2 9474   1.491   4.523  15.073 -0.9996 -1.3363 -1.0996
  636MPD2    H3 9475   1.541   4.278  15.028 -2.6593 -0.1687  0.9525
  636MPD2     N 9476   1.690   4.203  15.432  0.3443  0.6543  0.4315
  636MPD2    H5 9477   1.699   4.109  15.396 -4.1844  0.0145  0.9501
  636MPD2    N1 9478   1.574   4.651  15.298  0.1028  0.1474 -0.2875
  636MPD2    H7 9479   1.598   4.681  15.392 -3.0299 -1.9489  1.1655
  637TMC3    C1 9480   1.746   4.110  15.639 -0.6415 -0.5305 -0.8829
  637TMC3    C2 9481   1.784   4.123  15.771 -0.2118 -0.5292 -0.0236
  637TMC3    C3 9482   1.821   4.011  15.837  0.2980  0.2876  0.3881
  637TMC3    C4 9483   1.709   3.986  15.589 -0.2530  0.7702 -0.4623
  637TMC3    C5 9484   1.734   3.875  15.660 -0.5332  0.0110  0.0842
  637TMC3    C6 9485   1.780   3.889  15.792  0.0771 -0.0434 -0.2767
  637TMC3     C 9486   1.732   4.234  15.557  0.1450 -0.1666 -0.2962
  637TMC3     O 9487   1.738   4.338  15.620  0.2541 -0.9363 -0.6272
  637TMC3     H 9488   1.818   4.225  15.788 -0.5917 -0.3355 -0.4068
  637TMC3    H1 9489   1.671   3.972  15.488 -2.2037 -0.2692  0.4178
  637TMC3    H2 9490   1.814   3.801  15.846  1.3212  0.1205 -0.7753
  637TMC3    C7 9491   1.790   3.761  15.588 -0.1846 -0.8799 -0.3206
  637TMC3    C8 9492   1.960   3.993  15.888  0.0161 -0.4716 -0.1860
  637TMC3    O1 9493   1.742   3.736  15.477  0.1850 -0.7126 -0.3695
  637TMC3    O2 9494   2.018   3.889  15.855  1.0842 -0.2363 -0.1373
  638MPD2     C 9495   1.621   3.195  14.766  0.1328 -0.1810  0.0110
  638MPD2    C1 9496   1.704   3.097  14.725 -0.3598 -0.0001 -0.0820
  638MPD2    C2 9497   1.702   2.979  14.796 -0.5106  0.3002  0.0098
  638MPD2    C3 9498   1.615   2.947  14.893 -0.2160 -0.5981 -1.0684
  638MPD2    C4 9499   1.532   3.050  14.930 -0.4888 -0.6566  0.3239
  638MPD2    C5 9500   1.525   3.169  14.862  0.3009  0.2756 -0.2197
  638MPD2     H 9501   1.776   2.904  14.774 -0.5595 -0.2458  1.6671
  638MPD2    H1 9502   1.461   3.035  15.011 -1.5635 -2.3018 -0.9136
  638MPD2    H2 9503   1.624   3.293  14.718  2.1565 -0.6990 -0.8984
  638MPD2    H3 9504   1.441   3.236  14.876  0.6941  0.3347  1.8354
  638MPD2     N 9505   1.625   2.830  14.964  0.0100  0.2393  0.1266
  638MPD2    H5 9506   1.703   2.769  14.946 -0.3805 -0.0741 -0.5184
  638MPD2    N1 9507   1.785   3.115  14.612 -0.4248 -0.1925  0.4199
  638MPD2    H7 9508   1.808   3.207  14.576  0.6536 -1.3412 -1.8804
  639TMC3    C1 9509   1.548   2.632  15.062 -0.9754 -0.1855 -0.2641
  639TMC3    C2 9510   1.438   2.559  15.042  0.2375  0.0157 -1.3290
  639TMC3    C3 9511   1.454   2.425  15.013  0.6590 -0.4644  0.0219
  639TMC3    C4 9512   1.673   2.580  15.069 -0.4213 -0.3192  0.1642
  639TMC3    C5 9513   1.677   2.443  15.064 -0.1430  0.0557 -0.1284
  639TMC3    C6 9514   1.575   2.368  15.028  0.4483  0.3266  0.7403
  639TMC3     C 9515   1.531   2.771  15.048 -0.1573 -0.3064  0.5180
  639TMC3     O 9516   1.429   2.821  15.095  0.0314 -0.4920 -0.3410
  639TMC3     H 9517   1.345   2.608  15.016  0.8123  2.7485  1.7775
  639TMC3    H1 9518   1.755   2.646  15.097  0.9493 -2.3514  0.9296
  639TMC3    H2 9519   1.583   2.261  15.016 -1.5231  0.3975 -1.2898
  639TMC3    C7 9520   1.807   2.376  15.057  0.7625  0.3456 -0.0178
  639TMC3    C8 9521   1.379   2.366  14.899  0.0031 -0.0574 -0.2090
  639TMC3    O1 9522   1.810   2.261  15.096 -0.3138  0.5114  0.0662
  639TMC3    O2 9523   1.455   2.316  14.816  0.1580  0.0988  0.1176
  640MPD2     C 9524   2.561   2.675  10.197 -0.1995  0.0995 -0.3986
  640MPD2    C1 9525   2.571   2.780  10.112 -0.7553  0.3351  0.6894
  640MPD2    C2 9526   2.556   2.910  10.162 -0.3525 -0.3989 -0.4885
  640MPD2    C3 9527   2.509   2.930  10.285  0.2124  0.0713  0.8282
  640MPD2    C4 9528   2.493   2.822  10.372  0.3066 -0.2313  0.1052
  640MPD2    C5 9529   2.519   2.697  10.326 -0.0465  0.6525 -0.1601
  640MPD2     H 9530   2.575   2.993  10.095  0.1933 -0.9634 -1.0313
  640MPD2    H1 9531   2.461   2.839  10.474 -0.6889 -0.5723 -0.1427
  640MPD2    H2 9532   2.587   2.578  10.155  1.2245 -1.0642  3.1508
  640MPD2    H3 9533   2.515   2.614  10.396  0.4447  1.6495  1.0355
  640MPD2     N 9534   2.462   3.054  10.333 -0.2064 -0.1836 -0.2616
  640MPD2    H5 9535   2.398   3.056  10.411 -2.4773  1.5226 -2.1720
  640MPD2    N1 9536   2.584   2.745   9.979 -0.1614 -0.5858  0.1738
  640MPD2    H7 9537   2.601   2.647   9.962 -0.6927 -0.6293 -0.1078
  641TMC3    C1 9538   2.597   2.760   9.752 -0.3522 -0.0731 -0.4336
  641TMC3    C2 9539   2.663   2.640   9.739 -0.4258 -0.0388  0.4999
  641TMC3    C3 9540   2.669   2.581   9.614  0.2647 -0.5652 -0.7248
  641TMC3    C4 9541   2.533   2.816   9.648 -0.2098 -0.5081  0.0352
  641TMC3    C5 9542   2.525   2.745   9.531 -0.3962 -0.6856  0.5324
  641TMC3    C6 9543   2.590   2.627   9.509  0.5453 -0.5035 -0.3107
  641TMC3     C 9544   2.595   2.832   9.876  0.3775  0.0645  0.4121
  641TMC3     O 9545   2.592   2.954   9.872 -0.4595  1.2822  0.1052
  641TMC3     H 9546   2.718   2.604   9.826 -3.3582 -0.0305  2.3756
  641TMC3    H1 9547   2.489   2.914   9.662 -0.7947 -0.9888  1.5168
  641TMC3    H2 9548   2.614   2.594   9.409 -0.9027 -0.4623 -0.6670
  641TMC3    C7 9549   2.452   2.810   9.420 -0.1431  0.6829  0.3738
  641TMC3    C8 9550   2.749   2.456   9.595 -0.5189  0.0901 -0.8012
  641TMC3    O1 9551   2.436   2.935   9.426  0.1603  0.2882 -0.4886
  641TMC3    O2 9552   2.732   2.397   9.494 -0.7089  0.3129 -0.0369
  642TMC3    C1 9553   3.279   3.041  12.700 -0.3187  0.5504  0.5482
  642TMC3    C2 9554   3.213   3.042  12.819  1.1319  0.3099  0.0297
  642TMC3    C3 9555   3.182   2.923  12.866  0.2476 -0.7751 -0.0425
  642TMC3    C4 9556   3.308   2.930  12.635  0.0403  0.0981  0.5631
  642TMC3    C5 9557   3.292   2.812  12.694  0.0090  0.4070 -0.4444
  642TMC3    C6 9558   3.229   2.807  12.812 -0.8796 -0.6708 -0.8096
  642TMC3     C 9559   3.251   3.159  12.621  0.3103 -0.0415  0.1367
  642TMC3     O 9560   3.312   3.169  12.515 -0.1880 -0.4688  0.3964
  642TMC3     H 9561   3.190   3.136  12.869 -0.9326 -0.8992  1.3559
  642TMC3    H1 9562   3.359   2.931  12.539 -0.0443 -1.3411  0.5030
  642TMC3    H2 9563   3.202   2.714  12.860 -1.5236 -1.4406 -2.6334
  642TMC3    C7 9564   3.254   2.701  12.604 -0.1965  0.7186  0.0663
  642TMC3    C8 9565   3.134   2.911  13.003  0.3638 -0.4080  0.1731
  642TMC3    O1 9566   3.239   2.727  12.484  0.7185  0.1001  0.6329
  642TMC3    O2 9567   3.164   2.820  13.075  0.6563 -0.1953 -0.3089
  643TMC3    C1 9568   3.017   2.327   0.476 -0.2577  0.1258  0.0620
  643TMC3    C2 9569   2.888   2.295   0.514  0.1038  0.4174 -0.6632
  643TMC3    C3 9570   2.822   2.192   0.458 -0.2032 -1.0540  0.4628
  643TMC3    C4 9571   3.072   2.266   0.371  0.1286 -0.1418 -0.2885
  643TMC3    C5 9572   3.000   2.172   0.309  0.6886 -0.2925 -0.1856
  643TMC3    C6 9573   2.885   2.115   0.360 -0.5770  0.7428 -0.7132
  643TMC3     C 9574   3.079   2.434   0.557 -0.6600  0.6883 -0.4699
  643TMC3     O 9575   3.008   2.483   0.643  0.1435  0.4471  0.0589
  643TMC3     H 9576   2.837   2.350   0.591  2.6284 -0.5481  1.6865
  643TMC3    H1 9577   3.163   2.303   0.326 -0.1328  1.0804  0.1979
  643TMC3    H2 9578   2.816   2.060   0.297  0.3165 -1.7920  0.5005
  643TMC3    C7 9579   3.018   2.182   0.165 -0.1953  0.3454  0.0614
  643TMC3    C8 9580   2.675   2.207   0.445  0.2877 -0.6771 -0.2201
  643TMC3    O1 9581   3.049   2.291   0.120  0.3140  0.0210 -0.3875
  643TMC3    O2 9582   2.595   2.121   0.480 -0.7317  0.3163  0.3605
  644MPD2     C 9583   2.658   3.401   8.937 -0.2984 -0.5094 -0.8752
  644MPD2    C1 9584   2.552   3.314   8.919  0.3224 -0.1971  0.1831
  644MPD2    C2 9585   2.431   3.364   8.904  0.1050  0.0011 -0.2282
  644MPD2    C3 9586   2.408   3.503   8.914  0.4377 -0.2017 -0.1253
  644MPD2    C4 9587   2.511   3.580   8.954 -0.4489  0.1515 -0.1673
  644MPD2    C5 9588   2.633   3.533   8.956  0.3460 -0.7019  0.4319
  644MPD2     H 9589   2.344   3.304   8.877  0.6032 -0.7006 -0.2637
  644MPD2    H1 9590   2.509   3.685   8.979 -2.8290  0.5217 -1.8862
  644MPD2    H2 9591   2.760   3.369   8.954 -0.3030 -0.4276 -0.6903
  644MPD2    H3 9592   2.722   3.587   8.986  0.1204 -0.3596  0.4825
  644MPD2     N 9593   2.271   3.551   8.913  0.5987  0.2862  0.0469
  644MPD2    H5 9594   2.200   3.488   8.878  1.0357  0.1061 -0.5162
  644MPD2    N1 9595   2.585   3.180   8.941  0.2656  0.1370  0.4664
  644MPD2    H7 9596   2.682   3.156   8.962 -0.2107 -0.8869  1.4984
  645TMC3    C1 9597   2.089   3.681   8.959 -0.5075  0.2878  0.4302
  645TMC3    C2 9598   2.008   3.575   8.935 -0.2202  0.3117  0.4103
  645TMC3    C3 9599   1.872   3.602   8.941  0.2637  0.2210 -0.1609
  645TMC3    C4 9600   2.028   3.803   8.991 -0.3093  0.9481  0.0722
  645TMC3    C5 9601   1.894   3.817   9.006 -0.1452  0.0731 -0.6544
  645TMC3    C6 9602   1.807   3.719   8.970 -0.3302  0.4289  0.1066
  645TMC3     C 9603   2.234   3.673   8.949  0.5680  0.3388  0.2209
  645TMC3     O 9604   2.298   3.773   8.976 -0.0317 -0.3081 -0.2110
  645TMC3     H 9605   2.040   3.479   8.898  0.7589 -0.2174  2.6178
  645TMC3    H1 9606   2.085   3.889   9.024  0.7877  0.4494 -0.5040
  645TMC3    H2 9607   1.700   3.724   8.990 -0.1060 -2.8620  2.1332
  645TMC3    C7 9608   1.845   3.925   9.083 -1.0977  0.0639  0.5895
  645TMC3    C8 9609   1.782   3.498   8.886  0.0645 -0.1566  0.1065
  645TMC3    O1 9610   1.928   4.004   9.130 -0.3077 -0.3089 -0.0675
  645TMC3    O2 9611   1.675   3.543   8.843  0.4129 -0.5191  0.0920
  646MPD2     C 9612   1.907   1.953  14.350 -0.1617  0.8910 -0.5939
  646MPD2    C1 9613   1.817   1.888  14.428  0.0995  0.2697  0.4180
  646MPD2    C2 9614   1.686   1.894  14.384  0.0324  0.8331  0.2696
  646MPD2    C3 9615   1.650   1.965  14.269 -0.3503 -0.0179  0.2260
  646MPD2    C4 9616   1.744   2.033  14.190  0.0754  0.2757 -0.4399
  646MPD2    C5 9617   1.872   2.030  14.244  0.8229 -0.4005  0.0663
  646MPD2     H 9618   1.612   1.836  14.438  1.1990 -0.8794  0.0113
  646MPD2    H1 9619   1.731   2.093  14.101 -1.0313  1.9977  0.9053
  646MPD2    H2 9620   2.012   1.946  14.378 -0.0542  1.0296 -0.9538
  646MPD2    H3 9621   1.948   2.083  14.188  0.6347  0.5090  0.6869
  646MPD2     N 9622   1.509   1.980  14.243 -0.1253 -0.1662  0.3341
  646MPD2    H5 9623   1.449   1.946  14.317 -0.2443  0.2048  0.4107
  646MPD2    N1 9624   1.859   1.803  14.534  0.0484 -0.5958  0.0410
  646MPD2    H7 9625   1.954   1.770  14.530 -0.1385 -0.8352 -2.5027
  647TMC3    C1 9626   1.838   1.633  14.685 -0.2344 -0.3490  0.4079
  647TMC3    C2 9627   1.752   1.532  14.728 -0.0720  0.3482 -0.4503
  647TMC3    C3 9628   1.814   1.438  14.803  0.4140  0.7523 -0.2986
  647TMC3    C4 9629   1.972   1.639  14.731 -0.4451  0.6048 -0.2845
  647TMC3    C5 9630   2.013   1.544  14.822 -0.0628  0.0195 -0.4561
  647TMC3    C6 9631   1.940   1.442  14.853 -0.1268  0.9726  0.8147
  647TMC3     C 9632   1.777   1.759  14.634 -0.1697 -0.1969 -0.2027
  647TMC3     O 9633   1.657   1.776  14.662  0.4299 -0.1012 -0.1870
  647TMC3     H 9634   1.644   1.535  14.715  0.0900 -3.2956 -2.8521
  647TMC3    H1 9635   2.029   1.727  14.704  0.0666 -0.7736 -3.6705
  647TMC3    H2 9636   1.977   1.354  14.905 -1.6786 -1.4229 -2.1627
  647TMC3    C7 9637   2.155   1.514  14.842 -0.2237 -0.4382 -0.1682
  647TMC3    C8 9638   1.751   1.304  14.825  0.0183  0.6624  0.2130
  647TMC3    O1 9639   2.193   1.441  14.936 -0.0431  0.3946  0.9758
  647TMC3    O2 9640   1.772   1.235  14.925 -0.5042  0.2344  0.3513
  648TMC3    C1 9641   1.031   4.022  16.038 -0.0929 -0.0786  0.2939
  648TMC3    C2 9642   1.009   3.886  16.001  0.4634  0.5732 -0.2133
  648TMC3    C3 9643   1.025   3.864  15.866  0.3479 -0.2047  0.2419
  648TMC3    C4 9644   1.068   4.115  15.949 -0.4953 -0.0966  0.7505
  648TMC3    C5 9645   1.080   4.088  15.818  0.7778  0.1680  0.3456
  648TMC3    C6 9646   1.070   3.959  15.777 -0.5151 -0.1145  0.2012
  648TMC3     C 9647   1.037   4.072  16.169 -0.6018  0.2223  0.4807
  648TMC3     O 9648   1.106   4.170  16.200 -0.4355  0.8184 -0.2182
  648TMC3     H 9649   0.984   3.810  16.073  0.2623  0.5699 -0.2844
  648TMC3    H1 9650   1.080   4.217  15.985  0.2406  0.3707 -0.8232
  648TMC3    H2 9651   1.081   3.943  15.670  0.0338  1.3461  0.0512
  648TMC3    C7 9652   1.042   4.193  15.727  0.1274 -0.1720 -0.7578
  648TMC3    C8 9653   0.999   3.724  15.830 -0.3847 -0.6552  0.1148
  648TMC3    O1 9654   1.074   4.183  15.607  0.6755  0.0855 -0.7005
  648TMC3    O2 9655   0.932   3.659  15.912 -0.3273  0.5461  0.0184
  649TMC3    C1 9656   0.716   0.437  12.870  0.1913  0.5424 -0.2533
  649TMC3    C2 9657   0.829   0.356  12.865 -0.0290  0.0814  0.3473
  649TMC3    C3 9658   0.847   0.269  12.976  0.2263 -0.3823 -0.2055
  649TMC3    C4 9659   0.617   0.421  12.964 -1.0824  0.4195 -1.2219
  649TMC3    C5 9660   0.647   0.347  13.075  0.2587 -0.0095 -0.0289
  649TMC3    C6 9661   0.767   0.278  13.085 -0.9960  0.1764  0.1294
  649TMC3     C 9662   0.683   0.506  12.752 -0.2521 -0.1163  0.1185
  649TMC3     O 9663   0.565   0.536  12.744  0.4009  0.1965  0.8521
  649TMC3     H 9664   0.897   0.348  12.781 -2.8738  0.6489 -1.9976
  649TMC3    H1 9665   0.522   0.475  12.964 -0.6669  1.1470 -0.0302
  649TMC3    H2 9666   0.789   0.217  13.173  2.4817 -0.4787 -1.2244
  649TMC3    C7 9667   0.567   0.364  13.192 -0.0760  0.1435  0.4568
  649TMC3    C8 9668   0.986   0.231  13.009  0.2966  0.7763 -0.1463
  649TMC3    O1 9669   0.494   0.459  13.199 -0.1244 -0.3001  0.4756
  649TMC3    O2 9670   1.019   0.236  13.127 -0.2363 -0.3490 -0.6065
  650TMC3    C1 9671   2.871   2.596  12.712 -0.3103  0.5266 -0.2723
  650TMC3    C2 9672   2.744   2.655  12.724 -0.1653 -0.5592  1.0202
  650TMC3    C3 9673   2.647   2.620  12.629  0.5322  0.8559  0.2491
  650TMC3    C4 9674   2.901   2.515  12.610 -0.4109 -0.6668 -0.0891
  650TMC3    C5 9675   2.814   2.501  12.504  0.8687  0.4679  0.4462
  650TMC3    C6 9676   2.681   2.537  12.522 -0.1225 -0.1453 -0.6074
  650TMC3     C 9677   2.938   2.602  12.836  0.1374  0.6274 -0.6892
  650TMC3     O 9678   2.918   2.693  12.915 -0.1017 -0.7476 -0.6273
  650TMC3     H 9679   2.713   2.718  12.807  0.2840  2.7322 -1.3189
  650TMC3    H1 9680   3.003   2.490  12.585 -0.3576 -2.0219  1.4876
  650TMC3    H2 9681   2.610   2.503  12.447  0.5436  0.9761 -1.7510
  650TMC3    C7 9682   2.861   2.506  12.369  0.0608  0.6840  0.1179
  650TMC3    C8 9683   2.562   2.733  12.587  0.1181 -0.1010 -0.5267
  650TMC3    O1 9684   2.969   2.454  12.342 -0.5101 -0.5715  0.1892
  650TMC3    O2 9685   2.592   2.838  12.641  0.2106  0.4384  0.1646
  651MPD2     C 9686   1.569   0.061  10.579 -0.2500 -0.3158 -0.0288
  651MPD2    C1 9687   1.578   0.143  10.691 -0.3161 -0.4220 -0.3546
  651MPD2    C2 9688   1.701   0.203  10.716  0.3839 -0.0964  0.3868
  651MPD2    C3 9689   1.807   0.178  10.629 -0.4715  0.5124 -0.1568
  651MPD2    C4 9690   1.794   0.096  10.522  0.2514 -0.4673  0.4451
  651MPD2    C5 9691   1.675   0.028  10.498 -0.7198  0.5338  0.6773
  651MPD2     H 9692   1.714   0.277  10.794 -0.6062 -2.5471  2.8871
  651MPD2    H1 9693   1.870   0.081  10.446 -0.0095  1.6836 -0.2413
  651MPD2    H2 9694   1.485   4.735  10.560 -0.6012 -0.4684  2.1222
  651MPD2    H3 9695   1.662   4.702  10.414  1.1934  1.6410 -0.4777
  651MPD2     N 9696   1.923   0.258  10.650  0.2334 -0.0609 -0.2343
  651MPD2    H5 9697   1.919   0.329  10.723  0.9246  0.4356 -0.6794
  651MPD2    N1 9698   1.468   0.170  10.766 -0.4146  0.3749 -0.1896
  651MPD2    H7 9699   1.484   0.212  10.858  2.4988 -0.7529 -0.1855
  652TMC3    C1 9700   2.394   0.354  10.621  0.2144 -0.0033  0.7435
  652TMC3    C2 9701   2.295   0.261  10.595 -0.8469  0.7126  0.1351
  652TMC3    C3 9702   2.173   0.303  10.644  0.5383 -0.1505  0.1899
  652TMC3    C4 9703   2.379   0.473  10.690  0.2463  0.2696  0.5011
  652TMC3    C5 9704   2.258   0.496  10.750 -0.4135  0.5710  0.7995
  652TMC3    C6 9705   2.154   0.411  10.722  0.1494 -0.1925  0.2239
  652TMC3     C 9706   2.540   0.316  10.592 -0.5646 -0.0324  0.9370
  652TMC3     O 9707   2.613   0.363  10.678  0.8244  0.2380 -0.7141
  652TMC3     H 9708   2.306   0.171  10.536  1.1304 -0.2994  2.0849
  652TMC3    H1 9709   2.467   0.531  10.714 -1.4728  2.6801  0.9744
  652TMC3    H2 9710   2.056   0.444  10.755  0.0886 -0.6771  0.5290
  652TMC3    C7 9711   2.214   0.640  10.753 -0.0540 -0.5300 -0.4600
  652TMC3    C8 9712   2.048   0.227  10.595 -0.4837 -0.3291  0.3915
  652TMC3    O1 9713   2.120   0.670  10.825 -0.3403 -0.3073  0.4171
  652TMC3    O2 9714   2.070   0.149  10.502  0.5554 -0.2192  0.1662
  653MPD2     C 9715   0.276   4.351  17.741 -0.1928 -0.3203  0.0208
  653MPD2    C1 9716   0.321   4.408  17.624  0.2981 -0.0352  1.0046
  653MPD2    C2 9717   0.322   4.332  17.508 -0.8615  0.0941  0.1579
  653MPD2    C3 9718   0.293   4.200  17.511 -0.0259 -0.2938 -0.2269
  653MPD2    C4 9719   0.257   4.139  17.638 -0.3421 -0.5841 -0.7682
  653MPD2    C5 9720   0.239   4.224  17.745 -0.3732  0.3414  0.3165
  653MPD2     H 9721   0.353   4.371  17.412 -0.3462  1.2697  0.8098
  653MPD2    H1 9722   0.233   4.035  17.657  0.7720 -0.8146 -0.6075
  653MPD2    H2 9723   0.254   4.417   0.063 -0.5880 -0.5110  0.0675
  653MPD2    H3 9724   0.193   4.188   0.075  0.6653  1.0210  1.1130
  653MPD2     N 9725   0.283   4.130  17.392 -0.2746  0.1193  0.1113
  653MPD2    H5 9726   0.271   4.181  17.305  1.7800  2.9480  1.4873
  653MPD2    N1 9727   0.375   4.537  17.616  0.8358 -0.2869  0.0197
  653MPD2    H7 9728   0.410   4.558  17.523 -0.7831 -0.4754 -0.6417
  654TMC3    C1 9729   0.213   3.960  17.259  0.2708  0.3068  0.1549
  654TMC3    C2 9730   0.104   4.035  17.218 -0.5734  0.0354 -0.3157
  654TMC3    C3 9731   0.010   3.972  17.141  0.0905  0.6455 -0.5164
  654TMC3    C4 9732   0.229   3.828  17.225  0.5689 -0.0154 -0.6642
  654TMC3    C5 9733   0.136   3.773  17.143  0.1744 -0.1872  0.1197
  654TMC3    C6 9734   0.032   3.843  17.101  0.3967  0.1024 -0.5960
  654TMC3     C 9735   0.278   3.992  17.381 -0.1542 -0.5276  0.6719
  654TMC3     O 9736   0.304   3.906  17.461  0.4721 -0.8174 -0.1584
  654TMC3     H 9737   0.080   4.133  17.256 -2.0022 -0.7933  0.8761
  654TMC3    H1 9738   0.322   3.779  17.254  0.9702  1.0150 -0.2039
  654TMC3    H2 9739   4.702   3.791  17.038 -0.7509  0.3690  0.4627
  654TMC3    C7 9740   0.150   3.634  17.101  0.1686 -0.3304 -0.5043
  654TMC3    C8 9741   4.639   4.052  17.086  0.1407  0.4056  0.7685
  654TMC3    O1 9742   0.068   3.598  17.012  0.3480  0.3890 -0.0833
  654TMC3    O2 9743   4.623   4.169  17.112 -0.8037 -0.0762  0.2429
  655MPD2     C 9744   1.422   3.916  15.885  0.2746 -0.0821  0.2556
  655MPD2    C1 9745   1.414   4.012  15.785  1.1996 -0.0695 -0.1079
  655MPD2    C2 9746   1.403   3.969  15.656  0.0518 -0.2088 -0.1865
  655MPD2    C3 9747   1.410   3.837  15.619  0.6246  0.1435 -0.3191
  655MPD2    C4 9748   1.422   3.736  15.716 -0.7357  0.5545  0.5984
  655MPD2    C5 9749   1.439   3.782  15.844  0.2485  0.6169  0.7507
  655MPD2     H 9750   1.378   4.042  15.580  0.0414  0.3532  0.3594
  655MPD2    H1 9751   1.432   3.632  15.688  0.2857  0.3308  1.7697
  655MPD2    H2 9752   1.437   3.942  15.989 -0.8957  1.4792  0.0221
  655MPD2    H3 9753   1.461   3.715  15.926 -1.9734 -2.5889 -1.2346
  655MPD2     N 9754   1.427   3.792  15.485  0.3237 -0.2699 -0.8876
  655MPD2    H5 9755   1.449   3.697  15.459  0.1830 -0.3393 -0.7470
  655MPD2    N1 9756   1.403   4.151  15.816 -0.8368  0.4212 -0.7013
  655MPD2    H7 9757   1.383   4.212  15.737  0.0076 -0.2616 -1.4355
  656TMC3    C1 9758   1.390   4.351  15.931 -0.5945  0.1833  1.1601
  656TMC3    C2 9759   1.304   4.397  16.024  0.1408  0.0846  1.2574
  656TMC3    C3 9760   1.275   4.534  16.021 -0.2733  0.3237 -0.1164
  656TMC3    C4 9761   1.437   4.426  15.825  0.4231  0.2577  0.6446
  656TMC3    C5 9762   1.398   4.559  15.828 -0.7400  0.5934 -0.2709
  656TMC3    C6 9763   1.315   4.616  15.922 -0.2276  0.3398 -0.1766
  656TMC3     C 9764   1.411   4.207  15.943 -0.9153  0.2155  0.0095
  656TMC3     O 9765   1.433   4.168  16.053 -0.1206  0.2059  0.4025
  656TMC3     H 9766   1.267   4.322  16.093 -0.2890  0.2783  1.2344
  656TMC3    H1 9767   1.505   4.388  15.751 -1.0848  1.2771 -1.2586
  656TMC3    H2 9768   1.286   4.719  15.909 -0.1631  0.1883 -1.5984
  656TMC3    C7 9769   1.395   4.618  15.698  0.1963  0.0911 -0.3237
  656TMC3    C8 9770   1.146   4.563  16.087  0.0291 -0.8616 -0.0392
  656TMC3    O1 9771   1.475   4.570  15.617 -0.0207  0.3556  0.1357
  656TMC3    O2 9772   1.072   4.471  16.102 -0.1295 -0.0000  0.4598
  657TMC3    C1 9773   0.262   3.033  15.093  0.1957 -1.0486  0.0931
  657TMC3    C2 9774   0.308   3.071  15.222  0.3835 -0.4120  0.0050
  657TMC3    C3 9775   0.311   3.197  15.260  0.0501 -0.0202 -0.4026
  657TMC3    C4 9776   0.221   3.125  15.002  0.2702 -0.6290  0.4005
  657TMC3    C5 9777   0.220   3.257  15.046 -0.1191 -0.4451  0.2261
  657TMC3    C6 9778   0.264   3.294  15.174 -0.0380  0.6186 -0.6602
  657TMC3     C 9779   0.325   2.914  15.054  0.2864 -0.2841 -0.0116
  657TMC3     O 9780   0.374   2.849  15.143 -0.2223  0.1636 -0.3225
  657TMC3     H 9781   0.318   2.999  15.302  1.6987  0.0875  0.2854
  657TMC3    H1 9782   0.181   3.094  14.906  0.0774  0.9015 -0.0137
  657TMC3    H2 9783   0.272   3.398  15.204 -0.9620  0.0583  1.5461
  657TMC3    C7 9784   0.183   3.359  14.951  0.0208 -0.2967  0.4672
  657TMC3    C8 9785   0.375   3.230  15.387  0.1986  0.4386  0.4942
  657TMC3    O1 9786   0.232   3.472  14.976 -0.2546 -0.0536 -0.1939
  657TMC3    O2 9787   0.451   3.147  15.435 -0.0849  0.1110  0.2522
  658MPD2     C 9788   1.742   3.752  14.660  0.1546  0.7251 -0.1442
  658MPD2    C1 9789   1.664   3.852  14.716 -0.1676 -0.1255  0.4012
  658MPD2    C2 9790   1.673   3.978  14.660  0.2186 -0.2556 -0.5838
  658MPD2    C3 9791   1.771   4.001  14.565  0.5534 -0.2022 -0.9823
  658MPD2    C4 9792   1.854   3.904  14.524  0.7354  0.1585 -0.4519
  658MPD2    C5 9793   1.834   3.777  14.562 -0.2514  0.1395  0.4619
  658MPD2     H 9794   1.600   4.054  14.683 -1.1071 -0.9569 -2.4318
  658MPD2    H1 9795   1.939   3.917  14.457 -0.4162  2.1425 -1.5119
  658MPD2    H2 9796   1.749   3.649  14.694  2.3590  0.0306 -2.6461
  658MPD2    H3 9797   1.896   3.695  14.527 -1.3203 -0.3668 -0.2244
  658MPD2     N 9798   1.767   4.133  14.507 -0.1150  0.3232  0.1480
  658MPD2    H5 9799   1.691   4.192  14.538 -0.6482 -2.2378  3.7659
  658MPD2    N1 9800   1.578   3.823  14.822 -0.1916  0.2589  0.1971
  658MPD2    H7 9801   1.561   3.725  14.842  0.1841  0.2637  0.5503
  659TMC3    C1 9802   1.470   3.838  15.015  0.2305 -0.0698  0.4946
  659TMC3    C2 9803   1.481   3.892  15.136  0.2219 -0.2496 -0.1350
  659TMC3    C3 9804   1.442   3.816  15.247 -0.0063  0.9731 -0.4485
  659TMC3    C4 9805   1.407   3.715  14.995 -0.1782  0.4784  0.0995
  659TMC3    C5 9806   1.386   3.638  15.104 -0.0912  0.3388 -0.2959
  659TMC3    C6 9807   1.404   3.684  15.230  0.1774 -0.5434  0.3190
  659TMC3     C 9808   1.529   3.920  14.909  0.7955 -0.0931 -0.3456
  659TMC3     O 9809   1.555   4.039  14.917  0.0851 -0.2255  0.1103
  659TMC3     H 9810   1.511   3.996  15.140 -0.1819 -0.1000 -1.0285
  659TMC3    H1 9811   1.375   3.690  14.894  1.4616 -3.3435  0.5521
  659TMC3    H2 9812   1.359   3.624  15.309 -1.0904  1.6815  1.3031
  659TMC3    C7 9813   1.300   3.521  15.084 -0.5058 -0.0673  0.3179
  659TMC3    C8 9814   1.419   3.878  15.371  1.1511  0.7993 -0.2752
  659TMC3    O1 9815   1.233   3.477  15.178 -0.3470  0.6213  0.0351
  659TMC3    O2 9816   1.433   3.997  15.364  0.2068 -0.1568 -0.8702
  660MPD2     C 9817   4.384   3.485  12.510  0.2166 -0.2418  0.4297
  660MPD2    C1 9818   4.240   3.497  12.519 -0.1732 -1.2453  0.3975
  660MPD2    C2 9819   4.182   3.436  12.632  0.2807 -0.5325 -0.3767
  660MPD2    C3 9820   4.257   3.367  12.735  0.1631 -0.1143  0.3756
  660MPD2    C4 9821   4.395   3.371  12.717  0.6462  0.5510 -0.6315
  660MPD2    C5 9822   4.455   3.421  12.611 -0.0453  0.5119 -0.4607
  660MPD2     H 9823   4.074   3.423  12.628  0.1523  0.9359 -2.0364
  660MPD2    H1 9824   4.454   3.327  12.797 -1.2646  1.5197  1.3041
  660MPD2    H2 9825   4.427   3.517  12.415 -3.3273  0.5819 -0.9218
  660MPD2    H3 9826   4.563   3.425  12.612 -0.0344 -0.1926  0.7360
  660MPD2     N 9827   4.199   3.318  12.848 -0.6452  0.2985  0.4539
  660MPD2    H5 9828   4.261   3.265  12.909  1.6994  2.8716  0.2815
  660MPD2    N1 9829   4.164   3.563  12.424 -0.5523  0.0863  0.1453
  660MPD2    H7 9830   4.205   3.595  12.337 -2.6564  1.0296 -0.4960
  661TMC3    C1 9831   3.959   3.636  12.326 -0.3280  0.2125  0.2681
  661TMC3    C2 9832   4.016   3.697  12.216  0.0954  0.0658 -0.0085
  661TMC3    C3 9833   3.948   3.684  12.103 -0.1958 -0.6018 -0.0664
  661TMC3    C4 9834   3.837   3.574  12.315 -0.2008  0.3112  0.1661
  661TMC3    C5 9835   3.772   3.564  12.203  0.3091  0.5907 -0.2867
  661TMC3    C6 9836   3.827   3.607  12.087 -0.0169 -0.6888 -0.4682
  661TMC3     C 9837   4.038   3.611  12.449  0.5307 -0.0687 -0.0387
  661TMC3     O 9838   3.979   3.614  12.552  0.3305  0.1659 -0.1081
  661TMC3     H 9839   4.107   3.756  12.221  0.1867 -0.1601  1.0001
  661TMC3    H1 9840   3.801   3.535  12.409  2.7412 -2.1588  0.2561
  661TMC3    H2 9841   3.776   3.613  11.991 -0.4273 -0.9994 -0.2721
  661TMC3    C7 9842   3.647   3.494  12.220  0.1634 -0.1726 -0.6438
  661TMC3    C8 9843   3.991   3.777  11.999  0.0103  0.6624 -0.2619
  661TMC3    O1 9844   3.610   3.455  12.332 -0.4684 -0.2295  0.6132
  661TMC3    O2 9845   3.967   3.755  11.881  0.3938 -0.6124  0.4519
  662MPD2     C 9846   4.686   3.061  16.993  0.9146  1.2755  0.4184
  662MPD2    C1 9847   4.734   2.966  17.081 -0.0864 -0.7560 -0.2871
  662MPD2    C2 9848   4.675   2.951  17.205  0.3615 -0.5132  0.6056
  662MPD2    C3 9849   4.578   3.039  17.246 -0.3416  0.2194 -0.2430
  662MPD2    C4 9850   4.530   3.133  17.164  0.6746 -0.2214 -0.3101
  662MPD2    C5 9851   4.587   3.147  17.036 -0.0742  0.5953  0.0462
  662MPD2     H 9852   4.719   2.886  17.280 -1.2279 -2.0208  0.2279
  662MPD2    H1 9853   4.457   3.204  17.200  1.2859 -0.2430  0.9803
  662MPD2    H2 9854   4.720   3.073  16.891  1.2920 -1.3811  0.2265
  662MPD2    H3 9855   4.542   3.221  16.971 -1.1648 -1.2703 -1.3402
  662MPD2     N 9856   4.530   3.045  17.378  0.4857 -0.6889  0.0487
  662MPD2    H5 9857   4.458   3.113  17.400 -0.9921 -2.6549  1.3407
  662MPD2    N1 9858   0.093   2.868  17.048 -0.5842 -1.0208  0.5380
  662MPD2    H7 9859   0.121   2.801  17.119  0.7217 -0.2132  0.7701
  663TMC3    C1 9860   0.279   2.782  16.925 -0.5675 -0.1747  0.6514
  663TMC3    C2 9861   0.348   2.750  17.041  0.4074  0.1504  0.3909
  663TMC3    C3 9862   0.473   2.698  17.036 -0.6327  0.8573 -0.0748
  663TMC3    C4 9863   0.326   2.744  16.802 -0.5286 -0.0807  0.3943
  663TMC3    C5 9864   0.434   2.663  16.803  0.3203 -0.1228  0.2977
  663TMC3    C6 9865   0.501   2.633  16.916 -0.0309 -0.7129 -0.4395
  663TMC3     C 9866   0.165   2.869  16.932 -0.0115 -0.2800  0.1061
  663TMC3     O 9867   0.151   2.933  16.830  0.2930 -0.2895  0.3825
  663TMC3     H 9868   0.318   2.807  17.129  0.7486 -0.3005  0.7945
  663TMC3    H1 9869   0.270   2.772  16.713 -0.2451 -3.8884 -0.9845
  663TMC3    H2 9870   0.597   2.583  16.907  0.2111 -0.1921 -0.7543
  663TMC3    C7 9871   0.409   2.540  16.726  0.2659  0.1742 -0.3227
  663TMC3    C8 9872   0.476   2.591  17.132 -0.7384  0.2605 -0.7494
  663TMC3    O1 9873   0.353   2.555  16.618  0.0289 -0.8154  0.0454
  663TMC3    O2 9874   0.476   2.474  17.086  0.1354  0.2935  0.0082
  664MPD2     C 9875   3.126   1.484  16.625  0.3770 -0.0310 -0.7776
  664MPD2    C1 9876   3.235   1.532  16.694  0.2175  0.4151 -0.3068
  664MPD2    C2 9877   3.229   1.536  16.831  0.7227  0.2528 -0.5545
  664MPD2    C3 9878   3.117   1.491  16.897 -0.0542 -0.7895  0.1433
  664MPD2    C4 9879   3.009   1.448  16.829  0.0066  0.1556  0.1867
  664MPD2    C5 9880   3.015   1.442  16.694 -0.2267 -0.5076  0.1833
  664MPD2     H 9881   3.314   1.568  16.891  0.4701  2.0455 -1.1630
  664MPD2    H1 9882   2.915   1.408  16.864  0.3096 -2.7442 -2.2423
  664MPD2    H2 9883   3.106   1.494  16.519 -2.9742  1.3443  0.0058
  664MPD2    H3 9884   2.931   1.417  16.631  0.1260 -2.6004  0.5644
  664MPD2     N 9885   3.113   1.504  17.039 -0.0477  0.6885  0.1645
  664MPD2    H5 9886   3.199   1.535  17.083 -0.0872 -0.3728  0.9622
  664MPD2    N1 9887   3.355   1.573  16.623 -0.5114  0.0800 -0.0651
  664MPD2    H7 9888   3.437   1.610  16.670 -0.2613 -2.3994  1.4528
  665TMC3    C1 9889   3.047   1.448  17.261  0.2601  0.4447 -0.0244
  665TMC3    C2 9890   2.974   1.363  17.343 -0.1330 -0.2839  0.0332
  665TMC3    C3 9891   2.989   1.378  17.478  0.0143  0.1178 -0.5020
  665TMC3    C4 9892   3.135   1.544  17.308  0.5070  0.7179  0.4841
  665TMC3    C5 9893   3.146   1.552  17.447 -0.3837 -0.0625 -0.5918
  665TMC3    C6 9894   3.065   1.476  17.531  0.3119 -0.7990  0.1373
  665TMC3     C 9895   3.016   1.447  17.121 -0.4625  0.9211  0.0736
  665TMC3     O 9896   2.912   1.392  17.090  0.4348  0.0428  0.3255
  665TMC3     H 9897   2.902   1.291  17.305 -0.3652 -0.3600  0.6149
  665TMC3    H1 9898   3.196   1.614  17.251  0.9105  0.4105  0.5373
  665TMC3    H2 9899   3.077   1.469  17.639  0.0878  0.9573  0.2649
  665TMC3    C7 9900   3.233   1.663  17.497 -0.4605  0.3865 -0.2230
  665TMC3    C8 9901   2.901   1.303  17.568 -0.1259 -0.0077 -0.2585
  665TMC3    O1 9902   3.288   1.738  17.415 -0.2658 -0.3837  0.4967
  665TMC3    O2 9903   2.893   1.182  17.565  0.7022 -0.0422 -0.2211
  666TMC3    C1 9904   2.195   1.948   9.470 -0.2608 -0.2634  0.1882
  666TMC3    C2 9905   2.285   1.853   9.513 -0.3622  0.3514 -0.1887
  666TMC3    C3 9906   2.404   1.897   9.558  0.1890  0.6906  0.3848
  666TMC3    C4 9907   2.228   2.083   9.472  0.2305  0.0899 -0.8464
  666TMC3    C5 9908   2.354   2.127   9.516  0.3683 -0.7739 -0.1123
  666TMC3    C6 9909   2.436   2.028   9.565  0.0949  0.4849 -0.6559
  666TMC3     C 9910   2.061   1.907   9.428 -0.6237  0.0396  0.4431
  666TMC3     O 9911   1.989   1.998   9.401 -0.6801 -0.4262 -0.0703
  666TMC3     H 9912   2.263   1.747   9.512 -3.4032  0.9901 -2.5702
  666TMC3    H1 9913   2.164   2.156   9.423  0.6537  0.0187 -1.5039
  666TMC3    H2 9914   2.539   2.062   9.573  0.5186 -1.0714  0.3931
  666TMC3    C7 9915   2.359   2.245   9.599 -0.3312  0.2434 -0.0298
  666TMC3    C8 9916   2.501   1.800   9.627  0.8808  0.0533 -0.1508
  666TMC3    O1 9917   2.425   2.243   9.704  0.2524  0.0348  0.4993
  666TMC3    O2 9918   2.473   1.680   9.638  0.2416 -0.2919  0.1330
  667MPD2     C 9919   3.660   0.878  14.894  0.5539  0.1639  0.1186
  667MPD2    C1 9920   3.554   0.937  14.968 -0.0900  0.2306 -0.3231
  667MPD2    C2 9921   3.425   0.920  14.919 -0.6209  0.1110 -0.0630
  667MPD2    C3 9922   3.397   0.849  14.804  0.2088  0.3187 -0.2735
  667MPD2    C4 9923   3.499   0.800  14.735  0.1309  0.6278  0.8560
  667MPD2    C5 9924   3.624   0.810  14.779 -0.3273  0.2671 -0.4451
  667MPD2     H 9925   3.345   0.967  14.975 -1.2104 -1.2859  0.2710
  667MPD2    H1 9926   3.476   0.739  14.648 -0.0881 -0.3224  1.5816
  667MPD2    H2 9927   3.765   0.876  14.920  0.9089  0.6983 -1.2512
  667MPD2    H3 9928   3.701   0.762  14.719 -0.8137 -0.2236 -0.6729
  667MPD2     N 9929   3.268   0.847  14.748 -0.1169  0.2196  0.3341
  667MPD2    H5 9930   3.271   0.831  14.647  0.2874 -0.0577  0.3900
  667MPD2    N1 9931   3.576   0.989  15.095  0.0275  0.0261  0.4182
  667MPD2    H7 9932   3.496   1.021  15.148  0.7400  0.9869  0.9179
  668TMC3    C1 9933   3.688   1.112  15.262 -0.5986 -0.1561  0.2057
  668TMC3    C2 9934   3.790   1.206  15.273  0.1474  0.6709  0.6840
  668TMC3    C3 9935   3.831   1.254  15.396 -0.4762  0.8586 -0.0133
  668TMC3    C4 9936   3.634   1.052  15.371  0.2859  0.6118 -0.0512
  668TMC3    C5 9937   3.692   1.092  15.492  0.4648 -0.5883 -0.4529
  668TMC3    C6 9938   3.776   1.198  15.512  1.0817 -0.2426  0.4737
  668TMC3     C 9939   3.696   1.043  15.140 -0.0309  0.2052  0.1232
  668TMC3     O 9940   3.807   1.045  15.088  0.1629  0.8363 -0.1821
  668TMC3     H 9941   3.832   1.254  15.185 -1.3000  0.5795 -0.0526
  668TMC3    H1 9942   3.595   0.951  15.361  0.8778  0.2847  0.9387
  668TMC3    H2 9943   3.810   1.233  15.609  1.5792 -2.4898  1.0958
  668TMC3    C7 9944   3.641   1.022  15.614  0.0468 -0.1206  0.1354
  668TMC3    C8 9945   3.900   1.381  15.403 -0.4723  0.1604 -0.4059
  668TMC3    O1 9946   3.584   0.916  15.598 -0.1779  0.2160  0.4267
  668TMC3    O2 9947   3.879   1.442  15.510  0.5434  0.8429 -0.0960
  669TMC3    C1 9948   1.555   1.236  14.024  0.3474  0.3032 -0.6235
  669TMC3    C2 9949   1.485   1.243  13.907 -0.4702 -0.0787 -0.1820
  669TMC3    C3 9950   1.532   1.329  13.808  0.3870  1.0068  0.2896
  669TMC3    C4 9951   1.674   1.306  14.040  0.8302 -0.5089 -0.1461
  669TMC3    C5 9952   1.715   1.387  13.937 -0.5509 -0.4683 -0.3310
  669TMC3    C6 9953   1.653   1.402  13.818  0.7426  0.1839 -0.6401
  669TMC3     C 9954   1.519   1.127  14.116 -1.3103  0.4018 -0.1307
  669TMC3     O 9955   1.422   1.063  14.090  0.0572 -0.2160  0.4530
  669TMC3     H 9956   1.389   1.193  13.912  1.2604 -3.2689  0.7037
  669TMC3    H1 9957   1.735   1.310  14.130 -1.0017 -1.1868  1.1313
  669TMC3    H2 9958   1.684   1.467  13.738  0.3094  0.9713 -0.1646
  669TMC3    C7 9959   1.857   1.431  13.948  0.0246 -0.9807 -0.5553
  669TMC3    C8 9960   1.441   1.334  13.698 -0.6565  0.3298 -0.0192
  669TMC3    O1 9961   1.918   1.421  14.051  0.3718 -0.0158 -0.3220
  669TMC3    O2 9962   1.371   1.235  13.678 -0.5956  0.0411 -0.4312
  670MPD2     C 9963   4.452   3.574  13.440 -0.0149 -0.1905 -0.4076
  670MPD2    C1 9964   4.552   3.493  13.489  0.0038 -0.0633  0.4650
  670MPD2    C2 9965   4.537   3.430  13.615 -0.3895  0.6067  0.5908
  670MPD2    C3 9966   4.419   3.437  13.691  0.3366 -0.5347 -0.7689
  670MPD2    C4 9967   4.315   3.508  13.635  0.6008  0.6672 -0.7508
  670MPD2    C5 9968   4.338   3.575  13.517 -0.0594 -0.0689 -0.4944
  670MPD2     H 9969   4.623   3.400  13.675  0.0775 -0.8048 -0.7880
  670MPD2    H1 9970   4.219   3.516  13.684  1.4597  1.6768  0.7765
  670MPD2    H2 9971   4.457   3.622  13.343  1.8390  1.6895  0.6231
  670MPD2    H3 9972   4.252   3.622  13.470 -1.8401 -2.5264  0.3434
  670MPD2     N 9973   4.414   3.379  13.817  0.4219 -0.1445 -0.2660
  670MPD2    H5 9974   4.501   3.342  13.853 -1.2925 -2.9089  1.0281
  670MPD2    N1 9975   4.675   3.483  13.430 -0.1313  0.0710  0.1888
  670MPD2    H7 9976   0.008   3.443  13.486 -0.7048 -1.4099 -0.1039
  671TMC3    C1 9977   4.339   3.325  14.036  0.0038 -0.3657 -0.7032
  671TMC3    C2 9978   4.469   3.294  14.061 -0.2016 -0.3145 -0.3822
  671TMC3    C3 9979   4.494   3.200  14.150  0.0083  0.0858 -0.1771
  671TMC3    C4 9980   4.234   3.272  14.103  0.0844 -0.8721  0.0571
  671TMC3    C5 9981   4.261   3.178  14.188 -0.3298  0.1406  0.4718
  671TMC3    C6 9982   4.389   3.134  14.210  0.1272 -0.4312  0.8825
  671TMC3     C 9983   4.303   3.372  13.903 -0.2570 -0.0746  0.1392
  671TMC3     O 9984   4.182   3.378  13.876 -0.1883  0.5343 -0.1185
  671TMC3     H 9985   4.549   3.361  14.033  1.2280 -1.0924  1.8564
  671TMC3    H1 9986   4.135   3.310  14.081  0.0998 -0.2029  1.1851
  671TMC3    H2 9987   4.400   3.059  14.288 -1.4557 -1.0746  0.4964
  671TMC3    C7 9988   4.171   3.125  14.288 -0.2497 -0.2421  0.4127
  671TMC3    C8 9989   4.624   3.147  14.154  0.2950 -0.1526 -0.3343
  671TMC3    O1 9990   4.213   3.122  14.402  0.3326  0.3300  0.9144
  671TMC3    O2 9991   4.701   3.196  14.074  0.2278 -0.6624 -0.4412
  672MPD2     C 9992   0.809   4.043   0.211  0.4425 -0.1657  0.0185
  672MPD2    C1 9993   0.846   3.993   0.338  0.3240  0.4889  0.0380
  672MPD2    C2 9994   0.962   4.031   0.401 -0.2682 -0.4963 -0.1450
  672MPD2    C3 9995   1.039   4.119   0.331  0.2912 -0.1029 -0.0071
  672MPD2    C4 9996   0.997   4.174   0.216 -0.2921  0.4718 -0.2182
  672MPD2    C5 9997   0.885   4.142   0.155 -0.1625 -0.3421  0.4902
  672MPD2     H 9998   0.992   3.996   0.500 -0.7558 -2.5143 -0.7077
  672MPD2    H1 9999   1.056   4.247   0.160  0.2063  1.2186  1.2722
  672MPD2    H210000   0.709   4.023   0.174 -1.1018  1.6299  3.2265
  672MPD2    H310001   0.852   4.193   0.065  0.7307  0.6054  0.6883
  672MPD2     N10002   1.165   4.157   0.381  0.4918  0.3480 -0.0060
  672MPD2    H510003   1.215   4.228   0.329  0.1626  0.1825 -0.5472
  672MPD2    N110004   0.763   3.903   0.413  0.1271  0.1369  0.6533
  672MPD2    H710005   0.803   3.851   0.490  0.7792  1.4669  1.2232
  673TMC3    C110006   0.565   3.797   0.494  0.6802  0.4176 -0.0155
  673TMC3    C210007   0.612   3.672   0.498 -0.5063  0.1405  0.1943
  673TMC3    C310008   0.530   3.571   0.537 -0.2317 -0.4349 -0.3983
  673TMC3    C410009   0.428   3.815   0.507  0.1810 -0.2270  0.1908
  673TMC3    C510010   0.347   3.709   0.529  0.2400 -0.0107  0.4319
  673TMC3    C610011   0.397   3.585   0.554  0.1165  0.1193 -0.0014
  673TMC3     C10012   0.635   3.895   0.400  0.5998 -0.2398 -0.1799
  673TMC3     O10013   0.567   3.959   0.326 -0.2748  0.0207  0.0950
  673TMC3     H10014   0.719   3.653   0.493 -0.5084  0.1784  0.0141
  673TMC3    H110015   0.403   3.920   0.497 -2.1915 -0.9179 -1.3044
  673TMC3    H210016   0.331   3.499   0.561  1.7192 -0.9595  1.7530
  673TMC3    C710017   0.204   3.734   0.554 -0.4785 -0.3704 -0.1128
  673TMC3    C810018   0.588   3.439   0.531  0.5908  0.4839 -0.1605
  673TMC3    O110019   0.137   3.664   0.628 -0.4539 -0.3832  0.0309
  673TMC3    O210020   0.527   3.358   0.467 -0.7380  0.5673  0.0037
  674MPD2     C10021   4.739   3.365  17.330  0.6791 -0.0228  0.4021
  674MPD2    C110022   0.055   3.345  17.454 -0.4880  0.3462 -0.1751
  674MPD2    C210023   0.045   3.450  17.543  0.0403 -0.3480  0.4565
  674MPD2    C310024   4.729   3.574  17.506  0.1019 -0.9968 -0.3719
  674MPD2    C410025   4.672   3.586  17.378  0.2508  0.7362 -0.6775
  674MPD2    C510026   4.679   3.482  17.292  0.3501  0.2961 -0.2945
  674MPD2     H10027   0.057   3.428  17.649  0.7752  2.2002  0.9164
  674MPD2    H110028   4.619   3.674  17.342 -4.2576 -0.0169  4.2088
  674MPD2    H210029   4.740   3.281  17.262 -0.2020 -1.1241  1.7477
  674MPD2    H310030   4.641   3.490  17.191  0.8032 -1.1037 -0.5657
  674MPD2     N10031   4.731   3.685  17.591 -0.0282  0.0162 -0.3869
  674MPD2    H510032   0.018   3.655  17.684 -1.2585 -0.9210 -0.3169
  674MPD2    N110033   0.099   3.216  17.488  0.3052  0.0531 -0.0359
  674MPD2    H710034   0.078   3.153  17.411  1.9845 -0.8498  0.2456
  675TMC3    C110035   0.209   3.257  17.715  0.2421 -0.5849  0.2825
  675TMC3    C210036   0.189   3.203   0.084 -0.0302  0.2248  0.1271
  675TMC3    C310037   0.271   3.238   0.190 -0.8666 -0.2145 -0.4516
  675TMC3    C410038   0.303   3.349  17.699 -0.6046  0.5949  0.2851
  675TMC3    C510039   0.362   3.393   0.050 -0.3853 -0.1910 -0.2741
  675TMC3    C610040   0.361   3.338   0.172 -0.4155  0.1415 -0.8221
  675TMC3     C10041   0.150   3.168  17.609 -0.5602  0.0313  0.0236
  675TMC3     O10042   0.160   3.048  17.632 -0.7099  0.0743 -0.2104
  675TMC3     H10043   0.127   3.114   0.083 -0.2314  0.3649  0.2129
  675TMC3    H110044   0.313   3.394  17.601  0.5186  0.6091  0.4104
  675TMC3    H210045   0.394   3.388   0.263 -2.6152 -0.3205  0.2196
  675TMC3    C710046   0.475   3.479   0.018 -0.1133  0.5832  0.2504
  675TMC3    C810047   0.220   3.198   0.323  0.9928 -0.5268 -0.6059
  675TMC3    O110048   0.476   3.546  17.675  0.3283 -0.6819  0.1400
  675TMC3    O210049   0.115   3.138   0.325  0.2993  0.3325  0.3233
  676MPD2     C10050   3.080   2.566  11.068 -0.0553 -0.1285 -0.8333
  676MPD2    C110051   2.979   2.500  11.138  0.4634 -0.3053 -0.3482
  676MPD2    C210052   2.973   2.367  11.128  0.0374 -0.0612 -0.2196
  676MPD2    C310053   3.065   2.289  11.056  0.3127  0.3289 -0.1710
  676MPD2    C410054   3.157   2.359  10.979  0.9902 -0.2440  0.1946
  676MPD2    C510055   3.172   2.492  10.997  0.0972 -0.3725  0.6520
  676MPD2     H10056   2.883   2.321  11.167  0.9490 -1.6240  0.0720
  676MPD2    H110057   3.218   2.306  10.907 -1.2817 -1.0882 -1.1233
  676MPD2    H210058   3.099   2.672  11.068 -0.1852 -0.0935 -4.0940
  676MPD2    H310059   3.247   2.542  10.936 -1.6994  0.6966 -0.6661
  676MPD2     N10060   3.051   2.147  11.035  0.7471  0.8140 -0.0146
  676MPD2    H510061   3.121   2.103  10.976 -1.1702 -1.3115 -0.6585
  676MPD2    N110062   2.901   2.572  11.233 -0.1662 -0.3859  0.0504
  676MPD2    H710063   2.828   2.522  11.282 -0.5587  1.6661  1.5667
  677TMC3    C110064   2.809   2.751  11.363  0.5360 -0.8079 -0.0827
  677TMC3    C210065   2.720   2.658  11.416 -0.0350  0.0817  0.7829
  677TMC3    C310066   2.633   2.698  11.512  0.1489 -0.1420  0.0603
  677TMC3    C410067   2.820   2.868  11.417 -0.7268 -0.0534  0.2313
  677TMC3    C510068   2.731   2.909  11.516 -0.3053 -0.4302  1.1296
  677TMC3    C610069   2.634   2.826  11.565  0.5138 -0.3422  0.3022
  677TMC3     C10070   2.901   2.713  11.261 -0.5268  0.3770 -0.3678
  677TMC3     O10071   2.983   2.795  11.226 -0.1987 -0.1349  0.0743
  677TMC3     H10072   2.715   2.554  11.384  0.6214 -0.0456  1.1036
  677TMC3    H110073   2.900   2.933  11.384  0.8009 -1.2312  1.5909
  677TMC3    H210074   2.575   2.872  11.644  1.1535 -1.9496  1.7294
  677TMC3    C710075   2.775   3.016  11.605  0.6890  0.5127 -0.0949
  677TMC3    C810076   2.609   2.588  11.608  0.1620  0.1215  0.4902
  677TMC3    O110077   2.754   3.000  11.726 -1.0016 -0.7758 -0.5763
  677TMC3    O210078   2.646   2.473  11.582 -0.0626 -0.2264  0.6154
  678MPD2     C10079   4.011   2.618   1.132  0.1126 -0.3390  0.1307
  678MPD2    C110080   4.043   2.517   1.043  0.0404  0.3089 -0.0113
  678MPD2    C210081   3.933   2.455   0.973 -0.5358 -0.0911 -0.6888
  678MPD2    C310082   3.806   2.490   0.999  0.0442  0.5010 -0.4002
  678MPD2    C410083   3.779   2.589   1.094 -0.2610  0.3230  0.3272
  678MPD2    C510084   3.884   2.655   1.152 -0.4387  0.6455  0.0210
  678MPD2     H10085   3.956   2.384   0.895 -1.0681  0.6134 -1.4882
  678MPD2    H110086   3.676   2.619   1.107 -0.6459 -1.3511  1.0132
  678MPD2    H210087   4.086   2.675   1.186 -0.1414 -0.9231  1.0999
  678MPD2    H310088   3.866   2.744   1.211 -1.7380  1.0078 -0.9033
  678MPD2     N10089   3.710   2.411   0.935  0.4856  1.0661 -0.8420
  678MPD2    H510090   3.751   2.338   0.878 -0.8644 -0.6798  0.4037
  678MPD2    N110091   4.173   2.480   1.020  0.0082  0.0529 -0.6003
  678MPD2    H710092   4.178   2.405   0.952  0.1825 -0.9647  0.5354
  679TMC3    C110093   4.514   2.239   1.009  0.3387  0.1712 -1.4133
  679TMC3    C210094   4.397   2.302   1.034 -0.2918 -0.6558  0.0421
  679TMC3    C310095   4.411   2.440   1.051  0.8720 -0.3190  0.4562
  679TMC3    C410096   4.631   2.307   1.000 -0.3364 -0.6794 -0.0391
  679TMC3    C510097   4.636   2.445   1.017  0.3966 -0.1229  0.2791
  679TMC3    C610098   4.528   2.507   1.061  0.2994 -0.2821  0.2185
  679TMC3     C10099   4.528   2.092   0.995 -0.5894  0.1606  0.5952
  679TMC3     O10100   4.644   2.056   0.963 -0.4933  0.0873  0.2521
  679TMC3     H10101   4.299   2.257   1.024 -1.3178  1.2293  1.6021
  679TMC3    H110102   4.720   2.257   0.962  0.0426 -1.0921  1.4014
  679TMC3    H210103   4.535   2.613   1.082  0.9562 -0.3946  0.5478
  679TMC3    C710104   0.005   2.526   0.965 -0.4184 -0.0371 -0.1954
  679TMC3    C810105   4.286   2.512   1.091 -0.3432  0.2793 -0.0298
  679TMC3    O110106   4.715   2.639   0.927 -0.5691 -0.3903 -0.1515
  679TMC3    O210107   4.308   2.604   1.168 -0.4503 -0.1547 -0.1239
  680MPD2     C10108   0.237   1.019  13.328 -0.5999 -0.6166 -0.8094
  680MPD2    C110109   0.274   0.998  13.459  0.1758 -0.0730  0.6796
  680MPD2    C210110   0.371   1.085  13.518  0.0429  0.0070 -0.4541
  680MPD2    C310111   0.433   1.182  13.444 -0.2544  0.0774  0.1239
  680MPD2    C410112   0.389   1.198  13.313 -0.4329 -0.6992 -0.6095
  680MPD2    C510113   0.296   1.119  13.257  0.2949  1.1664 -0.1907
  680MPD2     H10114   0.413   1.056  13.614 -1.1599  1.7975  0.6393
  680MPD2    H110115   0.426   1.276  13.249 -1.1438 -0.7808 -1.1277
  680MPD2    H210116   0.162   0.960  13.276 -2.1236  0.3194  0.2972
  680MPD2    H310117   0.285   1.126  13.149  1.2027 -2.1799 -0.5046
  680MPD2     N10118   0.538   1.261  13.485 -0.6797 -0.2258  0.2055
  680MPD2    H510119   0.587   1.324  13.423  0.6660 -0.3131  1.1638
  680MPD2    N110120   0.220   0.897  13.538  0.8486 -0.4387  0.0732
  680MPD2    H710121   0.280   0.877  13.618  0.2097 -0.7095  0.4876
  681TMC3    C110122   0.092   0.727  13.618  0.6519  1.1336  0.3015
  681TMC3    C210123   4.703   0.706  13.669  0.2325  0.7030 -0.7028
  681TMC3    C310124   4.682   0.605  13.766  0.3407  0.1476  1.1417
  681TMC3    C410125   0.189   0.651  13.665 -1.0604 -0.1808 -0.2913
  681TMC3    C510126   0.167   0.558  13.768  0.0173  0.0023 -0.5452
  681TMC3    C610127   0.045   0.525  13.817  0.8557  0.3739 -0.3772
  681TMC3     C10128   0.114   0.815  13.507 -0.0001 -0.1568 -0.8601
  681TMC3     O10129   0.030   0.827  13.423  0.5413  0.2727 -0.5206
  681TMC3     H10130   4.621   0.772  13.646 -0.6729 -0.0895  0.2300
  681TMC3    H110131   0.278   0.662  13.605 -0.5332 -3.6579 -0.1427
  681TMC3    H210132   0.024   0.433  13.871 -0.3444 -0.4686 -2.2741
  681TMC3    C710133   0.262   0.448  13.767 -0.2069 -0.6280 -0.2463
  681TMC3    C810134   4.554   0.603  13.830  0.2678 -0.5363  0.0747
  681TMC3    O110135   0.273   0.376  13.858  0.0504 -0.0042  0.0910
  681TMC3    O210136   4.462   0.656  13.773 -0.3008 -0.8488  0.0935
  682MPD2     C10137   2.032   3.102  10.643  0.5791  0.1738 -0.1265
  682MPD2    C110138   2.013   2.973  10.676 -0.8525 -0.4679 -0.1676
  682MPD2    C210139   1.954   2.938  10.790  0.3523  0.2332  0.4220
  682MPD2    C310140   1.890   3.038  10.868 -0.6014 -0.4678 -0.2092
  682MPD2    C410141   1.897   3.172  10.833  0.3847 -0.1663 -0.2441
  682MPD2    C510142   1.976   3.204  10.724  0.6297  0.3357  0.1925
  682MPD2     H10143   1.959   2.836  10.826 -1.8906  0.9677  2.7501
  682MPD2    H110144   1.858   3.257  10.889 -1.1007 -0.9368 -0.1126
  682MPD2    H210145   2.081   3.129  10.550 -0.3750 -0.1715 -0.7255
  682MPD2    H310146   1.968   3.302  10.679  0.5322 -0.1903 -0.9536
  682MPD2     N10147   1.829   3.010  10.990  0.7616  0.1217 -0.4558
  682MPD2    H510148   1.767   3.075  11.037 -1.9520 -2.2938 -0.7255
  682MPD2    N110149   2.061   2.871  10.589  0.5669 -0.1840 -0.5637
  682MPD2    H710150   2.022   2.778  10.602 -0.3984  0.2742 -0.1398
  683TMC3    C110151   1.563   2.964  11.287  0.5067  0.0165 -0.0215
  683TMC3    C210152   1.468   2.873  11.232  0.0503  0.6817  0.3632
  683TMC3    C310153   1.509   2.775  11.146 -0.1097  0.6323 -0.0060
  683TMC3    C410154   1.691   2.970  11.238  0.0562  0.0005 -0.1320
  683TMC3    C510155   1.721   2.875  11.147  0.3468  0.2441 -0.0373
  683TMC3    C610156   1.637   2.778  11.094 -0.2850 -0.1158 -0.2015
  683TMC3     C10157   1.522   3.035  11.407 -0.3596 -0.0352 -0.0273
  683TMC3     O10158   1.401   3.044  11.439 -0.5455 -0.5934 -0.2727
  683TMC3     H10159   1.370   2.853  11.274  0.7873  0.4752  1.9782
  683TMC3    H110160   1.760   3.041  11.284 -0.2766 -0.8619  1.6831
  683TMC3    H210161   1.673   2.702  11.025  1.1129  1.0156 -0.7342
  683TMC3    C710162   1.835   2.893  11.056 -0.2291 -0.1494 -0.3802
  683TMC3    C810163   1.419   2.673  11.094  0.3119 -0.9051  0.0881
  683TMC3    O110164   1.896   2.790  11.042  0.1640  0.2267  0.4930
  683TMC3    O210165   1.306   2.706  11.072  0.0361 -0.1487 -0.2007
  684MPD2     C10166   0.167   1.119  16.411  0.4802  0.2061 -0.1896
  684MPD2    C110167   0.162   1.209  16.309  0.2631  0.0177  0.0824
  684MPD2    C210168   0.126   1.341  16.332  0.1531  0.7852 -0.1315
  684MPD2    C310169   0.095   1.386  16.455  0.7081  0.0338  0.8345
  684MPD2    C410170   0.116   1.306  16.566 -0.1990  0.5109  0.2408
  684MPD2    C510171   0.142   1.173  16.539  0.0259  0.4071  0.4300
  684MPD2     H10172   0.116   1.405  16.246 -0.7926 -1.1032 -1.4274
  684MPD2    H110173   0.102   1.331  16.671 -3.6135 -0.3976  0.0039
  684MPD2    H210174   0.200   1.018  16.394  0.0917 -0.4750  3.0953
  684MPD2    H310175   0.150   1.110  16.627 -2.3464  0.0764  0.4314
  684MPD2     N10176   0.046   1.518  16.480 -0.0682 -0.0304  0.1524
  684MPD2    H510177   0.054   1.565  16.570 -1.0365  0.4337 -0.0087
  684MPD2    N110178   0.192   1.172  16.178 -0.1996  0.2680 -0.2163
  684MPD2    H710179   0.156   1.239  16.111 -1.3720  0.7245  0.8749
  685TMC3    C110180   0.267   1.068  15.993  0.0170  0.5163  0.1190
  685TMC3    C210181   0.174   1.147  15.924 -0.1163  0.1484 -0.8493
  685TMC3    C310182   0.214   1.224  15.819  0.0660 -0.5679  0.2509
  685TMC3    C410183   0.400   1.093  15.965 -0.1429  0.6111 -0.0936
  685TMC3    C510184   0.444   1.179  15.863 -0.5326  0.3323 -0.2307
  685TMC3    C610185   0.352   1.252  15.793 -0.4592 -0.1726 -0.2813
  685TMC3     C10186   0.248   1.053  16.136  0.3493 -0.3714  0.0275
  685TMC3     O10187   0.304   0.966  16.199  0.2886 -0.8042  0.2699
  685TMC3     H10188   0.068   1.127  15.935  0.5616 -2.3481  1.1764
  685TMC3    H110189   0.473   1.046  16.030 -0.7914 -0.0587  0.1466
  685TMC3    H210190   0.383   1.300  15.701  0.9638  0.4849  0.5207
  685TMC3    C710191   0.584   1.210  15.883  0.0408 -0.5107  0.2736
  685TMC3    C810192   0.121   1.293  15.736 -0.5420 -0.7637  0.3022
  685TMC3    O110193   0.655   1.135  15.950  0.5077 -0.1854 -0.3727
  685TMC3    O210194   0.145   1.282  15.617 -0.5916 -0.2008 -0.2088
  686MPD2     C10195   1.242   0.942  14.960  0.3743  0.4720 -0.0646
  686MPD2    C110196   1.331   0.961  15.069 -0.7021  0.5353  0.4874
  686MPD2    C210197   1.424   0.857  15.083  0.2570  0.8646 -0.2402
  686MPD2    C310198   1.425   0.740  15.013  0.7142  0.1172  0.2952
  686MPD2    C410199   1.335   0.729  14.907 -0.1938 -0.1648  0.0920
  686MPD2    C510200   1.244   0.827  14.881 -0.1207 -0.5121  0.5064
  686MPD2     H10201   1.500   0.866  15.160 -0.6848  1.6171  0.6020
  686MPD2    H110202   1.338   0.634  14.856 -0.7464  0.5866 -1.3276
  686MPD2    H210203   1.164   1.016  14.954  0.6015  0.6117 -1.3949
  686MPD2    H310204   1.159   0.807  14.816 -1.6683  1.5227  1.8991
  686MPD2     N10205   1.506   0.633  15.052  0.0940  0.2009  0.0687
  686MPD2    H510206   1.517   0.567  14.975 -3.0891  1.6820 -1.6544
  686MPD2    N110207   1.306   1.063  15.165 -0.0382 -0.5064  0.1408
  686MPD2    H710208   1.219   1.112  15.144  0.0651  0.2932  1.5598
  687TMC3    C110209   1.547   0.684  15.289 -0.3224 -0.1685  0.1410
  687TMC3    C210210   1.413   0.672  15.323 -0.7585 -0.2608 -0.2356
  687TMC3    C310211   1.382   0.708  15.445 -0.2502 -0.0351 -0.4013
  687TMC3    C410212   1.647   0.727  15.379  0.2280  0.5411  0.0390
  687TMC3    C510213   1.603   0.754  15.513 -0.0715 -0.3742 -0.5120
  687TMC3    C610214   1.472   0.748  15.541 -0.4406  0.7074 -0.3482
  687TMC3     C10215   1.591   0.629  15.162  0.1248  0.1510 -0.5292
  687TMC3     O10216   1.689   0.555  15.178  0.0816  0.3726  0.3386
  687TMC3     H10217   1.339   0.623  15.261  0.9610 -1.2176 -1.5224
  687TMC3    H110218   1.750   0.738  15.346  1.1099 -0.9120  2.2425
  687TMC3    H210219   1.432   0.788  15.633 -3.4147 -2.3893 -0.2853
  687TMC3    C710220   1.690   0.826  15.597  0.8278 -0.1330  0.4300
  687TMC3    C810221   1.245   0.745  15.464 -0.3042  0.2373 -0.0956
  687TMC3    O110222   1.634   0.896  15.682  0.2207 -0.2856 -0.6059
  687TMC3    O210223   1.204   0.762  15.579  0.0089  0.2857 -0.3564
  688MPD2     C10224   0.781   0.474  17.279  0.1252  0.4373  0.2720
  688MPD2    C110225   0.719   0.355  17.267  0.7929  0.1597  0.2331
  688MPD2    C210226   0.735   0.274  17.154  0.0828 -0.0441 -1.2320
  688MPD2    C310227   0.818   0.313  17.046 -0.5043 -0.4796 -0.2384
  688MPD2    C410228   0.884   0.430  17.062  0.3009  0.0537 -0.1109
  688MPD2    C510229   0.871   0.506  17.179 -0.6000 -0.5435  0.0175
  688MPD2     H10230   0.684   0.181  17.130 -1.4875  1.3135 -3.1409
  688MPD2    H110231   0.945   0.477  16.985  1.4701 -3.2118 -1.1648
  688MPD2    H210232   0.776   0.543  17.363 -2.2416 -1.6124  1.8453
  688MPD2    H310233   0.933   0.594  17.189 -0.9978 -0.2511 -0.0615
  688MPD2     N10234   0.845   0.233  16.933 -0.3147 -0.0202  0.3393
  688MPD2    H510235   0.899   0.273  16.858  1.4535  0.7322  2.0326
  688MPD2    N110236   0.651   0.310  17.382 -0.3709  0.8045 -0.7021
  688MPD2    H710237   0.661   0.369  17.464 -0.3520 -0.3019  0.0958
  689TMC3    C110238   0.575   0.145  17.531  0.4714  0.6377  0.3182
  689TMC3    C210239   0.641   0.211  17.632  0.4444 -0.3570  0.5048
  689TMC3    C310240   0.622   0.163  17.754  0.0797  0.1207 -0.0459
  689TMC3    C410241   0.481   0.043  17.549  0.2458  0.2362 -0.8478
  689TMC3    C510242   0.457   0.005  17.674 -0.2584  0.2888 -0.8180
  689TMC3    C610243   0.534   0.058   0.012  0.7401  0.5023  0.0920
  689TMC3     C10244   0.590   0.190  17.393 -0.3906 -0.0453 -0.3052
  689TMC3     O10245   0.542   0.123  17.300 -0.1215 -0.1805 -0.1653
  689TMC3     H10246   0.729   0.273  17.622 -1.8643  2.5029 -2.0094
  689TMC3    H110247   0.428   4.739  17.467  0.8392  0.1488 -1.1852
  689TMC3    H210248   0.520   0.023   0.113 -3.9135  1.6755 -0.1525
  689TMC3    C710249   0.377   4.630  17.717 -0.4634  0.0428 -0.0967
  689TMC3    C810250   0.658   0.236   0.108  0.4759  0.4756  0.3094
  689TMC3    O110251   0.334   4.625   0.073  0.5590  0.2641 -0.4195
  689TMC3    O210252   0.678   0.166   0.203 -0.1657 -0.1708  0.2047
  690MPD2     C10253   2.258   1.929  15.340  0.2484  0.1417  0.5493
  690MPD2    C110254   2.342   1.836  15.391 -0.5522  0.0599  0.4605
  690MPD2    C210255   2.478   1.845  15.368 -0.5692  0.4322 -0.0084
  690MPD2    C310256   2.521   1.959  15.301  0.4333 -0.3542  0.6982
  690MPD2    C410257   2.440   2.052  15.250  0.3452 -0.8119 -0.5586
  690MPD2    C510258   2.307   2.037  15.269 -0.1220  0.3243  0.6801
  690MPD2     H10259   2.549   1.770  15.401  0.5462  1.7790  0.6453
  690MPD2    H110260   2.469   2.147  15.207 -1.6247 -0.3223 -0.7755
  690MPD2    H210261   2.152   1.927  15.362 -0.0371 -3.7122 -1.0715
  690MPD2    H310262   2.238   2.110  15.226  0.4650 -0.7843 -2.1645
  690MPD2     N10263   2.662   1.982  15.270 -0.0845 -0.4350  0.2766
  690MPD2    H510264   2.684   2.074  15.233  0.6166 -0.4745  0.6014
  690MPD2    N110265   2.297   1.719  15.459 -0.1688 -0.1565  0.5353
  690MPD2    H710266   2.364   1.649  15.490 -0.5095 -0.6361  0.1812
  691TMC3    C110267   2.147   1.552  15.542  0.0551 -0.3583  0.5393
  691TMC3    C210268   2.022   1.541  15.600 -0.0448  0.7587  0.8220
  691TMC3    C310269   1.965   1.417  15.609  0.0146 -0.3628 -0.0762
  691TMC3    C410270   2.221   1.448  15.490 -0.6337  0.7922 -0.2595
  691TMC3    C510271   2.157   1.327  15.506 -0.5161 -0.2029 -0.3716
  691TMC3    C610272   2.036   1.309  15.564 -0.1177 -0.0036  0.0408
  691TMC3     C10273   2.167   1.686  15.485  0.3631 -0.0797 -0.0751
  691TMC3     O10274   2.071   1.757  15.479 -0.4828  0.1345 -0.4564
  691TMC3     H10275   1.969   1.630  15.632  0.1083  0.1787  2.7238
  691TMC3    H110276   2.311   1.463  15.432 -0.0464  1.0198  0.6950
  691TMC3    H210277   1.994   1.209  15.574 -1.6793  0.5521 -0.8886
  691TMC3    C710278   2.236   1.220  15.444  0.0881 -0.1678  0.2744
  691TMC3    C810279   1.844   1.385  15.678 -0.2616 -0.6154  0.5743
  691TMC3    O110280   2.352   1.239  15.425  0.3571  0.0638  0.2198
  691TMC3    O210281   1.817   1.280  15.730  0.0433 -0.5195 -0.0690
  692TMC3    C110282   4.285   2.791  15.921 -0.2646 -0.0100  0.0362
  692TMC3    C210283   4.369   2.883  15.978 -0.0756 -0.5093 -0.8254
  692TMC3    C310284   4.494   2.841  16.023 -0.1942  0.3293  0.1401
  692TMC3    C410285   4.319   2.662  15.907  0.6610  0.4664  0.8199
  692TMC3    C510286   4.434   2.616  15.969 -0.8317  0.4904 -0.9265
  692TMC3    C610287   4.519   2.707  16.033  0.5322 -0.0773  0.1712
  692TMC3     C10288   4.169   2.835  15.844 -0.5212  0.5943  0.0695
  692TMC3     O10289   4.127   2.756  15.760 -0.3935 -0.0881  0.2350
  692TMC3     H10290   4.363   2.988  15.952 -0.9405 -0.1679  0.7765
  692TMC3    H110291   4.250   2.596  15.856 -1.4607  2.0207  1.6877
  692TMC3    H210292   4.620   2.677  16.058  1.6331  0.8544 -3.2632
  692TMC3    C710293   4.473   2.474  15.973 -0.3644 -0.1969 -0.5401
  692TMC3    C810294   4.536   2.908  16.151  0.5231  0.9977 -0.0487
  692TMC3    O110295   4.588   2.444  16.000 -0.0996 -0.1591 -0.3051
  692TMC3    O210296   4.580   2.837  16.237 -0.2841  0.0067 -0.9375
  693MPD2     C10297   3.950   1.793  10.572  0.2962 -0.0848  0.4715
  693MPD2    C110298   3.914   1.785  10.704  0.0467  0.1127  0.3668
  693MPD2    C210299   4.021   1.786  10.797 -0.0704 -0.4891 -0.3895
  693MPD2    C310300   4.155   1.789  10.762  0.0261 -0.3055 -0.1314
  693MPD2    C410301   4.184   1.780  10.630 -0.1366  0.4378  0.0195
  693MPD2    C510302   4.087   1.786  10.532  0.7510  0.1243  0.6160
  693MPD2     H10303   3.995   1.768  10.901  1.4557  0.8999  0.2374
  693MPD2    H110304   4.289   1.769  10.604 -0.0627  1.5639 -0.1507
  693MPD2    H210305   3.882   1.779  10.488 -0.3189  1.5468  0.7066
  693MPD2    H310306   4.111   1.788  10.426  0.2792 -1.1074  0.4907
  693MPD2     N10307   4.258   1.788  10.860 -0.2504  0.0392 -0.0782
  693MPD2    H510308   4.352   1.759  10.834 -1.1607 -0.3243 -2.9643
  693MPD2    N110309   3.778   1.764  10.741  0.3624 -0.3874 -0.1500
  693MPD2    H710310   3.718   1.736  10.664  0.1784 -1.5793  0.4203
  694TMC3    C110311   3.602   1.690  10.883 -0.1515  0.1045  0.2402
  694TMC3    C210312   3.545   1.634  10.773 -0.0476 -0.0140 -0.1518
  694TMC3    C310313   3.461   1.529  10.799 -0.1461  0.2351  0.4292
  694TMC3    C410314   3.571   1.649  11.009 -0.3108 -0.2957 -0.0282
  694TMC3    C510315   3.495   1.542  11.029  0.1054  0.2882 -0.5225
  694TMC3    C610316   3.438   1.473  10.929 -0.3579  0.5908  0.4700
  694TMC3     C10317   3.723   1.770  10.871 -0.1272  0.0036  0.3273
  694TMC3     O10318   3.777   1.812  10.971  0.4344 -0.6546  0.4034
  694TMC3     H10319   3.560   1.684  10.678  1.8724  1.5893  1.0147
  694TMC3    H110320   3.612   1.701  11.095 -0.0265 -0.3822 -0.1105
  694TMC3    H210321   3.359   1.401  10.946 -0.0352  0.1366  0.0379
  694TMC3    C710322   3.515   1.470  11.152 -0.4275  0.0179 -0.0894
  694TMC3    C810323   3.381   1.468  10.706 -0.1822 -0.8710  0.2491
  694TMC3    O110324   3.518   1.537  11.251  0.0848  0.4192 -0.0255
  694TMC3    O210325   3.268   1.425  10.731 -0.8290 -0.2457  0.1246
  695MPD2     C10326   0.220   3.059  13.299  0.2028  0.0621  1.0781
  695MPD2    C110327   0.183   3.038  13.429 -0.4532  0.7827 -0.1424
  695MPD2    C210328   0.048   3.054  13.469 -0.4289  0.0128  0.2029
  695MPD2    C310329   4.700   3.099  13.371 -0.3551  0.2023 -0.5769
  695MPD2    C410330   4.737   3.104  13.238 -0.0858 -0.1803 -0.1854
  695MPD2    C510331   0.128   3.088  13.203  0.7233  0.2331 -0.0778
  695MPD2     H10332   0.012   3.045  13.570 -0.1124 -0.4669  0.2697
  695MPD2    H110333   4.667   3.131  13.159 -0.9504  0.5561  0.8327
  695MPD2    H210334   0.322   3.037  13.269 -0.2839 -1.3504  0.4794
  695MPD2    H310335   0.154   3.091  13.098 -0.2101 -0.1098 -0.3223
  695MPD2     N10336   4.567   3.104  13.412  0.5259  0.0436 -0.3318
  695MPD2    H510337   4.542   3.075  13.506  1.0588  1.0484  0.1152
  695MPD2    N110338   0.278   2.986  13.524 -0.7645  0.5685  0.8467
  695MPD2    H710339   0.243   2.993  13.619  0.5457  1.8637  1.2396
  696TMC3    C110340   4.333   3.183  13.425 -0.2149 -0.4662  0.1211
  696TMC3    C210341   4.313   3.128  13.548 -0.2443 -0.9319  0.7021
  696TMC3    C310342   4.181   3.108  13.587  0.4135  0.4316 -0.2185
  696TMC3    C410343   4.236   3.258  13.365  0.8531 -0.3260  0.0889
  696TMC3    C510344   4.112   3.266  13.425 -0.2081  0.0505  0.3465
  696TMC3    C610345   4.081   3.181  13.530  0.2666 -0.2488  0.5861
  696TMC3     C10346   4.466   3.182  13.353  0.5330  0.1965 -0.1537
  696TMC3     O10347   4.478   3.244  13.249  0.0448  0.9117  0.4527
  696TMC3     H10348   4.391   3.071  13.596 -0.2279 -1.0751  0.5045
  696TMC3    H110349   4.260   3.323  13.282 -0.0876  1.0908  0.9318
  696TMC3    H210350   3.978   3.177  13.563  0.8883  1.8889  2.7516
  696TMC3    C710351   4.050   3.399  13.425 -0.5556  0.0011  0.1162
  696TMC3    C810352   4.157   3.048  13.722 -0.6064 -0.2935  0.4060
  696TMC3    O110353   4.075   3.463  13.322 -0.1460  0.9460 -0.0171
  696TMC3    O210354   4.252   3.025  13.792 -0.2730 -0.1222  0.9685
  697MPD2     C10355   4.346   4.572  15.794 -0.3443 -0.5494  0.3635
  697MPD2    C110356   4.362   4.528  15.665  0.1579 -0.3575  0.5931
  697MPD2    C210357   4.442   4.602  15.579 -0.6477  0.2112 -0.2722
  697MPD2    C310358   4.496   4.725  15.606  0.1994 -0.2687 -0.5195
  697MPD2    C410359   4.474   0.036  15.738  0.5600 -0.1509  0.3114
  697MPD2    C510360   4.399   4.695  15.828  0.2283  0.3053  0.1515
  697MPD2     H10361   4.462   4.560  15.480  2.3399  0.5556  0.1802
  697MPD2    H110362   4.518   0.129  15.770  0.8759  0.0053 -0.5643
  697MPD2    H210363   4.302   4.512  15.873  0.9386 -0.6824  0.9904
  697MPD2    H310364   4.377   4.737  15.926 -1.4805  1.8017 -0.8781
  697MPD2     N10365   4.575   0.055  15.509 -0.5236  0.3219 -0.1776
  697MPD2    H510366   4.585   0.012  15.418  0.4669  0.4065 -0.1100
  697MPD2    N110367   4.304   4.399  15.625 -0.4010  0.8420  0.2794
  697MPD2    H710368   4.314   4.364  15.531  0.9433 -2.5409  1.6920
  698TMC3    C110369   4.670   0.249  15.403 -0.3555 -0.3230  0.0205
  698TMC3    C210370   4.727   0.370  15.419  0.2083  0.0853 -0.2052
  698TMC3    C310371   0.009   0.448  15.314 -0.4276 -0.2660  0.2027
  698TMC3    C410372   4.615   0.216  15.286 -0.1798 -0.0592  0.6674
  698TMC3    C510373   4.643   0.293  15.174  1.1943  0.7424  0.1175
  698TMC3    C610374   4.705   0.412  15.193 -0.3342  0.0099  0.9509
  698TMC3     C10375   4.630   0.174  15.524 -1.3510 -0.6856  0.2730
  698TMC3     O10376   4.657   0.234  15.630  0.5978  0.1228 -0.0795
  698TMC3     H10377   0.033   0.378  15.516 -2.0931  0.7643  0.8489
  698TMC3    H110378   4.546   0.132  15.283 -1.0930  0.6301  2.4840
  698TMC3    H210379   4.716   0.462  15.098 -0.2984  0.5864  1.2600
  698TMC3    C710380   4.546   0.282  15.066 -0.4198 -0.7130  0.6923
  698TMC3    C810381   0.128   0.530  15.321  0.0606 -0.4969  0.0105
  698TMC3    O110382   4.474   0.377  15.043  0.3915  0.2471  0.7845
  698TMC3    O210383   0.190   0.535  15.423 -0.3775  0.0155  0.3787
  699TMC3    C110384   4.019   3.248  12.982 -0.7872  0.6405 -0.4231
  699TMC3    C210385   4.076   3.127  13.001  0.7088  0.3102  0.4734
  699TMC3    C310386   4.015   3.049  13.098  0.2590  1.0102 -0.4285
  699TMC3    C410387   3.909   3.297  13.049  0.0681  0.2067  0.2018
  699TMC3    C510388   3.858   3.216  13.150  0.3209 -0.3913 -0.0391
  699TMC3    C610389   3.912   3.095  13.171 -0.4895  0.5209  0.1362
  699TMC3     C10390   4.069   3.343  12.885 -0.1567 -0.1301 -0.0958
  699TMC3     O10391   3.984   3.410  12.831  0.1260 -0.0585  0.0257
  699TMC3     H10392   4.161   3.087  12.947  0.5019  2.1636 -1.2192
  699TMC3    H110393   3.866   3.391  13.017 -0.6227 -1.0035 -2.4192
  699TMC3    H210394   3.878   3.035  13.255 -2.2029  0.4507 -0.6100
  699TMC3    C710395   3.774   3.272  13.255  0.1813 -0.6911  0.0635
  699TMC3    C810396   4.093   2.940  13.164 -0.3303  0.1971 -0.3803
  699TMC3    O110397   3.737   3.205  13.348 -0.1316 -0.3788 -0.6647
  699TMC3    O210398   4.059   2.921  13.283  0.5879  0.1767  0.0585
  700TMC3    C110399   3.432   0.846  17.233 -0.4236 -0.5472  0.4285
  700TMC3    C210400   3.443   0.714  17.223 -0.0228 -0.1592 -0.3828
  700TMC3    C310401   3.553   0.654  17.267 -0.4374  0.0891  0.3030
  700TMC3    C410402   3.530   0.917  17.294  0.4950 -0.0218  0.1011
  700TMC3    C510403   3.644   0.859  17.337  0.0909  0.1545  0.4033
  700TMC3    C610404   3.653   0.726  17.324  0.0350 -0.3403  0.2598
  700TMC3     C10405   3.387   0.903  17.103  0.5986 -0.5821  0.1547
  700TMC3     O10406   3.276   0.877  17.063  0.2084 -0.7911  0.4916
  700TMC3     H10407   3.373   0.654  17.167  1.7962 -3.0064  0.3985
  700TMC3    H110408   3.502   1.017  17.324  1.2388  0.2905 -0.2291
  700TMC3    H210409   3.742   0.672  17.355 -0.3384 -2.2649 -1.9130
  700TMC3    C710410   3.770   0.932  17.343 -0.1277 -0.8605 -0.2001
  700TMC3    C810411   3.581   0.517  17.228 -0.8847 -0.1756  0.1179
  700TMC3    O110412   3.872   0.872  17.370 -0.8023 -0.1527  0.4721
  700TMC3    O210413   3.699   0.481  17.251 -0.7293  0.4081 -0.1898
  701TMC3    C110414   3.427   4.005  15.656  0.0909 -0.1184  0.2088
  701TMC3    C210415   3.425   3.929  15.540  0.1813  0.0399  0.0564
  701TMC3    C310416   3.531   3.943  15.455 -0.7793  0.1133 -0.3562
  701TMC3    C410417   3.523   4.101  15.678  1.0054 -0.0966 -0.1434
  701TMC3    C510418   3.621   4.118  15.582 -0.0728 -0.3579 -0.9573
  701TMC3    C610419   3.631   4.035  15.475 -0.7641  0.3036  0.3339
  701TMC3     C10420   3.309   3.994  15.736  0.2083  0.7434 -0.4720
  701TMC3     O10421   3.310   4.072  15.830 -0.0783 -0.1803 -0.3947
  701TMC3     H10422   3.379   3.831  15.530 -0.6420  0.2216  2.0631
  701TMC3    H110423   3.514   4.165  15.765  2.0333 -0.3512  0.1522
  701TMC3    H210424   3.712   4.055  15.404  0.0740  2.0469  1.7858
  701TMC3    C710425   3.720   4.222  15.598 -0.7372  0.2233  0.6534
  701TMC3    C810426   3.531   3.875  15.336  0.4538 -0.2012  0.4697
  701TMC3    O110427   3.790   4.236  15.501 -0.4333 -0.8630 -0.0992
  701TMC3    O210428   3.640   3.858  15.283 -0.2913  0.0557 -0.5668
  702MPD2     C10429   3.048   2.000  10.456 -0.1857  0.3377 -0.5888
  702MPD2    C110430   3.037   2.057  10.578 -0.1578  1.0015 -0.6867
  702MPD2    C210431   3.032   2.197  10.585  0.0028 -0.3427 -0.0487
  702MPD2    C310432   3.057   2.275  10.471 -0.9330 -0.0686 -0.2497
  702MPD2    C410433   3.052   2.215  10.346  0.6938 -0.2729  0.2143
  702MPD2    C510434   3.048   2.076  10.340  0.2910 -0.4295  0.4084
  702MPD2     H10435   3.018   2.247  10.681  2.1423  1.2380 -0.5472
  702MPD2    H110436   3.076   2.274  10.258 -2.7863  1.1277  0.1955
  702MPD2    H210437   3.051   1.893  10.438 -0.4204  0.0838  0.9067
  702MPD2    H310438   3.025   2.027  10.246  1.4003 -0.5998  0.2200
  702MPD2     N10439   3.052   2.414  10.470  0.1382  0.4491 -0.2009
  702MPD2    H510440   3.068   2.457  10.380 -1.8888  2.0560  0.2025
  702MPD2    N110441   3.012   1.987  10.693  0.2792  0.1965  0.1499
  702MPD2    H710442   2.996   2.043  10.777 -2.0611  0.8428 -0.7275
  703TMC3    C110443   3.040   2.631  10.581 -0.5695  0.7329 -0.0144
  703TMC3    C210444   2.983   2.683  10.692  0.2063  0.9086  0.3685
  703TMC3    C310445   3.057   2.758  10.774 -0.1843 -0.1299  0.1606
  703TMC3    C410446   3.164   2.668  10.538  0.1468  0.7312  0.3821
  703TMC3    C510447   3.233   2.757  10.612 -0.4349 -0.7674 -0.1404
  703TMC3    C610448   3.184   2.805  10.735  0.2165  0.0797 -0.4988
  703TMC3     C10449   3.013   2.492  10.585  0.3001 -0.4863  0.2987
  703TMC3     O10450   2.962   2.458  10.692  0.5136 -0.1777 -0.1582
  703TMC3     H10451   2.881   2.651  10.714 -0.5240  1.4767 -2.1974
  703TMC3    H110452   3.218   2.628  10.453  2.4974  1.7722  1.4172
  703TMC3    H210453   3.228   2.885  10.793 -1.2769  1.4533 -1.2615
  703TMC3    C710454   3.355   2.818  10.564  0.1673  0.1402  0.2940
  703TMC3    C810455   2.991   2.851  10.853  0.0875  0.5108 -0.3966
  703TMC3    O110456   3.351   2.852  10.446 -0.0337 -0.2120  0.3047
  703TMC3    O210457   3.034   2.967  10.859 -0.3249  0.1560  0.1764
  704TMC3    C110458   0.354   0.011  11.665 -0.1376 -0.1816  0.1130
  704TMC3    C210459   0.274   4.641  11.694  0.3010 -0.8823 -0.0808
  704TMC3    C310460   0.296   4.592  11.814 -0.3299  0.6371 -0.4791
  704TMC3    C410461   0.436   0.076  11.757  0.2371  0.0146  0.8244
  704TMC3    C510462   0.453   0.022  11.879  0.4113 -0.4491  0.4099
  704TMC3    C610463   0.378   4.648  11.912  0.4893  0.1925  0.4850
  704TMC3     C10464   0.309   0.075  11.546  0.3773  1.1625  0.5381
  704TMC3     O10465   0.245   0.006  11.466 -0.0444 -0.3105  0.8349
  704TMC3     H10466   0.218   4.590  11.617  1.2763 -2.7344  0.4475
  704TMC3    H110467   0.499   0.154  11.715 -0.9139  0.6536  0.2876
  704TMC3    H210468   0.397   4.605  12.009 -0.3872 -0.5599  0.3240
  704TMC3    C710469   0.580   0.046  11.948 -0.9504 -0.4098  0.1528
  704TMC3    C810470   0.275   4.452  11.844  0.9454 -0.4910 -0.1621
  704TMC3    O110471   0.657   0.128  11.900  0.5418  1.1539 -0.7384
  704TMC3    O210472   0.283   4.410  11.959  0.2162  0.3232  0.1905
  705MPD2     C10473   0.017   2.431  16.731  0.5763  0.9417 -0.3472
  705MPD2    C110474   4.697   2.529  16.653 -0.0191  0.2675  0.0631
  705MPD2    C210475   4.625   2.630  16.711  0.0747 -0.0182 -0.4719
  705MPD2    C310476   4.616   2.638  16.852  0.0977  0.3148 -0.0831
  705MPD2    C410477   4.695   2.548  16.927  0.5524  0.0764 -0.0572
  705MPD2    C510478   0.016   2.439  16.866  0.8541  0.7788 -0.5178
  705MPD2     H10479   4.579   2.710  16.655  0.9854 -0.4490 -1.8206
  705MPD2    H110480   4.703   2.544  17.035 -1.4833  1.6043  0.1643
  705MPD2    H210481   0.085   2.355  16.693 -0.6658  0.0225 -0.7112
  705MPD2    H310482   0.075   2.369  16.924  1.5646  2.2690  0.5715
  705MPD2     N10483   4.520   2.716  16.929 -0.4751  0.0769  0.4295
  705MPD2    H510484   4.520   2.696  17.028 -1.5718 -0.8354  0.2466
  705MPD2    N110485   4.710   2.531  16.510  0.4867 -0.7830  0.1369
  705MPD2    H710486   4.659   2.601  16.458 -1.2726 -2.3855 -0.3055
  706TMC3    C110487   0.206   2.433  16.112 -0.0357 -0.0133 -0.2678
  706TMC3    C210488   0.223   2.571  16.099  0.6529 -0.0842 -0.0350
  706TMC3    C310489   0.161   2.652  16.188  0.1413  0.0948 -0.7871
  706TMC3    C410490   0.127   2.391  16.219  0.8020  0.1274 -0.0081
  706TMC3    C510491   0.052   2.478  16.296 -0.7818  0.7508 -0.4946
  706TMC3    C610492   0.070   2.612  16.283 -0.2174 -0.3689  0.8460
  706TMC3     C10493   0.315   2.356  16.059 -0.5377 -0.6248  0.5492
  706TMC3     O10494   0.345   2.253  16.121  0.0819 -0.4203 -0.2157
  706TMC3     H10495   0.285   2.614  16.021  0.1532 -1.6162 -1.2811
  706TMC3    H110496   0.143   2.287  16.243 -1.0981  0.0987  1.1519
  706TMC3    H210497   0.001   2.683  16.327 -1.0415 -0.3345 -0.4878
  706TMC3    C710498   0.035   2.435  16.432  0.1673  0.0058  0.8482
  706TMC3    C810499   0.208   2.789  16.183  0.1468  0.5855  0.5364
  706TMC3    O110500   0.073   2.324  16.463  0.1154 -0.6686  0.0065
  706TMC3    O210501   0.228   2.852  16.076 -0.3854 -0.1869  0.1685
  707TMC3    C110502   1.949   1.554   0.814  0.0627  0.0069 -0.3344
  707TMC3    C210503   1.948   1.419   0.788  0.6203  0.0046  0.3268
  707TMC3    C310504   1.829   1.357   0.819 -0.3948  0.4287 -0.1710
  707TMC3    C410505   1.832   1.621   0.854  0.4194 -0.6889  0.1404
  707TMC3    C510506   1.719   1.548   0.863  0.0406 -0.0258 -0.0204
  707TMC3    C610507   1.710   1.410   0.858  0.8867 -0.1005  0.4202
  707TMC3     C10508   2.059   1.630   0.759  0.1117 -1.2364 -0.0351
  707TMC3     O10509   2.146   1.558   0.706  0.3608 -0.3337  0.4655
  707TMC3     H10510   2.044   1.369   0.787  1.5147  1.8090 -3.3350
  707TMC3    H110511   1.822   1.729   0.864  0.9372 -0.6885  0.6145
  707TMC3    H210512   1.623   1.349   0.877  1.5861 -0.3280  2.8781
  707TMC3    C710513   1.598   1.615   0.875 -0.4246 -0.4770  0.4044
  707TMC3    C810514   1.837   1.215   0.845 -0.8176 -0.2309  0.0972
  707TMC3    O110515   1.595   1.731   0.914 -0.1437  0.1335  0.4973
  707TMC3    O210516   1.769   1.170   0.934  0.0095 -0.1290 -0.3126
  708MPD2     C10517   4.317   0.939  13.981 -0.4420  0.5289 -0.1458
  708MPD2    C110518   4.226   1.044  14.004  0.3518 -0.0773 -0.1748
  708MPD2    C210519   4.137   1.026  14.111 -0.2698 -0.8563 -0.0010
  708MPD2    C310520   4.121   0.903  14.173 -0.3474 -0.0608 -0.3109
  708MPD2    C410521   4.207   0.796  14.136 -0.6585 -0.8224  0.3590
  708MPD2    C510522   4.309   0.819  14.045 -0.2340  0.3752 -0.4211
  708MPD2     H10523   4.066   1.101  14.142  4.1395  2.1787  2.6847
  708MPD2    H110524   4.193   0.697  14.177  0.3730 -1.4300 -0.7435
  708MPD2    H210525   4.388   0.934  13.899 -0.1083  0.2694  0.1582
  708MPD2    H310526   4.385   0.747  14.017 -2.9187 -3.1769  1.5532
  708MPD2     N10527   3.999   0.886  14.245 -0.1201  0.3143  0.3413
  708MPD2    H510528   3.944   0.971  14.251  0.1824  0.5347  0.0066
  708MPD2    N110529   4.222   1.151  13.910 -0.2541  0.3265  0.0465
  708MPD2    H710530   4.282   1.153  13.828  0.0654 -0.2102  0.2683
  709TMC3    C110531   4.102   1.311  13.788  0.6741  0.9257  0.2048
  709TMC3    C210532   4.034   1.428  13.805 -0.4640  0.0367 -0.1349
  709TMC3    C310533   3.923   1.441  13.729 -0.3461 -0.2585 -0.2243
  709TMC3    C410534   4.065   1.215  13.695  0.2915  0.3215  0.6408
  709TMC3    C510535   3.942   1.224  13.638  0.0923  0.4208  0.0836
  709TMC3    C610536   3.868   1.344  13.648  0.5166  0.0189 -0.7032
  709TMC3     C10537   4.138   1.260  13.918  0.0857 -0.5561 -0.4070
  709TMC3     O10538   4.089   1.322  14.011  0.0360 -0.2243  0.5086
  709TMC3     H10539   4.075   1.506  13.868 -2.6030 -0.0029  1.2946
  709TMC3    H110540   4.128   1.129  13.671 -1.1023 -0.9580  1.5495
  709TMC3    H210541   3.772   1.356  13.599  1.7390  0.0094 -3.1326
  709TMC3    C710542   3.862   1.102  13.660  0.5456 -0.0450  0.2660
  709TMC3    C810543   3.863   1.575  13.724  0.0301  0.0614 -0.4986
  709TMC3    O110544   3.924   1.001  13.679  0.2796 -0.0234 -0.2304
  709TMC3    O210545   3.857   1.633  13.831 -0.0868  0.1212  0.0983
  710TMC3    C110546   0.107   2.834   0.242  0.7115 -0.7061  0.1203
  710TMC3    C210547   0.172   2.825   0.122 -0.6292 -0.1130  0.4721
  710TMC3    C310548   0.304   2.784   0.121  0.0199  0.3224  0.4951
  710TMC3    C410549   0.174   2.814   0.364  0.0872  0.0603 -0.0604
  710TMC3    C510550   0.304   2.773   0.359  0.6265 -0.6516  0.0622
  710TMC3    C610551   0.366   2.757   0.240 -0.4143 -0.4839 -0.6048
  710TMC3     C10552   4.703   2.868   0.242  0.3113 -0.0525  0.1412
  710TMC3     O10553   4.636   2.818   0.148  0.0547  0.4356  0.1112
  710TMC3     H10554   0.127   2.852   0.027  0.1637 -0.4696 -0.0047
  710TMC3    H110555   0.116   2.811   0.455  0.7938  0.3455  0.3935
  710TMC3    H210556   0.472   2.738   0.238 -0.6132 -1.4998 -1.3205
  710TMC3    C710557   0.355   2.682   0.455 -0.1336  0.4004 -0.3447
  710TMC3    C810558   0.376   2.775  17.758 -0.2839  0.5461  0.3186
  710TMC3    O110559   0.439   2.607   0.415  0.0715 -0.4977  0.3970
  710TMC3    O210560   0.354   2.856  17.669 -0.1281  0.5784  0.2465
  711TMC3    C110561   3.975   3.558  14.961  0.6423  0.8579  0.4765
  711TMC3    C210562   3.997   3.607  15.079  0.3226 -0.8330 -0.1965
  711TMC3    C310563   4.119   3.605  15.140  0.1012  0.3143 -0.0208
  711TMC3    C410564   4.075   3.496  14.893 -0.2564 -1.0602  0.0033
  711TMC3    C510565   4.196   3.483  14.961 -0.0108  0.4738  0.4492
  711TMC3    C610566   4.220   3.560  15.069  0.7453  0.2781  0.8856
  711TMC3     C10567   3.854   3.488  14.949 -0.5154  0.5511  0.0519
  711TMC3     O10568   3.818   3.456  14.839  0.1879  0.5439  0.6326
  711TMC3     H10569   3.915   3.654  15.132  1.9086 -0.4170  1.8659
  711TMC3    H110570   4.055   3.432  14.808 -3.3616  1.2227 -0.9354
  711TMC3    H210571   4.321   3.567  15.108  1.4813 -0.5188 -0.8903
  711TMC3    C710572   4.221   3.346  15.001 -0.1383 -0.3040  0.0360
  711TMC3    C810573   4.100   3.534  15.268 -0.5630 -0.4859  0.3848
  711TMC3    O110574   4.321   3.323  15.067  0.6215  0.0468  0.9550
  711TMC3    O210575   3.982   3.500  15.295  0.2251 -0.5170  0.1966
  712MPD2     C10576   0.910   4.595  13.523 -0.3043  0.3198 -0.0712
  712MPD2    C110577   0.910   4.624  13.388 -0.1183  0.0820 -0.5276
  712MPD2    C210578   0.957   0.007  13.354  0.1736 -0.2758 -0.3799
  712MPD2    C310579   0.997   0.101  13.446 -0.4714 -0.2610 -0.1681
  712MPD2    C410580   0.985   0.072  13.577 -0.2448 -0.3793 -0.8019
  712MPD2    C510581   0.952   4.689  13.613  0.0581  0.3331  0.0543
  712MPD2     H10582   0.975   0.037  13.251 -2.1631  0.1241 -0.6590
  712MPD2    H110583   1.007   0.145  13.654  1.1186  0.1186 -1.6574
  712MPD2    H210584   0.893   4.492  13.554 -0.2015 -0.4118 -2.4797
  712MPD2    H310585   0.947   4.665  13.719  2.1970 -1.0065 -0.1555
  712MPD2     N10586   1.047   0.226  13.403 -0.1966  0.3488  0.0559
  712MPD2    H510587   1.039   0.245  13.304 -0.9761  1.9746  0.4365
  712MPD2    N110588   0.892   4.524  13.285 -0.4435  0.1641 -0.2688
  712MPD2    H710589   0.926   4.544  13.192 -0.1982  2.2652  0.2819
  713TMC3    C110590   1.165   0.427  13.408  0.5226 -0.2695 -0.0353
  713TMC3    C210591   1.293   0.469  13.415 -0.1117  0.6112  0.0812
  713TMC3    C310592   1.333   0.549  13.313  0.3725 -1.1018  0.7499
  713TMC3    C410593   1.070   0.482  13.322 -0.8401  0.0211  0.1064
  713TMC3    C510594   1.113   0.576  13.236 -0.3853  0.6318  0.2779
  713TMC3    C610595   1.242   0.609  13.226 -0.8154  0.1113 -0.2082
  713TMC3     C10596   1.136   0.303  13.477  0.4601 -0.5204 -0.0047
  713TMC3     O10597   1.188   0.278  13.584  0.2503  0.3929  0.4899
  713TMC3     H10598   1.359   0.415  13.482  0.1076  0.7876  0.0080
  713TMC3    H110599   0.974   0.432  13.317  0.1170 -1.9695  1.6357
  713TMC3    H210600   1.284   0.666  13.144 -2.4414  2.6151  0.7217
  713TMC3    C710601   1.036   0.617  13.120 -0.5621  0.0641 -0.5253
  713TMC3    C810602   1.473   0.586  13.300  0.6096 -0.1438 -0.7511
  713TMC3    O110603   1.096   0.653  13.020  0.7750 -0.3129  0.6095
  713TMC3    O210604   1.514   0.604  13.187 -0.4556 -0.2835  0.4084
  714MPD2     C10605   3.105   3.831   1.315  0.5823 -0.1296 -0.0627
  714MPD2    C110606   3.136   3.719   1.243  0.0064 -0.3943 -0.2554
  714MPD2    C210607   3.035   3.644   1.183  0.1929 -0.0482  0.1561
  714MPD2    C310608   2.901   3.679   1.199  0.0512 -0.0529 -0.2187
  714MPD2    C410609   2.869   3.791   1.277  0.5223 -0.7253 -0.1489
  714MPD2    C510610   2.974   3.865   1.335  0.1892  0.1752  0.0608
  714MPD2     H10611   3.066   3.564   1.116 -0.6510 -0.5408  0.3567
  714MPD2    H110612   2.766   3.812   1.304  0.2583  0.1815 -1.8523
  714MPD2    H210613   3.180   3.901   1.350  0.3211  0.6509 -1.0594
  714MPD2    H310614   2.951   3.954   1.392  0.9414  1.3526 -1.4817
  714MPD2     N10615   2.798   3.593   1.143  0.1114  0.0423 -0.1355
  714MPD2    H510616   2.839   3.508   1.105  0.3874 -0.3784  1.0997
  714MPD2    N110617   3.276   3.692   1.228  0.4296  0.0660 -0.0377
  714MPD2    H710618   3.339   3.761   1.268  2.9795 -1.1262 -1.9708
  715TMC3    C110619   3.470   3.588   1.144 -0.2845 -0.3473  0.6110
  715TMC3    C210620   3.523   3.481   1.083  0.3109  0.0499  0.6907
  715TMC3    C310621   3.662   3.473   1.090 -0.0084 -1.1705  0.3548
  715TMC3    C410622   3.544   3.691   1.204  0.0855  0.1424  0.0496
  715TMC3    C510623   3.688   3.675   1.200  0.2897  0.1907 -0.4126
  715TMC3    C610624   3.742   3.568   1.144 -0.0314  0.1473  0.7729
  715TMC3     C10625   3.325   3.583   1.162  0.4955  0.1887  0.7029
  715TMC3     O10626   3.267   3.475   1.145  0.1937  0.3278  0.1265
  715TMC3     H10627   3.457   3.414   1.028  1.5821  0.6814 -1.6386
  715TMC3    H110628   3.495   3.782   1.237 -0.6552  0.5803 -2.2538
  715TMC3    H210629   3.851   3.565   1.147  0.1344  1.1774 -4.4431
  715TMC3    C710630   3.776   3.774   1.254 -0.2630  0.3651 -0.4083
  715TMC3    C810631   3.719   3.345   1.061  0.7450 -0.1184  0.0944
  715TMC3    O110632   3.896   3.749   1.255 -0.4458 -0.2615 -0.0725
  715TMC3    O210633   3.654   3.269   0.990  1.0970  0.3187 -0.0263
  716MPD2     C10634   2.995   2.292   9.811 -0.3233 -0.5426  0.4775
  716MPD2    C110635   2.915   2.308   9.709  0.4111 -0.0996 -0.7966
  716MPD2    C210636   2.912   2.202   9.618  0.6124  0.4000  1.0710
  716MPD2    C310637   3.003   2.091   9.622  1.2864 -0.6176  0.8386
  716MPD2    C410638   3.094   2.083   9.724 -0.2651 -0.6835 -0.3347
  716MPD2    C510639   3.079   2.179   9.818  0.7438 -0.2017 -0.5522
  716MPD2     H10640   2.848   2.207   9.530 -0.4983  2.1895  1.9863
  716MPD2    H110641   3.171   2.008   9.733  0.1956 -0.2706 -0.8738
  716MPD2    H210642   3.007   2.376   9.879 -0.5478 -0.7355  0.7552
  716MPD2    H310643   3.157   2.170   9.893  0.4070  0.5457 -0.1104
  716MPD2     N10644   2.988   1.996   9.516  0.2731 -0.2774 -0.4131
  716MPD2    H510645   2.914   2.019   9.449  1.3070  1.9582 -0.8047
  716MPD2    N110646   2.828   2.421   9.704  0.2464 -0.0551  0.0010
  716MPD2    H710647   2.828   2.487   9.781 -0.4843  0.0729 -0.1146
  717TMC3    C110648   3.048   1.812   9.375 -0.5418  0.0443 -0.2172
  717TMC3    C210649   2.983   1.869   9.271 -0.3806  0.5055  0.1925
  717TMC3    C310650   2.968   1.803   9.150  0.7616  0.2066  0.1195
  717TMC3    C410651   3.117   1.691   9.361  0.6325 -0.6540 -0.0158
  717TMC3    C510652   3.094   1.621   9.246  0.4487  0.1970 -0.2622
  717TMC3    C610653   3.025   1.672   9.144  0.5464  0.3346 -0.6614
  717TMC3     C10654   3.068   1.883   9.500  0.2620  0.3861  0.4102
  717TMC3     O10655   3.155   1.842   9.575 -0.0863  0.0623 -0.6402
  717TMC3     H10656   2.949   1.972   9.274 -2.9873 -0.4012  2.3235
  717TMC3    H110657   3.184   1.655   9.439  0.3532  0.6501  0.8066
  717TMC3    H210658   2.999   1.603   9.065 -1.6351 -1.2962  1.4890
  717TMC3    C710659   3.112   1.474   9.233  0.0211  0.0517  0.1838
  717TMC3    C810660   2.866   1.860   9.061 -0.2930  0.2476  0.3549
  717TMC3    O110661   3.050   1.405   9.154  0.2119 -0.3131 -0.2180
  717TMC3    O210662   2.800   1.953   9.111 -0.2433 -0.3638  0.1330
  718MPD2     C10663   2.592   0.754  13.056  1.1291 -0.4402 -0.2045
  718MPD2    C110664   2.600   0.666  12.950  0.4393  0.2961  0.1997
  718MPD2    C210665   2.617   0.532  12.973  0.3206  0.1865  0.4638
  718MPD2    C310666   2.621   0.479  13.099 -0.6630  0.6497 -0.0416
  718MPD2    C410667   2.616   0.562  13.207 -0.5433 -0.9429  0.4918
  718MPD2    C510668   2.602   0.697  13.183  0.2309  0.0987 -0.7212
  718MPD2     H10669   2.628   0.469  12.886  2.4653 -0.1539  0.9733
  718MPD2    H110670   2.619   0.539  13.313  2.4397  0.0149  0.6112
  718MPD2    H210671   2.565   0.859  13.052 -0.9334 -1.0670 -2.4486
  718MPD2    H310672   2.604   0.763  13.268  2.0969 -1.0762  0.1531
  718MPD2     N10673   2.626   0.339  13.110 -0.0592 -0.8355  0.4655
  718MPD2    H510674   2.636   0.286  13.024  0.2735 -0.1207  0.0605
  718MPD2    N110675   2.572   0.701  12.815 -0.1776  0.0198  0.1592
  718MPD2    H710676   2.555   0.627  12.748  0.6749  0.2744 -0.3361
  719TMC3    C110677   2.513   0.815  12.630 -0.2569  0.4222 -0.1812
  719TMC3    C210678   2.468   0.690  12.609  1.0737  0.2239 -0.3425
  719TMC3    C310679   2.518   0.611  12.509 -0.0597  0.3907  0.2542
  719TMC3    C410680   2.610   0.862  12.546  0.2439 -0.2950 -0.0804
  719TMC3    C510681   2.657   0.784  12.445 -0.0716  0.2374 -0.0855
  719TMC3    C610682   2.618   0.656  12.429 -0.0799 -0.5992  0.1398
  719TMC3     C10683   2.544   0.830  12.775  0.0977 -0.0346  0.0048
  719TMC3     O10684   2.581   0.934  12.824  0.4645 -0.7788  0.7235
  719TMC3     H10685   2.378   0.664  12.663  0.3029 -0.9524 -2.2134
  719TMC3    H110686   2.648   0.962  12.563 -0.3350 -0.4306  2.0023
  719TMC3    H210687   2.668   0.599  12.352 -0.7919  0.9884 -1.5009
  719TMC3    C710688   2.767   0.841  12.366 -0.7100 -0.3540  0.1462
  719TMC3    C810689   2.501   0.471  12.518  0.2577  0.1706 -0.2700
  719TMC3    O110690   2.844   0.758  12.319  0.0418 -0.0565  0.3229
  719TMC3    O210691   2.595   0.402  12.480  0.1253  0.4831 -0.1368
  720MPD2     C10692   0.772   1.833  13.275 -0.1796 -0.7174 -0.6709
  720MPD2    C110693   0.719   1.912  13.376  0.0164  0.9099  0.5999
  720MPD2    C210694   0.763   1.894  13.512  0.1832 -0.1141  0.5827
  720MPD2    C310695   0.859   1.796  13.544 -0.1113 -0.3245  0.1199
  720MPD2    C410696   0.899   1.712  13.445 -0.2552  0.1681 -0.1161
  720MPD2    C510697   0.858   1.738  13.316 -0.4553  0.4722  0.6854
  720MPD2     H10698   0.721   1.957  13.590 -2.3108  0.4867 -1.2118
  720MPD2    H110699   0.971   1.631  13.450  0.0757  0.2751 -3.1848
  720MPD2    H210700   0.746   1.839  13.170  2.9457  1.5451 -1.3330
  720MPD2    H310701   0.896   1.680  13.232  0.0551  0.4592  0.9221
  720MPD2     N10702   0.917   1.793  13.679  0.1591  0.0554 -0.6408
  720MPD2    H510703   0.897   1.864  13.750  3.6942  0.0165  0.3636
  720MPD2    N110704   0.624   2.017  13.346  0.3629  0.3666 -0.9639
  720MPD2    H710705   0.598   2.082  13.420  2.6969 -1.0645  1.1191
  721TMC3    C110706   1.058   1.711  13.855 -0.6523  0.3720  0.5630
  721TMC3    C210707   0.970   1.738  13.957 -0.2534  0.4869 -0.2552
  721TMC3    C310708   1.010   1.720  14.085 -0.4980  0.1127  0.5686
  721TMC3    C410709   1.179   1.666  13.889  0.2790  0.6003 -0.1545
  721TMC3    C510710   1.219   1.653  14.020 -1.0664  0.2171 -0.2677
  721TMC3    C610711   1.137   1.680  14.126 -0.4709  0.5543  0.2400
  721TMC3     C10712   1.012   1.698  13.717 -0.4313 -0.2487  0.8032
  721TMC3     O10713   1.062   1.607  13.654 -0.2802 -0.3668 -0.8767
  721TMC3     H10714   0.867   1.760  13.932 -0.4133  0.8233  0.6680
  721TMC3    H110715   1.254   1.656  13.811 -0.7398 -0.8821 -0.9296
  721TMC3    H210716   1.155   1.659  14.231 -2.6841  0.0115  0.5226
  721TMC3    C710717   1.366   1.662  14.032  0.0199 -0.6241  0.1080
  721TMC3    C810718   0.937   1.786  14.189  0.5742  0.6237  1.2173
  721TMC3    O110719   1.424   1.726  13.943  0.4702  0.5689 -1.3231
  721TMC3    O210720   0.902   1.903  14.163  0.0749 -0.1002 -0.1573
  722MPD2     C10721   4.718   0.303  13.542 -0.1079  0.4175  0.0411
  722MPD2    C110722   4.636   0.401  13.484  0.0846  0.4251 -0.2630
  722MPD2    C210723   4.502   0.397  13.510 -0.7544  0.4247  0.4153
  722MPD2    C310724   4.449   0.316  13.612 -0.7364 -0.0810 -0.5507
  722MPD2    C410725   4.533   0.235  13.686  0.2674 -0.5657  0.3613
  722MPD2    C510726   4.667   0.234  13.646  0.5602  0.0321 -0.1907
  722MPD2     H10727   4.432   0.456  13.453 -0.4965  0.8484  0.5345
  722MPD2    H110728   4.510   0.179  13.776  0.9601  0.8164  1.3930
  722MPD2    H210729   0.082   0.285  13.518 -0.6267 -3.4353  0.6192
  722MPD2    H310730   4.741   0.172  13.696  1.2752  0.3138 -0.9030
  722MPD2     N10731   4.309   0.306  13.619 -0.7677 -0.7780 -0.4860
  722MPD2    H510732   4.255   0.345  13.543 -0.4688 -1.0306 -0.8278
  722MPD2    N110733   4.672   0.464  13.364  0.3663 -0.4847 -0.0899
  722MPD2    H710734   4.598   0.501  13.305  0.0485  1.3421  1.4281
  723TMC3    C110735   4.089   0.280  13.684  0.5213  0.5092 -0.2215
  723TMC3    C210736   4.014   0.159  13.687 -0.4609 -0.5914  0.1468
  723TMC3    C310737   3.916   0.153  13.600 -0.0466  1.2797 -0.0517
  723TMC3    C410738   4.068   0.389  13.602 -0.4547 -0.2177 -0.4252
  723TMC3    C510739   3.956   0.372  13.523 -0.1738 -0.0524 -0.1342
  723TMC3    C610740   3.879   0.257  13.521 -0.1903  0.4412  0.6109
  723TMC3     C10741   4.227   0.254  13.718 -0.0950 -0.2277 -0.9862
  723TMC3     O10742   4.246   0.179  13.812 -0.0538 -0.7220  0.0702
  723TMC3     H10743   4.054   0.076  13.745  0.5032  1.1758  2.0511
  723TMC3    H110744   4.117   0.484  13.615 -0.9417  0.2958 -2.2803
  723TMC3    H210745   3.788   0.249  13.462 -0.2359 -0.1268  0.7620
  723TMC3    C710746   3.943   0.454  13.403 -0.3488  0.1890  0.1465
  723TMC3    C810747   3.868   0.024  13.559  0.1500 -0.1125 -0.1695
  723TMC3    O110748   3.854   0.428  13.326 -0.4747  0.0019 -0.1532
  723TMC3    O210749   3.852   4.674  13.639 -0.4379  0.5432  0.0202
  724TMC3    C110750   0.438   3.620   9.644 -0.6442 -0.6970 -0.4815
  724TMC3    C210751   0.375   3.737   9.690 -0.6040  0.6650  0.6095
  724TMC3    C310752   0.443   3.833   9.747 -0.1077 -0.4664 -0.6502
  724TMC3    C410753   0.575   3.616   9.651  0.3205 -0.8206  0.2648
  724TMC3    C510754   0.644   3.725   9.705  0.2547 -0.4061  0.1823
  724TMC3    C610755   0.577   3.834   9.754  0.2735 -0.4574  0.3563
  724TMC3     C10756   0.353   3.501   9.641 -0.0113  0.1762 -0.2950
  724TMC3     O10757   0.398   3.398   9.682  1.1314 -0.1633  0.1227
  724TMC3     H10758   0.267   3.732   9.704 -0.6893  0.0263 -0.2300
  724TMC3    H110759   0.628   3.530   9.613 -0.9306 -0.9629 -1.1531
  724TMC3    H210760   0.631   3.922   9.785 -1.0728 -0.4356  2.6242
  724TMC3    C710761   0.788   3.744   9.704  0.3404 -0.0458 -0.9209
  724TMC3    C810762   0.367   3.955   9.782  0.4459  0.8631 -0.0694
  724TMC3    O110763   0.834   3.844   9.757  0.2254  0.4251 -0.2046
  724TMC3    O210764   0.251   3.959   9.737 -0.1306  0.2414 -0.0878
  725TMC3    C110765   1.462   3.021  12.288  0.1453  0.6284  0.0584
  725TMC3    C210766   1.347   3.096  12.297  0.7314  0.3759 -0.4744
  725TMC3    C310767   1.234   3.033  12.329  0.0165 -0.2961  0.0834
  725TMC3    C410768   1.457   2.891  12.309 -0.0277 -0.1083  0.5736
  725TMC3    C510769   1.336   2.833  12.339 -0.5947  0.3508  0.0056
  725TMC3    C610770   1.220   2.895  12.342  0.7154 -0.6607  0.0057
  725TMC3     C10771   1.588   3.095  12.302 -0.4840  0.6099 -0.5526
  725TMC3     O10772   1.692   3.038  12.337  0.8112  0.0313  0.6725
  725TMC3     H10773   1.351   3.203  12.285  1.2486  0.2109 -1.8610
  725TMC3    H110774   1.548   2.833  12.312 -0.2067 -0.5262 -1.4868
  725TMC3    H210775   1.119   2.857  12.350  1.3638 -2.7329 -2.0082
  725TMC3    C710776   1.341   2.690  12.317  0.4972 -0.2473 -0.0596
  725TMC3    C810777   1.114   3.106  12.307 -0.6756  0.2590  0.1940
  725TMC3    O110778   1.437   2.638  12.267 -0.3642  0.0654  0.0145
  725TMC3    O210779   1.020   3.098  12.386  0.0679  0.6353 -0.0720
  726MPD2     C10780   3.680   4.282   9.887 -0.2414 -0.7127  0.4372
  726MPD2    C110781   3.572   4.361   9.935 -0.1795 -0.3588  0.0791
  726MPD2    C210782   3.454   4.299   9.969  0.6136  0.1511 -0.3202
  726MPD2    C310783   3.437   4.160   9.958 -0.1759 -0.4732 -0.0845
  726MPD2    C410784   3.544   4.079   9.926 -0.2324 -0.2001 -0.3071
  726MPD2    C510785   3.664   4.146   9.890  0.0634 -0.0687 -0.1848
  726MPD2     H10786   3.372   4.365   9.994  1.5829  0.6508  1.5528
  726MPD2    H110787   3.531   3.972   9.924  2.0335 -0.4665  0.5180
  726MPD2    H210788   3.773   4.321   9.848 -0.9707 -1.6524 -2.2592
  726MPD2    H310789   3.751   4.089   9.861 -0.1858 -0.4595 -0.1746
  726MPD2     N10790   3.312   4.104   9.995  0.7316 -0.1425  0.2471
  726MPD2    H510791   3.256   4.162  10.058  2.3607  1.5870  0.1065
  726MPD2    N110792   3.567   4.499   9.931  0.0220 -0.3608 -0.5678
  726MPD2    H710793   3.474   4.540   9.935  0.9734  1.7749  0.0110
  727TMC3    C110794   3.667   4.713   9.880  0.3536 -0.2008 -0.1972
  727TMC3    C210795   3.771   0.058   9.900  0.0691 -0.3882 -0.2668
  727TMC3    C310796   3.743   0.192   9.885  0.4814  0.2835 -0.1707
  727TMC3    C410797   3.544   0.003   9.835  0.0413  0.2056  0.2419
  727TMC3    C510798   3.520   0.136   9.807 -1.1256 -0.0185 -0.4695
  727TMC3    C610799   3.624   0.229   9.835 -0.0726 -0.0258 -0.0088
  727TMC3     C10800   3.681   4.570   9.898 -0.1783  0.2528  1.0045
  727TMC3     O10801   3.798   4.538   9.916 -0.1647  0.3711  0.3257
  727TMC3     H10802   3.864   0.023   9.943 -0.6460 -0.2727  1.3908
  727TMC3    H110803   3.474   4.674   9.790  0.7250  1.2531 -2.4855
  727TMC3    H210804   3.611   0.337   9.831  2.4462  0.3505  2.8614
  727TMC3    C710805   3.402   0.168   9.735  0.7161 -0.1341 -0.7694
  727TMC3    C810806   3.844   0.287   9.940  0.6379  0.1984  0.1571
  727TMC3    O110807   3.311   0.083   9.725 -0.2895 -0.2849  0.1550
  727TMC3    O210808   3.926   0.229  10.016 -0.0723 -0.5249  0.0448
  728TMC3    C110809   2.877   1.933  15.209  0.8326  0.1949  0.0541
  728TMC3    C210810   2.997   1.937  15.270  0.3392 -0.0395 -0.8193
  728TMC3    C310811   3.088   2.017  15.207 -0.1630 -0.6136 -0.1513
  728TMC3    C410812   2.840   2.001  15.096  0.4492 -0.8425  0.1307
  728TMC3    C510813   2.932   2.076  15.035  0.3717 -0.2603  0.0378
  728TMC3    C610814   3.059   2.086  15.085 -0.9106  0.0712 -0.4795
  728TMC3     C10815   2.763   1.890  15.280 -0.0425  0.5673 -0.7676
  728TMC3     O10816   2.774   1.789  15.351 -0.1315 -0.3071  0.1750
  728TMC3     H10817   3.027   1.884  15.359 -1.4861  1.4150  0.6700
  728TMC3    H110818   2.747   1.980  15.043  0.1598 -0.9677  0.6931
  728TMC3    H210819   3.134   2.135  15.024 -1.5332 -3.3885 -4.0685
  728TMC3    C710820   2.894   2.130  14.907  0.3882 -0.6501 -0.1916
  728TMC3    C810821   3.210   2.037  15.280  0.3202 -0.0738  0.4581
  728TMC3    O110822   2.804   2.074  14.846 -0.0253 -0.2313  0.1627
  728TMC3    O210823   3.241   1.956  15.366 -0.1135 -0.5701 -0.8697
  729MPD2     C10824   0.248   3.543  16.546 -0.4357  0.4169 -0.3356
  729MPD2    C110825   0.367   3.486  16.507 -0.4757 -0.4159  0.4458
  729MPD2    C210826   0.457   3.459  16.609  0.2039  0.5102  0.0379
  729MPD2    C310827   0.425   3.493  16.737  0.1049 -0.3869  0.5545
  729MPD2    C410828   0.308   3.546  16.769  0.3607  0.0859 -0.1168
  729MPD2    C510829   0.216   3.568  16.668 -0.0666  0.3508  0.2861
  729MPD2     H10830   0.559   3.424  16.595 -0.3919 -1.7863  1.5851
  729MPD2    H110831   0.286   3.592  16.865 -1.4691  1.8934 -1.3985
  729MPD2    H210832   0.171   3.561  16.472 -1.2896 -0.4011  0.3558
  729MPD2    H310833   0.121   3.612  16.695 -0.0851  0.6224 -0.2130
  729MPD2     N10834   0.512   3.495  16.847 -0.4352  0.6384  0.0461
  729MPD2    H510835   0.473   3.545  16.925 -1.3035 -0.6702  0.4522
  729MPD2    N110836   0.381   3.462  16.366  0.1729  0.0156 -0.1283
  729MPD2    H710837   0.311   3.490  16.299 -1.3825 -0.9477  1.0768
  730TMC3    C110838   0.678   3.416  16.993  0.3096 -0.0739  0.1310
  730TMC3    C210839   0.813   3.414  16.990  0.1767  0.0643 -0.0750
  730TMC3    C310840   0.877   3.495  17.080 -0.0083  0.0683 -0.3654
  730TMC3    C410841   0.611   3.493  17.080 -0.3528  1.1300  0.3299
  730TMC3    C510842   0.675   3.580  17.168  0.8320  0.8854 -0.4646
  730TMC3    C610843   0.812   3.575  17.171  0.3466 -0.6595 -0.0195
  730TMC3     C10844   0.628   3.418  16.863  0.1794 -0.5638 -0.4948
  730TMC3     O10845   0.674   3.346  16.771 -0.2687  0.0080 -0.0763
  730TMC3     H10846   0.866   3.351  16.920 -1.2444 -1.7866  0.5359
  730TMC3    H110847   0.504   3.488  17.090 -0.3909  2.3727  0.6155
  730TMC3    H210848   0.862   3.641  17.241  2.1917  1.4390 -3.3079
  730TMC3    C710849   0.609   3.714  17.160  0.4765 -0.2552  0.2749
  730TMC3    C810850   1.012   3.525  17.043 -0.4198 -0.3720 -0.5167
  730TMC3    O110851   0.509   3.716  17.085  0.5378 -0.2589 -0.4397
  730TMC3    O210852   1.054   3.468  16.944  0.2905 -0.1035 -0.1536
  731MPD2     C10853   0.621   2.736  11.731 -0.1516  0.2407 -0.0924
  731MPD2    C110854   0.673   2.619  11.690  0.8709 -0.1391  0.1509
  731MPD2    C210855   0.729   2.533  11.781  0.6133 -0.0750  0.9508
  731MPD2    C310856   0.724   2.552  11.918  0.2879 -0.6432 -0.5021
  731MPD2    C410857   0.674   2.667  11.958 -0.4685 -0.2274  0.4507
  731MPD2    C510858   0.619   2.755  11.867  0.7141 -0.2233  0.0873
  731MPD2     H10859   0.787   2.451  11.739 -4.1346 -1.6709 -2.4773
  731MPD2    H110860   0.669   2.693  12.063 -1.9670 -2.1394  0.8599
  731MPD2    H210861   0.587   2.819  11.669 -0.2635  0.8796  0.8243
  731MPD2    H310862   0.599   2.856  11.902 -0.4943 -0.2441 -0.5392
  731MPD2     N10863   0.772   2.456  12.004 -0.5452  0.1876 -0.2713
  731MPD2    H510864   0.812   2.371  11.965  0.2217  0.1494  0.5876
  731MPD2    N110865   0.672   2.595  11.547  0.1945 -0.1036 -0.1833
  731MPD2    H710866   0.633   2.668  11.488 -1.9711 -0.5153  0.7273
  732TMC3    C110867   0.717   2.487  11.345 -0.6530  0.9055 -0.1090
  732TMC3    C210868   0.589   2.449  11.304  0.1379 -0.0382  0.0160
  732TMC3    C310869   0.571   2.374  11.186  0.1054  0.1532  0.6782
  732TMC3    C410870   0.821   2.427  11.282 -0.1392 -0.3675 -0.3564
  732TMC3    C510871   0.799   2.364  11.162  0.0007 -0.3694 -0.4267
  732TMC3    C610872   0.678   2.334  11.116  0.8453 -0.1969 -0.0382
  732TMC3     C10873   0.740   2.493  11.483 -0.3677  0.2296  0.6259
  732TMC3     O10874   0.831   2.423  11.523  0.0460  0.0982  0.1239
  732TMC3     H10875   0.506   2.491  11.359  0.0329 -0.0876 -0.1072
  732TMC3    H110876   0.916   2.461  11.321 -0.5291  2.0059 -1.4636
  732TMC3    H210877   0.668   2.285  11.020  2.2479  0.4474 -0.5223
  732TMC3    C710878   0.896   2.268  11.137  0.0321  0.3528 -0.0070
  732TMC3    C810879   0.443   2.310  11.142  0.0578  0.2026  0.1453
  732TMC3    O110880   0.887   2.210  11.034  0.0662 -0.4962 -0.1021
  732TMC3    O210881   0.430   2.291  11.023 -0.4813 -0.4351 -0.4307
  733TMC3    C110882   2.549   4.657  13.258 -0.1770  0.8803 -0.0061
  733TMC3    C210883   2.592   0.043  13.296  0.0215  0.2780 -0.1188
  733TMC3    C310884   2.625   0.128  13.195 -0.7122 -0.2325 -0.3992
  733TMC3    C410885   2.558   4.608  13.135 -0.1385 -0.4964  0.1662
  733TMC3    C510886   2.581   4.699  13.039  0.0485 -0.4062  0.0383
  733TMC3    C610887   2.629   0.083  13.066 -0.4771  0.6348 -0.0136
  733TMC3     C10888   2.432   4.620  13.327  0.1575  0.0528 -0.7192
  733TMC3     O10889   2.366   4.708  13.386 -0.0898  0.4292  0.3469
  733TMC3     H10890   2.577   0.085  13.395  0.5694 -0.9488  0.4810
  733TMC3    H110891   2.522   4.511  13.101  0.4309 -0.2607 -1.1258
  733TMC3    H210892   2.665   0.149  12.988  1.7906  0.2928  0.7540
  733TMC3    C710893   2.481   4.704  12.935  0.7733  0.5017  0.4901
  733TMC3    C810894   2.628   0.272  13.224  0.6281  0.1892  0.1842
  733TMC3    O110895   2.384   4.632  12.940 -0.3757 -0.3541 -0.2197
  733TMC3    O210896   2.635   0.304  13.342  0.2929 -0.0786  0.3128
  734MPD2     C10897   3.763   3.147  12.149  0.2722 -0.5485  0.6770
  734MPD2    C110898   3.689   3.078  12.059 -0.3157 -0.9233  0.5264
  734MPD2    C210899   3.730   3.062  11.928 -0.4118  0.6681  0.2947
  734MPD2    C310900   3.843   3.131  11.895 -0.2803 -0.7219 -0.0254
  734MPD2    C410901   3.918   3.201  11.986 -0.8624 -0.4670  0.8423
  734MPD2    C510902   3.872   3.218  12.112 -0.2003 -0.2816  0.6018
  734MPD2     H10903   3.678   2.997  11.859  0.7560 -1.0789  1.0794
  734MPD2    H110904   4.011   3.246  11.954 -0.6893 -2.6411 -1.7166
  734MPD2    H210905   3.731   3.140  12.252 -0.0272 -1.9753  0.4923
  734MPD2    H310906   3.931   3.273  12.184 -2.1217  1.5830  0.7230
  734MPD2     N10907   3.895   3.107  11.768  0.3151 -0.2289  0.1339
  734MPD2    H510908   3.837   3.044  11.713 -0.5556  2.5480 -2.1348
  734MPD2    N110909   3.577   3.007  12.119 -0.5798 -0.7325  0.2672
  734MPD2    H710910   3.545   3.037  12.210  3.3712  2.3342  0.6803
  735TMC3    C110911   3.401   2.850  12.113  0.5123  0.6269 -0.6556
  735TMC3    C210912   3.323   2.779  12.029  0.5049  0.1312 -0.1538
  735TMC3    C310913   3.312   2.642  12.044 -0.3959  0.1795 -1.0810
  735TMC3    C410914   3.470   2.783  12.218 -0.8372 -0.1622 -0.1942
  735TMC3    C510915   3.470   2.648  12.224 -0.8505  0.1905 -0.0059
  735TMC3    C610916   3.387   2.573  12.139 -0.1287  0.1734 -0.0167
  735TMC3     C10917   3.489   2.938  12.038 -0.1047  0.2821  0.0699
  735TMC3     O10918   3.469   2.927  11.917 -0.0051 -0.2052  0.0894
  735TMC3     H10919   3.269   2.828  11.948  0.1008  2.2028  1.3745
  735TMC3    H110920   3.520   2.844  12.292 -2.6227  1.5477 -0.4082
  735TMC3    H210921   3.391   2.464  12.136  0.4294  0.1895  0.1222
  735TMC3    C710922   3.607   2.601  12.251 -0.7607  0.3460  0.4828
  735TMC3    C810923   3.337   2.572  11.919  0.6113 -0.0641 -0.3689
  735TMC3    O110924   3.693   2.683  12.278 -0.3464 -0.0610  0.0062
  735TMC3    O210925   3.281   2.464  11.900 -0.1639 -0.1217 -0.0687
  736MPD2     C10926   3.730   2.246  12.237  0.5480 -0.5686 -0.3447
  736MPD2    C110927   3.729   2.386  12.216  0.4731  0.0896 -0.5213
  736MPD2    C210928   3.843   2.441  12.165 -1.1131  0.1762  0.0668
  736MPD2    C310929   3.955   2.361  12.142 -0.6123  0.3771  0.0030
  736MPD2    C410930   3.959   2.217  12.155  0.6617 -0.0797 -0.2085
  736MPD2    C510931   3.848   2.167  12.219  0.0612 -0.4424 -0.6901
  736MPD2     H10932   3.856   2.549  12.155  1.1466 -0.1361 -0.3729
  736MPD2    H110933   4.052   2.164  12.136 -0.7288 -2.0668 -1.4237
  736MPD2    H210934   3.639   2.197  12.269  2.0614 -1.9632  1.8422
  736MPD2    H310935   3.857   2.067  12.261  1.7380  0.2206  0.5356
  736MPD2     N10936   4.071   2.408  12.081 -0.4302  0.1257  0.5111
  736MPD2    H510937   4.136   2.336  12.051 -1.9041 -0.5763 -0.9866
  736MPD2    N110938   3.610   2.463  12.239 -0.0920 -0.4368  0.4022
  736MPD2    H710939   3.526   2.412  12.266 -0.7540 -1.0938 -2.8690
  737TMC3    C110940   4.207   2.542  11.932  0.4977 -0.4579  0.1673
  737TMC3    C210941   4.246   2.668  11.900  0.2384  0.5550  0.3608
  737TMC3    C310942   4.314   2.696  11.778 -0.1451  0.2486 -1.2557
  737TMC3    C410943   4.231   2.439  11.841  0.5568 -0.2066 -0.3577
  737TMC3    C510944   4.307   2.460  11.731  0.3221 -0.4284 -0.6426
  737TMC3    C610945   4.343   2.587  11.696  0.0428 -0.6065  0.2530
  737TMC3     C10946   4.096   2.531  12.029 -0.0928  0.5270  0.2538
  737TMC3     O10947   4.034   2.637  12.041  0.3335  0.6224 -0.2624
  737TMC3     H10948   4.217   2.747  11.969  1.1196  1.4523 -0.2940
  737TMC3    H110949   4.195   2.340  11.869 -0.3832 -0.5103 -2.6241
  737TMC3    H210950   4.392   2.614  11.603  0.0902 -2.7148 -0.3570
  737TMC3    C710951   4.338   2.359  11.637 -1.0631 -0.5629 -0.4864
  737TMC3    C810952   4.366   2.837  11.763  0.0959  0.3086 -0.2533
  737TMC3    O110953   4.277   2.255  11.660 -0.4657 -0.1212  0.4032
  737TMC3    O210954   4.349   2.913  11.855 -0.3658  0.5387 -0.6853
  738MPD2     C10955   0.360   0.700  15.268  0.4267  0.2510  0.3030
  738MPD2    C110956   0.239   0.721  15.204  0.6434  0.8154 -0.5785
  738MPD2    C210957   0.222   0.824  15.113  0.4824 -0.4618  0.2571
  738MPD2    C310958   0.326   0.909  15.101  0.2708  0.3580 -0.5030
  738MPD2    C410959   0.449   0.876  15.149 -0.1858  0.4852  0.4521
  738MPD2    C510960   0.471   0.774  15.232 -0.2649  0.3722  0.1823
  738MPD2     H10961   0.125   0.835  15.067  1.2645 -0.9267 -1.5176
  738MPD2    H110962   0.536   0.940  15.137 -0.4766  0.8371  0.1885
  738MPD2    H210963   0.377   0.614  15.332  0.1292  0.3160  0.4719
  738MPD2    H310964   0.562   0.751  15.285  0.1470 -0.1956 -0.7681
  738MPD2     N10965   0.334   1.029  15.020 -0.5868 -0.2745  0.2156
  738MPD2    H510966   0.418   1.085  15.010 -1.3431  1.0393  1.1466
  738MPD2    N110967   0.134   0.623  15.225  0.2353 -0.1139 -0.3956
  738MPD2    H710968   0.048   0.631  15.173  0.7236  0.5543 -1.0970
  739TMC3    C110969   0.274   1.154  14.823  0.4376  0.1300  0.0627
  739TMC3    C210970   0.241   1.137  14.696  0.0148  0.5581  0.3111
  739TMC3    C310971   0.301   1.217  14.607  0.0885  0.7878 -0.1942
  739TMC3    C410972   0.361   1.247  14.864 -0.5689 -0.5269  0.1608
  739TMC3    C510973   0.429   1.319  14.773  0.6553 -0.2076 -0.1948
  739TMC3    C610974   0.394   1.311  14.643  0.1374  0.0808  0.0578
  739TMC3     C10975   0.238   1.054  14.921 -0.1873  0.9270 -0.1371
  739TMC3     O10976   0.131   1.003  14.905  0.4449  0.2333  0.0991
  739TMC3     H10977   0.172   1.058  14.670 -0.3204  0.3177  1.9352
  739TMC3    H110978   0.397   1.250  14.967  0.1379 -0.0766 -0.0977
  739TMC3    H210979   0.453   1.377  14.581  1.6152 -1.6502 -0.3799
  739TMC3    C710980   0.491   1.442  14.810 -0.3421 -0.1534  0.5074
  739TMC3    C810981   0.290   1.164  14.472 -0.6210 -0.4648  0.6491
  739TMC3    O110982   0.570   1.493  14.727  0.8142  0.2734  0.4966
  739TMC3    O210983   0.242   1.053  14.461 -0.1627 -0.4798 -0.4646
  740TMC3    C110984   4.636   2.713  13.983  0.3763  0.0100  0.3108
  740TMC3    C210985   0.016   2.673  14.038  0.0730  0.3019 -0.5928
  740TMC3    C310986   0.110   2.627  13.953  0.2630  0.0610  0.3041
  740TMC3    C410987   4.607   2.702  13.848  0.4926  0.0982 -0.2663
  740TMC3    C510988   4.710   2.664  13.769 -0.3987 -1.1944 -0.2052
  740TMC3    C610989   0.084   2.623  13.819 -0.2066 -0.0302  0.0703
  740TMC3     C10990   4.532   2.760  14.063 -0.1474 -0.1084  0.3071
  740TMC3     O10991   4.462   2.844  14.010  0.9975 -0.3489  0.2415
  740TMC3     H10992   0.042   2.686  14.143 -2.2972 -1.7858  0.2404
  740TMC3    H110993   4.523   2.752  13.800  1.0612  1.6128  0.3102
  740TMC3    H210994   0.165   2.597  13.752 -0.1550  1.7018 -0.5221
  740TMC3    C710995   4.685   2.660  13.624  0.2938  0.0908 -0.3377
  740TMC3    C810996   0.239   2.589  14.008  0.0384  0.5331  1.0012
  740TMC3    O110997   4.565   2.653  13.595  0.4503 -0.2201 -0.4555
  740TMC3    O210998   0.330   2.594  13.929  0.2702 -0.0478 -0.1778
  741TMC3    C110999   4.718   1.287  13.269 -0.4524 -0.2110 -0.5543
  741TMC3    C211000   4.717   1.242  13.398 -0.1138 -0.3328  0.5598
  741TMC3    C311001   4.709   1.331  13.495 -0.0348  0.1395  0.8057
  741TMC3    C411002   4.697   1.420  13.236 -1.2230 -0.5095 -0.1279
  741TMC3    C511003   4.676   1.506  13.341  0.7288  0.8493  0.6596
  741TMC3    C611004   4.680   1.465  13.470  0.3200 -0.0837 -0.7030
  741TMC3     C11005   4.688   1.186  13.170 -0.3856 -0.6668  0.2374
  741TMC3     O11006   4.623   1.088  13.205 -0.4419 -0.5781  0.2841
  741TMC3     H11007   4.736   1.136  13.407 -1.5994 -0.9523 -3.6650
  741TMC3    H111008   4.696   1.453  13.133  0.0125  2.6889  0.8794
  741TMC3    H211009   4.682   1.528  13.558  0.4464 -1.0028 -0.0447
  741TMC3    C711010   4.634   1.646  13.321 -0.1476  0.2357  0.3818
  741TMC3    C811011   4.701   1.293  13.637 -0.4333 -0.2007 -0.5169
  741TMC3    O111012   4.589   1.680  13.211  0.4046  0.5932  0.2539
  741TMC3    O211013   4.662   1.375  13.719 -0.4248  0.8106 -0.4860
  742TMC3    C111014   0.128   4.349  15.417  0.9351 -0.9081  0.6432
  742TMC3    C211015   0.026   4.351  15.322  1.0786 -0.0015  0.0885
  742TMC3    C311016   0.026   4.246  15.232 -0.1874 -0.4710  0.0565
  742TMC3    C411017   0.223   4.253  15.426 -0.1937  0.7620 -0.0477
  742TMC3    C511018   0.211   4.153  15.337 -0.2009  0.8900  1.2719
  742TMC3    C611019   0.121   4.146  15.240  0.8948  0.8671 -0.4158
  742TMC3     C11020   0.108   4.450  15.519  0.1440  0.1957  0.8935
  742TMC3     O11021   0.003   4.512  15.512  0.1739 -0.4549 -1.1475
  742TMC3     H11022   4.724   4.448  15.299  1.0057 -0.0872 -0.1341
  742TMC3    H111023   0.294   4.245  15.508  0.7734  0.2366 -0.9380
  742TMC3    H211024   0.112   4.061  15.173  0.7517  0.8167 -0.3322
  742TMC3    C711025   0.294   4.034  15.345  0.7810  0.0084 -0.4285
  742TMC3    C811026   4.668   4.235  15.137 -0.4764  0.4307  0.8825
  742TMC3    O111027   0.276   3.940  15.263 -0.0398 -0.1292 -0.3131
  742TMC3    O211028   4.689   4.145  15.060 -0.2687  0.4041 -0.1118
  743MPD2     C11029   2.691   0.410   0.797  0.3397 -0.0301  0.1939
  743MPD2    C111030   2.739   0.511   0.709  0.4272  0.3186 -0.0753
  743MPD2    C211031   2.866   0.561   0.751 -0.1011  0.1514 -0.1295
  743MPD2    C311032   2.932   0.521   0.867  0.3341 -0.6592 -0.7807
  743MPD2    C411033   2.888   0.413   0.939  0.7334 -0.5132  0.2226
  743MPD2    C511034   2.766   0.361   0.901 -0.1791 -0.5116 -0.0178
  743MPD2     H11035   2.919   0.639   0.697  1.2796  0.4512  1.6339
  743MPD2    H111036   2.942   0.373   1.024  1.4188  0.3099  0.1830
  743MPD2    H211037   2.591   0.370   0.782 -1.0961  3.8121 -0.5053
  743MPD2    H311038   2.727   0.274   0.952  1.4628 -1.8922 -1.1181
  743MPD2     N11039   3.046   0.592   0.910 -0.2524  0.2215  0.4149
  743MPD2    H511040   3.068   0.677   0.859 -2.2786 -0.3482 -1.4244
  743MPD2    N111041   2.658   0.554   0.600  0.1614 -0.5088 -0.0055
  743MPD2    H711042   2.562   0.522   0.589  0.6181 -1.2838 -1.7515
  744TMC3    C111043   2.603   0.699   0.425  0.4246  0.4344  0.2081
  744TMC3    C211044   2.488   0.743   0.481 -0.2502  0.5207 -0.2209
  744TMC3    C311045   2.413   0.846   0.427  0.4242 -0.6042  0.1185
  744TMC3    C411046   2.654   0.755   0.308 -0.7316 -0.0865 -0.4240
  744TMC3    C511047   2.578   0.859   0.263 -0.3507  0.5376  0.5284
  744TMC3    C611048   2.459   0.904   0.315 -0.5538 -0.0903 -0.4447
  744TMC3     C11049   2.709   0.639   0.505  0.0490  0.3502 -0.2220
  744TMC3     O11050   2.819   0.683   0.491  0.5188  0.4424 -0.1653
  744TMC3     H11051   2.469   0.719   0.585 -1.2731  0.6870 -0.3691
  744TMC3    H111052   2.749   0.727   0.263 -1.3207 -0.2196 -1.5754
  744TMC3    H211053   2.390   0.968   0.261  0.2650 -2.2367 -4.0203
  744TMC3    C711054   2.651   0.962   0.182  0.1213  0.1435 -0.3679
  744TMC3    C811055   2.298   0.910   0.496  0.4516  0.1859  0.6095
  744TMC3    O111056   2.757   0.932   0.128 -0.2245  0.8885 -0.3563
  744TMC3    O211057   2.259   1.019   0.452  0.1799 -0.0876 -0.0385
  745TMC3    C111058   0.830   4.340  13.179 -0.0377  0.4712 -0.6694
  745TMC3    C211059   0.721   4.258  13.159  0.2150 -0.7002 -0.2048
  745TMC3    C311060   0.717   4.174  13.053  0.3309 -0.1364 -0.0278
  745TMC3    C411061   0.931   4.351  13.081  0.3262  0.2976  0.4542
  745TMC3    C511062   0.915   4.289  12.962 -0.1691  0.8623 -0.2134
  745TMC3    C611063   0.804   4.199  12.953  0.0558  0.2747 -0.1016
  745TMC3     C11064   0.833   4.409  13.306  0.0707  0.4100 -0.5879
  745TMC3     O11065   0.760   4.368  13.397  0.3102  0.2355  0.0808
  745TMC3     H11066   0.650   4.253  13.242  2.3429  1.5023  1.7595
  745TMC3    H111067   1.028   4.392  13.109  0.3245  0.5006  0.1541
  745TMC3    H211068   0.796   4.143  12.860 -0.4909  2.2914 -1.2759
  745TMC3    C711069   0.978   4.341  12.840  0.5054  0.0316  0.2679
  745TMC3    C811070   0.604   4.086  13.037  0.3419  0.2673 -0.1472
  745TMC3    O111071   0.918   4.330  12.735 -0.0423  0.3177 -0.3059
  745TMC3    O211072   0.553   4.068  12.927 -0.0382 -0.6783  0.3192
  746TMC3    C111073   2.961   1.939  11.045  0.0268  0.5594  0.7146
  746TMC3    C211074   3.039   1.915  10.932  0.0530  0.4444 -0.1840
  746TMC3    C311075   3.007   1.817  10.844 -0.6876 -0.3990 -0.9539
  746TMC3    C411076   2.855   1.856  11.070 -0.0416 -0.0114  0.4996
  746TMC3    C511077   2.832   1.750  10.979  0.1591  0.0204 -0.1482
  746TMC3    C611078   2.908   1.729  10.867 -0.6617  0.2737  0.0629
  746TMC3     C11079   2.966   2.069  11.106  0.0570  0.5574 -0.6758
  746TMC3     O11080   2.880   2.100  11.198  0.1052 -0.1216 -0.2316
  746TMC3     H11081   3.134   1.965  10.920  0.1138  0.5546  0.7877
  746TMC3    H111082   2.786   1.868  11.153  0.0837 -0.6865  0.7011
  746TMC3    H211083   2.879   1.656  10.792  0.3434  2.2710 -2.2661
  746TMC3    C711084   2.706   1.679  10.968 -0.4191  0.1365 -0.3779
  746TMC3    C811085   3.017   1.851  10.707 -0.3427 -0.4974 -0.2372
  746TMC3    O111086   2.671   1.665  10.856  0.2409 -0.5950 -0.7617
  746TMC3    O211087   3.000   1.772  10.616  0.2661  0.1090  0.1110
  747TMC3    C111088   0.174   2.496  10.718  0.4081  0.0482 -0.2602
  747TMC3    C211089   0.065   2.451  10.791 -0.2681  0.8006  0.3709
  747TMC3    C311090   0.072   2.443  10.931 -0.0415  0.0308 -0.0577
  747TMC3    C411091   0.285   2.546  10.774  0.0670  0.2462 -0.2892
  747TMC3    C511092   0.284   2.553  10.912  0.5921  0.0806  0.2530
  747TMC3    C611093   0.186   2.493  10.990  0.2018 -1.0481 -0.1855
  747TMC3     C11094   0.173   2.464  10.575 -0.7731 -0.2772  0.3464
  747TMC3     O11095   0.237   2.542  10.502  0.3677  0.0181  0.0350
  747TMC3     H11096   4.733   2.398  10.730  1.6528 -1.1222 -0.2304
  747TMC3    H111097   0.372   2.580  10.720  1.1468  0.4684  1.5832
  747TMC3    H211098   0.196   2.497  11.098 -2.4381 -1.1142  0.0702
  747TMC3    C711099   0.394   2.620  10.977 -0.1824 -0.2900  0.1567
  747TMC3    C811100   4.700   2.380  10.997 -0.0522  0.1189 -0.7064
  747TMC3    O111101   0.376   2.666  11.089 -0.0677  0.2845 -0.3891
  747TMC3    O211102   4.629   2.315  10.921 -0.2307 -0.0902  0.1197
  748MPD2     C11103   1.499   2.201   0.833  0.4241  0.2488  0.0278
  748MPD2    C111104   1.602   2.106   0.804  0.4351 -0.2760 -0.1535
  748MPD2    C211105   1.723   2.130   0.865  0.5239  0.6822  0.2603
  748MPD2    C311106   1.748   2.228   0.955  0.1381 -0.3655 -0.8201
  748MPD2    C411107   1.644   2.320   0.989  0.1745  0.5646 -0.3030
  748MPD2    C511108   1.521   2.301   0.928 -0.1266  0.1385  0.1192
  748MPD2     H11109   1.810   2.066   0.858 -0.3013 -0.4489  0.3194
  748MPD2    H111110   1.658   2.399   1.061 -2.1026 -1.0351  1.9031
  748MPD2    H211111   1.408   2.197   0.774 -0.5138 -2.0889  1.6752
  748MPD2    H311112   1.448   2.375   0.959 -0.7147 -0.4879  0.2320
  748MPD2     N11113   1.880   2.243   1.017 -0.5715  0.4514 -0.6672
  748MPD2    H511114   1.951   2.179   0.983 -0.8785  1.3285 -2.9231
  748MPD2    N111115   1.579   2.002   0.712  0.1748 -0.2146  0.0964
  748MPD2    H711116   1.488   2.005   0.667 -1.2713  2.4730  3.1722
  749TMC3    C111117   2.071   2.337   1.100  0.1630 -0.0240 -0.3024
  749TMC3    C211118   2.130   2.218   1.098  0.0339 -0.7587  0.3426
  749TMC3    C311119   2.264   2.208   1.080 -0.1575 -0.1268  0.5984
  749TMC3    C411120   2.141   2.452   1.095 -0.0353 -0.0270  0.4653
  749TMC3    C511121   2.276   2.443   1.085  0.0216 -0.4482  0.2102
  749TMC3    C611122   2.335   2.321   1.069 -0.7188  0.1229 -0.0303
  749TMC3     C11123   1.928   2.349   1.094  0.2576 -0.2038 -0.1980
  749TMC3     O11124   1.873   2.444   1.146  0.0012  0.1744  0.0741
  749TMC3     H11125   2.071   2.128   1.114  1.5837 -1.2571  3.2503
  749TMC3    H111126   2.097   2.551   1.094 -0.8496 -0.3963 -0.0780
  749TMC3    H211127   2.442   2.309   1.084 -0.7676  0.5595  0.7005
  749TMC3    C711128   2.341   2.564   1.040  0.0804  0.1670 -1.0541
  749TMC3    C811129   2.338   2.082   1.104 -0.3832 -0.6334 -0.5813
  749TMC3    O111130   2.277   2.667   1.036  0.5233 -0.4932  0.3449
  749TMC3    O211131   2.265   2.006   1.170 -0.5519  0.1475 -0.0046
  750MPD2     C11132   2.743   4.097  11.181 -0.1107  0.1479 -0.2338
  750MPD2    C111133   2.652   4.060  11.281 -0.5558  0.6743 -0.0841
  750MPD2    C211134   2.567   3.963  11.238 -0.1342 -1.0892  0.1081
  750MPD2    C311135   2.566   3.905  11.115 -0.4340 -0.6192 -0.6425
  750MPD2    C411136   2.660   3.941  11.023 -1.1385  0.0079 -0.9865
  750MPD2    C511137   2.752   4.041  11.056  0.3955  0.3220  0.4098
  750MPD2     H11138   2.485   3.941  11.306  0.2073 -0.7840  0.6233
  750MPD2    H111139   2.667   3.893  10.926 -2.0534  1.4796 -1.7844
  750MPD2    H211140   2.813   4.179  11.193  1.2288 -0.9515 -0.5861
  750MPD2    H311141   2.830   4.066  10.986  2.3797 -1.5542  1.9482
  750MPD2     N11142   2.478   3.801  11.064 -0.1010 -0.4945  0.3370
  750MPD2    H511143   2.495   3.758  10.974 -0.7670 -0.7382  0.3214
  750MPD2    N111144   2.651   4.128  11.410  0.2581  0.6183 -0.6216
  750MPD2    H711145   2.727   4.194  11.424 -0.7337  0.7310  4.0815
  751TMC3    C111146   2.287   3.651  11.077 -0.3288 -0.7548 -0.5913
  751TMC3    C211147   2.184   3.593  11.151 -0.4387 -0.1985 -0.3240
  751TMC3    C311148   2.103   3.505  11.089 -1.1488  0.2000 -0.6615
  751TMC3    C411149   2.307   3.614  10.945 -0.9448 -0.3254  0.4179
  751TMC3    C511150   2.233   3.514  10.890  0.4641 -0.1744 -1.0037
  751TMC3    C611151   2.131   3.460  10.960 -0.0540 -0.5601  0.1890
  751TMC3     C11152   2.375   3.746  11.141  0.1975  0.3649  0.2130
  751TMC3     O11153   2.343   3.775  11.256 -0.2738  0.1205 -0.0156
  751TMC3     H11154   2.165   3.639  11.248 -1.2071 -2.9706  0.8341
  751TMC3    H111155   2.391   3.645  10.885  1.1736 -3.7021  1.6358
  751TMC3    H211156   2.053   3.404  10.909 -1.2022  1.2369 -0.0525
  751TMC3    C711157   2.309   3.418  10.816 -0.1167  0.2329  0.1056
  751TMC3    C811158   2.051   3.394  11.161 -0.5481  0.8535 -0.1681
  751TMC3    O111159   2.389   3.451  10.734  0.2275 -0.1403 -0.1298
  751TMC3    O211160   1.982   3.311  11.099  0.3294  0.5445 -0.1316
  752TMC3    C111161   1.105   3.146  16.852 -0.1440  0.3974 -0.0890
  752TMC3    C211162   1.145   3.157  16.981 -0.1052 -0.0491  0.5502
  752TMC3    C311163   1.075   3.086  17.081  0.3132  0.0380 -0.8157
  752TMC3    C411164   0.989   3.080  16.819 -0.6576 -0.0591  0.2130
  752TMC3    C511165   0.936   2.997  16.916  0.6761 -0.4615 -0.4802
  752TMC3    C611166   0.973   2.999  17.048 -0.2853  0.2169  0.1296
  752TMC3     C11167   1.138   3.252  16.749 -0.7965 -0.3718 -0.1719
  752TMC3     O11168   1.247   3.307  16.768  0.8986  0.2490 -0.0131
  752TMC3     H11169   1.234   3.213  17.004 -0.1425  1.0160 -1.8536
  752TMC3    H111170   0.965   3.077  16.713 -3.3070  1.7821  0.7504
  752TMC3    H211171   0.910   2.954  17.124 -1.6584  0.5229 -0.8398
  752TMC3    C711172   0.877   2.873  16.869 -0.2852  0.1297  0.1325
  752TMC3    C811173   1.076   3.147  17.209  0.5754 -0.5397  0.7594
  752TMC3    O111174   0.891   2.773  16.943  0.1902 -0.4561  0.4788
  752TMC3    O211175   1.186   3.176  17.262 -0.9439  0.4697 -0.3486
  753TMC3    C111176   3.510   0.124  13.646 -0.2128  0.5463 -0.5892
  753TMC3    C211177   3.500   0.075  13.772  0.0079 -0.6722  0.1302
  753TMC3    C311178   3.442   4.693  13.779  1.0269 -0.5615  0.5189
  753TMC3    C411179   3.476   0.052  13.534 -0.6320  0.0957 -0.0607
  753TMC3    C511180   3.433   4.667  13.546  0.0281  0.5861  0.1377
  753TMC3    C611181   3.399   4.619  13.672  0.1050 -0.0748  0.1044
  753TMC3     C11182   3.565   0.262  13.618 -0.1939 -0.0039 -0.3329
  753TMC3     O11183   3.543   0.309  13.510 -0.0180 -0.1530 -0.1945
  753TMC3     H11184   3.525   0.144  13.852  1.4787 -0.4998 -0.4834
  753TMC3    H111185   3.503   0.099  13.440  1.3706 -2.2238 -0.6626
  753TMC3    H211186   3.352   4.522  13.671  1.7816 -0.9025  3.0317
  753TMC3    C711187   3.391   4.604  13.428 -0.7525 -0.6789  0.1148
  753TMC3    C811188   3.412   4.633  13.902 -0.6293 -0.4228  1.0488
  753TMC3    O111189   3.363   4.678  13.336  0.1715 -0.4231 -0.3177
  753TMC3    O211190   3.326   4.547  13.911 -0.1825 -0.4547 -0.2957
  754MPD2     C11191   1.868   2.607  12.747  0.6422 -0.2962  0.3090
  754MPD2    C111192   1.866   2.686  12.860  1.3665  0.0076  0.5562
  754MPD2    C211193   1.956   2.796  12.865  0.3056 -0.2155 -0.2390
  754MPD2    C311194   2.039   2.824  12.758  0.2858 -0.0046 -0.0392
  754MPD2    C411195   2.041   2.740  12.644 -0.0306  0.0929 -0.2338
  754MPD2    C511196   1.950   2.630  12.641  0.1696  0.2977 -0.7932
  754MPD2     H11197   1.961   2.866  12.948  0.4650  0.6873 -1.0022
  754MPD2    H111198   2.120   2.744  12.570 -1.5108  1.1310 -1.7818
  754MPD2    H211199   1.818   2.511  12.749 -1.6225  0.8784  0.6574
  754MPD2    H311200   1.939   2.561  12.559 -0.9020 -1.7084  1.0574
  754MPD2     N11201   2.127   2.935  12.760  0.2336 -0.5279  0.2313
  754MPD2    H511202   2.158   2.955  12.666 -1.3791  0.4542 -0.0811
  754MPD2    N111203   1.784   2.643  12.965  0.0634  0.1576 -0.0833
  754MPD2    H711204   1.739   2.552  12.961 -3.1553  1.6850  1.1060
  755MPD2     C11205   1.743   3.465  13.338 -0.4482 -0.8823 -0.3626
  755MPD2    C111206   1.711   3.415  13.216 -0.1137  0.2120  0.4331
  755MPD2    C211207   1.797   3.413  13.109 -0.2475  0.1109 -0.7746
  755MPD2    C311208   1.926   3.459  13.122 -0.1374 -0.0745  0.0797
  755MPD2    C411209   1.955   3.512  13.252 -0.4401  0.1735 -0.8019
  755MPD2    C511210   1.867   3.516  13.360  0.1190  0.6216  0.1586
  755MPD2     H11211   1.769   3.370  13.014  2.3963  0.9879 -1.9607
  755MPD2    H111212   2.058   3.538  13.270 -0.5931 -0.0505  0.3924
  755MPD2    H211213   1.680   3.454  13.425 -0.3920  0.8206 -0.0997
  755MPD2    H311214   1.901   3.551  13.457  0.6846 -0.7625  0.4613
  755MPD2     N11215   2.024   3.459  13.024 -0.0474  0.0969  0.1984
  755MPD2    H511216   2.119   3.484  13.051 -0.3214 -1.8321  2.8777
  755MPD2    N111217   1.589   3.354  13.186 -0.5584  0.5245 -0.2507
  755MPD2    H711218   1.581   3.303  13.099 -2.9033  2.3813 -1.1161
  756MPD2     C11219   2.430   4.712   9.798 -0.6267  0.4064  0.2820
  756MPD2    C111220   2.362   4.686   9.915 -0.7760 -0.0900  0.4566
  756MPD2    C211221   2.224   4.699   9.914  0.6051 -0.5504  0.2851
  756MPD2    C311222   2.151   4.733   9.806  0.7358  0.3663  0.8422
  756MPD2    C411223   2.220   0.019   9.690 -0.0157  0.3602  0.7297
  756MPD2    C511224   2.357   0.007   9.690 -0.0227  0.0223 -0.2675
  756MPD2     H11225   2.178   4.680  10.010  1.1549 -1.2689  0.4069
  756MPD2    H111226   2.175   0.026   9.592 -2.7277  1.0501  2.0427
  756MPD2    H211227   2.534   4.688   9.784 -0.8431 -1.2252  1.4931
  756MPD2    H311228   2.407   0.003   9.594  0.1301  2.5910 -0.2698
  756MPD2     N11229   2.007   4.734   9.811  0.6122 -0.4922  0.4366
  756MPD2    H511230   1.967   4.707   9.900 -0.4720 -1.8386 -0.4691
  756MPD2    N111231   2.424   4.651  10.034  0.0232  0.7323  0.5447
  756MPD2    H711232   2.367   4.621  10.112  0.2079  0.8385  0.7203
  757MPD2     C11233   1.659   4.102  10.183 -0.7564 -0.2524 -0.2035
  757MPD2    C111234   1.779   4.175  10.183  1.1740 -0.0511  0.4194
  757MPD2    C211235   1.772   4.296  10.117 -0.3434 -0.1791 -0.0897
  757MPD2    C311236   1.659   4.344  10.057 -0.2391 -0.0299  1.1597
  757MPD2    C411237   1.538   4.272  10.069  0.1989  0.0847  0.3093
  757MPD2    C511238   1.543   4.150  10.128  0.4640  0.9085  0.2105
  757MPD2     H11239   1.859   4.361  10.116 -0.1619 -0.3998  0.7686
  757MPD2    H111240   1.442   4.315  10.041  0.4778  0.4851 -0.0299
  757MPD2    H211241   1.654   4.010  10.239  1.5383 -1.5156 -2.0992
  757MPD2    H311242   1.455   4.088  10.133  1.4214 -0.4851 -0.0901
  757MPD2     N11243   1.665   4.465   9.988  0.2219 -0.5642 -0.3017
  757MPD2    H511244   1.755   4.512   9.993 -1.4058  2.3287  1.7798
  757MPD2    N111245   1.899   4.137  10.251 -0.0477 -0.1453 -0.0131
  757MPD2    H711246   1.899   4.044  10.293  0.3939  0.8691  2.2492
  758MPD2     C11247   2.048   2.716  15.720 -0.3539 -0.0708  0.0226
  758MPD2    C111248   2.172   2.722  15.788  0.4139 -0.2444 -0.7782
  758MPD2    C211249   2.181   2.759  15.920  0.3207  0.0606 -0.2859
  758MPD2    C311250   2.074   2.767  15.999 -0.4925  0.1345  0.6346
  758MPD2    C411251   1.952   2.758  15.932  0.4436 -0.3861  0.2133
  758MPD2    C511252   1.936   2.730  15.796  0.3082  0.1871 -0.0056
  758MPD2     H11253   2.282   2.757  15.961 -0.1741 -0.6474  0.8861
  758MPD2    H111254   1.857   2.776  15.982  0.1047 -1.8741  0.0981
  758MPD2    H211255   2.045   2.692  15.615 -0.8199  0.5390 -0.1030
  758MPD2    H311256   1.836   2.704  15.761  1.2023 -1.8486 -1.0824
  758MPD2     N11257   2.075   2.788  16.137  0.1796  0.4615  0.1291
  758MPD2    H511258   1.990   2.808  16.188  0.7814  4.1555 -0.3161
  758MPD2    N111259   2.297   2.702  15.729  0.2483  0.0622 -0.4536
  758MPD2    H711260   2.368   2.681  15.799 -0.9807 -0.2237  0.7145
  759MPD2     C11261   1.691   1.946  10.608 -0.0322 -0.4998 -0.2375
  759MPD2    C111262   1.749   1.866  10.510  0.1600 -0.3917  0.1620
  759MPD2    C211263   1.813   1.930  10.401 -0.0767 -0.1828 -0.9169
  759MPD2    C311264   1.810   2.067  10.380 -0.1474  0.2267  0.0413
  759MPD2    C411265   1.738   2.144  10.472  0.4148 -0.3716 -0.1854
  759MPD2    C511266   1.682   2.081  10.582 -0.0394  0.0717 -0.2969
  759MPD2     H11267   1.863   1.862  10.334 -1.4312  0.1320 -2.2404
  759MPD2    H111268   1.727   2.250  10.454  0.6043 -0.2902  0.1762
  759MPD2    H211269   1.645   1.905  10.697  0.1957  1.5067  0.7948
  759MPD2    H311270   1.632   2.146  10.653  0.7543  0.1334  0.1959
  759MPD2     N11271   1.865   2.118  10.262  0.2471  0.5593  0.4861
  759MPD2    H511272   1.927   2.050  10.219 -0.1083  0.9100 -0.5774
  759MPD2    N111273   1.746   1.720  10.513 -0.1912  0.0753  0.3872
  759MPD2    H711274   1.799   1.669  10.443  2.2743  0.6542  1.7916
  760MPD2     C11275   0.652   4.181  11.389 -0.3949 -0.6914  0.0377
  760MPD2    C111276   0.789   4.152  11.395  0.5445 -0.6312  0.3042
  760MPD2    C211277   0.832   4.023  11.387 -0.2482  0.3255 -0.6284
  760MPD2    C311278   0.744   3.925  11.346 -0.0056  0.1633  0.1367
  760MPD2    C411279   0.608   3.950  11.340 -0.6785  0.0339  0.2939
  760MPD2    C511280   0.563   4.075  11.374 -0.5894 -0.3547  0.0028
  760MPD2     H11281   0.935   4.008  11.415 -1.0149 -2.2785  0.7644
  760MPD2    H111282   0.535   3.870  11.342  0.3419 -0.8580  1.4964
  760MPD2    H211283   0.614   4.275  11.426 -0.5291 -0.9387  0.5281
  760MPD2    H311284   0.456   4.082  11.381 -0.2748  1.8768  2.3690
  760MPD2     N11285   0.784   3.786  11.351 -0.2808  0.7837  0.5764
  760MPD2    H511286   0.710   3.717  11.361  2.7877 -2.6175 -0.5672
  760MPD2    N111287   0.883   4.253  11.424 -0.4781 -0.2135 -0.6565
  760MPD2    H711288   0.973   4.217  11.456  0.2566  1.5994 -0.6754
  761MPD2     C11289   2.052   3.100  11.571 -0.0866  0.0423 -0.7523
  761MPD2    C111290   2.064   3.071  11.434  0.6696  0.0873 -0.3221
  761MPD2    C211291   2.067   3.172  11.343 -0.2798 -0.2649 -0.5701
  761MPD2    C311292   2.056   3.303  11.387  0.2862 -0.0247  1.0468
  761MPD2    C411293   2.049   3.329  11.522  0.0161  0.2853 -0.4634
  761MPD2    C511294   2.042   3.228  11.613 -0.4344 -0.7587 -0.2549
  761MPD2     H11295   2.077   3.143  11.238  2.4941  0.9767 -0.6549
  761MPD2    H111296   2.054   3.435  11.545  1.3351  0.1439 -0.1098
  761MPD2    H211297   2.043   3.016  11.638  0.4381  0.8530  0.3336
  761MPD2    H311298   2.036   3.253  11.719 -1.5958 -1.5900 -0.1247
  761MPD2     N11299   2.064   3.412  11.299  0.2841 -0.5026  0.1545
  761MPD2    H511300   2.100   3.499  11.339  1.1629 -0.2205 -1.2752
  761MPD2    N111301   2.084   2.937  11.386  0.3391 -0.5396  0.8307
  761MPD2    H711302   2.051   2.870  11.455 -0.0708  0.7465  1.8808
  762MPD2     C11303   2.566   2.993  11.104  0.1557 -0.4409 -0.3512
  762MPD2    C111304   2.576   2.853  11.104 -0.0157  0.0787 -0.0603
  762MPD2    C211305   2.675   2.787  11.032 -0.0890  0.6296  0.4769
  762MPD2    C311306   2.776   2.859  10.974  1.2435  0.4479 -0.3160
  762MPD2    C411307   2.774   2.993  10.982 -0.8472  0.3533  0.5466
  762MPD2    C511308   2.674   3.064  11.050  0.0545  0.3806  0.1525
  762MPD2     H11309   2.666   2.680  11.016 -1.4678  0.7698  0.3195
  762MPD2    H111310   2.846   3.060  10.937 -0.8715  2.3261  3.4529
  762MPD2    H211311   2.482   3.045  11.147 -0.6448  0.1181 -2.6039
  762MPD2    H311312   2.681   3.172  11.059  1.4559  0.3518 -0.5712
  762MPD2     N11313   2.877   2.795  10.902 -0.4158 -0.2779 -0.7054
  762MPD2    H511314   2.876   2.694  10.901  1.3857 -0.3359  2.5080
  762MPD2    N111315   2.473   2.781  11.166 -0.1258  0.0522 -0.4916
  762MPD2    H711316   2.399   2.848  11.184  0.1392  1.0015 -2.8801
  763MPD2     C11317   3.811   2.877  16.329  0.1174 -0.4416  0.3563
  763MPD2    C111318   3.841   2.934  16.209 -0.0371  0.0879 -0.0654
  763MPD2    C211319   3.861   3.076  16.212 -0.0507 -0.2832 -0.2415
  763MPD2    C311320   3.862   3.148  16.336  0.5587 -0.2448 -0.3338
  763MPD2    C411321   3.841   3.074  16.450  0.0563 -0.0242 -0.1798
  763MPD2    C511322   3.801   2.942  16.448 -0.1079  0.0994  0.8912
  763MPD2     H11323   3.871   3.125  16.116 -0.6047  0.3073 -0.0056
  763MPD2    H111324   3.849   3.112  16.551 -0.1900 -0.0364 -0.1558
  763MPD2    H211325   3.790   2.772  16.342  0.1982 -0.2357  2.2429
  763MPD2    H311326   3.788   2.882  16.537 -2.3162  0.9156  1.1289
  763MPD2     N11327   3.905   3.286  16.356  0.1387  0.2452 -0.3906
  763MPD2    H511328   3.924   3.306  16.454  0.6735  0.5226 -0.5542
  763MPD2    N111329   3.842   2.864  16.086 -0.1851  0.0155  0.1500
  763MPD2    H711330   3.844   2.914  15.998  0.7732 -0.0163  0.1562
  764MPD2     C11331   2.275   4.687   0.098 -0.1551  0.2894  0.5858
  764MPD2    C111332   2.184   4.603   0.032  0.7129 -0.4148 -0.5644
  764MPD2    C211333   2.102   4.519   0.107  0.4714 -0.2403  0.1080
  764MPD2    C311334   2.114   4.512   0.246  0.1462  0.9062 -0.4222
  764MPD2    C411335   2.205   4.596   0.311 -0.3722  0.4594  0.4997
  764MPD2    C511336   2.278   4.685   0.234 -0.1232  0.4728  0.0094
  764MPD2     H11337   2.023   4.466   0.057  0.0298  0.3664  0.1608
  764MPD2    H111338   2.229   4.588   0.416  1.4583  0.8528  0.1087
  764MPD2    H211339   2.354   0.003   0.050  1.9352 -2.3866  0.8442
  764MPD2    H311340   2.350   4.740   0.292  0.6720 -0.3386 -0.2104
  764MPD2     N11341   2.049   4.408   0.310 -0.2363 -1.0209 -0.3729
  764MPD2    H511342   1.979   4.364   0.251 -1.4291  0.8807 -0.3541
  764MPD2    N111343   2.163   4.604  17.653 -0.1177 -0.6717 -0.0387
  764MPD2    H711344   2.097   4.545  17.604 -0.9483 -0.3109  0.6553
  765MPD2     C11345   1.384   1.573  15.800  0.5081 -0.1079  0.6126
  765MPD2    C111346   1.458   1.671  15.737  0.6394  0.8063 -0.1755
  765MPD2    C211347   1.582   1.638  15.696  0.4321  0.8573 -0.0225
  765MPD2    C311348   1.634   1.510  15.706 -0.5347 -0.1468 -0.2145
  765MPD2    C411349   1.572   1.414  15.778  0.0027  0.2642  0.0365
  765MPD2    C511350   1.438   1.441  15.814 -0.1779 -0.6588 -0.2081
  765MPD2     H11351   1.637   1.715  15.643 -0.7804  1.8972  0.2272
  765MPD2    H111352   1.609   1.313  15.789  2.2009  0.9511 -1.0183
  765MPD2    H211353   1.292   1.601  15.849 -1.2118 -2.8008 -1.1050
  765MPD2    H311354   1.377   1.371  15.870  0.5101 -0.1870  1.1287
  765MPD2     N11355   1.767   1.497  15.661 -0.0187  0.4141  0.6875
  765MPD2    H511356   1.802   1.564  15.594  0.3842 -0.3324  0.1507
  765MPD2    N111357   1.400   1.797  15.724  0.5148 -0.3158  0.0818
  765MPD2    H711358   1.299   1.798  15.734  0.4012 -2.8361 -0.9504
  766MPD2     C11359   1.099   2.052  15.123 -0.0348  0.2281  0.0642
  766MPD2    C111360   1.219   2.020  15.197 -0.0159 -0.2163  0.1838
  766MPD2    C211361   1.345   2.002  15.129  0.8062 -0.3477  0.3783
  766MPD2    C311362   1.359   2.016  14.993  0.2317  0.2472  0.4366
  766MPD2    C411363   1.244   2.057  14.930  0.6354  0.1062  0.1417
  766MPD2    C511364   1.117   2.074  14.987  1.1713  0.3555  0.0547
  766MPD2     H11365   1.430   1.991  15.196  0.3963  1.1251  1.1417
  766MPD2    H111366   1.241   2.085  14.825 -1.8544  0.8235  0.3946
  766MPD2    H211367   1.001   2.073  15.165  0.1395  0.1880  0.4927
  766MPD2    H311368   1.040   2.120  14.926  0.5812 -3.2702 -1.8995
  766MPD2     N11369   1.480   2.018  14.923  0.1417 -0.4334  0.2464
  766MPD2    H511370   1.476   2.039  14.823  0.5943 -2.5050 -0.2116
  766MPD2    N111371   1.231   2.022  15.336  0.2421 -0.5129  0.1920
  766MPD2    H711372   1.313   1.976  15.376  0.9024  0.0771 -0.4770
  767MPD2     C11373   1.051   2.449  14.776  0.0562  0.3641  0.2300
  767MPD2    C111374   1.174   2.389  14.775 -0.2713 -0.2499  0.6510
  767MPD2    C211375   1.210   2.311  14.666 -0.5321 -0.4027  0.6593
  767MPD2    C311376   1.120   2.295  14.564  0.2488 -0.2368  0.0060
  767MPD2    C411377   0.990   2.337  14.574 -0.3639 -0.0296  0.2879
  767MPD2    C511378   0.954   2.413  14.679  0.5209  0.2848  0.4822
  767MPD2     H11379   1.309   2.268  14.656 -0.6811  0.0554 -2.6718
  767MPD2    H111380   0.919   2.312  14.497  2.0791 -2.4949 -1.1718
  767MPD2    H211381   1.025   2.514  14.859  0.0620  1.1539 -0.3916
  767MPD2    H311382   0.860   2.467  14.670  0.2010 -0.2236  0.7913
  767MPD2     N11383   1.158   2.219  14.453 -0.7678  0.2027 -0.2028
  767MPD2    H511384   1.254   2.192  14.439 -0.0102  1.5583  2.5322
  767MPD2    N111385   1.252   2.408  14.890  0.7337  0.5069  0.1692
  767MPD2    H711386   1.211   2.442  14.976 -1.3358  1.3847 -1.1488
  768MPD2     C11387   2.808   1.520  10.401  0.5683 -0.7849  0.3802
  768MPD2    C111388   2.736   1.472  10.502  0.1349  0.9125 -0.1542
  768MPD2    C211389   2.796   1.407  10.601  0.0295  0.2414 -0.8019
  768MPD2    C311390   2.932   1.402  10.612  0.2802 -0.6708  0.5501
  768MPD2    C411391   3.013   1.438  10.509 -0.1661  0.3057 -0.2944
  768MPD2    C511392   2.950   1.504  10.403 -0.3126  0.8411  0.4317
  768MPD2     H11393   2.736   1.364  10.680  2.3483 -1.9491 -0.2356
  768MPD2    H111394   3.121   1.436  10.514 -0.0855  3.4644 -0.8408
  768MPD2    H211395   2.758   1.564  10.315 -1.6482 -0.5265  1.7956
  768MPD2    H311396   3.001   1.566  10.329  0.0383 -1.0836 -0.9498
  768MPD2     N11397   2.999   1.344  10.720 -0.5527 -0.1670 -1.0982
  768MPD2    H511398   3.100   1.340  10.730 -0.5545  0.1470 -0.9310
  768MPD2    N111399   2.590   1.484  10.507  0.8766  0.1913  0.0242
  768MPD2    H711400   2.551   1.449  10.594 -1.7649 -0.6361 -1.4906
  769MPD2     C11401   3.273   3.553  15.028  0.2056 -0.0287  0.8028
  769MPD2    C111402   3.180   3.637  15.081  0.1163 -0.1688 -0.3535
  769MPD2    C211403   3.227   3.730  15.176  0.1831  0.1971  0.8848
  769MPD2    C311404   3.363   3.751  15.197 -0.1551 -0.0277 -0.4708
  769MPD2    C411405   3.449   3.661  15.141 -0.4166 -0.4377 -0.9670
  769MPD2    C511406   3.408   3.551  15.066  0.1229  0.0870  0.2818
  769MPD2     H11407   3.157   3.810  15.197  1.6193  1.4702  0.8320
  769MPD2    H111408   3.556   3.672  15.144 -0.3412 -1.8479  1.0748
  769MPD2    H211409   3.239   3.472  14.964 -1.5671  1.7875 -0.5831
  769MPD2    H311410   3.474   3.479  15.019  0.6244  0.7355 -0.0116
  769MPD2     N11411   3.407   3.852  15.288 -0.3411 -0.2902  0.1613
  769MPD2    H511412   3.338   3.914  15.328  0.2461  0.3662  0.1470
  769MPD2    N111413   3.047   3.630  15.037 -0.5300  0.6548 -0.4396
  769MPD2    H711414   3.040   3.599  14.940 -1.7136  0.4313 -0.2857
  770MPD2     C11415   2.257   3.138  15.008  0.3949  0.0193  0.8410
  770MPD2    C111416   2.362   3.144  14.918  0.5819 -0.4670 -0.3811
  770MPD2    C211417   2.441   3.260  14.931 -0.4615  0.1291 -0.7998
  770MPD2    C311418   2.423   3.358  15.021 -0.2768 -0.3121 -0.4044
  770MPD2    C411419   2.306   3.355  15.104  0.5249 -0.5103  0.6566
  770MPD2    C511420   2.228   3.239  15.101 -0.1035  0.4976  0.4774
  770MPD2     H11421   2.525   3.275  14.864  1.3676  0.6233  1.5925
  770MPD2    H111422   2.280   3.435  15.173  0.8246  1.0137 -0.9717
  770MPD2    H211423   2.193   3.050  15.002 -1.1585  1.2734 -1.2632
  770MPD2    H311424   2.137   3.245  15.160 -0.4762  0.9611 -0.1335
  770MPD2     N11425   2.512   3.468  15.019 -0.2867  0.3760 -0.2825
  770MPD2    H511426   2.595   3.450  14.962 -0.4210 -0.0565 -0.3447
  770MPD2    N111427   2.390   3.040  14.824 -0.1966 -0.5336  0.4033
  770MPD2    H711428   2.326   2.961  14.824  0.8082 -1.3589 -1.3645
  771MPD2     C11429   4.297   1.701  13.750 -0.1895 -0.4068  0.6326
  771MPD2    C111430   4.250   1.752  13.636 -0.3705  0.1257 -0.1125
  771MPD2    C211431   4.253   1.669  13.525  0.4553 -0.7885 -0.0795
  771MPD2    C311432   4.313   1.546  13.521 -0.1170  0.1176  0.1197
  771MPD2    C411433   4.362   1.494  13.638 -0.8170 -0.1036 -0.1268
  771MPD2    C511434   4.352   1.577  13.753 -1.1138 -0.4692  0.4168
  771MPD2     H11435   4.221   1.704  13.427 -1.2107  1.1663  1.1431
  771MPD2    H111436   4.411   1.397  13.643  0.1004  0.3105 -1.0310
  771MPD2    H211437   4.288   1.756  13.843 -3.3598 -0.8072  0.5792
  771MPD2    H311438   4.384   1.535  13.848 -0.4955  2.4509  1.4908
  771MPD2     N11439   4.317   1.482  13.399 -0.8787 -0.3538  0.3250
  771MPD2    H511440   4.270   1.526  13.320  0.8806 -1.5604 -1.3710
  771MPD2    N111441   4.187   1.880  13.616 -0.6344 -0.4521  0.0521
  771MPD2    H711442   4.179   1.918  13.522 -1.3409 -1.8656 -0.4566
  772MPD2     C11443   3.942   2.528  14.098 -0.0188 -0.7205  0.2639
  772MPD2    C111444   3.897   2.417  14.041 -0.6108 -0.5388 -0.7318
  772MPD2    C211445   3.787   2.344  14.082  0.2009  0.2724 -0.5178
  772MPD2    C311446   3.715   2.404  14.185  0.6927 -0.5761  0.5332
  772MPD2    C411447   3.759   2.522  14.250 -0.6378  0.9802 -0.1918
  772MPD2    C511448   3.871   2.583  14.206 -0.2340  0.5860 -0.4925
  772MPD2     H11449   3.766   2.243  14.048 -2.2800  0.7058 -0.2922
  772MPD2    H111450   3.703   2.573  14.328  0.0987 -0.6769  1.4222
  772MPD2    H211451   4.035   2.575  14.070 -0.6837  1.7192  2.2189
  772MPD2    H311452   3.907   2.672  14.256  0.4081 -0.1868  0.4349
  772MPD2     N11453   3.596   2.332  14.234  0.1461 -0.0973 -0.2375
  772MPD2    H511454   3.556   2.370  14.320  0.7196  2.7163 -1.2159
  772MPD2    N111455   3.962   2.363  13.934  0.5457 -0.9283  0.0113
  772MPD2    H711456   3.927   2.276  13.892  2.8386 -2.3185  1.0125
  773MPD2     C11457   2.911   3.090   0.132 -0.0866  0.8033  0.1368
  773MPD2    C111458   2.846   2.979   0.084 -0.3325  0.1313  0.3129
  773MPD2    C211459   2.903   2.856   0.096 -0.2215  0.1172  0.0975
  773MPD2    C311460   3.030   2.842   0.151 -0.6783  0.1494  0.2093
  773MPD2    C411461   3.098   2.952   0.199  0.1572 -0.4312 -0.2330
  773MPD2    C511462   3.029   3.072   0.194  0.0489  0.1753  0.1770
  773MPD2     H11463   2.854   2.767   0.058  1.9252  0.8351 -4.3600
  773MPD2    H111464   3.190   2.961   0.255 -0.0769  0.0628  0.0669
  773MPD2    H211465   2.881   3.194   0.136  2.7298  1.5268  2.8333
  773MPD2    H311466   3.074   3.160   0.239  0.7703 -1.5034  2.7343
  773MPD2     N11467   3.090   2.714   0.152 -0.0391 -0.4545 -0.1596
  773MPD2    H511468   3.035   2.639   0.112 -0.0650  0.2330 -1.4430
  773MPD2    N111469   2.712   2.980   0.031  0.3568  0.2157  0.5623
  773MPD2    H711470   2.662   2.894   0.013  1.3934  0.0200 -1.3757
  774MPD2     C11471   1.857   1.823  13.454  0.4025 -0.9547  0.3206
  774MPD2    C111472   1.928   1.915  13.527  0.3016  0.2105  0.0851
  774MPD2    C211473   1.924   2.051  13.490  0.3751  0.3972 -0.0489
  774MPD2    C311474   1.859   2.092  13.382  0.3559 -0.5345  0.2348
  774MPD2    C411475   1.801   1.997  13.300 -0.1196  0.0589  0.1864
  774MPD2    C511476   1.793   1.869  13.348 -0.4631 -0.6782  0.5398
  774MPD2     H11477   1.965   2.127  13.556  0.0433 -0.1110  0.7399
  774MPD2    H111478   1.752   2.021  13.207  0.2232  0.8447  0.2056
  774MPD2    H211479   1.832   1.724  13.492 -0.6053 -0.2014  1.6696
  774MPD2    H311480   1.721   1.801  13.305 -1.2948  0.9557 -0.6492
  774MPD2     N11481   1.853   2.229  13.357  0.4357 -0.3399  0.5894
  774MPD2    H511482   1.895   2.295  13.421 -0.6116  0.7860  0.1110
  774MPD2    N111483   1.988   1.871  13.641  0.0715 -0.2473 -0.8259
  774MPD2    H711484   1.956   1.786  13.687  1.2186 -1.4524 -2.2791
  775MPD2     C11485   3.578   3.571  15.632 -0.7468  0.5128 -0.8283
  775MPD2    C111486   3.602   3.669  15.719  0.3965 -0.7392 -0.5391
  775MPD2    C211487   3.714   3.745  15.701 -0.2703  0.1467  0.3585
  775MPD2    C311488   3.789   3.741  15.588  0.2690  0.1626 -0.2797
  775MPD2    C411489   3.752   3.650  15.497 -0.6954  0.1778 -0.2126
  775MPD2    C511490   3.648   3.568  15.517 -0.0085  0.1698  0.3451
  775MPD2     H11491   3.731   3.825  15.772 -1.0858  0.2740  0.4053
  775MPD2    H111492   3.804   3.642  15.403 -1.3691  1.0645 -0.6585
  775MPD2    H211493   3.496   3.501  15.644 -1.5999  1.6440 -0.0170
  775MPD2    H311494   3.616   3.507  15.433 -0.1204 -1.9302  1.9284
  775MPD2     N11495   3.904   3.822  15.560 -0.1545  0.9793  0.0210
  775MPD2    H511496   3.933   3.819  15.463 -0.3432 -0.7914  0.0220
  775MPD2    N111497   3.521   3.684  15.834  0.7169 -0.2908  0.3098
  775MPD2    H711498   3.433   3.634  15.839  2.5330 -3.5557 -0.4551
  776MPD2     C11499   2.734   0.027  11.966 -0.8110  0.3898 -0.3777
  776MPD2    C111500   2.792   4.696  11.867 -0.3343  0.0636  0.2045
  776MPD2    C211501   2.894   0.017  11.800 -0.5726 -0.0574 -0.0994
  776MPD2    C311502   2.935   0.148  11.833  0.3095  0.3042  0.5833
  776MPD2    C411503   2.871   0.217  11.936 -0.5084  0.3535 -1.2291
  776MPD2    C511504   2.771   0.154  12.000 -0.2325 -0.8190 -0.1791
  776MPD2     H11505   2.946   4.701  11.723 -0.1368 -0.1351  0.2549
  776MPD2    H111506   2.894   0.318  11.966  0.3857 -0.8578  2.0915
  776MPD2    H211507   2.661   4.712  12.023 -0.5391  1.7272  1.2746
  776MPD2    H311508   2.712   0.206  12.075 -1.4295 -1.2318 -0.8203
  776MPD2     N11509   3.043   0.218  11.774  0.1115  1.2585 -0.2068
  776MPD2    H511510   3.048   0.315  11.802 -0.1436  0.0177  4.1839
  776MPD2    N111511   2.755   4.564  11.857 -0.5943 -0.6373  0.9278
  776MPD2    H711512   2.690   4.532  11.928 -0.0616 -1.3895  1.0858
  777MPD2     C11513   3.393   1.974   0.118 -0.0888  0.1798 -0.6398
  777MPD2    C111514   3.293   1.893   0.166  0.3315  1.1268 -0.1666
  777MPD2    C211515   3.244   1.796   0.079  1.1324 -0.2616  0.3971
  777MPD2    C311516   3.282   1.781  17.712 -0.1024  0.4191  0.0738
  777MPD2    C411517   3.373   1.876  17.663 -0.0613  1.0745  0.1571
  777MPD2    C511518   3.433   1.963  17.747 -0.1512 -0.3829 -0.0255
  777MPD2     H11519   3.163   1.735   0.117  0.3899 -0.1221 -0.9780
  777MPD2    H111520   3.390   1.873  17.556  0.4384  1.4495  0.2207
  777MPD2    H211521   3.427   2.055   0.181  2.0156  1.3974 -3.3300
  777MPD2    H311522   3.508   2.030  17.707 -1.6475  0.3476 -1.6174
  777MPD2     N11523   3.211   1.684  17.628  0.2325  0.6596  0.5808
  777MPD2    H511524   3.142   1.623  17.671  2.1068 -3.6488 -2.5963
  777MPD2    N111525   3.251   1.921   0.296  0.3294  0.1507  0.1407
  777MPD2    H711526   3.324   1.966   0.350  0.5862  0.2700 -0.3023
  778MPD2     C11527   3.949   1.658  15.333 -0.5504  0.5602  0.0977
  778MPD2    C111528   3.999   1.552  15.257 -0.2761  0.1718  0.8018
  778MPD2    C211529   4.082   1.581  15.145  0.4693 -0.9708  0.0931
  778MPD2    C311530   4.120   1.716  15.120 -0.2447  0.1305  0.0413
  778MPD2    C411531   4.079   1.807  15.208  0.1628  0.4246  0.4286
  778MPD2    C511532   3.998   1.784  15.316 -0.4346 -0.2322 -0.1617
  778MPD2     H11533   4.111   1.500  15.079 -0.9518 -1.0459 -0.4587
  778MPD2    H111534   4.093   1.912  15.186 -3.2080  0.7574 -0.1191
  778MPD2    H211535   3.891   1.639  15.423  1.1814 -2.0477  0.6572
  778MPD2    H311536   3.970   1.869  15.377 -4.6530 -1.2164 -0.7398
  778MPD2     N11537   4.207   1.746  15.010  0.1500  0.5535  0.7499
  778MPD2    H511538   4.217   1.668  14.946  0.5798  1.3553 -0.1542
  778MPD2    N111539   3.964   1.417  15.286  0.3380 -0.3849  0.4871
  778MPD2    H711540   3.994   1.346  15.220 -2.1514 -0.1544 -0.9087
  779MPD2     C11541   4.003   0.778  14.778 -0.1764  0.2707  0.3462
  779MPD2    C111542   4.048   0.739  14.652 -0.1894 -0.1113 -0.4959
  779MPD2    C211543   4.127   0.821  14.581  0.1960 -0.0909 -0.8742
  779MPD2    C311544   4.164   0.948  14.624 -1.0240  0.1640 -0.0503
  779MPD2    C411545   4.112   0.983  14.749  0.0381 -0.3145  0.2593
  779MPD2    C511546   4.042   0.901  14.833  0.1082 -0.3828 -0.2422
  779MPD2     H11547   4.166   0.787  14.486  3.0584 -0.5113  0.4609
  779MPD2    H111548   4.119   1.087  14.781  1.2547  0.4392 -2.4124
  779MPD2    H211549   3.929   0.729  14.840  0.7312 -3.0751 -1.2520
  779MPD2    H311550   4.012   0.934  14.932  0.9013 -0.4029  0.0049
  779MPD2     N11551   4.232   1.032  14.532  0.0546 -0.4157 -0.3180
  779MPD2    H511552   4.264   0.996  14.443 -1.4335  0.9820 -1.4159
  779MPD2    N111553   4.020   0.614  14.599 -0.0945  0.2174 -0.2528
  779MPD2    H711554   4.085   0.584  14.527 -0.3715 -0.3417 -0.2675
  780MPD2     C11555   3.573   0.501   0.792  0.5280  0.6277 -0.8729
  780MPD2    C111556   3.470   0.515   0.705 -0.0692  0.1993  0.6355
  780MPD2    C211557   3.509   0.572   0.594 -0.0675 -0.2334  0.1299
  780MPD2    C311558   3.631   0.640   0.573 -0.1592  0.1609 -1.3054
  780MPD2    C411559   3.720   0.649   0.670  0.1445  0.6599 -0.5423
  780MPD2    C511560   3.692   0.566   0.775 -0.1257 -0.3534 -0.5938
  780MPD2     H11561   3.444   0.563   0.507 -1.0610  0.6070  0.8047
  780MPD2    H111562   3.812   0.706   0.669  0.1185  0.6968 -0.9261
  780MPD2    H211563   3.555   0.432   0.874  0.4251  0.4854 -1.0132
  780MPD2    H311564   3.765   0.560   0.855 -2.5293 -1.3516  1.5224
  780MPD2     N11565   3.633   0.699   0.447  0.5765 -0.1375  0.2137
  780MPD2    H511566   3.551   0.670   0.396 -0.2257  1.0026  0.8530
  780MPD2    N111567   3.353   0.439   0.722 -0.7286  0.4878 -0.2606
  780MPD2    H711568   3.336   0.388   0.809 -0.9719 -0.5535 -0.9229
  781MPD2     C11569   0.199   3.148  11.501 -0.0808  0.1565 -0.5418
  781MPD2    C111570   0.255   3.126  11.628 -0.4102 -0.0061  0.0197
  781MPD2    C211571   0.392   3.137  11.642 -0.0186 -0.1237  0.2544
  781MPD2    C311572   0.469   3.162  11.529  0.4293 -0.4451 -0.0995
  781MPD2    C411573   0.404   3.173  11.407  0.3797  0.5446 -0.2365
  781MPD2    C511574   0.274   3.162  11.394 -0.3976  0.6412  0.0124
  781MPD2     H11575   0.440   3.124  11.739 -1.6342 -0.8634  0.9459
  781MPD2    H111576   0.466   3.189  11.319  1.2447 -1.4416 -0.0042
  781MPD2    H211577   0.092   3.137  11.491  0.1808 -3.1712  0.3413
  781MPD2    H311578   0.232   3.169  11.294  0.0980 -0.0121 -0.2431
  781MPD2     N11579   0.610   3.173  11.527  0.5818  0.2431 -0.1201
  781MPD2    H511580   0.657   3.193  11.439  2.7610 -1.3777  0.6739
  781MPD2    N111581   0.177   3.104  11.744 -0.3252  0.3553  0.1294
  781MPD2    H711582   0.227   3.112  11.832 -0.3972 -1.1926  0.3099
  782MPD2     C11583   2.914   3.112   9.952 -0.2784  0.1817  0.5267
  782MPD2    C111584   2.971   3.156  10.068 -0.1185 -0.4072  0.3003
  782MPD2    C211585   3.006   3.289  10.079  0.2405 -0.7159  0.0313
  782MPD2    C311586   2.996   3.380   9.980 -0.3269  0.2803  0.2239
  782MPD2    C411587   2.931   3.335   9.862  0.6481  0.1614 -0.4554
  782MPD2    C511588   2.895   3.207   9.853  0.1548 -0.0124 -0.1915
  782MPD2     H11589   3.048   3.324  10.173 -0.2993  1.6804 -0.6132
  782MPD2    H111590   2.917   3.405   9.780  2.0205  2.1263  0.9654
  782MPD2    H211591   2.885   3.008   9.945 -0.2737  0.1019  1.7508
  782MPD2    H311592   2.852   3.171   9.761 -2.2923  1.2423  0.4883
  782MPD2     N11593   3.034   3.516  10.009 -0.5739  1.0644 -0.2275
  782MPD2    H511594   3.096   3.532  10.089 -0.5714 -1.9237  0.3786
  782MPD2    N111595   2.978   3.076  10.184  0.4657  0.7209 -0.6121
  782MPD2    H711596   3.012   3.120  10.268  2.6778 -1.2442 -0.4647
  783MPD2     C11597   2.298   3.050  10.873  0.2727  0.0654  0.1758
  783MPD2    C111598   2.347   3.166  10.819 -0.4295 -0.1108 -0.5536
  783MPD2    C211599   2.459   3.160  10.738 -1.0524  0.2386  0.0648
  783MPD2    C311600   2.514   3.045  10.706 -0.0330 -0.8170  0.9706
  783MPD2    C411601   2.453   2.927  10.741 -0.5777 -0.0752  0.2128
  783MPD2    C511602   2.350   2.933  10.822  0.0174 -0.0875  0.0784
  783MPD2     H11603   2.512   3.248  10.703 -2.0918 -0.4733 -3.2566
  783MPD2    H111604   2.495   2.831  10.714  1.7004  0.4343  1.9650
  783MPD2    H211605   2.204   3.044  10.927 -0.9387  0.5514 -1.9086
  783MPD2    H311606   2.309   2.836  10.848 -0.1287  0.2456  1.1293
  783MPD2     N11607   2.629   3.043  10.631 -0.1361 -0.4326  0.0843
  783MPD2    H511608   2.659   3.132  10.592 -1.8639 -0.5843 -1.5822
  783MPD2    N111609   2.286   3.289  10.863 -0.0226  0.2543  0.7088
  783MPD2    H711610   2.211   3.279  10.931 -1.3175  1.6446 -0.5276
  784MPD2     C11611   1.008   3.158   0.605  0.1694  0.2708 -0.0678
  784MPD2    C111612   1.019   3.271   0.685  0.3620  0.3072  0.1571
  784MPD2    C211613   0.912   3.356   0.681 -0.7281 -0.4073  0.9325
  784MPD2    C311614   0.804   3.341   0.594 -0.0257  0.2368  0.5736
  784MPD2    C411615   0.798   3.232   0.513  0.1401  0.3736  0.5043
  784MPD2    C511616   0.903   3.144   0.517  0.2556 -0.0931 -0.3758
  784MPD2     H11617   0.915   3.445   0.743 -0.3411  0.0682  0.2361
  784MPD2    H111618   0.722   3.225   0.437 -0.0249 -0.7778  0.7847
  784MPD2    H211619   1.076   3.074   0.606 -0.9417 -0.5889  2.9293
  784MPD2    H311620   0.900   3.068   0.440  0.9804  0.5314 -1.0296
  784MPD2     N11621   0.709   3.446   0.593 -0.6641 -0.1713 -0.4620
  784MPD2    H511622   0.724   3.518   0.664  0.5543 -1.9611  1.0958
  784MPD2    N111623   1.129   3.289   0.775 -0.6679  0.4077  0.1133
  784MPD2    H711624   1.130   3.374   0.830 -0.1169  0.0611  0.6343
  785MPD2     C11625   0.985   3.024  10.757 -0.1717 -0.1281  0.5564
  785MPD2    C111626   0.885   2.978  10.681  0.4051 -0.5029  0.0754
  785MPD2    C211627   0.890   2.846  10.626  0.3869  0.5148 -0.3901
  785MPD2    C311628   1.000   2.766  10.639 -0.0773 -0.6075  0.4253
  785MPD2    C411629   1.106   2.822  10.714  0.5210  0.5422  0.1255
  785MPD2    C511630   1.095   2.942  10.773 -0.4830 -0.7208 -0.2566
  785MPD2     H11631   0.817   2.809  10.555  0.1660  0.2781 -0.0402
  785MPD2    H111632   1.201   2.771  10.726  2.1284  3.4834  0.0410
  785MPD2    H211633   0.979   3.132  10.772  0.3984 -0.0181  0.0319
  785MPD2    H311634   1.175   2.985  10.832 -1.1095  1.6497 -1.1244
  785MPD2     N11635   1.008   2.640  10.576 -0.4086 -0.2297 -0.2207
  785MPD2    H511636   0.919   2.603  10.545 -1.5256  2.0719  0.2278
  785MPD2    N111637   0.792   3.069  10.622 -0.0849 -0.5317  0.1903
  785MPD2    H711638   0.798   3.166  10.650 -1.0878 -0.9576  1.8644
  786MPD2     C11639   4.202   4.309  14.987  0.5396 -0.4680  0.1346
  786MPD2    C111640   4.307   4.261  14.913  0.2367  0.2736  0.2866
  786MPD2    C211641   4.434   4.266  14.969 -0.2641 -0.3710  0.1264
  786MPD2    C311642   4.449   4.321  15.091 -0.1910 -0.0665 -0.9789
  786MPD2    C411643   4.348   4.384  15.157 -0.2402 -0.0344  0.2907
  786MPD2    C511644   4.228   4.380  15.100 -0.2291  0.5102  0.0243
  786MPD2     H11645   4.517   4.222  14.915  1.7354  0.1542  2.7595
  786MPD2    H111646   4.357   4.436  15.252 -0.9573 -0.7812  0.7627
  786MPD2    H211647   4.100   4.301  14.950  0.7292 -3.1476  0.1648
  786MPD2    H311648   4.149   4.432  15.153 -0.8317 -0.1936 -0.1856
  786MPD2     N11649   4.566   4.321  15.161 -0.0067 -0.0913  0.5568
  786MPD2    H511650   4.570   4.363  15.254 -0.5305  0.4470  0.3355
  786MPD2    N111651   4.299   4.204  14.781 -0.1638 -0.0394 -0.1556
  786MPD2    H711652   4.386   4.162  14.749 -0.9945 -1.5313 -0.4569
  787MPD2     C11653   0.051   4.273  14.383  0.7148  0.3420 -0.9863
  787MPD2    C111654   0.009   4.145  14.391  0.1700 -0.8084 -0.4363
  787MPD2    C211655   0.089   4.045  14.434  0.7867 -0.3636  0.7793
  787MPD2    C311656   0.213   4.071  14.479 -0.1310  0.3108  0.5424
  787MPD2    C411657   0.268   4.195  14.467  0.7009 -0.2812  0.2078
  787MPD2    C511658   0.173   4.292  14.436  0.9336  0.4641  0.5723
  787MPD2     H11659   0.055   3.944  14.452 -0.4741 -0.4959 -2.4687
  787MPD2    H111660   0.369   4.223  14.494 -0.0578  3.6895 -1.0770
  787MPD2    H211661   4.721   4.350  14.355 -2.5606 -3.6875 -3.7541
  787MPD2    H311662   0.212   4.394  14.442 -1.0707  1.1901  1.2819
  787MPD2     N11663   0.277   3.961  14.529 -0.2971  0.8090 -0.5351
  787MPD2    H511664   0.231   3.870  14.524 -0.2686  0.9618 -3.9101
  787MPD2    N111665   4.609   4.127  14.371 -0.2724  0.5461 -0.1260
  787MPD2    H711666   4.556   4.211  14.353  0.4857  1.4208  1.7490
  788MPD2     C11667   1.906   2.986   0.969 -0.5884  0.5754 -0.0419
  788MPD2    C111668   1.929   2.960   0.836 -0.0740  0.1793 -0.5589
  788MPD2    C211669   1.879   3.045   0.740  0.6859 -0.5828 -0.1733
  788MPD2    C311670   1.801   3.153   0.775 -0.7610  0.8711 -0.8018
  788MPD2    C411671   1.781   3.180   0.906  0.0722 -0.0690 -0.3995
  788MPD2    C511672   1.831   3.096   1.005  0.1706 -1.0074 -0.4690
  788MPD2     H11673   1.881   3.009   0.638 -1.6348 -1.4543  0.0771
  788MPD2    H111674   1.714   3.255   0.947 -0.6679 -2.1845  2.2846
  788MPD2    H211675   1.948   2.926   1.049 -2.5702 -0.4072  0.2759
  788MPD2    H311676   1.818   3.124   1.109 -0.9814 -0.7911 -0.6749
  788MPD2     N11677   1.743   3.222   0.668  0.1012 -0.2681 -0.7587
  788MPD2    H511678   1.764   3.205   0.570 -1.4581  2.2711 -1.5402
  788MPD2    N111679   2.003   2.843   0.801 -0.1765 -0.0945 -0.5983
  788MPD2    H711680   2.044   2.839   0.709 -1.3780 -0.8360 -1.1088
  789MPD2     C11681   2.127   2.472  16.534 -0.4995 -0.2872 -0.2459
  789MPD2    C111682   2.019   2.516  16.464 -0.5064  0.0961  0.3140
  789MPD2    C211683   1.919   2.587  16.532  0.0599 -0.6248 -0.1694
  789MPD2    C311684   1.934   2.619  16.667 -0.1420  0.3926 -0.3167
  789MPD2    C411685   2.047   2.576  16.734 -1.0848  1.3371 -0.2452
  789MPD2    C511686   2.141   2.501  16.667 -0.2342  0.2481  0.6206
  789MPD2     H11687   1.832   2.626  16.479  0.4566  1.2917  0.6116
  789MPD2    H111688   2.067   2.598  16.838 -0.2037 -0.5531 -0.0132
  789MPD2    H211689   2.199   2.400  16.498  0.6436  1.3533 -1.2580
  789MPD2    H311690   2.226   2.469  16.726 -1.4989  1.7247  3.2393
  789MPD2     N11691   1.836   2.701  16.737 -0.4759  0.0235  0.6339
  789MPD2    H511692   1.857   2.721  16.834  1.5912 -2.3844  0.6963
  789MPD2    N111693   2.007   2.483  16.323 -0.6965  0.4989 -0.1047
  789MPD2    H711694   1.917   2.511  16.285  0.2990  0.2945 -2.5915
  790MPD2     C11695   3.065   4.433  13.494  0.0920 -0.2056 -0.3932
  790MPD2    C111696   3.041   4.306  13.442 -0.8690 -0.5493  0.8312
  790MPD2    C211697   3.006   4.298  13.309  0.4011 -0.1633  0.2799
  790MPD2    C311698   2.986   4.413  13.228  0.3876 -0.1933 -0.2122
  790MPD2    C411699   3.009   4.536  13.290 -0.2263 -0.1047 -0.2750
  790MPD2    C511700   3.048   4.543  13.422 -0.0605 -0.2407 -0.1595
  790MPD2     H11701   2.992   4.198  13.270 -0.7831  0.6013 -1.2455
  790MPD2    H111702   2.982   4.624  13.234 -1.7388  0.0433  0.6921
  790MPD2    H211703   3.105   4.434  13.595 -1.8546 -0.5909  0.3780
  790MPD2    H311704   3.072   4.631  13.479  1.2177  1.0788 -2.7225
  790MPD2     N11705   2.946   4.394  13.095 -0.1681 -0.0981 -0.1238
  790MPD2    H511706   2.951   4.301  13.056  0.5830 -0.5978  1.1356
  790MPD2    N111707   3.055   4.201  13.538 -0.2582 -0.0269  0.8504
  790MPD2    H711708   3.086   4.230  13.630  1.8876  0.9363 -0.1790
  791MPD2     C11709   2.334   4.588  12.565  0.3632  0.0351  0.4267
  791MPD2    C111710   2.398   4.474  12.599  0.4487 -0.7402  0.2016
  791MPD2    C211711   2.335   4.351  12.585 -0.3310  0.2225 -0.5567
  791MPD2    C311712   2.200   4.347  12.551 -0.1531  0.8893 -0.3010
  791MPD2    C411713   2.143   4.463  12.509  0.0225 -0.1570 -0.0495
  791MPD2    C511714   2.206   4.585  12.512  0.7891  0.3695  0.5148
  791MPD2     H11715   2.383   4.256  12.603  0.0865  0.3751 -0.8430
  791MPD2    H111716   2.054   4.463  12.446 -1.0515 -1.4147  1.4674
  791MPD2    H211717   2.375   4.686  12.587 -0.2662  0.2920  0.4790
  791MPD2    H311718   2.155   4.679  12.494 -1.1372 -0.7937 -0.1581
  791MPD2     N11719   2.138   4.222  12.551 -0.1329 -0.1897  0.1286
  791MPD2    H511720   2.202   4.158  12.596  0.8479  0.1979 -0.7080
  791MPD2    N111721   2.533   4.484  12.650  0.1351  0.0029  0.1050
  791MPD2    H711722   2.577   4.575  12.657 -2.1588  1.0301  1.2830
  792MPD2     C11723   3.284   4.624  11.230 -0.8357  0.5505 -0.0598
  792MPD2    C111724   3.212   4.725  11.169  0.1576 -0.8224  0.1592
  792MPD2    C211725   3.106   0.040  11.232 -1.2413 -0.0379 -0.0655
  792MPD2    C311726   3.058   4.724  11.351  0.2596 -0.0562  0.1865
  792MPD2    C411727   3.123   4.618  11.402 -0.2249  0.0720  0.1297
  792MPD2    C511728   3.237   4.572  11.348  0.5844 -0.3289 -0.6871
  792MPD2     H11729   3.052   0.122  11.185 -1.8757  0.0069  0.7451
  792MPD2    H111730   3.089   4.559  11.487 -0.6892 -2.7966 -2.0417
  792MPD2    H211731   3.374   4.586  11.184 -0.7462  0.9194 -0.1929
  792MPD2    H311732   3.285   4.487  11.395  0.2451  0.7766  1.6682
  792MPD2     N11733   2.935   0.037  11.416  0.5542  0.6127  0.4723
  792MPD2    H511734   2.892   4.724  11.490  0.6551 -0.1185  0.0004
  792MPD2    N111735   3.258   0.024  11.039  0.2334  0.7463 -0.2755
  792MPD2    H711736   3.347   4.726  11.011  0.9091  1.7446  0.4797
  793MPD2     C11737   2.259   4.716  10.768 -0.2719 -0.2964 -0.6857
  793MPD2    C111738   2.402   4.728  10.756 -0.8028  0.5656 -0.4028
  793MPD2    C211739   2.466   0.045  10.858  0.4604 -0.6664 -0.2507
  793MPD2    C311740   2.401   0.088  10.969 -0.5095 -0.2654 -0.4011
  793MPD2    C411741   2.269   0.069  10.982  0.1562 -0.2146  0.1603
  793MPD2    C511742   2.198   0.020  10.883 -0.1171  0.5041  0.8257
  793MPD2     H11743   2.574   0.050  10.846  0.3648 -1.0010 -1.1993
  793MPD2    H111744   2.207   0.097  11.067 -1.0354 -0.4502 -0.6311
  793MPD2    H211745   2.193   4.680  10.690 -2.0421  1.2471  0.1110
  793MPD2    H311746   2.091   0.020  10.902 -0.3465  0.3643 -0.5142
  793MPD2     N11747   2.481   0.139  11.082  0.2856  0.2283 -0.4249
  793MPD2    H511748   2.581   0.120  11.080 -0.2960 -2.7968  0.4149
  793MPD2    N111749   2.473   4.691  10.638 -0.1134 -0.0552 -0.1980
  793MPD2    H711750   2.573   4.708  10.638  0.2700 -2.2522  1.4563
  794MPD2     C11751   2.082   3.457  17.653  0.0667  0.3859 -0.3451
  794MPD2    C111752   2.147   3.379  17.560  0.7952  1.4054  0.3335
  794MPD2    C211753   2.167   3.416  17.431 -0.4513  0.2131 -1.2667
  794MPD2    C311754   2.112   3.531  17.388 -0.4505  0.8985  0.0414
  794MPD2    C411755   2.053   3.608  17.484 -0.4641  0.2001  0.0251
  794MPD2    C511756   2.044   3.580  17.612 -0.4807  0.0348  0.7325
  794MPD2     H11757   2.226   3.352  17.366  1.0823  0.3284 -0.0041
  794MPD2    H111758   2.005   3.704  17.467  1.2518  1.3160  1.4412
  794MPD2    H211759   2.081   3.432  17.758  0.9982  2.8562  0.2652
  794MPD2    H311760   2.000   3.647  17.684  0.9182  0.4175  1.2316
  794MPD2     N11761   2.115   3.578  17.257 -0.2263  0.0091 -0.2260
  794MPD2    H511762   2.044   3.650  17.243 -0.6010  0.4717  4.0424
  794MPD2    N111763   2.194   3.257  17.601  0.2833 -0.1581 -0.0782
  794MPD2    H711764   2.269   3.224  17.541 -0.6668 -3.3124  0.4647
  795MPD2     C11765   0.606   0.841  12.948 -0.0103  0.4326 -0.1837
  795MPD2    C111766   0.575   0.761  13.056 -0.5102 -0.7411  0.2277
  795MPD2    C211767   0.671   0.694  13.116  0.4336  0.4696  0.0914
  795MPD2    C311768   0.807   0.702  13.077 -0.1361  0.5010 -0.2787
  795MPD2    C411769   0.834   0.781  12.965  0.3180 -0.2080 -0.1605
  795MPD2    C511770   0.736   0.858  12.906  0.3832  0.0309  0.9814
  795MPD2     H11771   0.657   0.640  13.208 -0.5708 -0.5647 -0.6643
  795MPD2    H111772   0.933   0.781  12.921  1.0186  2.6299  1.4595
  795MPD2    H211773   0.541   0.912  12.898 -0.9366  0.0629  0.4940
  795MPD2    H311774   0.749   0.914  12.815 -1.5934  0.7542  1.1389
  795MPD2     N11775   0.903   0.633  13.154  0.1578  0.4678  0.1594
  795MPD2    H511776   0.876   0.585  13.239  0.5994 -0.7513 -0.3859
  795MPD2    N111777   0.438   0.738  13.103  0.0222  0.5120  0.0481
  795MPD2    H711778   0.420   0.668  13.175 -0.6093  0.7474  0.1239
  796MPD2     C11779   4.358   1.971  16.015 -0.1535 -0.3450 -0.2413
  796MPD2    C111780   4.475   2.039  16.050 -0.2404 -0.0040 -0.0169
  796MPD2    C211781   4.478   2.179  16.031  1.6298  0.5024  0.2386
  796MPD2    C311782   4.364   2.251  15.986  0.1368 -0.0530  0.1669
  796MPD2    C411783   4.247   2.180  15.972 -0.1692  0.5239  0.3476
  796MPD2    C511784   4.241   2.040  15.977 -0.3932  0.1330  0.7448
  796MPD2     H11785   4.572   2.228  16.053  1.1841  0.7170  1.7094
  796MPD2    H111786   4.158   2.234  15.941 -0.5349  0.0050  0.4882
  796MPD2    H211787   4.361   1.863  16.011 -1.8891 -0.4932  2.6978
  796MPD2    H311788   4.155   1.987  15.937  0.7729  0.5284 -2.3604
  796MPD2     N11789   4.363   2.394  15.963  1.0201 -0.0236 -0.2522
  796MPD2    H511790   4.273   2.436  15.942 -0.1877 -1.5211  1.8535
  796MPD2    N111791   4.585   1.958  16.098  0.0131  0.0557  0.1741
  796MPD2    H711792   4.567   1.863  16.126  2.1909 -0.7350 -1.1434
  797MPD2     C11793   0.852   1.601  17.495  0.1310  0.3728  0.2388
  797MPD2    C111794   0.911   1.729  17.494  0.2427 -0.0523  0.1804
  797MPD2    C211795   0.848   1.827  17.423 -0.1362  0.3425  0.2021
  797MPD2    C311796   0.737   1.804  17.341  0.4708  0.3331 -0.1908
  797MPD2    C411797   0.676   1.676  17.342  0.1978 -0.4718 -0.2242
  797MPD2    C511798   0.739   1.576  17.414 -0.0808  0.0525 -0.7403
  797MPD2     H11799   0.893   1.926  17.424  0.7055 -0.0376 -1.0277
  797MPD2    H111800   0.587   1.648  17.287  1.8503 -1.1362 -2.5924
  797MPD2    H211801   0.888   1.521  17.558 -2.0562  0.5757  1.7544
  797MPD2    H311802   0.704   1.473  17.407  0.7489 -0.2595 -0.2002
  797MPD2     N11803   0.696   1.914  17.261  0.0143  0.1427  0.2352
  797MPD2    H511804   0.739   2.003  17.285 -2.2430  1.3661 -0.2504
  797MPD2    N111805   1.028   1.760  17.562  0.2481  0.1098  0.1149
  797MPD2    H711806   1.064   1.851  17.537  0.7420 -0.3325 -0.7983
  798MPD2     C11807   1.119   2.461  17.306 -0.4818 -0.1670  0.0022
  798MPD2    C111808   1.043   2.349  17.321 -0.3520 -0.3040 -0.8167
  798MPD2    C211809   1.083   2.242  17.404  0.3297 -0.7218 -0.1362
  798MPD2    C311810   1.192   2.251  17.483 -0.1106  0.7697 -0.1303
  798MPD2    C411811   1.267   2.370  17.474 -0.0905  0.1154 -0.2822
  798MPD2    C511812   1.229   2.473  17.392  0.0544  0.1611  0.5498
  798MPD2     H11813   1.025   2.151  17.412  0.2731 -0.6908 -0.1887
  798MPD2    H111814   1.354   2.382  17.538  0.6065  1.9498 -1.5849
  798MPD2    H211815   1.088   2.539  17.237 -1.8818 -2.2542 -1.7119
  798MPD2    H311816   1.296   2.558  17.396 -0.3778  0.6413 -2.5689
  798MPD2     N11817   1.218   2.140  17.566  0.2399  0.1501 -0.2714
  798MPD2    H511818   1.173   2.055  17.534  1.0014  1.0094 -3.6426
  798MPD2    N111819   0.933   2.334  17.234 -0.8733 -0.5259 -0.3625
  798MPD2    H711820   0.911   2.407  17.167 -1.5388  0.0118  0.4324
  799MPD2     C11821   4.645   3.239  14.524 -0.1843 -0.1250 -0.3253
  799MPD2    C111822   4.512   3.233  14.527  0.7890  0.6791  0.6755
  799MPD2    C211823   4.432   3.335  14.473  0.0952  0.3736 -0.2206
  799MPD2    C311824   4.504   3.428  14.395  0.2325  0.6003 -0.2510
  799MPD2    C411825   4.641   3.435  14.379  0.5389  0.1297 -0.3801
  799MPD2    C511826   4.709   3.343  14.451  0.0538 -0.7505 -0.5797
  799MPD2     H11827   4.324   3.330  14.481  0.1517 -0.2995  0.1663
  799MPD2    H111828   4.687   3.512  14.317 -3.1539  0.8765 -2.2218
  799MPD2    H211829   4.713   3.172  14.575 -0.3312 -0.3231 -0.3928
  799MPD2    H311830   0.076   3.341  14.456  0.1101 -1.6033 -2.0954
  799MPD2     N11831   4.435   3.534  14.335 -1.2079  0.3076  0.9264
  799MPD2    H511832   4.482   3.613  14.292  2.6577 -1.2934  2.2215
  799MPD2    N111833   4.448   3.129  14.591 -0.4411  0.0466 -1.0934
  799MPD2    H711834   4.348   3.125  14.579 -0.1585 -2.2548 -2.6454
  800MPD2     C11835   0.198   3.901  13.298 -0.1212 -0.0501  0.1008
  800MPD2    C111836   0.293   3.944  13.384 -0.6363  0.5828 -0.0153
  800MPD2    C211837   0.420   3.980  13.335  0.2341 -0.3910  0.3449
  800MPD2    C311838   0.453   3.979  13.201 -0.2583 -0.6393 -0.5372
  800MPD2    C411839   0.360   3.921  13.111  0.2857 -1.1308  0.0464
  800MPD2    C511840   0.237   3.894  13.164  0.3430  0.4134 -0.0757
  800MPD2     H11841   0.500   4.019  13.398 -2.3486  1.1374  2.6925
  800MPD2    H111842   0.380   3.906  13.005 -1.2528 -0.8135 -0.2916
  800MPD2    H211843   0.102   3.872  13.337  0.7905 -2.1027  0.8173
  800MPD2    H311844   0.171   3.830  13.107 -0.1761  2.7505 -2.0561
  800MPD2     N11845   0.566   4.050  13.163 -0.7115  0.5308  0.4308
  800MPD2    H511846   0.626   4.083  13.239 -2.9884 -0.6623  2.7548
  800MPD2    N111847   0.254   3.965  13.523  0.0931  1.5525  0.1071
  800MPD2    H711848   0.156   3.958  13.547 -0.3248 -2.7657 -2.7575
  801MPD2     C11849   4.410   4.275  13.878 -0.2723  0.2878  0.5556
  801MPD2    C111850   4.509   4.282  13.978 -0.2787  0.4864 -0.0862
  801MPD2    C211851   4.477   4.344  14.098 -0.2662 -0.4270 -0.1002
  801MPD2    C311852   4.362   4.419  14.109 -0.5148  0.2006 -0.8943
  801MPD2    C411853   4.274   4.432  13.998 -0.1330 -0.7100  0.3420
  801MPD2    C511854   4.302   4.359  13.886 -0.1169  0.2412 -0.3874
  801MPD2     H11855   4.554   4.340  14.174 -0.2727  0.5211 -0.0392
  801MPD2    H111856   4.190   4.501  14.006  0.1811 -0.1750 -0.9735
  801MPD2    H211857   4.423   4.221  13.785 -1.1773 -0.6001  0.9461
  801MPD2    H311858   4.240   4.355  13.797  1.0246 -1.6567 -1.1002
  801MPD2     N11859   4.318   4.489  14.224 -0.1227  0.2113 -0.3964
  801MPD2    H511860   4.239   4.552  14.211  0.6638  1.0440 -1.1536
  801MPD2    N111861   4.638   4.220  13.960  0.1176  0.6989 -0.8997
  801MPD2    H711862   4.694   4.232  14.043  0.6404  0.6726 -1.2469
  802MPD2     C11863   0.299   1.194   0.160  0.0343  0.0791 -0.7902
  802MPD2    C111864   0.170   1.146   0.146 -1.0270  0.5093  0.5852
  802MPD2    C211865   0.159   1.015   0.093 -0.4242 -0.7529 -0.0582
  802MPD2    C311866   0.266   0.953   0.038  0.3052 -0.0194  0.7103
  802MPD2    C411867   0.389   1.008   0.039  0.9509 -0.1705  0.3788
  802MPD2    C511868   0.410   1.126   0.106  0.5741  0.1991 -0.0378
  802MPD2     H11869   0.065   0.964   0.081 -1.2051  0.9291 -1.1302
  802MPD2    H111870   0.475   0.958  17.759  1.1814  0.5334 -0.0032
  802MPD2    H211871   0.314   1.289   0.210  0.9699 -0.1659 -0.6069
  802MPD2    H311872   0.508   1.170   0.119  0.4822  0.5221 -0.4215
  802MPD2     N11873   0.228   0.830  17.732  0.3190 -0.3223  0.3943
  802MPD2    H511874   0.130   0.806  17.743  0.1250  0.3068 -0.0070
  802MPD2    N111875   0.055   1.213   0.194  0.4099 -0.3513 -0.2469
  802MPD2    H711876   4.719   1.147   0.203  0.9058 -1.0333 -0.9618
  803MPD2     C11877   0.135   3.798  12.645  0.2561 -0.6089  0.1382
  803MPD2    C111878   0.162   3.873  12.532  0.2216  0.2324 -0.6129
  803MPD2    C211879   0.282   3.934  12.524  0.3460 -0.1416  0.6430
  803MPD2    C311880   0.381   3.926  12.624  0.2428  0.0697  0.5351
  803MPD2    C411881   0.344   3.852  12.733  0.4565 -0.3108  0.6422
  803MPD2    C511882   0.227   3.788  12.745 -0.5434 -0.1505  0.1372
  803MPD2     H11883   0.305   3.994  12.437 -2.9633 -1.0727 -0.8385
  803MPD2    H111884   0.411   3.837  12.818  1.4474 -0.7579 -0.2225
  803MPD2    H211885   0.049   3.732  12.644 -1.6834  1.9190  0.5530
  803MPD2    H311886   0.214   3.719  12.827 -0.7878 -1.5707 -1.1078
  803MPD2     N11887   0.513   3.984  12.618  0.6469  0.4439 -0.1016
  803MPD2    H511888   0.572   3.959  12.697  0.3411 -2.5373 -0.8498
  803MPD2    N111889   0.073   3.885  12.418  0.2649  0.1277 -0.2028
  803MPD2    H711890   0.112   3.938  12.341 -0.2394 -0.2978 -0.7461
  804MPD2     C11891   0.647   0.751  16.811  0.0333  0.5186 -0.1906
  804MPD2    C111892   0.667   0.726  16.946 -0.1234  0.5257 -0.1793
  804MPD2    C211893   0.778   0.767  17.012 -0.2221  0.4252  0.4503
  804MPD2    C311894   0.879   0.841  16.943  0.4391 -0.4794  0.7940
  804MPD2    C411895   0.869   0.847  16.811 -0.6444  0.5470 -0.8864
  804MPD2    C511896   0.756   0.800  16.746 -0.2274  1.0422 -0.0378
  804MPD2     H11897   0.775   0.751  17.119  0.7009 -1.0809  0.2526
  804MPD2    H111898   0.938   0.906  16.753 -0.5802 -0.6984 -2.0525
  804MPD2    H211899   0.559   0.727  16.752 -0.2910 -0.9104  0.8695
  804MPD2    H311900   0.765   0.820  16.640  0.0599 -3.2428 -0.8268
  804MPD2     N11901   0.981   0.895  17.031 -0.2097 -0.1867 -0.0487
  804MPD2    H511902   0.963   0.880  17.130 -1.2322  1.8561  0.0829
  804MPD2    N111903   0.574   0.650  17.017 -0.0668 -0.2004  0.5285
  804MPD2    H711904   0.598   0.610  17.108  0.1898  0.6068  0.8204
  805MPD2     C11905   4.148   3.325  15.470 -0.4093  0.4232  0.7087
  805MPD2    C111906   4.246   3.413  15.433  0.0096  0.4439 -0.0044
  805MPD2    C211907   4.363   3.411  15.506 -0.2969 -1.3085 -0.1667
  805MPD2    C311908   4.380   3.334  15.618 -0.0388 -0.1219  0.4314
  805MPD2    C411909   4.276   3.242  15.649  0.5129 -0.0382  0.4523
  805MPD2    C511910   4.163   3.241  15.576  0.1375 -0.3259 -0.0043
  805MPD2     H11911   4.448   3.472  15.474  1.2170 -2.4860  1.6657
  805MPD2    H111912   4.267   3.195  15.747 -1.0941  1.9454  1.2376
  805MPD2    H211913   4.051   3.327  15.421 -0.2071 -0.4088  0.2696
  805MPD2    H311914   4.083   3.172  15.601  1.5652 -0.9106  2.8687
  805MPD2     N11915   4.495   3.358  15.696 -0.3481 -0.2238 -0.5361
  805MPD2    H511916   4.558   3.434  15.673 -2.2386  1.2607 -0.8723
  805MPD2    N111917   4.224   3.501  15.329 -0.9169  0.1813  0.4710
  805MPD2    H711918   4.300   3.561  15.300 -0.4623 -0.7323 -0.2465
  806MPD2     C11919   0.179   3.265   0.830  0.2120  0.0623  0.0072
  806MPD2    C111920   0.311   3.248   0.797 -0.2447 -0.8406  0.3819
  806MPD2    C211921   0.351   3.212   0.667 -0.3497  0.4308 -0.1308
  806MPD2    C311922   0.252   3.206   0.568 -0.0451 -0.2051  0.1539
  806MPD2    C411923   0.126   3.221   0.602 -0.3786 -0.2672 -0.5754
  806MPD2    C511924   0.087   3.253   0.732  0.0817  0.3225 -0.1656
  806MPD2     H11925   0.456   3.208   0.639 -0.8172  1.5344 -2.0357
  806MPD2    H111926   0.046   3.222   0.529 -1.3586  1.3525  0.5200
  806MPD2    H211927   0.150   3.300   0.928  1.9596 -1.7406  1.1559
  806MPD2    H311928   4.724   3.277   0.753 -0.3688 -1.7031 -0.1458
  806MPD2     N11929   0.298   3.219   0.433 -0.0875  0.3984  0.7611
  806MPD2    H511930   0.398   3.230   0.416 -0.3271 -1.1996 -1.7372
  806MPD2    N111931   0.403   3.284   0.897 -0.5971 -0.1597 -0.7083
  806MPD2    H711932   0.378   3.351   0.968  0.8948 -1.5176  1.1133
  807MPD2     C11933   0.335   3.453   1.590  0.0947 -1.0081 -0.7972
  807MPD2    C111934   0.338   3.336   1.503 -0.2475  0.4171 -0.0692
  807MPD2    C211935   0.249   3.233   1.528  0.9510 -0.2188 -0.5405
  807MPD2    C311936   0.169   3.231   1.641 -0.2375 -0.3230 -0.0397
  807MPD2    C411937   0.180   3.340   1.729 -1.2586 -0.0868 -0.4473
  807MPD2    C511938   0.259   3.445   1.704  0.0976 -0.2832 -0.0493
  807MPD2     H11939   0.241   3.153   1.456  2.9378  0.3866 -1.4311
  807MPD2    H111940   0.128   3.343   1.824 -1.8924  0.2230 -0.8026
  807MPD2    H211941   0.405   3.535   1.580  1.8710 -2.5026 -0.5855
  807MPD2    H311942   0.266   3.519   1.783 -2.4482  0.4845 -0.5533
  807MPD2     N11943   0.081   3.123   1.661  0.5103  0.0889 -0.6869
  807MPD2    H511944   0.093   3.048   1.594  2.2721 -0.9480  0.7850
  807MPD2    N111945   0.422   3.327   1.385  0.0874  0.5893  0.6358
  807MPD2    H711946   0.396   3.249   1.326  2.7303 -0.6522  1.1286
  808MPD2     C11947   0.366   0.266  10.525 -0.0567 -0.2006 -0.9045
  808MPD2    C111948   0.502   0.284  10.512 -0.4407  0.1497  0.1267
  808MPD2    C211949   0.560   0.404  10.553 -0.2263  0.2315  0.3589
  808MPD2    C311950   0.479   0.515  10.590 -0.5623  0.0164 -0.0780
  808MPD2    C411951   0.347   0.496  10.587 -0.2537  0.3247  0.6186
  808MPD2    C511952   0.293   0.376  10.560  0.1249 -0.0317 -0.1705
  808MPD2     H11953   0.668   0.409  10.554 -0.2693  1.2306 -0.2308
  808MPD2    H111954   0.271   0.573  10.592  1.2335  1.6752  2.2114
  808MPD2    H211955   0.319   0.173  10.497  0.4228  0.0376 -2.5108
  808MPD2    H311956   0.185   0.373  10.571 -0.0659  1.7434 -1.6690
  808MPD2     N11957   0.524   0.644  10.628  0.1804 -0.2071  0.1126
  808MPD2    H511958   0.459   0.722  10.638 -0.4919 -0.6509 -0.8380
  808MPD2    N111959   0.587   0.183  10.471  0.5139  0.5857  0.8042
  808MPD2    H711960   0.688   0.195  10.480  0.6828 -0.1713 -0.1078
  809MPD2     C11961   0.319   1.130   9.999 -0.2487  0.5007 -0.2389
  809MPD2    C111962   0.451   1.160  10.015 -0.0635  0.6007  0.2371
  809MPD2    C211963   0.512   1.135  10.140  0.1422  0.2214  0.6901
  809MPD2    C311964   0.448   1.057  10.240 -0.2811  0.1607 -0.8309
  809MPD2    C411965   0.322   1.009  10.205  0.0024  0.1284 -0.1972
  809MPD2    C511966   0.261   1.050  10.089 -0.5621 -0.3612 -0.2170
  809MPD2     H11967   0.615   1.164  10.157  0.0819  0.4113  0.7287
  809MPD2    H111968   0.269   0.942  10.272  0.8673 -0.3852 -0.0257
  809MPD2    H211969   0.255   1.161   9.917  0.5599  0.4994 -0.8793
  809MPD2    H311970   0.155   1.036  10.075 -0.6870  0.8415 -0.4776
  809MPD2     N11971   0.507   1.020  10.363 -0.1791 -0.1531 -0.5478
  809MPD2    H511972   0.466   0.942  10.414  1.4161 -0.5635  0.1072
  809MPD2    N111973   0.529   1.241   9.925 -0.0611 -0.5946 -0.5208
  809MPD2    H711974   0.625   1.269   9.946  0.2353  0.0086 -2.6833
  810MPD2     C11975   4.688   4.601  10.474  0.2361 -0.3649 -0.3842
  810MPD2    C111976   4.590   4.639  10.394 -0.4449  0.1102  0.5934
  810MPD2    C211977   4.564   0.030  10.394  0.6485 -0.0168 -0.7563
  810MPD2    C311978   4.626   0.123  10.476 -0.6756 -0.3936  0.0306
  810MPD2    C411979   4.721   0.077  10.563  0.4419  0.3207 -1.1398
  810MPD2    C511980   0.005   4.686  10.564  0.1581 -0.5863  0.5271
  810MPD2     H11981   4.480   0.070  10.338  0.7880  1.2678 -0.0303
  810MPD2    H111982   0.012   0.149  10.637 -0.8413 -0.9712  0.6690
  810MPD2    H211983   4.719   4.497  10.473 -1.2004 -0.7943  1.7534
  810MPD2    H311984   0.086   4.654  10.629 -0.9675 -0.3635  2.0533
  810MPD2     N11985   4.599   0.266  10.477 -0.3198  0.2519 -0.5934
  810MPD2    H511986   4.637   0.328  10.547 -0.5260 -0.6329  0.3074
  810MPD2    N111987   4.531   4.546  10.310 -0.2395  0.3086  0.0285
  810MPD2    H711988   4.564   4.450  10.319  0.2985  0.9457  4.4111
  811MPD2     C11989   4.043   4.620   9.642 -0.4674 -0.7287  0.2887
  811MPD2    C111990   4.121   4.661   9.749  0.4985  0.5800 -0.6313
  811MPD2    C211991   4.143   0.056   9.766 -0.0394  0.4860  0.1774
  811MPD2    C311992   4.079   0.155   9.699 -0.2557  0.0317 -0.7530
  811MPD2    C411993   3.990   0.110   9.598 -0.4431 -0.1819  0.1327
  811MPD2    C511994   3.978   4.715   9.568 -0.2076  0.5811  0.3290
  811MPD2     H11995   4.198   0.088   9.855  1.4327  2.4085 -1.4178
  811MPD2    H111996   3.945   0.181   9.530  1.2347 -1.1336 -1.9735
  811MPD2    H211997   4.017   4.515   9.630  0.2472 -0.8655 -0.0453
  811MPD2    H311998   3.907   4.690   9.490  1.1801 -1.2384 -0.3429
  811MPD2     N11999   4.110   0.290   9.735  0.1825 -0.8328 -0.5777
  811MPD2    H512000   4.183   0.316   9.800 -0.5804 -0.2582  0.0576
  811MPD2    N112001   4.186   4.577   9.843 -0.1873  0.1726 -0.3624
  811MPD2    H712002   4.235   4.633   9.912 -0.4168 -1.2772  0.9810
  812MPD2     C12003   3.619   3.880  11.820 -0.0037 -0.4689  0.6448
  812MPD2    C112004   3.687   3.976  11.891 -0.5452  0.0599  0.2421
  812MPD2    C212005   3.695   3.957  12.026  0.1074 -0.2008  0.1564
  812MPD2    C312006   3.620   3.865  12.099  0.0041  0.4752  0.0732
  812MPD2    C412007   3.532   3.795  12.019  0.2721  0.6148 -0.0938
  812MPD2    C512008   3.538   3.795  11.883 -0.4632 -0.0286  0.1687
  812MPD2     H12009   3.764   4.027  12.073 -1.5563  0.5893  1.4111
  812MPD2    H112010   3.468   3.728  12.075  0.4181  0.6565  0.1189
  812MPD2    H212011   3.619   3.879  11.711 -0.9495 -2.3651  0.6494
  812MPD2    H312012   3.475   3.731  11.823 -0.1341 -0.2083  0.0166
  812MPD2     N12013   3.632   3.867  12.239 -0.1908 -0.1478 -0.4281
  812MPD2    H512014   3.702   3.929  12.279  0.1239 -1.7337  1.4693
  812MPD2    N112015   3.754   4.075  11.816 -0.2846 -0.0104 -0.2760
  812MPD2    H712016   3.745   4.072  11.715  1.6215  1.3744 -0.4831
  813MPD2     C12017   2.861   1.693  12.862 -0.2064 -0.2617 -0.1162
  813MPD2    C112018   2.973   1.625  12.912  0.4318 -0.3063 -0.0849
  813MPD2    C212019   2.966   1.562  13.031 -0.1550 -0.1624  0.5691
  813MPD2    C312020   2.847   1.554  13.097  0.4919 -0.2017  0.2940
  813MPD2    C412021   2.733   1.614  13.045 -1.0080  0.8175 -0.6040
  813MPD2    C512022   2.748   1.679  12.927  0.3896 -0.3601 -0.2719
  813MPD2     H12023   3.055   1.530  13.085 -1.7548 -0.4835  3.0065
  813MPD2    H112024   2.636   1.621  13.094 -0.3531 -0.4258  0.8650
  813MPD2    H212025   2.863   1.744  12.766  0.4348 -0.4120 -0.1781
  813MPD2    H312026   2.660   1.729  12.886  0.2862 -1.2110 -1.0824
  813MPD2     N12027   2.862   1.506  13.229 -0.4671 -0.4797  0.2022
  813MPD2    H512028   2.958   1.494  13.262 -0.0289  0.3675 -0.7453
  813MPD2    N112029   3.097   1.640  12.853  0.5527  0.0183 -0.6481
  813MPD2    H712030   3.090   1.723  12.794  1.5950  1.4527  1.2625
  814MPD2     C12031   3.356   2.234  12.448  0.1796  0.2364 -0.1887
  814MPD2    C112032   3.284   2.335  12.392  0.6021  0.2104 -0.1399
  814MPD2    C212033   3.249   2.448  12.453 -0.0520 -0.2285  0.8694
  814MPD2    C312034   3.286   2.457  12.586 -0.0788 -0.6011  0.3222
  814MPD2    C412035   3.349   2.352  12.647 -0.5164 -0.0654 -0.6174
  814MPD2    C512036   3.394   2.242  12.576 -0.5646 -0.3947 -0.0152
  814MPD2     H12037   3.187   2.519  12.399  1.3858  0.1003 -0.3442
  814MPD2    H112038   3.380   2.352  12.751 -1.2066  1.4354 -0.4139
  814MPD2    H212039   3.370   2.138  12.399  0.1635  0.7756 -1.2295
  814MPD2    H312040   3.467   2.176  12.622  0.4943 -0.5302 -1.8963
  814MPD2     N12041   3.279   2.575  12.661  0.4836  0.4510  0.0127
  814MPD2    H512042   3.310   2.574  12.757 -0.1324  1.9455  0.2382
  814MPD2    N112043   3.220   2.313  12.266 -0.3074 -0.4049 -0.2492
  814MPD2    H712044   3.134   2.366  12.258  0.4476  0.7795 -0.4682
  815MPD2     C12045   3.795   1.643  11.550  0.6737 -0.0437 -0.1829
  815MPD2    C112046   3.846   1.520  11.517 -0.3681  0.2790 -0.1853
  815MPD2    C212047   3.829   1.414  11.611 -0.3661  0.2521  0.5651
  815MPD2    C312048   3.755   1.420  11.721  0.1368  0.6420 -0.1842
  815MPD2    C412049   3.703   1.548  11.758 -0.5819  0.1119  1.0546
  815MPD2    C512050   3.732   1.654  11.673  0.8516 -0.2865  0.7464
  815MPD2     H12051   3.868   1.315  11.587  1.8156  0.9077  1.4253
  815MPD2    H112052   3.646   1.576  11.845  0.1673  1.1777  1.1923
  815MPD2    H212053   3.803   1.733  11.490 -2.8391 -0.4758 -1.3277
  815MPD2    H312054   3.696   1.750  11.707  1.3559  0.2612 -0.2870
  815MPD2     N12055   3.724   1.300  11.791 -0.2686 -0.3612 -0.2009
  815MPD2    H512056   3.766   1.212  11.761 -1.9301 -0.1664 -3.1390
  815MPD2    N112057   3.911   1.500  11.390 -0.3714  0.3330  0.0125
  815MPD2    H712058   3.898   1.576  11.324 -3.2412  0.5777  0.8588
  816MPD2     C12059   3.372   0.246  17.120  0.5660  0.3710 -0.3547
  816MPD2    C112060   3.495   0.301  17.159 -0.2972  0.3272 -0.0897
  816MPD2    C212061   3.610   0.235  17.135 -0.0041 -0.4048  0.0921
  816MPD2    C312062   3.615   0.118  17.062 -0.3267  0.4334 -0.3064
  816MPD2    C412063   3.493   0.064  17.027  0.2513 -0.2366  0.5137
  816MPD2    C512064   3.373   0.124  17.056  0.1936  0.2952  0.1242
  816MPD2     H12065   3.704   0.271  17.175 -1.1697  1.8400  0.8244
  816MPD2    H112066   3.481   4.712  16.972  1.0667 -0.6240  0.9866
  816MPD2    H212067   3.278   0.295  17.143 -1.6941 -2.9497 -2.4233
  816MPD2    H312068   3.279   0.079  17.026  0.7562 -1.4787  1.0547
  816MPD2     N12069   3.742   0.069  17.032 -0.6408  0.3317  0.7714
  816MPD2    H512070   3.821   0.130  17.053 -1.2520  1.4139 -0.1163
  816MPD2    N112071   3.480   0.435  17.203  0.3790 -0.2903  0.1360
  816MPD2    H712072   3.385   0.469  17.190  0.0685 -0.8714  0.8921
  817MPD2     C12073   3.106   2.609   9.546 -0.3257  0.3266 -0.0728
  817MPD2    C112074   3.094   2.517   9.448 -0.0012 -0.3475 -0.5168
  817MPD2    C212075   2.996   2.531   9.348  0.8504  0.5106  0.3341
  817MPD2    C312076   2.924   2.647   9.342 -0.3971  0.2742  0.3324
  817MPD2    C412077   2.938   2.740   9.443  0.3801  0.3413 -0.3854
  817MPD2    C512078   3.026   2.723   9.548 -0.7472 -0.0980 -0.3232
  817MPD2     H12079   2.992   2.458   9.268 -1.2588  1.3947 -0.3904
  817MPD2    H112080   2.866   2.819   9.455 -4.1390 -3.4654 -2.6057
  817MPD2    H212081   3.179   2.600   9.625 -0.9303 -0.1791  0.4227
  817MPD2    H312082   3.031   2.801   9.623 -2.7631 -1.7674  1.5516
  817MPD2     N12083   2.830   2.676   9.232  0.6766  0.1613 -0.1307
  817MPD2    H512084   2.796   2.595   9.181  0.8580 -0.9858  1.5608
  817MPD2    N112085   3.172   2.403   9.438  0.0824 -0.3585  0.8530
  817MPD2    H712086   3.148   2.352   9.353  1.3422  0.4609  0.0062
  818MPD2     C12087   2.191   2.708   9.758  0.5784 -0.1633  0.4152
  818MPD2    C112088   2.241   2.602   9.836  0.0065 -0.4700  0.0197
  818MPD2    C212089   2.271   2.481   9.770  0.5522 -0.3170  0.1622
  818MPD2    C312090   2.260   2.467   9.635  0.2678 -0.3487  0.3694
  818MPD2    C412091   2.202   2.569   9.563  1.0823  0.1684  0.0389
  818MPD2    C512092   2.176   2.686   9.625 -0.1645  0.3282 -0.5255
  818MPD2     H12093   2.286   2.399   9.839  2.2253 -0.5279 -0.4721
  818MPD2    H112094   2.175   2.564   9.458 -0.4784 -1.3390  0.5053
  818MPD2    H212095   2.149   2.798   9.800 -0.7663 -0.5542 -0.1045
  818MPD2    H312096   2.140   2.768   9.565 -0.5129 -1.1091 -2.2887
  818MPD2     N12097   2.286   2.355   9.557  0.5851  0.0095 -0.1411
  818MPD2    H512098   2.252   2.357   9.462 -0.6606 -1.6082  0.2659
  818MPD2    N112099   2.246   2.603   9.975  0.1292  0.6617  0.8301
  818MPD2    H712100   2.292   2.531  10.030 -1.8039 -0.9401  0.3394
  819MPD2     C12101   0.165   3.245  15.731  0.1219 -0.5278  0.6628
  819MPD2    C112102   0.138   3.113  15.752  0.4774 -0.1087 -0.1295
  819MPD2    C212103   0.225   3.046  15.833 -0.0032 -0.0467 -0.2122
  819MPD2    C312104   0.334   3.109  15.894 -0.2028 -0.7814 -0.4639
  819MPD2    C412105   0.347   3.241  15.889 -0.3735  0.2335 -0.1586
  819MPD2    C512106   0.258   3.307  15.810  0.0512  0.4408  0.0387
  819MPD2     H12107   0.221   2.938  15.842  0.6999 -0.2530 -2.4330
  819MPD2    H112108   0.429   3.299  15.930  0.8052 -0.4583 -1.5591
  819MPD2    H212109   0.113   3.308  15.660 -1.6688 -1.6383  0.9847
  819MPD2    H312110   0.279   3.413  15.809 -0.1485  0.4818  0.0996
  819MPD2     N12111   0.417   3.028  15.974 -0.5921  0.6143  0.1013
  819MPD2    H512112   0.380   2.933  15.970  0.1962  0.3608 -1.2618
  819MPD2    N112113   0.029   3.051  15.686 -0.1760 -0.2740 -0.1157
  819MPD2    H712114   4.734   3.088  15.599  1.8503  0.4255 -0.6557
  820MPD2     C12115   3.964   3.099  15.094  0.3606  0.4730  0.6894
  820MPD2    C112116   4.085   3.155  15.101  0.9074  0.4136  0.3375
  820MPD2    C212117   4.180   3.099  15.184 -0.3561  0.5069  0.2386
  820MPD2    C312118   4.147   2.989  15.264  0.1137 -0.1656 -0.1700
  820MPD2    C412119   4.020   2.938  15.255 -0.0489  0.0191 -0.6134
  820MPD2    C512120   3.925   2.987  15.169  0.0115  0.4144  0.1761
  820MPD2     H12121   4.280   3.140  15.186 -0.3826  0.5567  0.7189
  820MPD2    H112122   3.987   2.858  15.321 -0.2087 -0.9884 -1.9020
  820MPD2    H212123   3.897   3.146  15.023 -0.3373  0.3605  1.2748
  820MPD2    H312124   3.826   2.943  15.167  0.6370 -1.0306  0.4526
  820MPD2     N12125   4.229   2.924  15.358  0.2281 -0.0414 -0.2264
  820MPD2    H512126   4.202   2.838  15.404  1.8469 -1.1180 -1.2910
  820MPD2    N112127   4.107   3.261  15.005 -0.4111  0.3835 -0.0806
  820MPD2    H712128   4.025   3.290  14.953 -0.1754  0.9739 -0.1236
  821MPD2     C12129   1.141   4.503  12.643 -0.1253  0.0255 -0.2634
  821MPD2    C112130   1.170   4.482  12.774 -0.1848  0.1088  0.9442
  821MPD2    C212131   1.293   4.531  12.821  0.6770  0.1693  0.6399
  821MPD2    C312132   1.366   4.617  12.734  0.0421 -0.3943  0.2069
  821MPD2    C412133   1.337   4.642  12.605  0.7077 -0.7408  0.0317
  821MPD2    C512134   1.223   4.583  12.558 -0.1088  0.3040  0.5096
  821MPD2     H12135   1.310   4.520  12.927 -0.6118  0.8721  0.9286
  821MPD2    H112136   1.395   4.715  12.550  0.2418  0.5756  1.2852
  821MPD2    H212137   1.052   4.458  12.601 -1.0101 -0.1573  1.8029
  821MPD2    H312138   1.202   4.603  12.454 -1.9271 -1.5132  0.5221
  821MPD2     N12139   1.492   4.676  12.763 -0.4414 -0.2882 -0.2604
  821MPD2    H512140   1.525   4.735  12.687 -1.9905  0.9173  0.0068
  821MPD2    N112141   1.088   4.416  12.868 -0.7548 -0.5820  0.1459
  821MPD2    H712142   1.116   4.420  12.965  1.4042  1.4821 -0.5523
  822MPD2     C12143   0.949   4.442  15.578  0.6187  0.2080  0.6078
  822MPD2    C112144   0.948   4.425  15.715  0.4338 -0.3885 -0.9424
  822MPD2    C212145   0.904   4.521  15.797 -0.0367 -0.1226  0.4569
  822MPD2    C312146   0.847   4.643  15.748  0.0542  0.7186 -0.2134
  822MPD2    C412147   0.832   4.652  15.612  0.3203  0.8695  0.1711
  822MPD2    C512148   0.882   4.554  15.525 -0.0193 -0.0521 -0.0567
  822MPD2     H12149   0.925   4.512  15.903  2.6204 -0.1085 -0.0583
  822MPD2    H112150   0.788   4.735  15.558 -1.1485 -0.3115 -0.4414
  822MPD2    H212151   0.969   4.364  15.506 -0.5032 -0.9009  1.5092
  822MPD2    H312152   0.859   4.565  15.419  1.2079  1.1773 -0.1892
  822MPD2     N12153   0.806   0.006  15.840 -0.0656  0.0976 -0.3465
  822MPD2    H512154   0.805   4.704  15.932  1.7261  1.5692  0.3601
  822MPD2    N112155   0.985   4.305  15.783  0.0502  0.0881  0.2095
  822MPD2    H712156   0.969   4.299  15.883 -0.2936 -1.9800  0.0254
  823MPD2     C12157   0.619   0.418  16.569 -0.0411 -0.3640  0.5706
  823MPD2    C112158   0.590   0.324  16.473  0.0152 -0.7937 -0.6044
  823MPD2    C212159   0.533   0.204  16.523  0.5535 -0.6761 -0.3834
  823MPD2    C312160   0.531   0.167  16.649 -0.1531  0.2280  0.7745
  823MPD2    C412161   0.559   0.268  16.740  0.0594 -0.6821 -0.0535
  823MPD2    C512162   0.592   0.396  16.704  0.1164 -0.3396  0.3777
  823MPD2     H12163   0.491   0.132  16.453 -2.1228  0.5633 -0.0580
  823MPD2    H112164   0.565   0.233  16.843 -2.1202 -1.1772 -0.0797
  823MPD2    H212165   0.680   0.505  16.548 -0.5352 -0.0751  0.3386
  823MPD2    H312166   0.618   0.469  16.780  1.6780  0.8049 -1.2721
  823MPD2     N12167   0.503   0.038  16.693  0.1052  0.5002  0.3527
  823MPD2    H512168   0.476   0.030  16.790  0.0494  0.5054  0.3374
  823MPD2    N112169   0.615   0.355  16.338  0.0289  0.2575  0.0606
  823MPD2    H712170   0.677   0.433  16.324 -0.9648  1.2029  0.9601
  824MPD2     C12171   0.971   3.456  15.699 -0.2299 -0.2985 -0.2209
  824MPD2    C112172   1.075   3.548  15.673 -0.0411 -0.3839 -0.5500
  824MPD2    C212173   1.186   3.507  15.601 -0.4169  0.3069  0.3825
  824MPD2    C312174   1.200   3.377  15.555 -0.1783 -0.2492  1.1785
  824MPD2    C412175   1.097   3.289  15.584  0.0353  0.8100 -0.2752
  824MPD2    C512176   0.984   3.329  15.650  0.5158  0.0242  0.4639
  824MPD2     H12177   1.268   3.575  15.580 -0.2605 -0.4064 -1.3434
  824MPD2    H112178   1.108   3.184  15.556 -2.8097 -0.4184  3.2634
  824MPD2    H212179   0.882   3.494  15.748  1.1095  1.5854  0.7456
  824MPD2    H312180   0.913   3.249  15.668  1.5532 -1.1943 -0.8149
  824MPD2     N12181   1.324   3.337  15.488 -0.6962  0.2010 -0.4495
  824MPD2    H512182   1.387   3.414  15.471 -0.0664 -0.4636 -1.1870
  824MPD2    N112183   1.072   3.680  15.722 -0.7722  0.4795  0.3704
  824MPD2    H712184   1.130   3.755  15.685 -0.8389  0.0907 -0.5323
  825MPD2     C12185   1.959   3.321  14.912 -0.0286 -0.2402 -0.1417
  825MPD2    C112186   1.865   3.390  14.992  0.1535  0.2851 -0.1959
  825MPD2    C212187   1.867   3.529  14.997 -0.0469  0.3647  0.3427
  825MPD2    C312188   1.968   3.596  14.916  0.3734  0.1986 -0.1114
  825MPD2    C412189   2.050   3.522  14.834 -0.3392  1.3203  0.8564
  825MPD2    C512190   2.041   3.390  14.824 -0.4258 -0.8785  0.5858
  825MPD2     H12191   1.799   3.585  15.060 -0.4655  0.5929 -0.3100
  825MPD2    H112192   2.127   3.567  14.772 -1.6053  0.2693 -1.4719
  825MPD2    H212193   1.972   3.216  14.894  2.4026 -0.2122  1.4769
  825MPD2    H312194   2.117   3.343  14.763  1.7130  0.9499  1.8772
  825MPD2     N12195   1.989   3.736  14.911 -0.3511  0.9851 -0.0725
  825MPD2    H512196   2.066   3.768  14.853 -0.0244 -2.6803 -1.6616
  825MPD2    N112197   1.782   3.306  15.068 -0.6651 -0.1515 -0.0232
  825MPD2    H712198   1.782   3.208  15.043  0.2509 -0.5435  1.5439
  826MPD2     C12199   1.260   3.694  13.257 -0.4953  0.6675  0.2705
  826MPD2    C112200   1.259   3.724  13.400  0.3033 -0.8084 -0.3542
  826MPD2    C212201   1.212   3.854  13.430  0.2046  0.2866 -0.4488
  826MPD2    C312202   1.182   3.948  13.333  0.1988 -0.6140 -0.4852
  826MPD2    C412203   1.204   3.924  13.204  0.0596  0.5987 -0.0517
  826MPD2    C512204   1.230   3.797  13.165 -0.2473 -0.7894  0.3206
  826MPD2     H12205   1.203   3.898  13.529  1.7971  2.7529 -1.3894
  826MPD2    H112206   1.206   4.003  13.130  1.1569  0.7003  0.0877
  826MPD2    H212207   1.302   3.600  13.224 -1.1509  0.2474  0.6093
  826MPD2    H312208   1.242   3.784  13.058  1.2378  1.7205  0.1876
  826MPD2     N12209   1.159   4.084  13.350 -0.1358  0.1498 -0.3787
  826MPD2    H512210   1.182   4.149  13.276 -1.0686 -0.2260 -0.9964
  826MPD2    N112211   1.305   3.631  13.495  0.6650  0.0853 -0.4086
  826MPD2    H712212   1.349   3.550  13.452 -0.3819 -1.2027  0.9188
  827MPD2     C12213   2.863   1.004   9.973 -0.4475 -0.0287 -0.7944
  827MPD2    C112214   2.842   0.882  10.036 -0.4428 -0.0666 -0.4271
  827MPD2    C212215   2.731   0.804  10.011  0.9125  0.4684  0.2216
  827MPD2    C312216   2.638   0.845   9.914 -0.7482 -0.1319 -0.0298
  827MPD2    C412217   2.674   0.955   9.842 -0.1214 -0.4692 -0.1935
  827MPD2    C512218   2.775   1.036   9.869  0.4885  0.0043  0.4239
  827MPD2     H12219   2.699   0.719  10.070 -0.4768 -0.4414 -1.8697
  827MPD2    H112220   2.613   0.994   9.761 -1.8801  1.8456  2.2513
  827MPD2    H212221   2.951   1.067   9.982  0.1360 -1.0607  0.8588
  827MPD2    H312222   2.802   1.128   9.819  2.3774 -1.2040 -0.7867
  827MPD2     N12223   2.516   0.777   9.900  0.5213  0.2042 -0.1361
  827MPD2    H512224   2.497   0.707   9.971  0.0066  1.1210  0.6376
  827MPD2    N112225   2.931   0.845  10.145  0.0780  0.2506 -0.1722
  827MPD2    H712226   3.018   0.896  10.160 -0.4916  0.8339  1.1736
  828MPD2     C12227   1.208   0.452  12.032  0.4353 -0.3725  0.3701
  828MPD2    C112228   1.111   0.463  11.935 -0.3106 -0.9023  0.4062
  828MPD2    C212229   1.146   0.511  11.808 -0.3366 -0.4291  0.5012
  828MPD2    C312230   1.277   0.535  11.775 -0.6456  0.4281 -0.1068
  828MPD2    C412231   1.369   0.528  11.876 -0.9000  0.3728  0.0730
  828MPD2    C512232   1.341   0.487  12.001 -0.3116  0.0235 -0.9191
  828MPD2     H12233   1.070   0.518  11.731 -1.7156 -0.6803  1.8449
  828MPD2    H112234   1.472   0.550  11.852 -0.2558 -1.5513  1.0005
  828MPD2    H212235   1.195   0.419  12.135  1.7417 -0.2024  0.5858
  828MPD2    H312236   1.418   0.497  12.077 -0.9794  0.4098 -0.2955
  828MPD2     N12237   1.314   0.597  11.656  0.0885 -0.0830  0.4605
  828MPD2    H512238   1.410   0.632  11.657  0.2664 -0.5008 -1.2056
  828MPD2    N112239   0.973   0.430  11.965  0.0250 -0.2412  0.0796
  828MPD2    H712240   0.910   0.444  11.887 -0.4528 -0.2802  0.4573
  829MPD2     C12241   0.334   0.917  11.661 -0.6559  0.5711  0.2261
  829MPD2    C112242   0.254   0.805  11.676  0.2250 -0.1360  0.4974
  829MPD2    C212243   0.319   0.693  11.736 -0.2290  0.1431  0.2549
  829MPD2    C312244   0.453   0.704  11.776 -0.4106 -0.5285  0.1796
  829MPD2    C412245   0.525   0.823  11.768  0.7941  1.4497 -0.4800
  829MPD2    C512246   0.459   0.927  11.711  0.3575 -0.5959 -1.3088
  829MPD2     H12247   0.263   0.604  11.762 -2.6347  1.5082 -0.2036
  829MPD2    H112248   0.629   0.838  11.793  1.3450 -2.0689 -0.7017
  829MPD2    H212249   0.295   1.005  11.611 -2.1006  0.2838  0.8553
  829MPD2    H312250   0.513   1.018  11.690 -1.8653  0.8060 -0.8519
  829MPD2     N12251   0.524   0.610  11.849 -0.1792 -0.8620 -1.0474
  829MPD2    H512252   0.603   0.642  11.903 -0.1786 -1.5507 -0.6359
  829MPD2    N112253   0.123   0.805  11.632 -0.2031 -1.0614 -0.0594
  829MPD2    H712254   0.087   0.898  11.613  2.5808 -0.6271 -3.1128
  830MPD2     C12255   0.920   2.340  15.938  0.3479  0.1917  0.1110
  830MPD2    C112256   0.870   2.447  15.869 -0.3122 -0.4354 -0.1228
  830MPD2    C212257   0.853   2.439  15.735  0.3067  0.0096  0.5589
  830MPD2    C312258   0.892   2.328  15.663 -0.2189  0.4426  0.8565
  830MPD2    C412259   0.948   2.225  15.732  0.5170  0.1144  0.4011
  830MPD2    C512260   0.959   2.235  15.867 -0.3417  0.2597 -0.2799
  830MPD2     H12261   0.800   2.517  15.681  0.8549 -0.0633 -0.0948
  830MPD2    H112262   0.973   2.129  15.689  0.4155  0.0489  0.4901
  830MPD2    H212263   0.917   2.336  16.046  0.9517 -1.1178  0.0794
  830MPD2    H312264   0.975   2.146  15.926 -0.0349  0.5076  0.0099
  830MPD2     N12265   0.864   2.307  15.523  0.0331  0.1245  0.2788
  830MPD2    H512266   0.916   2.230  15.481  0.2092 -0.0395  0.7970
  830MPD2    N112267   0.827   2.558  15.946  0.2977 -0.0219  0.0691
  830MPD2    H712268   0.855   2.565  16.043  2.0549  0.6866 -0.4851
  831MPD2     C12269   1.039   0.108  16.285  0.5406  0.4709  0.1942
  831MPD2    C112270   1.018   0.001  16.201 -0.6056 -0.0305  0.3804
  831MPD2    C212271   0.894   4.679  16.193 -0.5442 -0.2707 -0.0918
  831MPD2    C312272   0.793   4.720  16.281  0.1477 -0.2441 -0.0530
  831MPD2    C412273   0.821   0.071  16.373  0.6559  0.5797  0.2929
  831MPD2    C512274   0.941   0.139  16.382  0.6184  0.0999 -0.1014
  831MPD2     H12275   0.876   4.602  16.120  0.1790  0.7454 -1.3467
  831MPD2    H112276   0.741   0.099  16.442 -0.0371 -0.9699  0.1106
  831MPD2    H212277   1.130   0.167  16.285  1.2333 -0.6203 -0.6123
  831MPD2    H312278   0.943   0.225  16.448 -0.6887 -0.2200  0.3567
  831MPD2     N12279   0.658   4.670  16.277 -1.0422 -0.5128 -0.3875
  831MPD2    H512280   0.602   4.683  16.360  0.4495 -0.3927  0.6046
  831MPD2    N112281   1.126   4.700  16.120  0.0760  0.0053 -0.3043
  831MPD2    H712282   1.215   0.006  16.112  1.1934 -1.7669  1.7261
  832MPD2     C12283   4.627   1.260  17.211 -0.5154  0.4146 -0.2722
  832MPD2    C112284   4.622   1.391  17.163 -0.3253  0.6523  0.3888
  832MPD2    C212285   4.518   1.426  17.082  0.8880 -0.2903 -0.4308
  832MPD2    C312286   4.423   1.334  17.056 -0.3962  0.6387 -0.7674
  832MPD2    C412287   4.428   1.207  17.106  0.0517 -0.5892 -0.1305
  832MPD2    C512288   4.530   1.170  17.179  0.4779 -1.0269  0.0410
  832MPD2     H12289   4.500   1.530  17.056  0.9289  0.4881  2.7057
  832MPD2    H112290   4.344   1.140  17.091 -0.5836  0.1622  0.0980
  832MPD2    H212291   4.699   1.229  17.286 -0.0612  1.9610 -0.0713
  832MPD2    H312292   4.532   1.065  17.205 -1.6136 -1.4130 -1.4474
  832MPD2     N12293   4.306   1.362  16.985  0.2853 -0.1321  0.3922
  832MPD2    H512294   4.223   1.306  17.001  0.3806 -0.0474  1.1392
  832MPD2    N112295   4.723   1.480  17.201 -0.1809 -0.2620 -0.0284
  832MPD2    H712296   0.052   1.440  17.263 -0.7480 -1.2523 -0.0282
  833MPD2     C12297   0.800   3.496  12.576  0.0426  0.5667  0.0417
  833MPD2    C112298   0.781   3.582  12.466 -0.1403  0.3354  0.1376
  833MPD2    C212299   0.889   3.615  12.391 -0.4680 -0.6220 -0.2434
  833MPD2    C312300   1.011   3.553  12.411  0.7204 -0.0760 -0.4022
  833MPD2    C412301   1.026   3.459  12.512  0.3574  0.2422 -0.1489
  833MPD2    C512302   0.924   3.436  12.596 -1.0362  0.8221 -0.0456
  833MPD2     H12303   0.871   3.673  12.301  0.8302  0.7097  0.3514
  833MPD2    H112304   1.127   3.421  12.528  0.9123  1.7094 -0.1708
  833MPD2    H212305   0.724   3.453  12.640 -1.0172 -0.8925 -2.1948
  833MPD2    H312306   0.936   3.370  12.681  0.4307  1.1015 -0.0467
  833MPD2     N12307   1.112   3.563  12.318 -0.3126 -0.2799  0.0060
  833MPD2    H512308   1.198   3.512  12.333 -0.0267  0.1394 -0.2046
  833MPD2    N112309   0.656   3.650  12.457 -0.1092  0.3453 -0.0446
  833MPD2    H712310   0.580   3.625  12.520 -0.2085 -0.2774 -0.4153
  834MPD2     C12311   1.729   3.074  11.711  0.4260  0.0176 -0.5508
  834MPD2    C112312   1.622   3.098  11.626  0.1952 -0.0629 -0.0806
  834MPD2    C212313   1.519   3.179  11.665  0.0222 -0.4626 -0.5079
  834MPD2    C312314   1.502   3.220  11.795  0.9345  0.6044  0.0565
  834MPD2    C412315   1.602   3.188  11.883  0.2931  0.1214  0.1493
  834MPD2    C512316   1.714   3.115  11.846  0.9562 -0.2458  0.5893
  834MPD2     H12317   1.441   3.212  11.597  1.0768  1.0372 -0.9755
  834MPD2    H112318   1.608   3.218  11.987 -1.6893  1.4932 -0.1171
  834MPD2    H212319   1.814   3.012  11.684  1.5265  0.5168  1.7938
  834MPD2    H312320   1.790   3.074  11.913  0.8104  2.8827  2.6787
  834MPD2     N12321   1.397   3.315  11.821 -0.9768  0.8428  0.0922
  834MPD2    H512322   1.347   3.343  11.737  0.9381 -0.1561 -1.3655
  834MPD2    N112323   1.629   3.042  11.495 -0.1122 -0.6785  0.4672
  834MPD2    H712324   1.716   2.998  11.468  0.3456  1.6054 -1.8301
  835MPD2     C12325   2.035   1.165  11.037  0.3226 -0.3096 -0.4581
  835MPD2    C112326   1.979   1.194  11.163 -0.5053  0.6080 -0.2704
  835MPD2    C212327   2.060   1.224  11.263 -1.1039  0.1035  0.1865
  835MPD2    C312328   2.194   1.240  11.248  0.7220 -0.3667  0.6686
  835MPD2    C412329   2.248   1.209  11.130  0.2078 -0.0882  0.2299
  835MPD2    C512330   2.168   1.167  11.027  0.5391  1.0328  0.3270
  835MPD2     H12331   2.009   1.239  11.358 -3.2765 -2.4186 -0.5896
  835MPD2    H112332   2.354   1.201  11.110 -0.1428  0.3248 -1.7958
  835MPD2    H212333   1.984   1.131  10.947  0.8645 -0.5108 -0.6843
  835MPD2    H312334   2.221   1.120  10.945 -0.5022  0.9703 -0.3033
  835MPD2     N12335   2.283   1.261  11.357 -0.0251  0.4943  0.1217
  835MPD2    H512336   2.381   1.255  11.331 -0.0160 -2.5225  0.7716
  835MPD2    N112337   1.841   1.188  11.187  0.0956  0.6422 -0.3546
  835MPD2    H712338   1.817   1.220  11.281  1.0925  2.1406 -0.6190
  836MPD2     C12339   2.108   1.603  12.076 -0.0654  0.8139 -0.1216
  836MPD2    C112340   2.138   1.472  12.052 -0.7801 -0.4127  0.2165
  836MPD2    C212341   2.068   1.375  12.128  0.7714  0.1702 -0.0714
  836MPD2    C312342   1.987   1.414  12.229  0.6160 -0.6529 -0.5029
  836MPD2    C412343   1.966   1.548  12.249  0.3992 -0.0403 -0.4004
  836MPD2    C512344   2.029   1.638  12.182  0.4083 -0.1001  0.1575
  836MPD2     H12345   2.078   1.269  12.107 -1.9026  0.0630 -0.8752
  836MPD2    H112346   1.906   1.583  12.332 -1.1617 -0.5570 -1.3204
  836MPD2    H212347   2.151   1.685  12.019 -0.3577  1.6912  0.9238
  836MPD2    H312348   2.011   1.740  12.211 -3.6758 -0.1206 -2.3456
  836MPD2     N12349   1.920   1.324  12.310 -0.1129  0.4843  0.2003
  836MPD2    H512350   1.859   1.361  12.382 -0.8128 -0.7780  0.2652
  836MPD2    N112351   2.218   1.434  11.945 -0.4270  0.0885 -0.0616
  836MPD2    H712352   2.242   1.498  11.870 -1.6227  0.1848 -0.3591
  837MPD2     C12353   4.607   0.786  10.065 -0.4912 -0.1538  0.3037
  837MPD2    C112354   4.477   0.826  10.048  0.9356 -0.4805 -0.3773
  837MPD2    C212355   4.436   0.945  10.105 -0.7292  0.3857  0.3674
  837MPD2    C312356   4.512   1.028  10.183 -0.2118 -0.2654 -0.1159
  837MPD2    C412357   4.647   0.987  10.201 -0.2695 -0.1203  0.8309
  837MPD2    C512358   4.685   0.867  10.146 -0.9469  0.1023  0.4829
  837MPD2     H12359   4.337   0.984  10.083 -0.1524  0.8893 -1.3276
  837MPD2    H112360   4.714   1.034  10.272  1.2063  1.3244 -1.5124
  837MPD2    H212361   4.647   0.697  10.018 -2.3015  0.1606 -1.8373
  837MPD2    H312362   0.048   0.838  10.156 -1.2696 -1.9389 -2.0907
  837MPD2     N12363   4.443   1.139  10.242  0.1300 -0.3354 -0.4865
  837MPD2    H512364   4.344   1.139  10.220  0.7009 -1.6710 -2.9795
  837MPD2    N112365   4.385   0.758   9.967  0.4745  0.1993 -0.4409
  837MPD2    H712366   4.300   0.807   9.943  0.3136  0.1205 -0.0304
  838MPD2     C12367   2.468   3.367  11.200 -0.1990 -0.0999 -0.4809
  838MPD2    C112368   2.552   3.428  11.288 -0.9078  0.4573 -0.1591
  838MPD2    C212369   2.539   3.394  11.418  0.2231 -0.2686  0.0559
  838MPD2    C312370   2.460   3.292  11.461  0.1838  0.6109 -0.1035
  838MPD2    C412371   2.372   3.224  11.374 -0.3146  0.5230 -0.2125
  838MPD2    C512372   2.384   3.269  11.249  0.1959 -0.4216 -0.0359
  838MPD2     H12373   2.604   3.443  11.490  0.3818 -0.3625 -0.0250
  838MPD2    H112374   2.300   3.144  11.386  0.7954 -0.6309 -1.3355
  838MPD2    H212375   2.475   3.381  11.093  1.2496 -1.1597 -0.5281
  838MPD2    H312376   2.323   3.219  11.174  1.0075 -2.3704  0.6147
  838MPD2     N12377   2.469   3.264  11.599 -0.3714  0.2419 -0.1270
  838MPD2    H512378   2.524   3.327  11.656  0.9487 -1.5113  0.5001
  838MPD2    N112379   2.657   3.516  11.253  0.0770  0.5203 -0.2210
  838MPD2    H712380   2.717   3.558  11.323 -1.1656  2.1517 -0.1252
  839MPD2     C12381   2.843   3.280  11.715  0.1637 -0.0700 -0.7795
  839MPD2    C112382   2.864   3.242  11.586 -0.2831 -0.1051 -0.6209
  839MPD2    C212383   2.911   3.339  11.497  0.3083 -0.7596 -0.5588
  839MPD2    C312384   2.928   3.475  11.529  0.2746 -0.4845  0.3166
  839MPD2    C412385   2.903   3.514  11.659 -0.0360  0.2370 -1.1444
  839MPD2    C512386   2.862   3.413  11.751  1.0356  0.2944 -0.5220
  839MPD2     H12387   2.935   3.307  11.396  0.7572  0.3789 -0.8102
  839MPD2    H112388   2.913   3.618  11.688 -0.2369 -0.7158  2.2633
  839MPD2    H212389   2.811   3.214  11.794 -1.1269  0.1408 -1.1296
  839MPD2    H312390   2.862   3.448  11.854  0.8261  0.5462 -0.6042
  839MPD2     N12391   2.978   3.569  11.433 -0.3465 -0.5979 -0.2910
  839MPD2    H512392   2.988   3.664  11.466  0.8861 -0.6426 -0.5522
  839MPD2    N112393   2.828   3.116  11.532 -0.3741  0.1659 -0.5756
  839MPD2    H712394   2.846   3.101  11.433  0.6279 -0.6370 -0.2677
  840MPD2     C12395   3.333   1.237  10.249  0.1566  0.9147 -0.0895
  840MPD2    C112396   3.304   1.198  10.383  0.0589 -0.5099 -0.5653
  840MPD2    C212397   3.323   1.285  10.488  0.1808 -0.4194  0.5544
  840MPD2    C312398   3.391   1.406  10.468  0.1156  0.3130  0.0851
  840MPD2    C412399   3.430   1.436  10.340  0.0575  0.3579 -0.0497
  840MPD2    C512400   3.399   1.355  10.232  0.2588  0.3119  0.5196
  840MPD2     H12401   3.302   1.255  10.590  1.8267  0.9748  1.3090
  840MPD2    H112402   3.477   1.533  10.325 -0.5830  1.0297  2.2606
  840MPD2    H212403   3.305   1.176  10.164 -2.2126  1.6929  0.1464
  840MPD2    H312404   3.416   1.388  10.130 -0.3006  0.5994  0.5210
  840MPD2     N12405   3.431   1.482  10.580 -0.4223 -0.1840 -0.2158
  840MPD2    H512406   3.506   1.548  10.562 -1.4486  1.0583  0.0520
  840MPD2    N112407   3.246   1.073  10.401 -0.4288  0.3833 -0.0926
  840MPD2    H712408   3.223   1.019  10.318  0.1022 -0.6294  0.4230
  841MPD2     C12409   2.350   0.394  14.882 -0.0797  1.1057 -0.2406
  841MPD2    C112410   2.376   0.386  14.748  0.0456 -0.1581  0.8885
  841MPD2    C212411   2.459   0.485  14.694  0.3840  0.3724  0.3103
  841MPD2    C312412   2.524   0.581  14.771 -0.3075 -0.6165 -0.1827
  841MPD2    C412413   2.493   0.589  14.907  0.6039  0.2205 -0.0732
  841MPD2    C512414   2.404   0.497  14.960  0.4266 -0.4108 -0.0978
  841MPD2     H12415   2.478   0.481  14.587  1.5743 -1.6048  0.5853
  841MPD2    H112416   2.542   0.658  14.975  0.1821  1.4008 -0.9684
  841MPD2    H212417   2.280   0.328  14.932  1.3627 -1.5785 -1.7729
  841MPD2    H312418   2.365   0.499  15.061 -0.5397 -0.9168 -0.4646
  841MPD2     N12419   2.625   0.664  14.714 -0.6537 -0.0702  0.2959
  841MPD2    H512420   2.644   0.648  14.616 -1.6079 -0.3684  0.1519
  841MPD2    N112421   2.328   0.296  14.657 -0.4749 -0.7702 -0.1777
  841MPD2    H712422   2.357   0.320  14.563 -0.9420  2.3847  0.5072
  842MPD2     C12423   3.146   1.360  15.860  0.1202  0.1267  0.1346
  842MPD2    C112424   3.201   1.487  15.868 -0.1576 -0.2797 -0.0224
  842MPD2    C212425   3.323   1.501  15.935  0.1013  1.0273  0.5915
  842MPD2    C312426   3.375   1.397  16.006 -0.4747  0.1700  0.0544
  842MPD2    C412427   3.313   1.274  16.006 -0.1527 -0.8460 -0.6455
  842MPD2    C512428   3.195   1.252  15.931  0.2864 -0.3605 -0.0643
  842MPD2     H12429   3.357   1.603  15.953 -0.8695  0.7481  4.1040
  842MPD2    H112430   3.354   1.193  16.066  0.7319  0.8658  1.0367
  842MPD2    H212431   3.050   1.347  15.813 -0.2365 -0.2062  0.9600
  842MPD2    H312432   3.132   1.168  15.956  0.0888 -0.2685 -0.2560
  842MPD2     N12433   3.492   1.413  16.081 -0.2859 -0.2613  0.9316
  842MPD2    H512434   3.526   1.334  16.136  0.1693 -0.7380 -0.0392
  842MPD2    N112435   3.131   1.585  15.793 -0.4440  0.1039  0.3242
  842MPD2    H712436   3.035   1.564  15.767 -0.3721 -0.6778  0.6874
  843MPD2     C12437   0.682   1.968   0.002 -0.5598  0.5761 -0.3293
  843MPD2    C112438   0.789   1.944   0.082  0.5001 -1.0334  0.0759
  843MPD2    C212439   0.882   2.044   0.101 -0.5234 -0.3808  0.4038
  843MPD2    C312440   0.866   2.168   0.030  0.2580 -0.7151 -0.2682
  843MPD2    C412441   0.770   2.178  17.694 -0.3334 -0.7507  0.3797
  843MPD2    C512442   0.668   2.087  17.689  0.1730  0.8318  0.3479
  843MPD2     H12443   0.968   2.032   0.166  0.2777  0.6596 -0.4606
  843MPD2    H112444   0.767   2.257  17.621  2.2909 -2.1621 -1.2863
  843MPD2    H212445   0.606   1.894  17.745  1.2859 -0.6361 -3.0817
  843MPD2    H312446   0.597   2.102  17.609  0.1014  0.7654  0.3980
  843MPD2     N12447   0.964   2.278   0.041  0.5307  0.2290 -0.3505
  843MPD2    H512448   0.946   2.368  17.760 -2.1232 -0.1744 -0.0827
  843MPD2    N112449   0.803   1.811   0.127  0.2022  0.4256 -0.7152
  843MPD2    H712450   0.746   1.732   0.099 -0.6001  1.0712 -0.9267
  844MPD2     C12451   3.858   0.730  16.293  0.3644 -0.1272 -0.6862
  844MPD2    C112452   3.980   0.674  16.309 -0.0025  0.1516 -0.2040
  844MPD2    C212453   4.066   0.742  16.393  0.0271 -0.4182  0.0249
  844MPD2    C312454   4.034   0.854  16.467 -0.3272 -0.3896 -0.3487
  844MPD2    C412455   3.904   0.901  16.453 -0.2555 -0.8296  0.7511
  844MPD2    C512456   3.824   0.838  16.368 -0.1365  0.1483 -0.0142
  844MPD2     H12457   4.165   0.700  16.406 -0.2809 -1.7171 -1.9118
  844MPD2    H112458   3.860   0.987  16.503  1.0951  1.3719 -1.8558
  844MPD2    H212459   3.775   0.687  16.240  0.0679 -0.3797 -0.0248
  844MPD2    H312460   3.720   0.871  16.367  0.5473  2.2348 -1.7863
  844MPD2     N12461   4.135   0.921  16.546  0.7136  0.6242 -0.0645
  844MPD2    H512462   4.229   0.883  16.545  1.0228  1.3818  0.1552
  844MPD2    N112463   4.011   0.550  16.242 -0.4244  0.1780  0.2476
  844MPD2    H712464   4.099   0.509  16.268 -0.7627 -0.2448  0.7185
  845MPD2     C12465   4.431   1.933  16.460 -0.1349 -0.0757  0.2240
  845MPD2    C112466   4.484   1.887  16.579  1.0291 -0.1744 -0.4676
  845MPD2    C212467   4.492   1.748  16.609 -0.3675  0.1766  0.2536
  845MPD2    C312468   4.432   1.659  16.527 -0.2865 -0.4452  0.3613
  845MPD2    C412469   4.371   1.706  16.410  0.0591 -0.4215 -0.0905
  845MPD2    C512470   4.373   1.837  16.379 -0.4297 -0.5213  0.2973
  845MPD2     H12471   4.543   1.712  16.698  2.3639  3.9840  0.2602
  845MPD2    H112472   4.348   1.633  16.332 -1.7009 -0.4103  0.4222
  845MPD2    H212473   4.420   2.039  16.438 -1.5199 -0.3261 -0.2478
  845MPD2    H312474   4.330   1.867  16.285 -0.0111  1.0195  0.6043
  845MPD2     N12475   4.439   1.525  16.564 -0.1522  0.0511  0.2724
  845MPD2    H512476   4.496   1.500  16.643  1.7526  1.5117 -0.6408
  845MPD2    N112477   4.519   1.984  16.670  0.0249  0.2897  0.0564
  845MPD2    H712478   4.500   2.077  16.633 -1.1720 -0.7237 -1.8935
  846MPD2     C12479   0.067   2.692  13.134  0.9698  0.5055 -0.1518
  846MPD2    C112480   0.186   2.726  13.212 -0.3443  1.0619 -0.2831
  846MPD2    C212481   0.180   2.700  13.345 -0.4548 -0.1224  0.6578
  846MPD2    C312482   0.059   2.685  13.403  0.6272 -0.2650  0.1192
  846MPD2    C412483   4.690   2.657  13.328  0.5043 -0.0561  0.3907
  846MPD2    C512484   4.691   2.654  13.193 -0.1354 -0.4401 -0.0113
  846MPD2     H12485   0.264   2.728  13.408  0.2073 -1.2788  0.2901
  846MPD2    H112486   4.591   2.650  13.370  1.0767  0.8790  1.9162
  846MPD2    H212487   0.060   2.698  13.026  0.0672 -0.9419 -0.1792
  846MPD2    H312488   4.605   2.619  13.136  0.3642 -1.5288 -0.0956
  846MPD2     N12489   0.056   2.677  13.543  0.4198  0.0319 -0.0123
  846MPD2    H512490   0.148   2.677  13.585  1.8057  1.7992 -3.0168
  846MPD2    N112491   0.302   2.786  13.164 -0.4461  1.1075  0.1769
  846MPD2    H712492   0.371   2.803  13.236 -1.2528 -0.5533  1.3403
  847MPD2     C12493   1.107   2.634  13.770 -0.1546 -1.1747 -0.0510
  847MPD2    C112494   1.089   2.672  13.904 -0.0954  0.6559 -0.4178
  847MPD2    C212495   1.162   2.618  14.002 -0.2621 -0.6514  0.0087
  847MPD2    C312496   1.256   2.519  13.973  0.2850  0.3082  0.2069
  847MPD2    C412497   1.267   2.470  13.845  0.4125 -0.5424 -0.0050
  847MPD2    C512498   1.190   2.530  13.751 -0.4180  0.3547 -0.5797
  847MPD2     H12499   1.155   2.674  14.095  0.1457 -0.5570 -0.0189
  847MPD2    H112500   1.323   2.380  13.824  0.9393 -0.1854 -0.1129
  847MPD2    H212501   1.046   2.683  13.695  0.4597 -0.0002  0.2053
  847MPD2    H312502   1.191   2.492  13.649  1.7959 -0.5058 -0.2310
  847MPD2     N12503   1.350   2.484  14.072 -0.3635  0.3228  0.3160
  847MPD2    H512504   1.434   2.435  14.043 -0.7974 -0.5247  0.5022
  847MPD2    N112505   1.006   2.776  13.942 -0.7474 -0.3487  0.6515
  847MPD2    H712506   1.004   2.790  14.042  0.5077 -2.8197  1.0142
  848MPD2     C12507   4.090   1.675  16.231  0.0166 -0.2682  0.3167
  848MPD2    C112508   4.033   1.719  16.348  0.7917 -0.7888  0.3311
  848MPD2    C212509   3.966   1.834  16.344  0.6996 -0.0451 -0.1722
  848MPD2    C312510   3.950   1.907  16.230 -0.0446 -0.5933  0.7704
  848MPD2    C412511   4.003   1.860  16.111 -0.9907 -0.1790  0.2730
  848MPD2    C512512   4.067   1.745  16.116  0.0152  0.0757 -0.2701
  848MPD2     H12513   3.927   1.875  16.437 -1.1713  0.2393 -1.0649
  848MPD2    H112514   4.002   1.917  16.019  1.8555 -1.3054 -0.4514
  848MPD2    H212515   4.138   1.578  16.231  0.6164  0.0299  0.3866
  848MPD2    H312516   4.109   1.704  16.024 -1.4692 -2.6000  0.2460
  848MPD2     N12517   3.898   2.035  16.252  0.2769 -0.1737 -0.1175
  848MPD2    H512518   3.858   2.056  16.343  2.8714  1.2170  0.6930
  848MPD2    N112519   4.059   1.647  16.469 -0.6032 -0.1527  0.0788
  848MPD2    H712520   4.130   1.575  16.467 -0.5237 -0.0686 -0.1320
  849MPD2     C12521   3.515   1.031  13.664  0.3675 -0.0290  0.7070
  849MPD2    C112522   3.640   1.032  13.717 -0.3175  0.4660 -0.2462
  849MPD2    C212523   3.668   0.985  13.842 -0.1995  0.0107  0.1020
  849MPD2    C312524   3.563   0.935  13.922  0.0263  0.2572 -0.8654
  849MPD2    C412525   3.428   0.938  13.870  0.4661  0.0511 -0.0086
  849MPD2    C512526   3.411   0.987  13.742 -0.3463  0.0469  0.5134
  849MPD2     H12527   3.765   0.992  13.890  0.5598 -0.1306 -1.4167
  849MPD2    H112528   3.339   0.897  13.916  0.1291  0.8250  0.0434
  849MPD2    H212529   3.489   1.086  13.574  0.3007 -0.1616  0.6463
  849MPD2    H312530   3.314   1.007  13.698  1.5968  2.8699 -2.5262
  849MPD2     N12531   3.591   0.873  14.046  0.4717  0.2179  0.9777
  849MPD2    H512532   3.689   0.871  14.070  0.1911  0.8002  2.1621
  849MPD2    N112533   3.731   1.124  13.658  0.2800  0.0844 -0.4671
  849MPD2    H712534   3.691   1.205  13.611  0.8559  0.7019  0.1064
  850MPD2     C12535   0.964   3.290  14.784  0.7395  0.1169  0.5095
  850MPD2    C112536   0.952   3.382  14.888 -0.6230 -0.8325 -0.3923
  850MPD2    C212537   1.062   3.437  14.946  0.3368  0.6921 -0.4483
  850MPD2    C312538   1.186   3.415  14.894  0.4398 -0.4101 -0.0493
  850MPD2    C412539   1.197   3.336  14.777 -0.5631 -0.4322  0.2826
  850MPD2    C512540   1.087   3.273  14.723  0.2754  0.5733 -0.0165
  850MPD2     H12541   1.046   3.499  15.033  0.4309 -0.6828  0.5379
  850MPD2    H112542   1.294   3.322  14.732  0.6879 -0.5646  3.0385
  850MPD2    H212543   0.881   3.235  14.743  2.3881 -2.0250  0.0266
  850MPD2    H312544   1.093   3.229  14.624 -0.1721  1.0368 -0.2532
  850MPD2     N12545   1.304   3.462  14.960  0.4374  0.2445 -0.0328
  850MPD2    H512546   1.392   3.457  14.910  0.0627 -1.5433 -0.5299
  850MPD2    N112547   0.829   3.406  14.953 -0.6492 -0.1465  0.3197
  850MPD2    H712548   0.839   3.477  15.026  0.1496 -0.8997  0.9550
  851MPD2     C12549   1.073   2.995  15.278  0.5138 -0.0024 -0.0074
  851MPD2    C112550   0.938   2.968  15.260 -0.0647  0.7364 -0.7037
  851MPD2    C212551   0.902   2.840  15.226  0.7591  0.3529  0.3398
  851MPD2    C312552   0.994   2.741  15.189 -0.6456  0.4687  0.1408
  851MPD2    C412553   1.124   2.767  15.204 -0.1459 -0.7197  0.0519
  851MPD2    C512554   1.160   2.891  15.247  0.4135  1.0184  0.9045
  851MPD2     H12555   0.795   2.825  15.219  0.9147 -1.5740  2.0563
  851MPD2    H112556   1.198   2.688  15.195 -0.4498 -0.7422 -2.0740
  851MPD2    H212557   1.112   3.089  15.314  1.7717 -0.2519 -0.7153
  851MPD2    H312558   1.266   2.910  15.258  0.8153 -1.0850  0.7703
  851MPD2     N12559   0.939   2.613  15.153  0.1442  0.3345  0.3331
  851MPD2    H512560   0.839   2.599  15.159  0.4198 -0.6160  2.6265
  851MPD2    N112561   0.849   3.071  15.291 -0.7341  0.4539 -0.6046
  851MPD2    H712562   0.893   3.160  15.311  0.8051 -0.7063  1.1421
  852MPD2     C12563   1.390   2.508   9.959 -0.9367  1.0146 -0.0601
  852MPD2    C112564   1.340   2.590  10.058 -0.5629  0.1370 -0.1812
  852MPD2    C212565   1.390   2.721  10.073  0.6857 -0.0634 -0.0043
  852MPD2    C312566   1.482   2.761   9.979 -0.1585  0.1609 -0.0779
  852MPD2    C412567   1.522   2.678   9.870 -0.4388 -0.1210 -1.2614
  852MPD2    C512568   1.473   2.550   9.860 -0.0331 -0.4768  0.2818
  852MPD2     H12569   1.379   2.779  10.164  0.0494 -1.1372  0.6054
  852MPD2    H112570   1.593   2.700   9.791 -0.4274 -0.2253 -1.2801
  852MPD2    H212571   1.359   2.404   9.954 -1.2890  1.1216 -0.1288
  852MPD2    H312572   1.517   2.479   9.792  0.1314 -0.8999  0.8299
  852MPD2     N12573   1.524   2.892   9.991 -0.2105  0.3569  0.5602
  852MPD2    H512574   1.474   2.948  10.059 -0.3928  1.5536 -0.5612
  852MPD2    N112575   1.253   2.544  10.163  0.2286  0.1095 -0.7329
  852MPD2    H712576   1.222   2.607  10.236 -1.5283  0.1162 -1.4938
  853MPD2     C12577   3.196   1.931  12.502  0.1031 -0.5030  0.2381
  853MPD2    C112578   3.062   1.967  12.492  0.5096  0.1740 -0.0442
  853MPD2    C212579   2.987   1.947  12.371  0.2644 -0.3761 -0.5160
  853MPD2    C312580   3.047   1.867  12.273 -0.6910 -0.0730  0.9280
  853MPD2    C412581   3.183   1.822  12.296 -0.1592 -0.2061  0.4647
  853MPD2    C512582   3.257   1.856  12.404  0.2577  0.3805 -0.0215
  853MPD2     H12583   2.883   1.977  12.364  1.1754  2.2717 -2.4271
  853MPD2    H112584   3.223   1.752  12.223 -1.0122  1.0394 -1.2020
  853MPD2    H212585   3.245   1.940  12.598  0.5918  2.7069 -0.3085
  853MPD2    H312586   3.355   1.812  12.420  0.5132  1.6830  1.9977
  853MPD2     N12587   2.987   1.838  12.155  0.2830 -0.6656  0.7855
  853MPD2    H512588   3.043   1.785  12.089 -0.1331  0.4533 -0.4775
  853MPD2    N112589   3.011   2.028  12.608 -0.2765  0.3360  0.6070
  853MPD2    H712590   3.075   2.028  12.687  2.8626 -0.7007 -1.9715
  854MPD2     C12591   4.111   2.011  13.128 -0.0793 -0.5087 -0.3402
  854MPD2    C112592   4.161   2.061  13.012 -0.2989  0.1660  0.7114
  854MPD2    C212593   4.281   2.013  12.958  0.7654  0.0165  0.1868
  854MPD2    C312594   4.346   1.915  13.028  0.1018 -0.1073  0.3458
  854MPD2    C412595   4.296   1.855  13.144  0.7502 -0.5824  0.1647
  854MPD2    C512596   4.179   1.910  13.187 -0.0221  0.0902  0.3584
  854MPD2     H12597   4.331   2.055  12.871 -0.0851  2.6558  0.9772
  854MPD2    H112598   4.340   1.766  13.189  3.1127  0.3709 -0.2669
  854MPD2    H212599   4.011   2.043  13.155  0.3950  0.9361 -0.2874
  854MPD2    H312600   4.135   1.853  13.268 -0.4717 -0.9065 -0.5804
  854MPD2     N12601   4.466   1.861  12.983  0.0474 -0.0222  0.2458
  854MPD2    H512602   4.498   1.785  13.043 -0.4255  1.2289  2.0947
  854MPD2    N112603   4.087   2.164  12.949 -0.7371 -0.3325 -0.0168
  854MPD2    H712604   4.007   2.203  12.999 -1.7727 -2.0057 -0.3630
  855MPD2     C12605   0.282   1.890  13.544  0.0300 -0.0600  0.1848
  855MPD2    C112606   0.358   1.807  13.461  0.4549  0.1493  0.7033
  855MPD2    C212607   0.316   1.788  13.329 -0.1673  0.2994  0.2941
  855MPD2    C312608   0.217   1.865  13.276  0.0655  0.1921 -0.5244
  855MPD2    C412609   0.167   1.972  13.350 -0.2083  0.4504  0.4822
  855MPD2    C512610   0.189   1.975  13.485  0.1825 -0.8994 -0.1416
  855MPD2     H12611   0.367   1.717  13.265 -3.4155 -2.4282  0.7043
  855MPD2    H112612   0.098   2.048  13.314 -3.0926 -2.4750 -0.2155
  855MPD2    H212613   0.303   1.919  13.646 -1.2456  0.0971  0.3987
  855MPD2    H312614   0.139   2.050  13.543 -0.6953 -2.9387  1.7445
  855MPD2     N12615   0.174   1.855  13.139 -0.0568 -0.0144 -0.8117
  855MPD2    H512616   0.111   1.929  13.109  0.2836  0.9025  0.7503
  855MPD2    N112617   0.471   1.729  13.508  0.1386 -0.1871  0.5701
  855MPD2    H712618   0.524   1.677  13.439  0.1053  0.3900  0.1058
  856MPD2     C12619   1.905   2.216  13.829  0.4837 -0.0450  0.2245
  856MPD2    C112620   1.920   2.352  13.847  0.1762 -0.0980  0.5842
  856MPD2    C212621   1.820   2.447  13.828 -0.7205 -0.2949  0.8327
  856MPD2    C312622   1.710   2.406  13.759 -0.1386  0.1654 -0.0029
  856MPD2    C412623   1.696   2.279  13.725  0.7122 -0.2444  0.3201
  856MPD2    C512624   1.777   2.184  13.777  0.4005 -0.0105 -0.2294
  856MPD2     H12625   1.833   2.544  13.873  1.9423  0.4956 -1.6588
  856MPD2    H112626   1.609   2.249  13.667 -0.6675  2.3208  1.0619
  856MPD2    H212627   1.980   2.141  13.847  0.6576  0.4009  1.3636
  856MPD2    H312628   1.755   2.083  13.745 -1.1603 -0.1005  1.1254
  856MPD2     N12629   1.598   2.493  13.733  0.2786 -0.0988 -0.5924
  856MPD2    H512630   1.526   2.447  13.679  2.1660 -3.3282 -0.3698
  856MPD2    N112631   2.045   2.399  13.902  0.4048  0.0010 -0.6108
  856MPD2    H712632   2.059   2.500  13.905 -1.7504  0.3978 -3.0287
  857MPD2     C12633   3.716   4.441  13.200 -0.0600  0.6829 -0.5777
  857MPD2    C112634   3.767   4.552  13.140  0.3739  0.1716  0.1976
  857MPD2    C212635   3.816   4.655  13.216 -0.7629  0.0929  0.2639
  857MPD2    C312636   3.801   4.647  13.353  0.3273  0.1781  0.9068
  857MPD2    C412637   3.751   4.531  13.417  0.2253 -0.5169 -0.3774
  857MPD2    C512638   3.708   4.434  13.339 -0.8200  0.4216 -0.6900
  857MPD2     H12639   3.865   4.740  13.169 -1.6326 -0.6597 -1.9853
  857MPD2    H112640   3.746   4.511  13.524  1.5509 -1.2750 -0.4604
  857MPD2    H212641   3.701   4.350  13.143  0.9789 -0.1121  0.4114
  857MPD2    H312642   3.686   4.338  13.382  3.7992 -0.5659 -0.5952
  857MPD2     N12643   3.845   0.020  13.424 -0.2890  0.3858  0.1783
  857MPD2    H512644   3.878   0.100  13.372  1.0697 -0.5725 -0.4322
  857MPD2    N112645   3.809   4.533  13.007  0.2621  0.4458  0.1204
  857MPD2    H712646   3.798   4.439  12.972  0.0412  0.0597  1.2615
  858MPD2     C12647   3.788   3.867  16.680 -0.0361  0.3478  0.0587
  858MPD2    C112648   3.917   3.816  16.693 -0.8585 -0.2893  0.1485
  858MPD2    C212649   3.982   3.839  16.810  0.8157 -0.7473  0.1611
  858MPD2    C312650   3.927   3.911  16.917  0.0799  0.3004  0.2062
  858MPD2    C412651   3.800   3.966  16.902  0.3211  0.5747 -0.9324
  858MPD2    C512652   3.736   3.937  16.787 -0.1104 -0.7772  0.1325
  858MPD2     H12653   4.084   3.803  16.821  1.1831  0.0994 -0.4297
  858MPD2    H112654   3.759   4.021  16.985 -1.7728  1.2845 -2.4653
  858MPD2    H212655   3.713   3.859  16.603 -2.2974 -1.9351  2.5139
  858MPD2    H312656   3.637   3.979  16.769 -0.0922 -1.6896 -2.0316
  858MPD2     N12657   3.997   3.931  17.039  0.1625 -0.1274  0.0583
  858MPD2    H512658   3.949   3.986  17.109  0.6972 -0.1979  0.4781
  858MPD2    N112659   3.966   3.737  16.593  0.3116 -0.3158 -0.0524
  858MPD2    H712660   3.902   3.704  16.522  0.8580 -2.4907  0.4725
  859MPD2     C12661   2.671   0.828  15.411  0.2064 -0.5033 -0.2589
  859MPD2    C112662   2.703   0.793  15.282 -0.0911  0.4968 -0.4763
  859MPD2    C212663   2.669   0.664  15.240 -0.0127  0.9715  0.2701
  859MPD2    C312664   2.612   0.565  15.323  0.0054  0.2467 -0.2395
  859MPD2    C412665   2.574   0.607  15.449  0.4092 -0.3512  0.1687
  859MPD2    C512666   2.601   0.738  15.496  0.2709  0.1515 -0.0764
  859MPD2     H12667   2.686   0.627  15.140 -0.0901 -0.1182  0.6537
  859MPD2    H112668   2.531   0.537  15.520 -0.6491 -0.7576 -0.8875
  859MPD2    H212669   2.715   0.917  15.453 -0.8036  0.6339 -1.6194
  859MPD2    H312670   2.564   0.764  15.594  1.2363  2.3240 -0.2803
  859MPD2     N12671   2.574   0.435  15.275 -0.1501  0.1088 -0.6503
  859MPD2    H512672   2.534   0.372  15.343 -2.9515  1.8887 -0.6826
  859MPD2    N112673   2.763   0.878  15.189 -0.4385 -0.2142  0.3661
  859MPD2    H712674   2.811   0.836  15.110 -0.0322 -0.6197  0.8287
  860MPD2     C12675   0.199   2.154  11.108 -0.3339 -0.9811  0.0533
  860MPD2    C112676   0.241   2.210  11.229  0.6034  0.1411  0.2944
  860MPD2    C212677   0.174   2.178  11.341 -0.5078  0.1750 -0.4131
  860MPD2    C312678   0.076   2.081  11.336 -0.1326  0.3709  0.6483
  860MPD2    C412679   0.049   2.008  11.221 -0.2033  0.4543  0.0916
  860MPD2    C512680   0.103   2.058  11.110  0.3111 -0.6605  0.9268
  860MPD2     H12681   0.205   2.218  11.437 -0.1196 -0.4814 -0.2657
  860MPD2    H112682   4.700   1.949  11.208  0.4141 -0.2091 -1.1869
  860MPD2    H212683   0.253   2.159  11.014  2.3001  0.3568  1.6351
  860MPD2    H312684   0.080   2.011  11.015 -0.2812  3.0544 -0.7919
  860MPD2     N12685   0.014   2.045  11.460 -0.6572  0.4244 -0.0173
  860MPD2    H512686   0.039   2.103  11.539 -3.4555  1.5076  0.0572
  860MPD2    N112687   0.355   2.294  11.247 -0.5112 -0.6323  0.4777
  860MPD2    H712688   0.388   2.313  11.341  0.1121  2.4806 -0.3563
  861MPD2     C12689   4.438   0.059  10.804  0.4956 -0.1041  0.7168
  861MPD2    C112690   4.421   0.196  10.825  0.0720 -0.0394 -0.0751
  861MPD2    C212691   4.352   0.276  10.733 -0.1379 -0.8700 -0.5121
  861MPD2    C312692   4.288   0.211  10.626 -0.4219 -0.2761  0.2459
  861MPD2    C412693   4.306   0.074  10.609 -0.2030 -0.0191 -0.2087
  861MPD2    C512694   4.388   0.005  10.693 -0.2095 -0.3417 -0.3330
  861MPD2     H12695   4.355   0.384  10.746 -0.5079 -0.8232 -0.8219
  861MPD2    H112696   4.256   0.019  10.530 -0.2860 -0.6186  0.2581
  861MPD2    H212697   4.505   0.005  10.870  1.0772 -1.1244 -0.7019
  861MPD2    H312698   4.411   4.643  10.668  0.5908  0.0001 -1.0042
  861MPD2     N12699   4.197   0.280  10.545  0.1941  0.4039  0.2277
  861MPD2    H512700   4.139   0.223  10.484 -2.3153  2.9575  0.2219
  861MPD2    N112701   4.475   0.269  10.941 -0.2351  0.2248  0.0987
  861MPD2    H712702   4.466   0.369  10.928  0.0057  0.5419  2.4266
  862MPD2     C12703   3.568   0.121  10.211  0.7930  0.1864 -0.7960
  862MPD2    C112704   3.670   0.105  10.303  0.3832 -0.5054 -0.2835
  862MPD2    C212705   3.682   4.725  10.371  0.4513 -0.0020  0.0031
  862MPD2    C312706   3.590   4.624  10.350  0.2582  0.1410 -0.1333
  862MPD2    C412707   3.493   4.637  10.248  0.6153  0.3281  0.1891
  862MPD2    C512708   3.484   0.015  10.183  0.0938  0.1041 -0.1301
  862MPD2     H12709   3.748   4.725  10.457 -2.6083  2.5840  2.3508
  862MPD2    H112710   3.411   4.571  10.224  1.1874 -0.0165 -0.8197
  862MPD2    H212711   3.540   0.212  10.159  1.4603  0.8286 -0.0311
  862MPD2    H312712   3.403   0.027  10.112  0.3055  1.7248 -0.0967
  862MPD2     N12713   3.586   4.508  10.424 -0.4743  0.1570 -0.4032
  862MPD2    H512714   3.510   4.445  10.400 -0.5909  0.5380 -1.0281
  862MPD2    N112715   3.753   0.216  10.343  0.2154 -0.2148  0.2411
  862MPD2    H712716   3.825   0.198  10.413 -0.0859 -2.1331  0.0752
  863MPD2     C12717   2.685   2.581  16.474  0.0676 -0.1709  0.1925
  863MPD2    C112718   2.611   2.627  16.578 -0.0056  0.2866 -0.5979
  863MPD2    C212719   2.664   2.621  16.705  1.1475  0.3843  1.0079
  863MPD2    C312720   2.780   2.550  16.730 -0.2332  1.0001 -0.1326
  863MPD2    C412721   2.842   2.485  16.621 -0.0109  0.1676 -0.4527
  863MPD2    C512722   2.797   2.517  16.501  0.1823 -0.5382  0.1303
  863MPD2     H12723   2.615   2.674  16.786 -2.8900 -1.5385 -0.2117
  863MPD2    H112724   2.940   2.439  16.620  0.2480  0.7247 -0.6064
  863MPD2    H212725   2.658   2.591  16.370  0.0598  0.3451  0.2474
  863MPD2    H312726   2.842   2.471  16.414  0.7940 -2.0220  1.2323
  863MPD2     N12727   2.818   2.536  16.864  0.0716  0.2265 -0.1969
  863MPD2    H512728   2.893   2.470  16.884  0.0852 -0.1825 -1.5788
  863MPD2    N112729   2.483   2.676  16.550 -0.4184 -0.0482  0.7390
  863MPD2    H712730   2.447   2.672  16.455  1.2675  2.0433  0.0092
  864MPD2     C12731   3.142   4.351  17.181  0.4579  0.2094  0.1208
  864MPD2    C112732   3.203   4.246  17.120 -0.3244  0.3539  0.3869
  864MPD2    C212733   3.318   4.261  17.047  1.0586  0.8066 -0.0604
  864MPD2    C312734   3.360   4.390  17.020 -0.6076  0.4887  0.1326
  864MPD2    C412735   3.290   4.497  17.074  0.3143  0.0627 -0.2124
  864MPD2    C512736   3.196   4.476  17.169  0.2866  0.1747  0.1673
  864MPD2     H12737   3.371   4.176  17.006 -0.9418 -1.9639  3.2030
  864MPD2    H112738   3.325   4.597  17.056 -1.5591  1.3698  3.3920
  864MPD2    H212739   3.055   4.331  17.241 -0.1117  1.2333 -0.3571
  864MPD2    H312740   3.136   4.550  17.222 -1.7012 -0.3278 -1.3622
  864MPD2     N12741   3.467   4.417  16.929  0.0856  0.2033 -0.3214
  864MPD2    H512742   3.504   4.512  16.927 -2.4224  1.2063  1.0905
  864MPD2    N112743   3.137   4.119  17.131 -0.3667 -0.5375 -0.4195
  864MPD2    H712744   3.039   4.122  17.159 -0.7317 -0.7770 -1.6913
  865MPD2     C12745   3.462   4.390  16.077 -0.2894  0.0439 -0.0451
  865MPD2    C112746   3.410   4.314  16.178  0.2958  0.5527 -0.1071
  865MPD2    C212747   3.432   4.367  16.305  0.2682 -0.3388  0.0320
  865MPD2    C312748   3.496   4.485  16.334 -0.3502  0.6126 -1.2191
  865MPD2    C412749   3.531   4.562  16.223  0.3191 -0.5961  0.1812
  865MPD2    C512750   3.516   4.515  16.094  0.5159  0.0942 -0.0441
  865MPD2     H12751   3.402   4.303  16.388 -1.4372  0.3736 -0.0330
  865MPD2    H112752   3.587   4.656  16.222 -0.0681 -0.3887 -2.2128
  865MPD2    H212753   3.474   4.349  15.977  4.4668 -2.6142  1.6400
  865MPD2    H312754   3.539   4.574  16.006  0.9075  0.8917  0.5972
  865MPD2     N12755   3.537   4.510  16.463 -0.2689  0.2963  0.7146
  865MPD2    H512756   3.500   4.440  16.526  0.9453  0.0832  1.1920
  865MPD2    N112757   3.371   4.179  16.145  0.0205 -0.0746  0.1048
  865MPD2    H712758   3.363   4.158  16.046 -2.1723  3.4166 -0.4822
  866MPD2     C12759   0.291   0.858  10.894 -0.6799  0.1603 -0.5387
  866MPD2    C112760   0.235   0.733  10.911 -0.2571 -0.4787 -0.1740
  866MPD2    C212761   0.094   0.717  10.890  0.2414  0.1128 -0.4287
  866MPD2    C312762   0.015   0.834  10.873 -0.8438  0.0642  0.3962
  866MPD2    C412763   0.075   0.959  10.864 -0.1738 -0.6455  0.3241
  866MPD2    C512764   0.209   0.966  10.871  0.3363 -0.2344  0.6322
  866MPD2     H12765   0.047   0.620  10.898 -0.6568  0.4405 -1.7322
  866MPD2    H112766   0.017   1.047  10.839  0.0594 -0.4789  0.3652
  866MPD2    H212767   0.397   0.874  10.876 -1.2301  0.6305 -3.3917
  866MPD2    H312768   0.255   1.061  10.847  0.3914  0.2510  2.7010
  866MPD2     N12769   4.615   0.824  10.864  0.1145  0.2055  0.7081
  866MPD2    H512770   4.557   0.907  10.856 -0.1083  0.2466  2.5618
  866MPD2    N112771   0.327   0.626  10.927 -0.2579  0.1906 -0.3992
  866MPD2    H712772   0.423   0.653  10.946 -0.1485 -1.2858  1.1852
  867MPD2     C12773   1.889   4.192  16.759 -0.0797 -0.2026  0.0626
  867MPD2    C112774   1.945   4.147  16.873  0.1041  0.6194 -0.3352
  867MPD2    C212775   1.977   4.229  16.978  0.9235 -0.7271  0.2744
  867MPD2    C312776   1.954   4.366  16.966 -0.0644  0.6295  0.0144
  867MPD2    C412777   1.910   4.407  16.843 -0.4817 -0.2229 -0.0356
  867MPD2    C512778   1.870   4.326  16.742 -0.0449  0.1396 -0.1351
  867MPD2     H12779   2.031   4.192  17.064 -1.3002  0.0390  1.9832
  867MPD2    H112780   1.889   4.510  16.816 -0.0872  0.2311  1.3958
  867MPD2    H212781   1.868   4.115  16.686  0.7463 -0.4894  0.1307
  867MPD2    H312782   1.848   4.367  16.644 -2.1415 -1.9295 -0.5454
  867MPD2     N12783   1.982   4.464  17.064 -0.5774 -0.0997  0.0868
  867MPD2    H512784   1.951   4.559  17.047 -2.1024 -0.4060  1.1497
  867MPD2    N112785   1.978   4.008  16.874  0.2194 -0.0864 -0.2206
  867MPD2    H712786   1.942   3.955  16.796 -1.0679 -0.6543  0.7686
  868MPD2     C12787   3.675   3.632  13.287  0.1350  0.6118  0.3584
  868MPD2    C112788   3.672   3.500  13.314 -0.5055 -0.7083  0.0135
  868MPD2    C212789   3.607   3.464  13.428  0.6498 -0.5081 -0.7764
  868MPD2    C312790   3.549   3.553  13.521  0.3780 -0.0015 -0.0834
  868MPD2    C412791   3.561   3.688  13.487  0.5228  0.5906 -0.8436
  868MPD2    C512792   3.621   3.728  13.367 -0.2126  0.2328  1.1919
  868MPD2     H12793   3.612   3.364  13.470 -0.1842  0.1336  0.8736
  868MPD2    H112794   3.520   3.759  13.559  2.0115 -0.7465  1.3296
  868MPD2    H212795   3.718   3.671  13.195  0.4639  1.3276  0.8181
  868MPD2    H312796   3.629   3.833  13.342  1.5709  0.3553  2.3206
  868MPD2     N12797   3.491   3.510  13.638  1.1455 -0.3119  0.2628
  868MPD2    H512798   3.535   3.424  13.666  0.1195 -1.3985 -1.4228
  868MPD2    N112799   3.748   3.411  13.231 -0.1420 -0.2602  0.6245
  868MPD2    H712800   3.810   3.456  13.164 -1.8003  1.9298  0.5368
  869MPD2     C12801   4.040   1.096   0.396  0.1061  0.2926 -0.5169
  869MPD2    C112802   4.137   1.010   0.442 -0.9118  0.1268 -0.2092
  869MPD2    C212803   4.262   1.054   0.475  0.7813 -0.1409 -0.3880
  869MPD2    C312804   4.280   1.194   0.480  0.0140 -0.3583  0.3759
  869MPD2    C412805   4.187   1.285   0.429 -0.1025  0.0329  0.2780
  869MPD2    C512806   4.066   1.230   0.393 -1.1399 -0.4774 -0.1557
  869MPD2     H12807   4.336   0.992   0.525 -0.8195 -1.1557  0.7115
  869MPD2    H112808   4.190   1.392   0.446 -0.7950  0.0878  0.0393
  869MPD2    H212809   3.940   1.061   0.376 -0.2751  1.5274 -0.7314
  869MPD2    H312810   3.986   1.294   0.358  0.8651  1.1021 -1.7924
  869MPD2     N12811   4.395   1.245   0.538 -0.3590 -0.4878 -0.3820
  869MPD2    H512812   4.394   1.346   0.542  0.7999 -0.4452 -0.9612
  869MPD2    N112813   4.088   0.877   0.472 -0.2058  0.4507 -0.5187
  869MPD2    H712814   3.990   0.866   0.450  0.3629 -4.3050 -0.6944
  870MPD2     C12815   4.279   4.730   1.291  0.3765  0.1615 -0.4928
  870MPD2    C112816   4.325   4.732   1.162 -0.1413 -0.2872  0.7354
  870MPD2    C212817   4.238   0.032   1.060 -0.3644 -0.1950  0.1654
  870MPD2    C312818   4.103   0.041   1.078  0.5926 -0.3757 -0.7943
  870MPD2    C412819   4.053   0.034   1.208 -0.3505  0.4678  0.3751
  870MPD2    C512820   4.145   0.025   1.311  0.0234  0.0833 -0.2798
  870MPD2     H12821   4.284   0.044   0.962  1.9182  0.1430  1.2874
  870MPD2    H112822   3.950   0.042   1.241  0.1852  0.6368  2.0391
  870MPD2    H212823   4.350   4.714   1.372 -0.0277  2.1932  0.2554
  870MPD2    H312824   4.108   0.027   1.413 -0.1957 -2.5369 -0.2958
  870MPD2     N12825   4.028   0.055   0.963  0.6301  0.4228 -0.3032
  870MPD2    H512826   4.074   0.060   0.873  0.3594 -1.2175 -0.5330
  870MPD2    N112827   4.455   4.702   1.140 -0.4893 -0.3284 -0.2159
  870MPD2    H712828   4.510   4.680   1.223  2.0285 -0.1808 -1.8341
  871MPD2     C12829   0.177   4.186  16.275 -0.4347 -0.0868 -1.0413
  871MPD2    C112830   0.280   4.147  16.351 -0.2688 -0.1408 -0.1229
  871MPD2    C212831   0.336   4.024  16.330 -0.2847 -0.7588 -0.1966
  871MPD2    C312832   0.295   3.949  16.227 -0.1789 -0.4036  0.3958
  871MPD2    C412833   0.192   3.989  16.142 -0.2202 -0.2079  0.2551
  871MPD2    C512834   0.127   4.106  16.169  0.6610 -0.2575 -0.4026
  871MPD2     H12835   0.404   3.982  16.404  1.2859 -0.3201 -1.3938
  871MPD2    H112836   0.154   3.935  16.055  0.3527  2.5320 -1.7112
  871MPD2    H212837   0.134   4.283  16.296 -1.5119 -0.2655 -2.4114
  871MPD2    H312838   0.043   4.145  16.112 -0.0828  0.1935  1.0080
  871MPD2     N12839   0.367   3.835  16.214  0.2259 -1.3969 -0.1080
  871MPD2    H512840   0.448   3.831  16.275  0.0019  1.3556  0.3749
  871MPD2    N112841   0.319   4.233  16.453  0.6816  0.2676 -0.3108
  871MPD2    H712842   0.279   4.326  16.455 -0.6418 -0.3006 -0.6926
  872MPD2     C12843   1.823   1.603  14.269 -0.7952 -0.0515  0.4086
  872MPD2    C112844   1.794   1.675  14.154  0.0144  0.5473  1.0337
  872MPD2    C212845   1.659   1.677  14.118 -0.6238  0.0960 -0.3358
  872MPD2    C312846   1.558   1.603  14.177  0.2213  0.1461 -0.5636
  872MPD2    C412847   1.593   1.541  14.291 -0.0373 -0.4934  0.3855
  872MPD2    C512848   1.722   1.540  14.338 -0.3174  0.1909  0.9941
  872MPD2     H12849   1.633   1.733  14.029 -1.1455 -0.0279 -0.2575
  872MPD2    H112850   1.517   1.487  14.346 -2.0019  0.3543 -1.4930
  872MPD2    H212851   1.924   1.590  14.306 -0.8917 -0.3682  0.5657
  872MPD2    H312852   1.745   1.505  14.438 -1.0315  1.3888  1.5791
  872MPD2     N12853   1.422   1.602  14.141  0.2441  0.3013  0.1717
  872MPD2    H512854   1.355   1.549  14.196 -1.0403  0.6697 -1.0500
  872MPD2    N112855   1.892   1.742  14.076 -0.3890 -0.0455  0.0823
  872MPD2    H712856   1.847   1.800  14.006 -2.1980 -2.0672 -0.4317
  873MPD2     C12857   3.787   2.127   0.390 -0.0084  0.3916 -0.2098
  873MPD2    C112858   3.669   2.074   0.435  0.7024 -0.4500  0.1129
  873MPD2    C212859   3.625   1.952   0.389 -0.1545  0.1591 -0.1055
  873MPD2    C312860   3.690   1.881   0.292 -0.8248 -1.1882 -0.0798
  873MPD2    C412861   3.809   1.942   0.241 -0.0747 -0.1215 -0.5883
  873MPD2    C512862   3.854   2.065   0.289 -0.1270  0.0811  0.6469
  873MPD2     H12863   3.529   1.919   0.428 -0.0536 -0.6681 -0.5552
  873MPD2    H112864   3.878   1.889   0.176 -1.1025 -0.0565 -1.7257
  873MPD2    H212865   3.818   2.224   0.427 -1.4226  1.9024 -2.9728
  873MPD2    H312866   3.951   2.101   0.257  0.2687 -0.7437  0.9164
  873MPD2     N12867   3.643   1.756   0.242  0.1747 -0.1403 -0.1177
  873MPD2    H512868   3.688   1.699   0.172 -1.0681  1.1993 -2.0002
  873MPD2    N112869   3.597   2.148   0.538 -0.9137  0.2232 -0.2201
  873MPD2    H712870   3.644   2.231   0.572  1.3972 -0.2823 -2.1104
  874MPD2     C12871   3.153   2.411  15.727  0.3551 -0.5007  0.2161
  874MPD2    C112872   3.233   2.299  15.735 -0.4862 -0.1868  0.2285
  874MPD2    C212873   3.357   2.304  15.798 -0.3194  0.0896  0.4367
  874MPD2    C312874   3.389   2.412  15.882  0.3008 -0.2006  1.0559
  874MPD2    C412875   3.304   2.521  15.877 -0.4308  0.0774 -0.4356
  874MPD2    C512876   3.193   2.523  15.794 -0.0361 -0.5034  0.6157
  874MPD2     H12877   3.414   2.213  15.812 -0.6143 -0.2820 -0.7738
  874MPD2    H112878   3.311   2.609  15.939 -0.1373  0.1373 -0.5530
  874MPD2    H212879   3.056   2.424  15.681  1.0317 -1.2198 -1.4233
  874MPD2    H312880   3.128   2.610  15.789 -0.1250 -0.6817 -1.5718
  874MPD2     N12881   3.498   2.394  15.975 -0.0349 -0.2754  0.4805
  874MPD2    H512882   3.550   2.307  15.963 -0.7313 -0.3894 -1.7552
  874MPD2    N112883   3.194   2.175  15.683  0.7604 -0.3155  0.1916
  874MPD2    H712884   3.272   2.111  15.685  0.5083 -0.6703 -0.9042
  875MPD2     C12885   4.261   4.659  14.823 -0.2909  0.7856 -0.6105
  875MPD2    C112886   4.250   0.056  14.824  0.2571 -0.4423 -0.4123
  875MPD2    C212887   4.340   0.133  14.892  0.5083  0.6835  0.1287
  875MPD2    C312888   4.450   0.078  14.956  0.8344  0.9388 -0.0537
  875MPD2    C412889   4.460   4.678  14.959  0.2391  0.6304 -0.2006
  875MPD2    C512890   4.364   4.605  14.890  0.6995  0.6786 -0.7443
  875MPD2     H12891   4.324   0.240  14.896  0.2659  0.6577 -0.1400
  875MPD2    H112892   4.547   4.622  14.992 -0.4089 -1.8628 -2.7396
  875MPD2    H212893   4.193   4.593  14.770 -1.1929  1.3320 -0.1482
  875MPD2    H312894   4.373   4.497  14.885 -1.8449  0.5643 -2.7806
  875MPD2     N12895   4.542   0.146  15.040  0.0743  0.9185 -0.5157
  875MPD2    H512896   4.622   0.097  15.079 -1.0004 -0.2001  0.2557
  875MPD2    N112897   4.138   0.111  14.759 -0.4987  0.2383  0.4837
  875MPD2    H712898   4.120   0.210  14.774  2.6966  0.9804 -0.5960
  876MPD2     C12899   2.875   0.961  15.665  0.2442  0.0131 -0.0454
  876MPD2    C112900   2.966   0.987  15.566 -0.0563 -0.0834 -0.6261
  876MPD2    C212901   3.010   0.883  15.482 -0.5440  0.9742  1.0436
  876MPD2    C312902   2.977   0.754  15.509 -0.1472 -0.5921 -0.1225
  876MPD2    C412903   2.903   0.729  15.619 -0.8098 -0.7029 -1.0088
  876MPD2    C512904   2.852   0.834  15.690 -0.4967  0.2614  0.0938
  876MPD2     H12905   3.080   0.902  15.401 -0.5257 -1.3382  0.5273
  876MPD2    H112906   2.873   0.632  15.656  1.2771 -0.9338  0.0718
  876MPD2    H212907   2.841   1.034  15.738  0.3234 -1.8540  1.8612
  876MPD2    H312908   2.792   0.812  15.778  0.6718 -0.4797  0.6979
  876MPD2     N12909   3.028   0.646  15.430 -0.1204  0.2970 -0.5231
  876MPD2    H512910   3.082   0.668  15.346 -1.1555  0.3386 -1.1848
  876MPD2    N112911   3.016   1.118  15.562 -0.2938 -0.6146  0.3121
  876MPD2    H712912   2.962   1.192  15.605  0.7969  0.3957 -0.0496
  877MPD2     C12913   2.989   1.692  15.030  0.2253  0.6979  0.4192
  877MPD2    C112914   3.121   1.679  15.067 -0.0362 -0.1375 -0.1193
  877MPD2    C212915   3.219   1.736  15.000  0.3401  0.5572  0.6523
  877MPD2    C312916   3.184   1.808  14.885  0.4347  0.5351  0.1592
  877MPD2    C412917   3.057   1.814  14.841 -0.4930 -0.1289 -0.1884
  877MPD2    C512918   2.960   1.756  14.916 -0.2269  0.7352 -0.3847
  877MPD2     H12919   3.317   1.702  15.030 -0.7165 -0.3256  3.0596
  877MPD2    H112920   3.026   1.859  14.747 -3.7991  0.4920  1.2084
  877MPD2    H212921   2.906   1.650  15.086  0.8063  1.1750  1.6522
  877MPD2    H312922   2.857   1.779  14.892 -0.7527  0.9132  2.0173
  877MPD2     N12923   3.280   1.858  14.790 -0.3325 -0.0672 -0.4982
  877MPD2    H512924   3.238   1.883  14.701 -0.9726  0.0727 -0.1548
  877MPD2    N112925   3.163   1.617  15.183 -0.3350  0.5126 -0.1065
  877MPD2    H712926   3.260   1.623  15.213 -0.0954 -0.3911 -0.7042
  878MPD2     C12927   3.586   1.932  13.476  0.4900  0.5847 -0.3409
  878MPD2    C112928   3.593   1.817  13.393  0.0863  0.1566  0.3848
  878MPD2    C212929   3.646   1.701  13.452 -0.1350  0.0529 -0.0471
  878MPD2    C312930   3.711   1.708  13.576 -0.1927 -0.6406 -0.4826
  878MPD2    C412931   3.695   1.816  13.656  0.1708  0.4742 -0.3073
  878MPD2    C512932   3.635   1.927  13.602  0.7481  0.5261 -0.7453
  878MPD2     H12933   3.636   1.610  13.394  1.8138 -1.8403  2.6204
  878MPD2    H112934   3.740   1.825  13.754 -1.8588 -1.0380  0.7617
  878MPD2    H212935   3.556   2.032  13.445  1.3279  0.1203 -2.6130
  878MPD2    H312936   3.633   2.018  13.661 -1.0228  0.2642 -0.3869
  878MPD2     N12937   3.791   1.597  13.607  0.0160  0.5785  0.2839
  878MPD2    H512938   3.814   1.533  13.531  0.2130 -0.0291  0.8502
  878MPD2    N112939   3.530   1.829  13.267  0.0764 -0.5572  0.2128
  878MPD2    H712940   3.476   1.913  13.250  1.3204  0.2022  0.0279
  879MPD2     C12941   3.075   2.977  17.043  1.0377  0.4493  0.5576
  879MPD2    C112942   3.172   2.884  17.042  0.5604  0.0341  0.2780
  879MPD2    C212943   3.192   2.797  16.932 -0.3014  0.2229 -0.4929
  879MPD2    C312944   3.094   2.793  16.838 -0.0877  0.6724 -0.0269
  879MPD2    C412945   2.988   2.883  16.847  0.3544  0.4232  0.9447
  879MPD2    C512946   2.977   2.977  16.950 -0.3949  0.3844  0.0933
  879MPD2     H12947   3.265   2.718  16.948  1.3480  1.5241 -1.6154
  879MPD2    H112948   2.903   2.874  16.781  0.3911  1.9464  0.6892
  879MPD2    H212949   3.073   3.058  17.115 -2.1408 -0.1464  1.1493
  879MPD2    H312950   2.887   3.039  16.953  1.1017  2.5417  0.4367
  879MPD2     N12951   3.097   2.713  16.720 -0.3205  0.0716 -0.1083
  879MPD2    H512952   3.017   2.712  16.658  0.9269 -1.8273 -1.6739
  879MPD2    N112953   3.271   2.897  17.144  0.1508  0.1494 -0.0317
  879MPD2    H712954   3.263   2.979  17.204  1.5636  0.0672  0.2725
  880MPD2     C12955   4.560   4.085   0.556  0.4017  0.1812 -0.3533
  880MPD2    C112956   4.664   4.128   0.473  0.0423 -0.5694 -0.0650
  880MPD2    C212957   0.030   4.047   0.445 -0.2228 -0.5349  0.4788
  880MPD2    C312958   0.049   3.928   0.517 -0.9659  0.0470 -0.2184
  880MPD2    C412959   4.690   3.895   0.615 -0.0940  0.1323 -0.2322
  880MPD2    C512960   4.577   3.971   0.634 -0.2277 -0.2332  0.2207
  880MPD2     H12961   0.101   4.074   0.368 -0.1155  0.5167  0.9420
  880MPD2    H112962   4.688   3.799   0.665  1.0463  0.4541  0.4158
  880MPD2    H212963   4.465   4.137   0.552 -0.7744 -1.7691  1.8117
  880MPD2    H312964   4.495   3.927   0.690 -0.0573 -0.4013  0.3396
  880MPD2     N12965   0.168   3.856   0.496 -0.0088 -0.3659 -0.2329
  880MPD2    H512966   0.229   3.908   0.434 -0.0810 -1.0293 -0.8601
  880MPD2    N112967   4.655   4.254   0.414  0.9230 -0.0340  0.6248
  880MPD2    H712968   4.565   4.299   0.431  2.1451  1.9618  1.7814
  881MPD2     C12969   0.324   0.385  17.692  0.4613 -0.6037  0.6117
  881MPD2    C112970   0.252   0.308  17.600  0.1713  0.6344  0.8263
  881MPD2    C212971   0.161   0.222  17.652  0.7459  0.4793 -0.1024
  881MPD2    C312972   0.156   0.189   0.028 -0.1005  0.2903 -0.2841
  881MPD2    C412973   0.237   0.260   0.114 -0.1846  0.4924 -0.0050
  881MPD2    C512974   0.323   0.359   0.065 -0.2089 -0.1971 -0.3470
  881MPD2     H12975   0.089   0.169  17.591  1.5895 -0.9586  0.1551
  881MPD2    H112976   0.236   0.238   0.220  0.5524 -0.7596 -0.2501
  881MPD2    H212977   0.383   0.473  17.668 -0.6615  0.5787  2.1340
  881MPD2    H312978   0.373   0.425   0.135  1.3755  0.1253 -1.7698
  881MPD2     N12979   0.061   0.088   0.064 -0.2509  1.0952  0.2960
  881MPD2    H512980   0.006   0.037  17.757  0.4800  1.8116 -0.8236
  881MPD2    N112981   0.241   0.332  17.463 -0.3837 -0.1252  0.2962
  881MPD2    H712982   0.165   0.286  17.415  0.5035 -0.5766 -0.6815
  882MPD2     C12983   3.348   1.708  14.001  0.3879 -0.1001 -0.2565
  882MPD2    C112984   3.311   1.770  14.115  0.0982 -0.6234 -0.2720
  882MPD2    C212985   3.171   1.778  14.134  1.1396  0.4874 -0.7045
  882MPD2    C312986   3.086   1.722  14.043 -0.3641  0.6789 -0.1974
  882MPD2    C412987   3.130   1.655  13.930 -0.0667  0.1240 -0.3693
  882MPD2    C512988   3.266   1.655  13.904 -0.1222 -0.1259  0.0970
  882MPD2     H12989   3.137   1.837  14.219 -0.7093 -2.0063  0.2799
  882MPD2    H112990   3.067   1.593  13.868 -1.2612  1.6041 -0.6348
  882MPD2    H212991   3.452   1.698  13.973  0.5451 -0.2717  0.3911
  882MPD2    H312992   3.307   1.599  13.820 -2.7319  1.7709 -2.3933
  882MPD2     N12993   2.945   1.705  14.072 -0.3063 -0.5077  0.3218
  882MPD2    H512994   2.890   1.675  13.992  1.6873  0.2764 -1.3421
  882MPD2    N112995   3.407   1.805  14.214 -0.6321 -0.5995 -0.2353
  882MPD2    H712996   3.504   1.780  14.195 -0.0375 -1.3057  3.6955
  883MPD2     C12997   0.479   1.526  16.308 -0.0760 -0.1429 -0.1446
  883MPD2    C112998   0.524   1.610  16.211 -0.5509  0.0418  0.0371
  883MPD2    C212999   0.639   1.688  16.232 -0.2208  1.0610  0.3329
  883MPD2    C313000   0.694   1.693  16.360 -0.2502 -0.0726  0.4233
  883MPD2    C413001   0.637   1.611  16.457 -0.5304 -0.2724 -0.4996
  883MPD2    C513002   0.531   1.529  16.434  0.8643  0.6236  0.3412
  883MPD2     H13003   0.680   1.754  16.157  0.1710  2.1887  1.5170
  883MPD2    H113004   0.676   1.600  16.558  0.0105 -4.3351 -1.1567
  883MPD2    H213005   0.398   1.457  16.287  0.3424  0.4976 -3.9039
  883MPD2    H313006   0.484   1.465  16.508  0.3532  0.4527 -0.1292
  883MPD2     N13007   0.800   1.787  16.385 -0.0735  0.1889  0.0316
  883MPD2    H513008   0.835   1.833  16.302 -0.6458 -1.3074 -1.0443
  883MPD2    N113009   0.468   1.608  16.081  0.0698  0.3077  0.6539
  883MPD2    H713010   0.503   1.681  16.020 -0.4901 -1.6405 -2.0179
  884MPD2     C13011   2.284   2.359  14.883 -0.2005 -0.1445 -0.1966
  884MPD2    C113012   2.236   2.483  14.842  0.7940  0.1442  0.2619
  884MPD2    C213013   2.111   2.512  14.894  0.6219 -0.5733 -0.5875
  884MPD2    C313014   2.032   2.417  14.970 -0.2274 -0.9398  0.3098
  884MPD2    C413015   2.088   2.305  15.016 -0.5119 -0.2988 -0.2310
  884MPD2    C513016   2.217   2.275  14.977 -0.0391 -0.4271 -0.1677
  884MPD2     H13017   2.068   2.609  14.872 -0.5451 -1.2563 -1.3436
  884MPD2    H113018   2.051   2.228  15.083 -0.6064  0.9384  1.1145
  884MPD2    H213019   2.379   2.316  14.851 -0.4533 -0.2550 -0.8044
  884MPD2    H313020   2.261   2.181  15.008 -1.6186 -0.5925  1.5310
  884MPD2     N13021   1.900   2.459  14.998 -0.0143 -0.0656  0.0613
  884MPD2    H513022   1.861   2.542  14.954  2.9344  0.0399 -2.3621
  884MPD2    N113023   2.305   2.574  14.761  0.1704 -0.6146 -0.3590
  884MPD2    H713024   2.245   2.629  14.699  0.2509  0.7835  0.7928
  885MPD2     C13025   0.653   2.867   0.510 -0.4349 -0.7005 -0.4694
  885MPD2    C113026   0.732   2.785   0.436  0.7891 -0.5246 -0.1834
  885MPD2    C213027   0.746   2.808   0.299  0.9705  0.2853 -0.1328
  885MPD2    C313028   0.688   2.912   0.238 -0.0247 -0.7923 -0.1311
  885MPD2    C413029   0.616   3.005   0.314  0.4775  0.5688 -0.4107
  885MPD2    C513030   0.588   2.970   0.451  0.8202  0.7484 -0.6106
  885MPD2     H13031   0.796   2.736   0.235  0.7069  0.0109 -0.0326
  885MPD2    H113032   0.560   3.093   0.286 -1.2046 -0.6782 -0.9552
  885MPD2    H213033   0.625   2.846   0.613  0.8381  2.1239  0.4459
  885MPD2    H313034   0.514   3.026   0.506  1.9840  1.8984 -0.2216
  885MPD2     N13035   0.692   2.920   0.097  0.4658  0.1724  0.3359
  885MPD2    H513036   0.724   2.836   0.049 -0.3232  0.1184 -0.1063
  885MPD2    N113037   0.798   2.684   0.510  0.0805 -0.9075  0.3665
  885MPD2    H713038   0.794   2.696   0.611  1.7398  0.8217  0.2337
  886MPD2     C13039   1.512   0.895  14.666  0.0823  0.3401  0.0358
  886MPD2    C113040   1.635   0.910  14.734  0.0257  0.3156 -0.0777
  886MPD2    C213041   1.691   1.035  14.749 -0.0071  0.8787 -0.2744
  886MPD2    C313042   1.629   1.149  14.695 -0.1445  0.2014 -0.2904
  886MPD2    C413043   1.519   1.126  14.615  0.4306  0.7458 -0.3357
  886MPD2    C513044   1.457   1.006  14.606  0.6306  0.0622  0.2402
  886MPD2     H13045   1.778   1.050  14.811  1.7251  2.2965 -3.0165
  886MPD2    H113046   1.470   1.214  14.575  1.2983  1.5703  0.4167
  886MPD2    H213047   1.459   0.805  14.636  0.4252  0.0706  0.2280
  886MPD2    H313048   1.360   0.997  14.559  0.0418  0.1182  1.4504
  886MPD2     N13049   1.679   1.274  14.714 -0.0774  0.8928  0.5057
  886MPD2    H513050   1.648   1.350  14.654  1.7400  1.2409  0.0325
  886MPD2    N113051   1.721   0.802  14.774  0.0267  0.2529 -0.5708
  886MPD2    H713052   1.818   0.827  14.793 -0.4930  0.1218  2.1815
  887MPD2     C13053   2.267   0.769  15.209  0.1566 -0.1449  1.1779
  887MPD2    C113054   2.137   0.803  15.211 -0.3355 -0.0508 -0.2142
  887MPD2    C213055   2.099   0.916  15.282 -0.1061 -0.5560  0.1820
  887MPD2    C313056   2.192   1.001  15.337 -0.0655  0.3215  0.6831
  887MPD2    C413057   2.323   0.970  15.323  0.2657 -0.3574 -0.0696
  887MPD2    C513058   2.360   0.851  15.264 -0.3397 -0.2113  0.2051
  887MPD2     H13059   1.992   0.936  15.286 -0.1852 -1.3664  2.2994
  887MPD2    H113060   2.402   1.039  15.347  0.1707  0.0381 -0.9104
  887MPD2    H213061   2.313   0.684  15.160  0.7909  0.7652  0.2131
  887MPD2    H313062   2.464   0.834  15.239  0.6329  2.2037  2.6553
  887MPD2     N13063   2.146   1.119  15.403 -0.0085  0.3618  0.3404
  887MPD2    H513064   2.046   1.134  15.407  0.1270  1.9646 -1.8142
  887MPD2    N113065   2.040   0.721  15.151 -0.2171  0.2625 -0.0890
  887MPD2    H713066   1.944   0.755  15.150 -0.1823  0.3467 -0.4788
  888MPD2     C13067   0.120   1.814  14.947  0.4846  0.1118  0.0796
  888MPD2    C113068   0.002   1.786  15.014 -0.0934 -0.3851  0.3454
  888MPD2    C213069   4.647   1.890  15.018  0.3925 -0.4505 -0.7290
  888MPD2    C313070   4.669   2.011  14.957 -0.3562 -0.1439 -0.7998
  888MPD2    C413071   0.053   2.035  14.902  0.4149 -0.0103 -0.3899
  888MPD2    C513072   0.149   1.938  14.906 -0.2991  0.1348  0.1272
  888MPD2     H13073   4.549   1.873  15.063  1.0972 -0.4385  0.8096
  888MPD2    H113074   0.081   2.136  14.873  2.0289 -0.3580 -0.0461
  888MPD2    H213075   0.205   1.747  14.936 -0.2207 -0.5669 -1.2481
  888MPD2    H313076   0.250   1.949  14.867 -0.5418 -0.6308 -0.7189
  888MPD2     N13077   4.565   2.102  14.963  0.2347  0.1774 -0.0662
  888MPD2    H513078   4.488   2.072  15.022  0.4367 -0.2466 -0.0149
  888MPD2    N113079   0.001   1.652  15.072  0.2537  0.7187  0.1444
  888MPD2    H713080   0.085   1.595  15.071 -0.8383 -0.9032  1.9334
  889MPD2     C13081   4.043   0.556  13.160 -1.2665  0.0287  0.6758
  889MPD2    C113082   4.047   0.629  13.279 -0.2739 -0.3050  0.0265
  889MPD2    C213083   4.110   0.750  13.270 -0.2264 -0.9750 -0.0325
  889MPD2    C313084   4.143   0.806  13.151  0.0385 -0.1252  0.6861
  889MPD2    C413085   4.114   0.746  13.032  0.1505 -0.5638 -0.2420
  889MPD2    C513086   4.064   0.619  13.042 -0.2175 -0.6181  0.1677
  889MPD2     H13087   4.119   0.808  13.361 -0.9883 -0.3558 -0.3521
  889MPD2    H113088   4.142   0.781  12.934  1.5798  1.1306  0.7734
  889MPD2    H213089   4.016   0.451  13.154 -0.0133 -0.2739  0.3266
  889MPD2    H313090   4.053   0.555  12.954 -0.5420 -1.3357  0.7297
  889MPD2     N13091   4.212   0.929  13.156 -0.4559  0.2935  0.1378
  889MPD2    H513092   4.239   0.961  13.248  1.0009  1.6622 -0.7705
  889MPD2    N113093   4.024   0.567  13.402 -0.4706  0.0455 -0.1837
  889MPD2    H713094   4.051   0.610  13.489 -3.3570  1.1205  0.1718
  890MPD2     C13095   2.926   2.487  14.545  0.0644 -0.3082  0.8683
  890MPD2    C113096   3.021   2.519  14.641 -0.2861  0.2075  0.0295
  890MPD2    C213097   3.039   2.434  14.742 -0.3943 -0.2660  0.4213
  890MPD2    C313098   2.951   2.329  14.762 -0.3920 -0.1510  0.1226
  890MPD2    C413099   2.857   2.301  14.666 -0.1956 -0.2615 -0.3084
  890MPD2    C513100   2.859   2.371  14.552 -0.3777  0.4720 -0.2869
  890MPD2     H13101   3.118   2.447  14.815 -1.0664  0.3986  1.0269
  890MPD2    H113102   2.785   2.221  14.681 -1.9149  1.7388  2.1891
  890MPD2    H213103   2.918   2.546  14.455 -2.8055 -0.8185  0.7938
  890MPD2    H313104   2.799   2.342  14.466  1.1121  1.0117 -1.5110
  890MPD2     N13105   2.960   2.246  14.875 -0.2788  0.8393  0.1365
  890MPD2    H513106   3.018   2.285  14.949 -1.5362  0.2131  1.4509
  890MPD2    N113107   3.102   2.634  14.627  0.2579 -0.1645 -0.4803
  890MPD2    H713108   3.069   2.707  14.564  1.5130  0.7126 -0.1104
  891MPD2     C13109   1.503   1.143  16.062  0.2775 -0.1230  0.2602
  891MPD2    C113110   1.479   1.113  16.194 -0.2038  0.6291  0.2347
  891MPD2    C213111   1.557   1.026  16.262 -0.5601 -0.4555  0.3065
  891MPD2    C313112   1.675   0.981  16.205  0.5142  0.5882 -0.1769
  891MPD2    C413113   1.700   1.021  16.074 -0.0548  0.4783  0.0577
  891MPD2    C513114   1.612   1.088  16.004 -0.4433 -0.6028  0.1168
  891MPD2     H13115   1.545   1.019  16.370 -1.1475 -0.4082  0.2420
  891MPD2    H113116   1.789   0.994  16.020 -1.0673  0.6420 -1.6925
  891MPD2    H213117   1.443   1.215  16.007 -0.4713 -0.8837  0.0910
  891MPD2    H313118   1.631   1.114  15.901  0.4912  1.3338  0.7728
  891MPD2     N13119   1.758   0.895  16.278 -0.0816 -0.1549 -0.0417
  891MPD2    H513120   1.733   0.875  16.375 -0.6081 -1.2360 -0.3907
  891MPD2    N113121   1.366   1.179  16.254  0.3669  0.2060 -0.2174
  891MPD2    H713122   1.310   1.245  16.201 -1.4889  0.4738  2.0663
  892MPD2     C13123   2.348   1.871  14.920 -0.3239 -0.0557 -0.0642
  892MPD2    C113124   2.280   1.893  14.802  0.7141 -0.4560 -0.1966
  892MPD2    C213125   2.351   1.864  14.684 -0.9315 -0.1192 -0.0164
  892MPD2    C313126   2.474   1.804  14.678 -0.0265  0.1625  0.5681
  892MPD2    C413127   2.542   1.780  14.794 -0.3739  0.6039 -0.2407
  892MPD2    C513128   2.478   1.816  14.911 -0.1545 -0.2442  0.4585
  892MPD2     H13129   2.314   1.894  14.587 -1.4808  1.6065  0.7246
  892MPD2    H113130   2.639   1.730  14.792 -2.4087 -3.2987 -1.1642
  892MPD2    H213131   2.309   1.891  15.019  0.9164  1.0117  0.2137
  892MPD2    H313132   2.526   1.780  15.002  0.1396  0.3892  0.5504
  892MPD2     N13133   2.537   1.760  14.558  0.3425 -0.2716  0.2905
  892MPD2    H513134   2.627   1.712  14.559  1.6145  2.0864 -0.6669
  892MPD2    N113135   2.154   1.944  14.791  0.2623 -0.2498 -0.4164
  892MPD2    H713136   2.124   1.991  14.706  0.1212 -1.9416 -1.2853
  893MPD2     C13137   0.010   4.551   1.876 -0.2176  0.7797  0.3371
  893MPD2    C113138   4.650   4.596   1.792 -0.2592  0.2079 -0.7368
  893MPD2    C213139   4.532   4.527   1.798  0.0461  0.5374 -0.2855
  893MPD2    C313140   4.517   4.409   1.872 -0.3035 -0.1004  0.1954
  893MPD2    C413141   4.620   4.379   1.962 -0.2108  0.2203  0.0002
  893MPD2    C513142   4.735   4.446   1.957 -0.5396 -0.0092  0.5363
  893MPD2     H13143   4.449   4.568   1.741 -0.4914 -1.2558 -0.7933
  893MPD2    H113144   4.612   4.301   2.037  0.4400 -0.8927 -1.0845
  893MPD2    H213145   0.110   4.594   1.878 -0.7831  2.1468 -0.6850
  893MPD2    H313146   0.079   4.413   2.016 -0.1135  2.4348  1.2953
  893MPD2     N13147   4.400   4.333   1.879  0.0175 -0.2574 -0.3252
  893MPD2    H513148   4.396   4.248   1.934 -1.0860  0.9656  1.4718
  893MPD2    N113149   4.679   4.697   1.697  0.1434 -0.2090  0.9511
  893MPD2    H713150   0.036   4.721   1.684 -0.4371  0.5086 -2.1653
  894MPD2     C13151   2.506   2.663   1.326  1.0407  0.3617 -0.2334
  894MPD2    C113152   2.387   2.731   1.348 -0.0370  0.2579 -0.3688
  894MPD2    C213153   2.391   2.869   1.337 -0.1420  0.2551 -0.2985
  894MPD2    C313154   2.495   2.933   1.285  0.1867  0.0609  0.0655
  894MPD2    C413155   2.608   2.864   1.249 -0.0750  0.2654 -0.4669
  894MPD2    C513156   2.611   2.731   1.281 -0.5085 -0.6971  0.1743
  894MPD2     H13157   2.302   2.930   1.351  1.2373  2.0146  0.7839
  894MPD2    H113158   2.703   2.903   1.215  1.3488 -3.2748 -0.5501
  894MPD2    H213159   2.518   2.556   1.333  0.9463  0.2478 -1.7881
  894MPD2    H313160   2.697   2.669   1.259  0.5530  0.7912  0.1272
  894MPD2     N13161   2.496   3.078   1.263 -0.2750 -0.1186  0.8892
  894MPD2    H513162   2.406   3.124   1.267  0.6713  1.7444  0.7497
  894MPD2    N113163   2.269   2.670   1.392  0.3814 -0.0597  0.4125
  894MPD2    H713164   2.200   2.731   1.434  1.1319 -0.4797  2.2507
  895MPD2     C13165   1.711   1.753  13.015 -0.2262 -0.1556 -0.4094
  895MPD2    C113166   1.635   1.646  12.980 -0.0305 -0.7719 -0.0034
  895MPD2    C213167   1.704   1.529  12.942  0.0137  0.4402 -0.3258
  895MPD2    C313168   1.831   1.509  12.984 -0.6263 -0.5917 -0.1679
  895MPD2    C413169   1.908   1.614  13.028  0.1584  0.0043  0.3577
  895MPD2    C513170   1.849   1.739  13.044  0.9017 -0.3157 -0.2614
  895MPD2     H13171   1.636   1.450  12.913 -1.3129  0.9573  1.3992
  895MPD2    H113172   2.009   1.588  13.058 -0.4930  0.3789  2.8840
  895MPD2    H213173   1.670   1.853  13.017  0.9690  0.3355 -0.0443
  895MPD2    H313174   1.908   1.821  13.083 -1.2109  1.4774 -0.8229
  895MPD2     N13175   1.880   1.375  12.972  0.6872 -0.3571  0.6028
  895MPD2    H513176   1.824   1.297  12.940 -0.6411  0.8224  0.0698
  895MPD2    N113177   1.502   1.660  12.932 -0.0528 -0.3797  0.2605
  895MPD2    H713178   1.454   1.574  12.907  0.3961 -0.2739 -0.9669
  896MPD2     C13179   3.754   4.469   1.122 -0.4133 -0.2917 -0.0618
  896MPD2    C113180   3.712   4.343   1.081  0.2180 -0.9329 -0.2863
  896MPD2    C213181   3.582   4.302   1.098 -0.9562  0.1518  0.4947
  896MPD2    C313182   3.491   4.388   1.159  0.1338  0.0332 -0.1581
  896MPD2    C413183   3.534   4.507   1.216  0.4856  0.0587  0.2661
  896MPD2    C513184   3.665   4.550   1.193  0.4996  0.5285 -0.0715
  896MPD2     H13185   3.542   4.205   1.072 -1.6609  0.4659  0.4149
  896MPD2    H113186   3.471   4.584   1.259  0.3829 -0.4212  0.9782
  896MPD2    H213187   3.853   4.513   1.109 -1.2089  1.6054  0.2563
  896MPD2    H313188   3.709   4.642   1.231 -0.1576  0.6127  0.4888
  896MPD2     N13189   3.361   4.342   1.163 -0.2186  0.1084 -0.2796
  896MPD2    H513190   3.340   4.245   1.142 -0.3218 -0.4179  2.2611
  896MPD2    N113191   3.804   4.259   1.014 -0.3144  0.0290 -0.4249
  896MPD2    H713192   3.899   4.290   1.000 -0.0622 -0.8705 -0.7125
  897MPD2     C13193   0.362   1.600  10.780 -0.1321  0.2445  0.1177
  897MPD2    C113194   0.242   1.579  10.709 -0.7692  0.2768 -0.3656
  897MPD2    C213195   0.120   1.566  10.778  0.0045  0.6989  0.6011
  897MPD2    C313196   0.111   1.602  10.912  0.4686 -0.3895  0.3068
  897MPD2    C413197   0.230   1.618  10.979  0.8867  0.2653  0.0542
  897MPD2    C513198   0.358   1.615  10.919 -0.2876 -0.4094 -0.2939
  897MPD2     H13199   0.029   1.558  10.720  0.4434  2.3661 -0.3229
  897MPD2    H113200   0.226   1.669  11.075 -0.6101  0.4202 -0.0978
  897MPD2    H213201   0.463   1.611  10.742  1.0215  1.2820  3.5033
  897MPD2    H313202   0.449   1.639  10.972  0.1677  0.0179 -1.2792
  897MPD2     N13203   4.723   1.634  10.964 -0.4024 -0.0267 -0.5851
  897MPD2    H513204   4.640   1.620  10.908  0.0340  0.6506 -1.3927
  897MPD2    N113205   0.235   1.572  10.563  1.2239  0.5972 -0.5900
  897MPD2    H713206   0.328   1.584  10.524  0.5327 -1.1708 -2.7505
  898MPD2     C13207   2.369   1.985  16.647  0.4751  0.4555 -0.0602
  898MPD2    C113208   2.351   2.007  16.787 -0.2412  0.1354 -0.7398
  898MPD2    C213209   2.242   2.081  16.838  0.4626  0.5094 -0.0797
  898MPD2    C313210   2.146   2.124  16.748  0.2788 -0.4105 -0.2978
  898MPD2    C413211   2.166   2.102  16.610  0.3808 -0.8274  0.1269
  898MPD2    C513212   2.271   2.032  16.563  0.0115  0.1779  0.3601
  898MPD2     H13213   2.239   2.096  16.945 -0.5683  2.1848 -0.3509
  898MPD2    H113214   2.100   2.140  16.532 -0.0972  0.6882  1.2831
  898MPD2    H213215   2.447   1.926  16.601  0.2049 -0.5222  0.7120
  898MPD2    H313216   2.274   2.010  16.457 -1.2264  2.8783 -0.2373
  898MPD2     N13217   2.032   2.191  16.804  0.8216 -0.5216 -0.1513
  898MPD2    H513218   2.042   2.206  16.904 -0.9331  2.0166 -0.3461
  898MPD2    N113219   2.439   1.960  16.883  0.1392 -0.2129  0.0303
  898MPD2    H713220   2.424   1.987  16.980  1.8277  1.7563 -0.2465
  899MPD2     C13221   2.965   2.049  17.444  0.2292  0.1014 -0.3457
  899MPD2    C113222   2.955   2.165  17.509 -0.1589  0.1377  0.0148
  899MPD2    C213223   2.972   2.169  17.645 -0.3664  0.7278  0.1621
  899MPD2    C313224   2.984   2.055  17.722  0.0965  0.3208  0.2432
  899MPD2    C413225   2.996   1.935  17.652  0.1058  0.3525  0.2077
  899MPD2    C513226   2.985   1.939  17.515 -0.2188 -0.4553 -0.0981
  899MPD2     H13227   2.964   2.270  17.684  0.1959  0.3288  1.2898
  899MPD2    H113228   3.013   1.837  17.695  0.3566  0.5709  0.6109
  899MPD2    H213229   2.977   2.040  17.337  0.2116  1.3988 -0.4644
  899MPD2    H313230   3.000   1.847  17.460 -0.0370 -0.2920 -0.3208
  899MPD2     N13231   2.998   2.061   0.100 -0.3499  0.3845 -0.3906
  899MPD2    H513232   3.021   1.980   0.157  0.4539 -0.3468 -1.7465
  899MPD2    N113233   2.952   2.284  17.435  0.2181 -0.5461 -0.2411
  899MPD2    H713234   2.965   2.370  17.488 -0.7705 -0.0656 -0.7907
  900MPD2     C13235   2.600   4.075  12.352 -0.0727 -0.2445 -0.3887
  900MPD2    C113236   2.491   3.986  12.327  0.1162  0.1035  0.0697
  900MPD2    C213237   2.372   4.043  12.281  0.9718 -0.0603 -0.9506
  900MPD2    C313238   2.365   4.171  12.243 -0.4777 -0.7310  0.1411
  900MPD2    C413239   2.478   4.254  12.260  0.2769 -0.5979 -0.0736
  900MPD2    C513240   2.592   4.206  12.310 -0.1708 -0.4854 -0.6484
  900MPD2     H13241   2.277   3.990  12.285  0.6766  0.4984 -0.6341
  900MPD2    H113242   2.471   4.361  12.248 -0.4829 -0.7210 -0.7412
  900MPD2    H213243   2.684   4.038  12.409 -0.5704  2.0247  1.8010
  900MPD2    H313244   2.667   4.280  12.336 -0.4257  0.0342 -1.3788
  900MPD2     N13245   2.238   4.224  12.207  0.9246 -0.3142 -0.7460
  900MPD2    H513246   2.159   4.161  12.217  1.0775 -0.5372 -0.9453
  900MPD2    N113247   2.498   3.856  12.368  0.2632 -0.5897 -0.4260
  900MPD2    H713248   2.575   3.833  12.430  1.2500  1.1458 -1.0242
  901MPD2     C13249   2.319   2.775  12.318 -0.1777 -0.9262 -0.0905
  901MPD2    C113250   2.410   2.809  12.413  0.5015 -0.8040 -0.6901
  901MPD2    C213251   2.440   2.944  12.429  0.1456 -0.3885  0.4211
  901MPD2    C313252   2.364   3.033  12.367 -0.7265 -0.2855  0.3882
  901MPD2    C413253   2.267   3.000  12.278 -0.1682 -0.4719  0.5112
  901MPD2    C513254   2.246   2.867  12.256  0.4138  0.4315 -0.3182
  901MPD2     H13255   2.518   2.982  12.494 -0.0009 -0.3177  0.5589
  901MPD2    H113256   2.205   3.068  12.221  1.3590 -0.3237 -0.9463
  901MPD2    H213257   2.303   2.671  12.291 -0.6481 -0.2591 -2.4166
  901MPD2    H313258   2.177   2.839  12.177 -0.1171  1.8375 -0.3601
  901MPD2     N13259   2.403   3.172  12.400 -0.5890 -0.1769  0.0867
  901MPD2    H513260   2.483   3.171  12.461  0.0903  0.9564 -0.7890
  901MPD2    N113261   2.484   2.705  12.478 -0.0615 -0.4819 -0.3117
  901MPD2    H713262   2.455   2.608  12.465  0.0112 -0.6882  1.1039
  902MPD2     C13263   1.101   2.415  12.428 -0.1080  0.3133  0.6560
  902MPD2    C113264   1.196   2.482  12.353  0.4589 -0.1358  0.4258
  902MPD2    C213265   1.261   2.407  12.252  0.6550  0.2293  0.1432
  902MPD2    C313266   1.229   2.273  12.233  0.8409 -0.3444 -0.2706
  902MPD2    C413267   1.138   2.212  12.312  0.3331 -0.1246  0.1474
  902MPD2    C513268   1.070   2.280  12.408 -0.4283 -0.2694  0.4159
  902MPD2     H13269   1.321   2.458  12.177 -0.4446  1.2991 -0.0087
  902MPD2    H113270   1.129   2.104  12.312 -2.3548  0.0800  2.8402
  902MPD2    H213271   1.064   2.460  12.520 -0.5837  0.0985  0.5700
  902MPD2    H313272   1.010   2.233  12.485 -2.0578 -0.5022 -1.0072
  902MPD2     N13273   1.297   2.185  12.144 -0.6985  0.7047 -0.0960
  902MPD2    H513274   1.245   2.101  12.120  2.1164 -1.6066  1.9817
  902MPD2    N113275   1.230   2.620  12.375  0.4870  0.3270 -0.2068
  902MPD2    H713276   1.170   2.670  12.440  0.3156 -1.4501  1.0229
  903MPD2     C13277   1.302   1.997  11.287 -0.1748  0.3846  0.3733
  903MPD2    C113278   1.250   2.052  11.401 -0.6703 -0.6697 -0.6450
  903MPD2    C213279   1.128   2.119  11.391  0.3607 -0.5464  0.4014
  903MPD2    C313280   1.074   2.142  11.268  0.0052 -0.4035  0.8375
  903MPD2    C413281   1.128   2.080  11.157 -0.9457 -0.2337 -0.0966
  903MPD2    C513282   1.241   2.004  11.163 -0.7510  0.0979 -0.4516
  903MPD2     H13283   1.095   2.170  11.481  0.0988  4.0389 -2.2897
  903MPD2    H113284   1.085   2.094  11.058  2.4337 -1.3325 -1.7124
  903MPD2    H213285   1.400   1.954  11.303 -0.3964 -0.5069 -0.6639
  903MPD2    H313286   1.284   1.960  11.073  0.7942 -1.2492  0.9281
  903MPD2     N13287   0.965   2.227  11.252 -0.7382 -0.2150  0.0350
  903MPD2    H513288   0.940   2.271  11.340  0.7831  0.4342  0.1556
  903MPD2    N113289   1.325   2.042  11.525  0.1259  0.2568 -0.0734
  903MPD2    H713290   1.410   1.988  11.535 -0.6867 -1.0968 -0.4144
  904MPD2     C13291   1.533   1.079  13.093 -0.0153 -0.1028  0.3646
  904MPD2    C113292   1.441   1.028  13.181 -0.0863 -1.0237  0.1088
  904MPD2    C213293   1.464   1.029  13.318  0.3771  0.3744 -0.8539
  904MPD2    C313294   1.592   1.076  13.374 -0.0345  0.4393  0.8392
  904MPD2    C413295   1.677   1.124  13.283 -0.5217 -0.5047 -0.0316
  904MPD2    C513296   1.653   1.129  13.150 -0.0235 -0.5971  0.2779
  904MPD2     H13297   1.390   0.983  13.382 -1.1491 -0.2859 -3.0686
  904MPD2    H113298   1.775   1.166  13.302  0.3827 -1.9959 -1.4301
  904MPD2    H213299   1.506   1.103  12.991 -0.9777 -3.5055 -0.2076
  904MPD2    H313300   1.732   1.167  13.087  0.9334 -2.9316  0.0537
  904MPD2     N13301   1.622   1.058  13.508 -0.2520 -0.4569 -0.0440
  904MPD2    H513302   1.547   1.014  13.560  0.9691 -1.7427  0.6326
  904MPD2    N113303   1.314   0.987  13.118 -0.1228  0.2346 -0.0403
  904MPD2    H713304   1.306   0.999  13.018  1.9921  1.6137 -0.0569
  905MPD2     C13305   1.324   0.772  12.669 -0.4412  0.1734  0.2174
  905MPD2    C113306   1.341   0.901  12.714 -0.3502  0.4409  0.3920
  905MPD2    C213307   1.463   0.941  12.763 -0.0448 -0.1505 -0.4540
  905MPD2    C313308   1.567   0.848  12.777  0.0802 -0.7413 -0.3060
  905MPD2    C413309   1.546   0.715  12.744 -0.1359  0.4904  0.4676
  905MPD2    C513310   1.424   0.682  12.695  0.1493 -1.2224  0.2592
  905MPD2     H13311   1.480   1.044  12.792 -1.0196  0.3405 -1.6290
  905MPD2    H113312   1.624   0.640  12.751  0.9656  1.3257 -2.6838
  905MPD2    H213313   1.238   0.740  12.611 -1.9212 -0.3056  2.7101
  905MPD2    H313314   1.397   0.580  12.672  0.3707 -1.0063 -0.9732
  905MPD2     N13315   1.697   0.881  12.818  0.4069  0.2341  0.3605
  905MPD2    H513316   1.756   0.803  12.845 -1.1625 -1.7331 -1.8608
  905MPD2    N113317   1.222   0.982  12.732  0.0895 -0.0331  0.1489
  905MPD2    H713318   1.135   0.930  12.730  0.2096 -0.1962 -0.6831
  906MPD2     C13319   3.573   1.266  11.357  0.6245 -1.1009 -0.0220
  906MPD2    C113320   3.595   1.241  11.221  0.3225 -0.0184 -0.9236
  906MPD2    C213321   3.670   1.131  11.182 -0.1306  0.4982 -0.5306
  906MPD2    C313322   3.725   1.041  11.280  0.1553  0.0857  0.1667
  906MPD2    C413323   3.702   1.063  11.408 -0.1679  0.0965  0.5807
  906MPD2    C513324   3.635   1.177  11.446 -0.4684  0.0245  0.7118
  906MPD2     H13325   3.678   1.107  11.076 -0.0523 -0.9672 -0.1983
  906MPD2    H113326   3.737   0.996  11.486 -1.2422 -0.5101  0.5373
  906MPD2    H213327   3.526   1.352  11.404  1.2800 -0.8384  0.1506
  906MPD2    H313328   3.616   1.190  11.552  0.3892 -0.2895  0.9069
  906MPD2     N13329   3.784   0.913  11.250  0.0173 -0.7706 -0.2782
  906MPD2    H513330   3.779   0.843  11.324 -1.0805  0.7236  1.0697
  906MPD2    N113331   3.558   1.338  11.125  0.0501 -0.1889 -0.1914
  906MPD2    H713332   3.582   1.321  11.028  1.5275  0.0405  0.1342
  907MPD2     C13333   2.591   4.095  15.083 -0.2544 -0.0657 -0.4205
  907MPD2    C113334   2.488   4.014  15.129  0.1241 -1.0701 -0.1071
  907MPD2    C213335   2.517   3.929  15.233 -0.5165 -0.7554 -0.1489
  907MPD2    C313336   2.638   3.935  15.298  0.5251  0.1791  0.2234
  907MPD2    C413337   2.735   4.014  15.245  0.2909  0.1923  0.5829
  907MPD2    C513338   2.714   4.102  15.141 -0.0906 -0.3894  0.0799
  907MPD2     H13339   2.439   3.865  15.273 -0.9405  1.6326  2.8657
  907MPD2    H113340   2.835   4.010  15.286  0.0960 -0.4646  0.9750
  907MPD2    H213341   2.572   4.159  14.997 -0.4732 -1.1344 -1.1704
  907MPD2    H313342   2.793   4.151  15.085  1.4870 -2.1685  0.7522
  907MPD2     N13343   2.650   3.853  15.415  0.5403  0.4490 -0.1439
  907MPD2    H513344   2.566   3.799  15.434  2.3354 -1.5829  1.8953
  907MPD2    N113345   2.354   4.019  15.076 -0.2337 -0.0202  0.3818
  907MPD2    H713346   2.291   3.952  15.120  0.7282 -0.4541  1.1071
  908MPD2     C13347   4.411   1.160   9.765 -0.3292 -0.1818  0.4035
  908MPD2    C113348   4.544   1.135   9.797 -0.7588  0.6485 -0.5808
  908MPD2    C213349   4.614   1.227   9.874  0.8952 -0.2369 -0.3450
  908MPD2    C313350   4.553   1.342   9.917 -0.1103 -0.0369 -0.5015
  908MPD2    C413351   4.423   1.366   9.875  0.6744 -0.2688 -0.3372
  908MPD2    C513352   4.355   1.274   9.796 -0.3218 -0.1837  0.1139
  908MPD2     H13353   4.704   1.187   9.919  1.6467  2.6995  0.7426
  908MPD2    H113354   4.371   1.457   9.903  2.5416  0.6534  0.1767
  908MPD2    H213355   4.352   1.096   9.701  0.6515  0.2935 -0.9802
  908MPD2    H313356   4.251   1.298   9.776 -0.7078 -0.4523  1.7908
  908MPD2     N13357   4.611   1.435  10.008 -0.1731 -0.4021  0.5024
  908MPD2    H513358   4.562   1.523  10.025  1.4354  0.9281 -1.8335
  908MPD2    N113359   4.604   1.012   9.757 -0.4003 -0.2175  0.0081
  908MPD2    H713360   4.540   0.948   9.711 -1.1801 -1.0775  2.2786
  909MPD2     C13361   4.739   3.955  11.453  0.0792 -0.2513 -0.4860
  909MPD2    C113362   0.021   4.091  11.444 -0.3066 -0.8555 -0.0093
  909MPD2    C213363   4.702   4.177  11.536 -0.8972  0.8056  0.1985
  909MPD2    C313364   4.638   4.127  11.646 -0.4894 -0.2031 -0.1529
  909MPD2    C413365   4.620   3.987  11.652 -0.5059 -0.0512  0.1331
  909MPD2    C513366   4.666   3.907  11.555  0.3796 -0.5390 -0.1669
  909MPD2     H13367   4.707   4.284  11.522 -0.0012  0.9484  1.6752
  909MPD2    H113368   4.568   3.941  11.736  0.0983  0.5347  0.8260
  909MPD2    H213369   0.034   3.884  11.381  1.1372 -3.1097  2.8692
  909MPD2    H313370   4.654   3.799  11.557  0.7945 -0.5895 -0.3694
  909MPD2     N13371   4.582   4.214  11.744  0.2168 -0.0216 -0.1681
  909MPD2    H513372   4.597   4.312  11.725 -0.0185 -0.0401 -0.4554
  909MPD2    N113373   0.090   4.148  11.337 -0.8376 -0.2418 -0.3262
  909MPD2    H713374   0.086   4.249  11.322  0.7759 -0.1798 -0.2505
  910MPD2     C13375   0.994   0.519  15.173  0.0114  0.4067 -0.0325
  910MPD2    C113376   1.099   0.459  15.106  0.1186 -0.0501  0.4666
  910MPD2    C213377   1.091   0.449  14.972  0.2175 -0.3814 -0.1993
  910MPD2    C313378   0.992   0.514  14.901  0.1648  0.2703 -0.8284
  910MPD2    C413379   0.892   0.588  14.970  0.4826  0.1176 -0.6307
  910MPD2    C513380   0.889   0.583  15.111  0.2773 -0.2054  0.9372
  910MPD2     H13381   1.172   0.397  14.921  0.0999 -1.2333  0.4832
  910MPD2    H113382   0.824   0.647  14.910 -1.0458 -2.5299 -1.4884
  910MPD2    H213383   0.993   0.524  15.281 -0.3291 -0.1931 -0.0062
  910MPD2    H313384   0.810   0.632  15.166  1.3839  1.6495  0.8888
  910MPD2     N13385   0.990   0.520  14.760 -0.5363  0.7226  0.1876
  910MPD2    H513386   0.909   0.563  14.716  1.5682  3.2688 -1.1361
  910MPD2    N113387   1.211   0.404  15.168  0.6327 -0.2182 -0.1153
  910MPD2    H713388   1.279   0.361  15.106 -0.7610 -1.9457 -0.4723
  911MPD2     C13389   4.470   0.595  16.176 -0.8567  0.0212 -0.4439
  911MPD2    C113390   4.524   0.696  16.257 -0.7469  0.3559  1.2181
  911MPD2    C213391   4.463   0.823  16.265 -0.6665 -0.3001 -0.1906
  911MPD2    C313392   4.345   0.841  16.191 -0.4394  0.2725  0.0314
  911MPD2    C413393   4.294   0.739  16.109  0.1515  0.3141  0.0751
  911MPD2    C513394   4.359   0.618  16.107 -0.4490 -0.0723  0.0671
  911MPD2     H13395   4.498   0.890  16.343  1.7068 -0.4350 -1.1422
  911MPD2    H113396   4.204   0.764  16.054  0.6688  3.4593  0.6285
  911MPD2    H213397   4.511   0.495  16.180  1.4929  0.9352 -1.2778
  911MPD2    H313398   4.331   0.541  16.036 -0.0934  1.6229 -1.9140
  911MPD2     N13399   4.257   0.954  16.196 -0.0956 -0.1263  0.0554
  911MPD2    H513400   4.180   0.952  16.129 -1.0182 -0.3713  1.1212
  911MPD2    N113401   4.647   0.659  16.321  0.3366 -0.0682 -0.1502
  911MPD2    H713402   4.683   0.567  16.298  1.0745 -0.1938  1.5343
  912MPD2     C13403   4.188   0.946  15.658 -0.4746  0.1270 -0.1851
  912MPD2    C113404   4.101   0.929  15.760  0.7844  0.4354  0.3085
  912MPD2    C213405   4.047   0.803  15.786 -0.6295  1.1168  0.0814
  912MPD2    C313406   4.117   0.694  15.737  0.1246 -0.3031 -0.6578
  912MPD2    C413407   4.194   0.711  15.619 -0.4374  0.2694  0.1081
  912MPD2    C513408   4.234   0.836  15.590  0.1337 -0.0071  0.7257
  912MPD2     H13409   3.977   0.783  15.866 -0.6422 -0.3651 -0.3126
  912MPD2    H113410   4.251   0.631  15.573  2.2238 -0.2296  4.3131
  912MPD2    H213411   4.233   1.042  15.636 -0.0838 -0.3263 -1.3769
  912MPD2    H313412   4.316   0.853  15.520 -1.4909  0.2605 -1.1178
  912MPD2     N13413   4.105   0.566  15.799  0.2358 -0.2017  0.6532
  912MPD2    H513414   4.036   0.561  15.873  2.1205 -1.5013  2.3054
  912MPD2    N113415   4.073   1.035  15.841  0.2297  0.2030 -0.1448
  912MPD2    H713416   4.094   1.122  15.793 -0.6161  0.1503 -0.6137
  913MPD2     C13417   4.705   2.639   9.643  0.5040 -0.3564  0.2630
  913MPD2    C113418   0.053   2.727   9.697 -0.0205 -0.4650  0.9580
  913MPD2    C213419   0.080   2.844   9.626  0.2180  0.3862 -0.5384
  913MPD2    C313420   0.016   2.873   9.509  0.0634  0.0026 -0.4380
  913MPD2    C413421   4.660   2.792   9.463  0.3161 -0.6831  0.1873
  913MPD2    C513422   4.630   2.673   9.528 -0.5092 -0.7126  0.7850
  913MPD2     H13423   0.147   2.921   9.664 -3.2371  2.1529  1.9623
  913MPD2    H113424   4.622   2.819   9.365 -0.9507  1.8526  1.3714
  913MPD2    H213425   4.676   2.554   9.705 -0.6980  0.2872  0.5916
  913MPD2    H313426   4.565   2.604   9.475 -0.2644 -0.1926 -0.1845
  913MPD2     N13427   0.044   2.986   9.431  0.5726  0.1779  0.1696
  913MPD2    H513428   4.716   3.008   9.360 -0.6558  1.0680  1.6572
  913MPD2    N113429   0.108   2.708   9.822  0.1032 -0.6393 -0.2413
  913MPD2    H713430   0.150   2.790   9.865  1.0717 -0.0798 -2.2801
  914MPD2     C13431   2.864   2.770  11.933  0.1724  0.3974 -0.3470
  914MPD2    C113432   2.767   2.818  12.019  0.4547 -0.4424 -0.0411
  914MPD2    C213433   2.743   2.761  12.144 -0.2626 -0.4245 -0.1047
  914MPD2    C313434   2.821   2.656  12.180 -0.1955  0.3340  0.2066
  914MPD2    C413435   2.926   2.611  12.100 -0.0976 -0.0555  0.4035
  914MPD2    C513436   2.946   2.669  11.974 -0.6167 -0.6193 -0.2242
  914MPD2     H13437   2.660   2.794  12.205  0.0168 -0.4117  0.2687
  914MPD2    H113438   2.994   2.530  12.125  1.5049  1.3320  0.5706
  914MPD2    H213439   2.882   2.823  11.840 -0.3036 -0.2678 -0.8183
  914MPD2    H313440   3.023   2.636  11.907  1.9465 -0.3163  2.5705
  914MPD2     N13441   2.785   2.597  12.303 -0.0787  0.1732  0.4767
  914MPD2    H513442   2.711   2.636  12.360  0.2866  0.9928  0.4040
  914MPD2    N113443   2.680   2.924  11.979 -0.4206 -0.7283  0.6379
  914MPD2    H713444   2.684   2.956  11.882 -0.0556 -0.1029  0.8578
  915MPD2     C13445   0.607   2.173  15.692 -0.6372 -0.1780  0.7812
  915MPD2    C113446   0.497   2.236  15.637 -0.0498 -0.8657 -0.5029
  915MPD2    C213447   0.409   2.309  15.717  0.6198  0.1322  0.3762
  915MPD2    C313448   0.429   2.320  15.849 -0.1172 -0.3890 -0.2582
  915MPD2    C413449   0.542   2.259  15.908  0.7123  0.2529  0.1433
  915MPD2    C513450   0.627   2.186  15.828  0.5530  0.1264 -0.2216
  915MPD2     H13451   0.328   2.367  15.674  0.2717 -0.3681  0.3553
  915MPD2    H113452   0.571   2.275  16.011  2.0743  1.2778 -0.4068
  915MPD2    H213453   0.672   2.125  15.621 -2.1411 -1.9417  0.5782
  915MPD2    H313454   0.718   2.140  15.864 -0.6906 -1.8639  0.3983
  915MPD2     N13455   0.341   2.393  15.927  0.4436  0.9479  0.3567
  915MPD2    H513456   0.271   2.452  15.882  0.0744 -0.1226 -0.4649
  915MPD2    N113457   0.470   2.219  15.499 -0.6757  0.3664 -0.0823
  915MPD2    H713458   0.539   2.163  15.449  1.1234  1.1786  1.4949
  916MPD2     C13459   3.638   0.647  15.206  0.5582 -0.0495 -0.3201
  916MPD2    C113460   3.600   0.524  15.254  0.8286  0.2137  0.0954
  916MPD2    C213461   3.696   0.435  15.294  0.4040  0.2205 -0.2348
  916MPD2    C313462   3.832   0.474  15.296 -0.2023  0.6160 -0.0215
  916MPD2    C413463   3.867   0.597  15.257  0.0145  0.5848 -0.3493
  916MPD2    C513464   3.775   0.674  15.196 -0.0097 -0.0031  0.0077
  916MPD2     H13465   3.672   0.334  15.325  0.3036  0.9267  2.0349
  916MPD2    H113466   3.971   0.625  15.265  0.4290 -0.5074 -1.8413
  916MPD2    H213467   3.558   0.712  15.172 -0.7751 -0.1963  2.4410
  916MPD2    H313468   3.808   0.761  15.139 -0.3681 -0.6894 -1.2376
  916MPD2     N13469   3.925   0.374  15.336  0.0989 -0.2525 -0.1791
  916MPD2    H513470   3.882   0.301  15.391  0.1143 -2.2402 -2.8175
  916MPD2    N113471   3.455   0.498  15.257  0.5395 -0.1191 -0.0506
  916MPD2    H713472   3.389   0.572  15.275  1.2145  0.5464 -0.2840
  917MPD2     C13473   3.516   3.045  11.066 -0.6073  0.2589 -0.0692
  917MPD2    C113474   3.507   3.109  11.191 -0.4291  0.0835 -0.5006
  917MPD2    C213475   3.610   3.193  11.236  0.3064  0.1067  0.2812
  917MPD2    C313476   3.712   3.222  11.153 -0.1841 -0.4467  0.6410
  917MPD2    C413477   3.719   3.163  11.029 -0.5152  0.3758 -0.4988
  917MPD2    C513478   3.624   3.073  10.993 -0.0885 -0.3544 -0.5046
  917MPD2     H13479   3.599   3.244  11.331  0.4490 -0.8237  0.7974
  917MPD2    H113480   3.801   3.186  10.961 -0.3000  0.1746 -0.3096
  917MPD2    H213481   3.449   2.965  11.036 -2.4300  1.2829  1.1852
  917MPD2    H313482   3.628   3.024  10.896 -0.1705  0.1241 -0.7551
  917MPD2     N13483   3.805   3.317  11.189  0.1990  0.1373 -0.5441
  917MPD2    H513484   3.862   3.346  11.110 -1.6969  0.8723 -1.6447
  917MPD2    N113485   3.397   3.076  11.275 -0.7401  1.0781 -0.2940
  917MPD2    H713486   3.333   3.007  11.238  0.4683 -1.0745  1.5707
  918MPD2     C13487   3.349   3.433  12.189  0.0876 -0.0934 -0.8910
  918MPD2    C113488   3.452   3.407  12.096  0.6054  0.0482 -0.3917
  918MPD2    C213489   3.415   3.339  11.977  0.4168  0.0987  0.2825
  918MPD2    C313490   3.280   3.290  11.959  0.1795 -0.4427  0.1173
  918MPD2    C413491   3.192   3.302  12.066 -0.3323 -0.8176  0.3003
  918MPD2    C513492   3.225   3.374  12.175 -0.1942  0.2450  0.0461
  918MPD2     H13493   3.490   3.337  11.899 -0.0353 -0.0703 -0.1448
  918MPD2    H113494   3.088   3.275  12.053 -0.3743 -1.3321  1.6626
  918MPD2    H213495   3.361   3.488  12.281 -0.9127  0.4689 -1.1001
  918MPD2    H313496   3.146   3.406  12.241 -0.4017 -1.8547  0.8288
  918MPD2     N13497   3.240   3.237  11.824 -0.4720 -0.0125  0.7383
  918MPD2    H513498   3.307   3.244  11.749 -1.2138 -2.7097 -0.1503
  918MPD2    N113499   3.584   3.466  12.104 -0.1076 -0.2817 -0.1686
  918MPD2    H713500   3.652   3.457  12.029 -1.3727 -3.5866 -0.9134
  919MPD2     C13501   4.448   3.095  11.662 -0.0961 -0.3675 -0.5903
  919MPD2    C113502   4.463   2.976  11.591  0.0707 -0.5446 -0.0368
  919MPD2    C213503   4.528   2.983  11.472  0.2025 -0.5096 -0.3724
  919MPD2    C313504   4.562   3.103  11.413 -0.0987  0.4055  0.1386
  919MPD2    C413505   4.544   3.218  11.486 -0.0024 -0.8478  0.2681
  919MPD2    C513506   4.501   3.210  11.620 -0.0621  0.6350 -0.0355
  919MPD2     H13507   4.521   2.890  11.416 -3.0323 -1.4581  1.6143
  919MPD2    H113508   4.553   3.319  11.449 -1.7691 -1.0488 -0.7293
  919MPD2    H213509   4.394   3.104  11.756 -1.2950 -0.9203 -1.2257
  919MPD2    H313510   4.462   3.299  11.669  0.9618  0.3507  1.3024
  919MPD2     N13511   4.630   3.113  11.288 -0.1641  0.3405  0.5793
  919MPD2    H513512   4.641   3.211  11.263 -0.2006  0.1753 -0.0917
  919MPD2    N113513   4.408   2.859  11.639 -0.5704 -0.0233  0.1939
  919MPD2    H713514   4.407   2.785  11.571 -0.0678 -0.0159  0.1731
  920MPD2     C13515   4.272   3.571  10.534 -1.0504  0.0451 -0.4704
  920MPD2    C113516   4.266   3.442  10.493  0.0026  0.4916 -0.2194
  920MPD2    C213517   4.344   3.343  10.549 -0.4974  0.4597  0.6896
  920MPD2    C313518   4.428   3.380  10.656  0.0621 -1.4366 -0.2860
  920MPD2    C413519   4.433   3.511  10.698 -0.8919  0.2648 -0.4787
  920MPD2    C513520   4.360   3.602  10.635  0.0965  0.5957 -0.2561
  920MPD2     H13521   4.335   3.239  10.522 -0.0769  0.9191 -1.2418
  920MPD2    H113522   4.499   3.552  10.774  0.1991  0.7042 -1.6597
  920MPD2    H213523   4.201   3.646  10.501 -1.6798  0.4335  1.7867
  920MPD2    H313524   4.371   3.707  10.660  1.2102  0.4641 -0.1945
  920MPD2     N13525   4.495   3.279  10.726 -0.4703  0.2767 -0.3947
  920MPD2    H513526   4.494   3.184  10.691  0.6578 -0.1338  0.7212
  920MPD2    N113527   4.167   3.402  10.399  0.9081  0.5345 -0.3080
  920MPD2    H713528   4.153   3.302  10.384 -3.3474  0.6191  3.1724
  921MPD2     C13529   0.595   1.271  16.739 -0.6506 -0.5524  0.7597
  921MPD2    C113530   0.652   1.189  16.648 -0.2990 -0.6750  0.9405
  921MPD2    C213531   0.589   1.074  16.602  0.3624 -0.1734  0.1172
  921MPD2    C313532   0.471   1.039  16.661  0.3040 -0.2218 -1.0867
  921MPD2    C413533   0.412   1.118  16.757  0.2094 -0.0101  0.2002
  921MPD2    C513534   0.477   1.239  16.803  0.7263  0.3617  0.1027
  921MPD2     H13535   0.641   1.013  16.529  0.2152  2.1047 -1.9122
  921MPD2    H113536   0.329   1.089  16.821 -0.5762  0.1564 -0.7512
  921MPD2    H213537   0.648   1.361  16.768  0.8635 -1.1006 -0.3137
  921MPD2    H313538   0.446   1.299  16.889 -1.0204 -1.6622  0.8957
  921MPD2     N13539   0.402   0.919  16.634 -0.6655 -0.2527 -0.4443
  921MPD2    H513540   0.330   0.881  16.694 -2.5038  2.0974 -1.1334
  921MPD2    N113541   0.780   1.230  16.606  0.6951  0.0298  0.1157
  921MPD2    H713542   0.792   1.329  16.625  3.0181 -0.1073 -0.6933
  922MPD2     C13543   1.368   3.899  17.039 -0.1392 -0.0739 -0.2427
  922MPD2    C113544   1.290   3.919  17.151 -0.6183  0.3221 -0.4776
  922MPD2    C213545   1.195   3.822  17.187 -0.3023  0.2018  1.0929
  922MPD2    C313546   1.171   3.715  17.093  0.9559  0.6526 -0.2294
  922MPD2    C413547   1.257   3.702  16.986  0.0352 -0.0454 -0.5278
  922MPD2    C513548   1.350   3.795  16.957 -0.6914 -0.3347  0.0879
  922MPD2     H13549   1.127   3.840  17.269 -1.2180 -1.5600  0.7316
  922MPD2    H113550   1.250   3.610  16.929 -0.1831 -0.6879  0.5405
  922MPD2    H213551   1.436   3.978  17.010 -1.0625  1.1618  0.9765
  922MPD2    H313552   1.408   3.794  16.866  1.5271  0.9512  1.5031
  922MPD2     N13553   1.065   3.626  17.117  0.1800 -0.6201  0.1798
  922MPD2    H513554   1.012   3.632  17.204 -1.3616  1.3458 -0.8949
  922MPD2    N113555   1.293   4.032  17.236 -0.0122 -0.1271 -0.3131
  922MPD2    H713556   1.224   4.025  17.311 -1.2214  0.2548 -1.3855
  923MPD2     C13557   2.563   1.883   8.641 -0.5969 -0.2590  0.3091
  923MPD2    C113558   2.553   1.940   8.768  0.5384  0.1071  0.9165
  923MPD2    C213559   2.648   1.913   8.870 -0.4915  0.5002  0.3511
  923MPD2    C313560   2.754   1.827   8.843  0.7878  0.2536  0.6083
  923MPD2    C413561   2.770   1.779   8.719 -0.6505 -0.1399 -0.4321
  923MPD2    C513562   2.677   1.805   8.622 -0.4401  0.6716  0.3392
  923MPD2     H13563   2.638   1.966   8.965 -1.0499 -0.5574  0.8889
  923MPD2    H113564   2.855   1.716   8.695 -0.6911  0.4241 -2.0611
  923MPD2    H213565   2.486   1.892   8.565 -1.4239 -1.3745  1.0183
  923MPD2    H313566   2.695   1.750   8.530  3.2532 -0.3533  1.6851
  923MPD2     N13567   2.859   1.799   8.943  0.1011 -1.0328 -0.7080
  923MPD2    H513568   2.923   1.723   8.920 -0.7362 -2.5482  2.0007
  923MPD2    N113569   2.445   2.033   8.778 -0.3532 -0.1172  0.5518
  923MPD2    H713570   2.370   2.025   8.711  2.2695 -1.1136 -2.2499
  924MPD2     C13571   1.975   3.539  15.487 -0.1526 -0.6881 -0.0267
  924MPD2    C113572   2.002   3.613  15.600 -0.5827  0.0714  0.1602
  924MPD2    C213573   2.134   3.624  15.644  0.9009 -0.4926  0.3369
  924MPD2    C313574   2.234   3.548  15.587  0.4243 -0.7028  0.6745
  924MPD2    C413575   2.211   3.479  15.469 -0.3549  0.4556 -0.5345
  924MPD2    C513576   2.084   3.484  15.416  1.0151  0.3457  0.3700
  924MPD2     H13577   2.167   3.704  15.709 -1.9162 -0.2099  1.4292
  924MPD2    H113578   2.288   3.428  15.412  0.8548  2.1138 -0.3499
  924MPD2    H213579   1.877   3.539  15.442  0.5178 -1.3861 -1.4956
  924MPD2    H313580   2.063   3.434  15.323  1.7313  0.1779  0.3019
  924MPD2     N13581   2.360   3.562  15.639  0.2476  0.1792 -0.4907
  924MPD2    H513582   2.365   3.618  15.723 -1.9579  2.3115 -1.7977
  924MPD2    N113583   1.910   3.710  15.650 -0.1896  0.3002  0.7661
  924MPD2    H713584   1.941   3.753  15.737  0.6286  0.9209  0.1627
  925MPD2     C13585   0.897   1.911  14.457  0.4553  0.4714  0.0250
  925MPD2    C113586   0.905   1.773  14.432 -0.1288 -0.0697  0.4522
  925MPD2    C213587   0.912   1.689  14.538  0.2371 -0.1425 -0.7496
  925MPD2    C313588   0.909   1.740  14.666 -0.8231 -0.0633  0.8031
  925MPD2    C413589   0.895   1.876  14.693 -0.2090  0.0842  0.4380
  925MPD2    C513590   0.889   1.963  14.585 -0.6004 -0.0350  0.2750
  925MPD2     H13591   0.928   1.583  14.523  1.5609 -0.1451  0.6092
  925MPD2    H113592   0.896   1.916  14.794  1.4236  0.4982  0.2449
  925MPD2    H213593   0.887   1.980  14.375 -0.4496  2.0870  1.4750
  925MPD2    H313594   0.888   2.071  14.599  0.7069 -0.0968  0.7761
  925MPD2     N13595   0.896   1.663  14.786 -1.0929 -0.4163 -0.3936
  925MPD2    H513596   0.867   1.711  14.871  2.5999  1.4973 -0.2111
  925MPD2    N113597   0.934   1.716  14.305 -0.3202  0.0828  0.1638
  925MPD2    H713598   0.957   1.617  14.307  1.3194  0.5045  1.8492
  926MPD2     C13599   0.478   0.251  13.678 -0.4616 -0.4795 -0.0289
  926MPD2    C113600   0.421   0.341  13.598  0.4149 -0.2800 -0.4598
  926MPD2    C213601   0.457   0.355  13.471 -0.1754 -0.1432 -0.3200
  926MPD2    C313602   0.553   0.267  13.424 -1.3315  0.8168  0.6480
  926MPD2    C413603   0.619   0.183  13.507  0.2146 -0.5531 -0.2693
  926MPD2    C513604   0.587   0.178  13.637 -0.2121 -0.7591 -0.5327
  926MPD2     H13605   0.413   0.427  13.402 -0.9473  2.4951  2.9326
  926MPD2    H113606   0.697   0.114  13.481  0.5020 -0.5481  0.5589
  926MPD2    H213607   0.449   0.236  13.781  1.2047 -1.2120  0.3423
  926MPD2    H313608   0.628   0.100  13.700  0.4770 -0.3688 -0.4945
  926MPD2     N13609   0.594   0.267  13.287  0.2364  0.3308  0.2732
  926MPD2    H513610   0.640   0.181  13.258 -1.8489 -1.0407  0.9678
  926MPD2    N113611   0.315   0.428  13.641  0.5373 -0.0488 -0.3829
  926MPD2    H713612   0.268   0.483  13.570  1.8396  0.4485 -0.8663
  927MPD2     C13613   0.478   2.444  17.634  0.3909  0.1716  0.4038
  927MPD2    C113614   0.460   2.578  17.632  0.1131  0.0556  0.1292
  927MPD2    C213615   0.469   2.644  17.508 -0.4998 -0.1781 -0.4003
  927MPD2    C313616   0.475   2.570  17.386  0.7779 -0.3322  0.7861
  927MPD2    C413617   0.481   2.435  17.398 -0.0705 -0.4845 -0.5752
  927MPD2    C513618   0.480   2.374  17.519 -0.0433 -0.3886  0.2886
  927MPD2     H13619   0.462   2.752  17.506 -3.0988 -0.3419  0.3274
  927MPD2    H113620   0.481   2.371  17.311  0.3241 -2.1123  0.6016
  927MPD2    H213621   0.471   2.382  17.723  0.7904  0.4837  0.6508
  927MPD2    H313622   0.492   2.267  17.517  0.8632 -0.3003  0.9336
  927MPD2     N13623   0.473   2.641  17.264 -0.4241  0.2042 -0.1800
  927MPD2    H513624   0.478   2.742  17.265  0.4619  0.1864 -2.1851
  927MPD2    N113625   0.433   2.652  17.754 -0.2488  0.2211  0.4812
  927MPD2    H713626   0.428   2.599   0.079  1.5647 -0.6506  0.0424
  928MPD2     C13627   2.500   1.297   0.118  0.6691  0.1639 -0.5137
  928MPD2    C113628   2.602   1.197   0.111 -0.1518  0.1961 -0.2373
  928MPD2    C213629   2.712   1.224   0.033 -0.5679 -0.9793  1.0300
  928MPD2    C313630   2.724   1.349  17.737 -0.3235  0.2236 -0.1244
  928MPD2    C413631   2.632   1.445  17.760  0.8613  0.8953  0.3845
  928MPD2    C513632   2.518   1.422   0.068  0.6397  0.2897 -0.5083
  928MPD2     H13633   2.787   1.149   0.010  1.0008  0.5861  1.0295
  928MPD2    H113634   2.651   1.542  17.715  2.1072  0.0859 -0.8110
  928MPD2    H213635   2.410   1.289   0.177  1.7584 -0.3505  1.1056
  928MPD2    H313636   2.438   1.492   0.090  1.6209  0.8650  1.2029
  928MPD2     N13637   2.824   1.388  17.642 -0.0757 -0.1733 -0.1172
  928MPD2    H513638   2.822   1.487  17.620 -0.3220 -0.7001 -2.4190
  928MPD2    N113639   2.580   1.076   0.175  0.4877 -0.1021 -0.0476
  928MPD2    H713640   2.486   1.065   0.212  0.0505  2.3074 -0.4364
  929MPD2     C13641   2.887   1.750   9.978  0.4992 -0.5679 -0.3941
  929MPD2    C113642   2.777   1.663   9.949  0.1766 -0.3771  0.3306
  929MPD2    C213643   2.682   1.704   9.859  0.9712  0.0377 -0.2071
  929MPD2    C313644   2.698   1.821   9.782 -0.1901  0.7553 -0.4879
  929MPD2    C413645   2.800   1.909   9.820 -0.0027 -0.3321 -0.0316
  929MPD2    C513646   2.897   1.869   9.909  0.1181  0.5822  0.8428
  929MPD2     H13647   2.601   1.637   9.837  2.2138 -1.4150 -0.3857
  929MPD2    H113648   2.805   2.010   9.782  2.3355 -0.3311  0.2628
  929MPD2    H213649   2.966   1.727  10.049 -0.1413 -0.3287  0.3956
  929MPD2    H313650   2.968   1.945   9.939  1.8617 -0.4465 -0.7418
  929MPD2     N13651   2.609   1.869   9.683  0.0406  0.5153  0.2969
  929MPD2    H513652   2.626   1.965   9.655 -2.0080  0.1603 -2.0875
  929MPD2    N113653   2.774   1.531  10.010 -0.0527  0.7536  0.7911
  929MPD2    H713654   2.853   1.515  10.072  1.7163 -0.9575 -1.9096
  930MPD2     C13655   3.853   3.070  14.132 -0.1610  0.0602  0.1958
  930MPD2    C113656   3.987   3.077  14.127  0.9203 -0.4582 -0.0331
  930MPD2    C213657   4.055   3.045  14.005  0.0200  0.1667 -0.1072
  930MPD2    C313658   3.978   3.030  13.889  0.2475 -0.5952 -0.0010
  930MPD2    C413659   3.840   3.030  13.899 -0.3099  0.1846  0.0207
  930MPD2    C513660   3.780   3.051  14.018  0.2613 -0.5677  0.0435
  930MPD2     H13661   4.164   3.043  14.004  0.0437  2.2145 -0.9950
  930MPD2    H113662   3.774   3.038  13.813  1.1435  0.1930 -1.0887
  930MPD2    H213663   3.809   3.093  14.228  1.2267 -1.3087  1.1472
  930MPD2    H313664   3.673   3.067  14.020  0.5316  1.2237 -0.3197
  930MPD2     N13665   4.025   3.036  13.752  0.0138  0.0501 -0.5035
  930MPD2    H513666   3.953   3.047  13.682  0.1969 -2.1386 -1.0543
  930MPD2    N113667   4.042   3.107  14.252  0.4014  0.6199  0.4194
  930MPD2    H713668   3.977   3.107  14.330  2.5699  0.4992  2.2371
  931MPD2     C13669   0.442   2.531   0.693 -0.3621 -0.0109 -0.3572
  931MPD2    C113670   0.314   2.586   0.674 -0.9834 -0.4347  0.1171
  931MPD2    C213671   0.215   2.572   0.771 -0.2950  0.2547 -0.2420
  931MPD2    C313672   0.232   2.488   0.879 -0.2167 -0.1684  0.2814
  931MPD2    C413673   0.357   2.432   0.889  0.5072  0.8009  0.1007
  931MPD2    C513674   0.464   2.452   0.806  0.1740 -0.1532 -0.0707
  931MPD2     H13675   0.116   2.605   0.740 -0.3356 -1.5799 -2.0650
  931MPD2    H113676   0.381   2.374   0.978  0.1341 -2.0043 -1.6615
  931MPD2    H213677   0.520   2.551   0.621 -0.0848  1.5611  0.3706
  931MPD2    H313678   0.560   2.407   0.831  0.9101  0.2636 -2.1526
  931MPD2     N13679   0.128   2.460   0.962 -0.1919  0.1463  0.1783
  931MPD2    H513680   0.144   2.373   1.012 -0.0040  0.1523  0.1269
  931MPD2    N113681   0.285   2.674   0.568  0.5891 -0.4036  0.0530
  931MPD2    H713682   0.191   2.713   0.567  0.8279  0.1939  1.1217
  932MPD2     C13683   1.305   2.430  10.966  0.1081  0.3984 -0.5247
  932MPD2    C113684   1.434   2.441  11.012 -0.1411 -1.7625 -0.3629
  932MPD2    C213685   1.514   2.332  10.998 -0.9230 -0.7951  0.2465
  932MPD2    C313686   1.467   2.211  10.938 -0.6741 -0.5814  0.4395
  932MPD2    C413687   1.338   2.202  10.904 -0.4258 -0.6495  0.2235
  932MPD2    C513688   1.263   2.315  10.912 -0.3053  0.3159  0.5244
  932MPD2     H13689   1.614   2.329  11.039 -1.2582 -1.1309  1.0539
  932MPD2    H113690   1.298   2.106  10.871 -0.4203 -0.1775 -1.1632
  932MPD2    H213691   1.237   2.512  10.985  1.2535  1.2166  0.0553
  932MPD2    H313692   1.155   2.313  10.899 -0.5554  2.6019  2.3688
  932MPD2     N13693   1.547   2.092  10.933 -0.3184  0.6610  0.6092
  932MPD2    H513694   1.499   2.015  10.886  1.0983  0.0625  0.1395
  932MPD2    N113695   1.488   2.559  11.073  0.4537 -0.4154  0.0638
  932MPD2    H713696   1.585   2.555  11.102  0.9876  2.0526 -1.4271
  933MPD2     C13697   2.098   0.779   0.778 -0.3534 -0.8647  0.3358
  933MPD2    C113698   2.138   0.870   0.686  0.0407 -0.2094  0.2060
  933MPD2    C213699   2.074   0.993   0.683 -0.3645  0.2410  0.0640
  933MPD2    C313700   1.977   1.022   0.769  0.2134 -0.3396  0.9945
  933MPD2    C413701   1.948   0.937   0.874 -0.0049  0.0344  0.6317
  933MPD2    C513702   1.999   0.813   0.866 -0.0511 -0.9537  0.3373
  933MPD2     H13703   2.105   1.073   0.617  0.3304 -0.4956 -0.5043
  933MPD2    H113704   1.868   0.947   0.946  0.6927  3.0912  0.9527
  933MPD2    H213705   2.153   0.686   0.781  2.3719  0.5840 -3.3666
  933MPD2    H313706   1.971   0.744   0.944  1.2280 -2.1415 -0.2589
  933MPD2     N13707   1.923   1.151   0.756  0.1014 -0.0092 -0.5755
  933MPD2    H513708   1.967   1.215   0.690  2.7619  1.2880  2.4595
  933MPD2    N113709   2.246   0.834   0.600  0.1409 -0.0421 -0.6410
  933MPD2    H713710   2.282   0.741   0.623  0.0019  0.3214  1.0507
  934MPD2     C13711   3.879   4.256   1.409  0.0976 -0.3620  0.4550
  934MPD2    C113712   3.959   4.150   1.390 -0.0546 -0.1841  0.3515
  934MPD2    C213713   3.901   4.023   1.360 -0.0916 -0.3903 -0.5102
  934MPD2    C313714   3.771   4.010   1.342  0.1594  0.6640 -0.0658
  934MPD2    C413715   3.691   4.121   1.364 -0.0822 -0.2620  0.2960
  934MPD2    C513716   3.745   4.242   1.397  0.1461  0.0840  1.0632
  934MPD2     H13717   3.958   3.932   1.346 -0.2882 -0.6500  0.4030
  934MPD2    H113718   3.582   4.116   1.361 -0.1189  1.0099 -0.5922
  934MPD2    H213719   3.920   4.351   1.441 -0.1009 -0.5635  1.2984
  934MPD2    H313720   3.673   4.322   1.407 -0.1402 -0.1345  0.7507
  934MPD2     N13721   3.708   3.895   1.291 -0.2110 -0.0476  0.3684
  934MPD2    H513722   3.612   3.902   1.259 -0.0450  1.6365  0.2206
  934MPD2    N113723   4.101   4.159   1.409 -0.3346 -0.0027  0.3504
  934MPD2    H713724   4.157   4.075   1.401 -1.2583 -0.6025  0.2310
  935MPD2     C13725   4.086   2.980   1.092  0.0382 -0.3489  0.1574
  935MPD2    C113726   3.984   2.992   1.003  0.7876 -0.7578  0.6582
  935MPD2    C213727   3.893   3.097   1.015  0.2205  1.0127 -0.2166
  935MPD2    C313728   3.912   3.195   1.118 -0.0229 -0.5857 -0.0438
  935MPD2    C413729   4.010   3.168   1.216  0.4500  0.0187  0.0156
  935MPD2    C513730   4.096   3.063   1.201 -0.1784  0.2376 -0.0812
  935MPD2     H13731   3.816   3.109   0.941 -2.2106  0.0506  2.1462
  935MPD2    H113732   4.006   3.227   1.307  2.7971 -0.9314  0.7103
  935MPD2    H213733   4.163   2.903   1.095 -2.4635 -2.8075  0.6872
  935MPD2    H313734   4.169   3.046   1.279  0.5895  0.8492 -0.6692
  935MPD2     N13735   3.834   3.311   1.131  0.3316 -0.1813  0.1207
  935MPD2    H513736   3.852   3.375   1.207  0.0603 -0.4890  0.4446
  935MPD2    N113737   3.974   2.909   0.891 -0.2770  0.1123 -0.0039
  935MPD2    H713738   3.884   2.921   0.846  1.4636  1.2142 -3.1871
  936MPD2     C13739   2.271   0.114  12.770 -0.0864  0.2378 -1.0508
  936MPD2    C113740   2.408   0.137  12.769 -0.5414  0.6542  0.1177
  936MPD2    C213741   2.449   0.238  12.684 -0.6958 -0.5144 -0.3585
  936MPD2    C313742   2.348   0.319  12.632  0.5021  0.2021  0.9214
  936MPD2    C413743   2.213   0.299  12.646 -0.4019 -1.0352  0.0942
  936MPD2    C513744   2.171   0.196  12.715 -0.9176  0.1776 -0.5284
  936MPD2     H13745   2.554   0.263  12.672 -0.6073  0.0209  1.5069
  936MPD2    H113746   2.139   0.370  12.611  1.3234  0.4373 -0.5826
  936MPD2    H213747   2.231   0.029  12.824  0.1192  0.2305 -0.9069
  936MPD2    H313748   2.066   0.173  12.706 -0.3473 -1.4515 -2.8840
  936MPD2     N13749   2.375   0.439  12.568 -0.5256  0.2871  0.5593
  936MPD2    H513750   2.296   0.502  12.555  0.5904  1.8560  1.3398
  936MPD2    N113751   2.507   0.063  12.843 -0.0380  0.3189  0.1181
  936MPD2    H713752   2.604   0.092  12.831 -0.7055  1.9622 -1.2161
  937MPD2     C13753   4.407   2.215  11.381 -0.4445 -0.1627 -0.4241
  937MPD2    C113754   4.474   2.319  11.434 -0.9944  0.1797 -0.3362
  937MPD2    C213755   4.557   2.377  11.336 -0.0106 -0.5546 -0.5183
  937MPD2    C313756   4.590   2.325  11.213  0.0895  0.4760 -0.1947
  937MPD2    C413757   4.520   2.213  11.172  0.4095 -0.0806 -0.0965
  937MPD2    C513758   4.427   2.156  11.256  0.0924 -0.4960  0.2843
  937MPD2     H13759   4.618   2.463  11.364  0.2789 -0.6427 -0.8702
  937MPD2    H113760   4.542   2.167  11.077 -0.7032 -0.0116 -0.3841
  937MPD2    H213761   4.335   2.168  11.446  1.5850 -2.5562  0.0762
  937MPD2    H313762   4.381   2.062  11.227 -1.4528  0.2601  0.3206
  937MPD2     N13763   4.684   2.396  11.132 -0.4414 -0.6360 -0.1969
  937MPD2    H513764   0.004   2.466  11.173  2.4900 -2.4106 -1.5003
  937MPD2    N113765   4.439   2.396  11.547 -0.1728 -0.1070  0.0057
  937MPD2    H713766   4.494   2.478  11.567  1.3347 -0.6292 -1.9778
  938MPD2     C13767   2.754   2.779   0.826  0.3559  0.3855 -0.0091
  938MPD2    C113768   2.630   2.832   0.855 -0.7288 -1.0513 -0.3857
  938MPD2    C213769   2.535   2.749   0.917 -0.6849  0.8159 -0.1388
  938MPD2    C313770   2.565   2.618   0.948  0.2185 -0.2825 -0.0283
  938MPD2    C413771   2.689   2.560   0.909 -0.2460 -0.3336 -0.1619
  938MPD2    C513772   2.774   2.642   0.845  0.0905  0.2672  0.3270
  938MPD2     H13773   2.436   2.790   0.935 -0.9226 -0.1036  0.6397
  938MPD2    H113774   2.711   2.456   0.930 -0.0922  0.1309  1.9691
  938MPD2    H213775   2.829   2.835   0.772 -0.0482  0.7952 -0.1430
  938MPD2    H313776   2.867   2.595   0.815  1.0434  3.0607 -1.0715
  938MPD2     N13777   2.473   2.533   1.003 -0.2525 -0.3049 -0.3028
  938MPD2    H513778   2.504   2.437   0.992  0.5318 -0.0975  0.0771
  938MPD2    N113779   2.603   2.969   0.825  0.4924 -0.1787 -0.1374
  938MPD2    H713780   2.505   2.992   0.812  0.6653  1.2571  1.1643
  939MPD2     C13781   3.631   3.773   0.782  0.5332 -0.6082  0.5889
  939MPD2    C113782   3.534   3.739   0.684  0.6628  0.3111 -0.0473
  939MPD2    C213783   3.556   3.618   0.622  0.0193 -0.3138 -0.8556
  939MPD2    C313784   3.670   3.542   0.651 -0.9349 -0.8386  0.3174
  939MPD2    C413785   3.759   3.577   0.745  0.6678  0.0728  0.1197
  939MPD2    C513786   3.737   3.696   0.810 -0.6750 -0.1313  0.4746
  939MPD2     H13787   3.487   3.590   0.544  0.0093 -0.3198 -0.8446
  939MPD2    H113788   3.849   3.521   0.768 -0.5515 -1.7213  0.5825
  939MPD2    H213789   3.612   3.868   0.831  1.6216 -0.4552  0.7207
  939MPD2    H313790   3.814   3.722   0.881  0.2440 -0.8264 -0.2745
  939MPD2     N13791   3.700   3.428   0.566  0.0186  0.5223  0.0526
  939MPD2    H513792   3.638   3.417   0.487  0.8435  1.8979 -0.7915
  939MPD2    N113793   3.419   3.823   0.656  0.1748 -0.7203  0.0896
  939MPD2    H713794   3.422   3.908   0.712 -0.7964 -1.1740  0.8307
  940MPD2     C13795   2.901   0.656  13.352  0.1922  0.2917  0.4014
  940MPD2    C113796   2.916   0.524  13.394 -0.6862  0.1349 -0.0459
  940MPD2    C213797   2.954   0.420  13.310 -1.0381 -0.2179  0.1086
  940MPD2    C313798   2.980   0.452  13.177  0.1508  0.2288  0.0976
  940MPD2    C413799   2.974   0.581  13.133  0.5683  0.0340  0.3599
  940MPD2    C513800   2.926   0.685  13.214 -0.1936 -0.9688 -0.1702
  940MPD2     H13801   2.961   0.317  13.345 -0.7196 -0.2440 -0.0267
  940MPD2    H113802   2.985   0.580  13.025  2.1590  0.8089  0.5236
  940MPD2    H213803   2.856   0.732  13.414  0.6148  0.7018  0.2070
  940MPD2    H313804   2.927   0.784  13.169 -1.5311  0.0180  1.8895
  940MPD2     N13805   2.997   0.350  13.076  0.3956  0.0985  0.0822
  940MPD2    H513806   3.035   0.379  12.987  1.1841 -1.7707 -0.1917
  940MPD2    N113807   2.883   0.493  13.524  0.0017  0.3851  0.0395
  940MPD2    H713808   2.870   0.396  13.552  0.6336 -0.0573 -1.1968
  941MPD2     C13809   1.568   0.303  10.015 -0.1409 -0.3647 -0.1661
  941MPD2    C113810   1.653   0.208  10.073  0.5987  0.4485  0.3398
  941MPD2    C213811   1.597   0.115  10.163  0.4097  0.3814 -0.3986
  941MPD2    C313812   1.458   0.095  10.160  0.0078  0.2837  0.4051
  941MPD2    C413813   1.376   0.190  10.107 -0.3905  0.2707 -0.0777
  941MPD2    C513814   1.432   0.293  10.035  0.2525  0.1028  0.3890
  941MPD2     H13815   1.661   0.050  10.221 -1.3993 -1.0821 -0.0156
  941MPD2    H113816   1.268   0.180  10.121 -0.4511  0.5849 -0.3221
  941MPD2    H213817   1.605   0.388   9.959  0.1691 -1.3463 -1.4428
  941MPD2    H313818   1.363   0.369   9.999 -1.2124 -0.9034  1.0743
  941MPD2     N13819   1.397   4.731  10.243 -0.2485  0.2150  0.4236
  941MPD2    H513820   1.298   0.010  10.239 -0.6338 -2.0864 -1.4902
  941MPD2    N113821   1.798   0.220  10.064  0.2901  0.2875 -0.7614
  941MPD2    H713822   1.846   0.152  10.122  0.1987  2.7888  2.2003
  942MPD2     C13823   1.804   1.983   8.928 -0.0292 -0.7340  0.5520
  942MPD2    C113824   1.877   2.022   9.040  0.7362 -0.5596  0.3673
  942MPD2    C213825   2.003   1.972   9.059 -0.8997  0.1285  0.2573
  942MPD2    C313826   2.060   1.889   8.963  0.1432  0.1671 -0.3457
  942MPD2    C413827   1.984   1.854   8.850 -0.0446 -0.0024 -0.3007
  942MPD2    C513828   1.861   1.910   8.830 -0.3758 -0.2527  0.2016
  942MPD2     H13829   2.041   1.989   9.159  0.4854 -1.4536 -0.0145
  942MPD2    H113830   2.015   1.778   8.779  1.9988  2.3575 -1.9359
  942MPD2    H213831   1.702   2.018   8.917  0.0826 -1.1583 -1.8888
  942MPD2    H313832   1.819   1.894   8.732  0.0297  0.8041 -0.1435
  942MPD2     N13833   2.181   1.825   8.989  0.3479  0.1682  0.2961
  942MPD2    H513834   2.205   1.754   8.921  0.8092  0.2978  0.3241
  942MPD2    N113835   1.822   2.101   9.138  0.0495 -0.4278  0.2017
  942MPD2    H713836   1.880   2.100   9.221  2.1344  2.1346 -1.2232
  943MPD2     C13837   0.845   4.604   9.811 -0.5100  0.5156  0.0358
  943MPD2    C113838   0.847   4.480   9.752 -0.6038  0.0797  0.0981
  943MPD2    C213839   0.973   4.410   9.756  0.7853  0.1855 -0.5948
  943MPD2    C313840   1.083   4.461   9.817  0.0921 -0.2032  0.3733
  943MPD2    C413841   1.085   4.589   9.866  0.1671 -0.2399  0.6516
  943MPD2    C513842   0.961   4.655   9.867 -0.8238  0.0645  0.5616
  943MPD2     H13843   0.984   4.315   9.705  2.3631  2.1048 -3.7988
  943MPD2    H113844   1.174   4.639   9.903  0.3985  0.6594 -1.1336
  943MPD2    H213845   0.756   4.664   9.827 -1.9845 -1.7117  0.0857
  943MPD2    H313846   0.949   0.006   9.923 -2.3293  0.2966 -0.1289
  943MPD2     N13847   1.210   4.396   9.838 -0.2923  0.0920  0.2404
  943MPD2    H513848   1.289   4.443   9.882 -1.6000  0.8068  1.8031
  943MPD2    N113849   0.730   4.431   9.690 -0.5962  0.3131  0.1411
  943MPD2    H713850   0.651   4.493   9.679 -1.5198 -0.5756  1.8367
  944MPD2     C13851   0.016   3.770  10.796 -0.6688 -0.2520 -0.1515
  944MPD2    C113852   0.002   3.904  10.765  0.5348  0.1743 -0.3331
  944MPD2    C213853   4.673   3.976  10.857 -0.1352 -0.0699  0.0202
  944MPD2    C313854   4.625   3.927  10.978 -0.3960  0.9430  0.3575
  944MPD2    C413855   4.648   3.795  11.003  0.3796 -0.2194  0.0041
  944MPD2    C513856   4.712   3.715  10.912  0.5915  0.8755  1.1069
  944MPD2     H13857   4.655   4.082  10.841 -0.8033  0.0532  1.5532
  944MPD2    H113858   4.623   3.753  11.100  1.7580 -1.7198 -0.2901
  944MPD2    H213859   0.068   3.701  10.731 -0.8596  0.2882 -0.8874
  944MPD2    H313860   4.724   3.609  10.932  1.6011  0.5899 -1.0016
  944MPD2     N13861   4.558   4.008  11.074  0.0312 -0.0725 -0.2755
  944MPD2    H513862   4.560   4.109  11.068  1.7118 -0.1034 -0.3409
  944MPD2    N113863   0.051   3.957  10.641 -0.1736 -0.1103  0.6010
  944MPD2    H713864   0.035   4.055  10.619  1.1259  0.1705  0.9037
    1TMC1    C113865   3.460   4.151  14.970  0.7085  0.7499  0.2708
    1TMC1    C213866   3.356   4.093  14.910 -0.1371 -0.3302  0.8805
    1TMC1    C313867   3.372   3.960  14.872  0.8612 -0.3388 -0.4945
    1TMC1    C413868   3.585   4.087  14.989 -0.3002 -0.0893  1.0258
    1TMC1    C513869   3.583   3.951  14.971  0.1516 -0.0170  0.5359
    1TMC1    C613870   3.477   3.889  14.917  0.4029 -0.0494  0.4759
    1TMC1     C13871   3.458   4.291  14.992  0.2863 -0.3958 -0.1336
    1TMC1     O13872   3.540   4.329  15.072  0.1394  0.4767  0.2432
    1TMC1     H13873   3.268   4.150  14.880 -0.8141 -1.7617  0.1207
    1TMC1    H113874   3.674   4.133  15.031 -0.2402  0.7222  0.0050
    1TMC1    H213875   3.478   3.785  14.888  0.0850  0.1037 -0.1069
    1TMC1    C713876   3.708   3.877  14.973  0.3163  0.0459 -0.4562
    1TMC1    C813877   3.243   3.899  14.865 -0.8020  0.9979 -0.4112
    1TMC1    O113878   3.712   3.757  14.957  0.0859  0.9526  0.9360
    1TMC1    O213879   3.141   3.951  14.905  0.0628 -0.0641 -0.1135
    1TMC1    O313880   3.785   3.958  14.901 -0.1267  0.4815 -0.2202
    1TMC1    H313881   3.765   4.050  14.927  0.7289  0.5814  0.0945
    1TMC1    O513882   3.257   3.773  14.810  0.8092  0.5842 -0.4769
    1TMC1    H513883   3.338   3.775  14.754  0.7924 -0.7550 -0.5480
    2MPD2     C13884   3.351   0.048  14.927 -0.2120 -0.1427  0.0963
    2MPD2    C113885   3.296   4.725  14.820 -0.2089 -0.2326 -0.1260
    2MPD2    C213886   3.306   4.589  14.820  0.4202 -0.0598 -0.1791
    2MPD2    C313887   3.376   4.519  14.921  0.4853 -0.3320 -0.4058
    2MPD2    C413888   3.417   4.588  15.025  0.4093  0.2473  0.1251
    2MPD2    C513889   3.401   4.726  15.033 -0.2364  0.2431  0.4491
    2MPD2     H13890   3.274   4.531  14.734  0.1120  0.9800 -0.7724
    2MPD2    H113891   3.462   4.537  15.109 -2.2379 -0.7980  0.9232
    2MPD2    H213892   3.353   0.157  14.930  0.3516 -0.2021  1.9248
    2MPD2    H313893   3.446   0.033  15.120  1.4964  1.9057 -1.3809
    2MPD2     N13894   3.385   4.376  14.909 -0.1539  0.2251  0.2654
    2MPD2    H513895   3.333   4.337  14.831  1.8437  1.2918 -1.6082
    2MPD2    N113896   3.241   0.062  14.716  0.2330 -0.1186 -0.3017
    2MPD2    H713897   3.239   0.161  14.738 -0.7554 -0.6529  2.0162
    3TMC2    C113898   3.178   0.117  14.486  0.0814  0.4739 -0.1301
    3TMC2    C213899   3.226   0.236  14.511 -0.4405 -0.1859 -0.1354
    3TMC2    C313900   3.268   0.319  14.408  0.1207  0.7483  0.2636
    3TMC2    C413901   3.168   0.065  14.358 -0.0911 -0.0630 -0.2136
    3TMC2    C513902   3.218   0.144  14.259  0.0306 -0.5415  0.2510
    3TMC2    C613903   3.268   0.272  14.280 -0.0152 -0.0348 -0.0917
    3TMC2     C13904   3.194   0.012  14.596 -0.3534  0.3074 -0.0036
    3TMC2     O13905   3.178   4.639  14.556  0.0099  0.3342  0.0954
    3TMC2     H13906   3.225   0.278  14.611 -2.9135 -1.7290  0.4815
    3TMC2    H113907   3.128   4.707  14.339 -0.5110 -0.0344  0.5014
    3TMC2    H213908   3.328   0.330  14.211  1.1301 -0.6204  0.4089
    3TMC2    C713909   3.163   0.108  14.126 -0.2264 -0.9389 -0.1244
    3TMC2    C813910   3.300   0.453  14.440 -0.6592 -0.5336 -0.0338
    3TMC2    O113911   3.089   0.015  14.126  0.0989  0.1701  0.1045
    3TMC2    O213912   3.341   0.494  14.547 -0.0153  0.4882 -0.4740
    3TMC2    O513913   3.284   0.531  14.328 -0.1965 -0.1658  0.3998
    3TMC2    H513914   3.216   0.493  14.268 -0.4239  1.3064 -0.2681
    4TMC2    C113915   3.213   0.825  13.458  0.4704 -1.2665 -0.0787
    4TMC2    C213916   3.237   0.788  13.331  0.2204 -0.4208  0.2364
    4TMC2    C313917   3.291   0.663  13.307  0.2358  0.1664 -0.4692
    4TMC2    C413918   3.229   0.737  13.560  0.5104  0.0128 -0.2947
    4TMC2    C513919   3.286   0.613  13.535 -0.5535  0.0879 -0.5898
    4TMC2    C613920   3.308   0.573  13.406 -0.6067 -0.4253 -0.3078
    4TMC2     C13921   3.117   0.926  13.478 -0.0661 -0.0128 -0.1055
    4TMC2     O13922   3.098   0.958  13.593 -0.6144 -0.4828 -0.3258
    4TMC2     H13923   3.227   0.856  13.248 -0.9694 -0.4534  0.3529
    4TMC2    H113924   3.213   0.768  13.662  1.2286 -0.4946 -0.0254
    4TMC2    H213925   3.351   0.477  13.382 -1.5901 -1.3195  1.5099
    4TMC2    C713926   3.285   0.515  13.643 -0.6658  0.0125 -0.2389
    4TMC2    C813927   3.322   0.621  13.170  0.3613 -0.5777 -0.3505
    4TMC2    O113928   3.278   0.562  13.758  0.0058  0.5328 -0.1057
    4TMC2    O213929   3.266   0.674  13.074 -0.0056 -0.0227 -0.2190
    4TMC2    O513930   3.445   0.567  13.170 -0.0710 -0.2760  0.4238
    4TMC2    H513931   3.493   0.565  13.256 -1.4281 -1.2342  1.1708
    5MPD2     C13932   2.661   1.106  13.364  0.2375  0.1332  0.7567
    5MPD2    C113933   2.739   1.118  13.248 -0.7963  0.7387 -0.0676
    5MPD2    C213934   2.868   1.084  13.248 -0.3823 -0.1380 -0.2002
    5MPD2    C313935   2.922   1.022  13.361 -0.7140 -0.6311 -0.3299
    5MPD2    C413936   2.835   1.013  13.468 -0.6501  0.4137 -0.7913
    5MPD2    C513937   2.707   1.051  13.475 -0.1130 -0.5008 -0.5219
    5MPD2     H13938   2.930   1.098  13.160 -2.0716  2.1614 -1.0066
    5MPD2    H113939   2.872   0.959  13.555  1.7812  2.4777 -0.5774
    5MPD2    H213940   2.557   1.138  13.358 -0.4361 -2.2680 -0.3277
    5MPD2    H313941   2.648   1.051  13.566  1.7272  1.1849  0.6719
    5MPD2     N13942   3.051   0.970  13.364  0.2730 -0.2280 -0.9406
    5MPD2    H513943   3.097   0.956  13.274 -0.3889 -0.8595 -1.1843
    5MPD2    N113944   2.680   1.189  13.139 -0.1175 -0.1348  0.0992
    5MPD2    H713945   2.586   1.216  13.163  0.1228  0.0321  0.8511
    6MPD1     C13946   1.327   2.148  12.780 -0.0963 -0.5282  0.4760
    6MPD1    C113947   1.405   2.188  12.670  0.4841  0.1363  0.4361
    6MPD1    C213948   1.543   2.181  12.691 -0.2124 -0.1972 -0.4022
    6MPD1    C313949   1.599   2.176  12.817 -0.2815  0.1216  0.0214
    6MPD1    C413950   1.516   2.166  12.926  0.3000  1.1205  0.6120
    6MPD1    C513951   1.382   2.149  12.908 -0.5223 -0.9416 -0.3570
    6MPD1     H13952   1.612   2.184  12.608  0.0548  2.3622 -0.0891
    6MPD1    H113953   1.551   2.184  13.027  2.1841  0.4333  0.0728
    6MPD1    H213954   1.219   2.139  12.778  0.0337 -1.6500 -1.6929
    6MPD1    H313955   1.315   2.139  12.993 -0.3517  1.4412  0.0464
    6MPD1     N13956   1.735   2.191  12.846  0.4140 -0.3476 -0.4052
    6MPD1    H513957   1.757   2.187  12.946  1.1532  2.1569 -0.4745
    6MPD1    N113958   1.356   2.197  12.539  0.4585 -0.5393  0.1320
    6MPD1    H613959   1.260   2.229  12.542  1.1982  1.6047  0.9231
    6MPD1    H713960   1.408   2.255  12.473 -0.0782 -1.3362 -1.0120
    7MPD2     C13961   2.269   1.916  13.291  0.0307  0.1144 -0.4434
    7MPD2    C113962   2.223   1.892  13.167 -0.5177  0.8726  0.8305
    7MPD2    C213963   2.252   1.770  13.102 -0.2224 -0.1516 -0.4867
    7MPD2    C313964   2.332   1.679  13.171  0.3666  0.0304 -0.1329
    7MPD2    C413965   2.372   1.708  13.299  0.8600 -0.5846 -0.5885
    7MPD2    C513966   2.330   1.824  13.365 -0.3804  0.5869 -0.7312
    7MPD2     H13967   2.218   1.753  13.000  0.2948  2.2704 -1.0799
    7MPD2    H113968   2.433   1.642  13.359 -0.6964 -2.8245 -1.4425
    7MPD2    H213969   2.251   2.005  13.350  0.2096 -1.1447  1.5017
    7MPD2    H313970   2.332   1.823  13.474  3.7014 -1.6953 -0.8396
    7MPD2     N13971   2.370   1.555  13.113 -0.2083 -0.0286 -0.0409
    7MPD2    H513972   2.410   1.482  13.171 -0.3014 -1.6327 -2.0307
    7MPD2    N113973   2.163   1.989  13.093 -0.3672  0.3744  0.2899
    7MPD2    H713974   2.150   1.961  12.996 -1.6288 -0.4587  0.7063
    8TMC3    C113975   2.416   1.412  12.925  0.2730 -0.1423 -0.8319
    8TMC3    C213976   2.519   1.359  13.001  0.3875  0.5985  1.6315
    8TMC3    C313977   2.636   1.322  12.940 -0.0985  0.4683 -0.3111
    8TMC3    C413978   2.432   1.425  12.785  0.1384 -0.7750 -0.5003
    8TMC3    C513979   2.556   1.400  12.732 -0.4451  0.2074  0.2495
    8TMC3    C613980   2.657   1.345  12.808  0.8079  0.3700  0.3962
    8TMC3     C13981   2.358   1.532  12.976 -0.2153  0.1247 -0.6212
    8TMC3     O13982   2.317   1.606  12.885  0.2317  0.1752 -0.1066
    8TMC3     H13983   2.510   1.350  13.109 -1.8872 -3.6983  1.0489
    8TMC3    H113984   2.352   1.447  12.716  1.1582  1.8968 -0.8529
    8TMC3    H213985   2.745   1.305  12.758  0.0339 -1.6063  0.6036
    8TMC3    C713986   2.599   1.505  12.638  0.4115  0.9745  0.0326
    8TMC3    C813987   2.733   1.242  13.017  0.0985 -0.8045 -0.4939
    8TMC3    O113988   2.697   1.481  12.567 -0.0578 -0.3638 -0.5295
    8TMC3    O213989   2.838   1.217  12.957 -0.8929 -0.2097  0.1820
    9TMC3    C113990   1.969   2.240  12.809  0.0758  0.5193 -0.4272
    9TMC3    C213991   2.073   2.245  12.715  0.2009 -0.2436  0.8196
    9TMC3    C313992   2.196   2.212  12.763  0.5799 -0.0662 -0.4186
    9TMC3    C413993   1.995   2.219  12.946 -0.6638  0.1698 -0.3460
    9TMC3    C513994   2.125   2.198  12.984  0.6730  0.0206  0.2527
    9TMC3    C613995   2.228   2.201  12.895 -0.4702  1.2004  0.2191
    9TMC3     C13996   1.840   2.212  12.758 -0.1605 -0.1892  0.6469
    9TMC3     O13997   1.840   2.194  12.635 -0.0419  0.1006  0.1006
    9TMC3     H13998   2.064   2.272  12.611 -0.4660 -3.8793 -0.0820
    9TMC3    H113999   1.930   2.210  13.032  1.1194 -0.6175  0.9170
    9TMC3    H214000   2.329   2.178  12.927 -0.8959 -0.1997  0.5604
    9TMC3    C714001   2.151   2.125  13.115  0.4141 -0.0159  0.7836
    9TMC3    C814002   2.294   2.167  12.667 -0.5560 -1.1282 -0.2652
    9TMC3    O114003   2.215   2.189  13.197  0.6088 -0.1885  0.3897
    9TMC3    O214004   2.282   2.211  12.553 -0.0113 -0.6335  0.1137
   10MPD2     C14005   2.629   1.790  12.526 -0.0142 -0.1317  0.0357
   10MPD2    C114006   2.546   1.754  12.633 -0.5899  0.2051 -0.1954
   10MPD2    C214007   2.465   1.844  12.693 -0.3088 -0.5258  0.6113
   10MPD2    C314008   2.452   1.975  12.642  0.9053 -1.0780 -0.0408
   10MPD2    C414009   2.532   2.017  12.535  0.2075 -0.1315  0.5550
   10MPD2    C514010   2.620   1.925  12.486 -0.6056 -0.6474 -0.1193
   10MPD2     H14011   2.395   1.814  12.771  1.2049 -1.7350  1.4938
   10MPD2    H114012   2.541   2.117  12.493  1.5558 -1.2503 -1.8431
   10MPD2    H214013   2.698   1.720  12.478 -0.7726  0.9996 -2.6969
   10MPD2    H314014   2.675   1.958  12.398 -0.2268 -2.1670 -0.4608
   10MPD2     N14015   2.360   2.052  12.713 -0.1104  0.0244  0.2768
   10MPD2    H514016   2.332   2.015  12.804 -1.7746 -2.1008 -1.0981
   10MPD2    N114017   2.534   1.618  12.671 -0.1331 -0.4309  0.4519
   10MPD2    H714018   2.481   1.617  12.758 -0.5832  0.2653  0.1791
   11MPD2     C14019   3.106   0.073  13.833 -0.3107  0.3557  0.2042
   11MPD2    C114020   3.169   0.182  13.888 -0.7713  0.0266  0.2974
   11MPD2    C214021   3.215   0.278  13.810 -0.0117 -0.9854  0.3156
   11MPD2    C314022   3.188   0.287  13.671 -0.3667  0.9483 -0.4886
   11MPD2    C414023   3.118   0.183  13.614 -0.2323  0.5346 -0.7039
   11MPD2    C514024   3.072   0.081  13.699 -0.3593 -0.9363  0.3540
   11MPD2     H14025   3.276   0.352  13.860 -3.1664  0.6700  1.6764
   11MPD2    H114026   3.097   0.189  13.508  0.6075  2.1784 -0.7853
   11MPD2    H214027   3.057   4.735  13.889 -1.9286 -0.6553 -2.6246
   11MPD2    H314028   3.010   0.006  13.652  0.3664 -1.3688  0.0755
   11MPD2     N14029   3.236   0.394  13.593 -0.2516 -0.3949  0.5310
   11MPD2    H514030   3.226   0.381  13.493 -3.3356 -0.1062  0.8147
   11MPD2    N114031   3.197   0.202  14.028  0.3919  0.2940  0.2908
   11MPD2    H714032   3.250   0.284  14.056 -1.9363  1.3218  1.6689
    1MPD1     C14033   0.979   1.085  17.613  0.4597  0.2481  0.7141
    1MPD1    C114034   0.899   1.115  17.499  0.2721 -0.5611  0.4761
    1MPD1    C214035   0.942   1.211  17.412 -0.1111 -0.7812 -0.4222
    1MPD1    C314036   1.047   1.289  17.441 -0.6965 -0.2011  0.6896
    1MPD1    C414037   1.122   1.266  17.557 -0.8117 -0.1478 -0.5893
    1MPD1    C514038   1.089   1.163  17.640  0.5397  0.3208 -0.3959
    1MPD1     H14039   0.885   1.230  17.321  0.1860  0.6294 -0.3054
    1MPD1    H114040   1.207   1.330  17.575  0.5231 -1.7218 -1.2766
    1MPD1    H214041   0.949   1.002  17.677 -0.4647  1.0943  1.3745
    1MPD1    H314042   1.150   1.135  17.726  1.1866  0.6686 -0.7406
    1MPD1     N14043   1.084   1.405  17.363 -0.0343  0.1941 -0.1088
    1MPD1    H514044   1.161   1.452  17.408  0.0243  1.7631 -1.8618
    1MPD1    N114045   0.802   1.031  17.450  0.6686 -0.3314 -0.0682
    1MPD1    H614046   0.732   1.083  17.397 -0.2492 -1.8613 -0.3665
    1MPD1    H714047   0.754   0.973  17.519 -2.0538 -0.2064 -1.8281
    2MPD1     C14048   1.751   2.095  17.350 -0.5653 -0.0018 -0.5902
    2MPD1    C114049   1.752   2.050  17.220  0.4119  0.1712  0.4849
    2MPD1    C214050   1.647   1.969  17.185 -0.5352 -0.2727  0.4639
    2MPD1    C314051   1.534   1.955  17.267 -0.8660 -0.7173 -0.0753
    2MPD1    C414052   1.527   2.013  17.390 -0.4137 -0.1611 -0.0273
    2MPD1    C514053   1.641   2.079  17.427  0.2912 -0.1264  0.8021
    2MPD1     H14054   1.649   1.906  17.097  1.7996  1.6885 -0.8989
    2MPD1    H114055   1.442   2.018  17.456  0.6793 -1.3250  1.4695
    2MPD1    H214056   1.826   2.162  17.389  1.3641 -2.2797 -0.4205
    2MPD1    H314057   1.631   2.134  17.520  2.6902 -0.3520  1.1884
    2MPD1     N14058   1.430   1.874  17.223  0.0322 -0.6533 -0.2813
    2MPD1    H514059   1.436   1.823  17.135 -0.0172 -0.7832 -0.2095
    2MPD1    N114060   1.868   2.054  17.149  0.1668 -0.5166 -0.0876
    2MPD1    H614061   1.851   2.040  17.050  0.1728 -3.1443  0.3017
    2MPD1    H714062   1.928   2.134  17.170 -3.2034  1.3506  2.5471
    3TMC3    C114063   1.214   1.774  17.198  0.9647 -0.2932  0.2781
    3TMC3    C214064   1.220   1.785  17.062 -0.3097  0.1288 -0.3275
    3TMC3    C314065   1.166   1.679  16.992 -0.0857  0.2680  1.0167
    3TMC3    C414066   1.165   1.665  17.263 -0.2901 -0.0696 -0.0706
    3TMC3    C514067   1.109   1.566  17.190 -0.3301  0.5499 -0.1187
    3TMC3    C614068   1.108   1.575  17.056  0.0010 -0.0872  0.3685
    3TMC3     C14069   1.305   1.857  17.281  0.5010 -0.3289 -0.2294
    3TMC3     O14070   1.254   1.898  17.390  0.0802 -0.3057 -0.4224
    3TMC3     H14071   1.251   1.878  17.016 -0.3973  2.1726  3.7477
    3TMC3    H114072   1.170   1.663  17.371 -0.3836 -1.7976 -0.0931
    3TMC3    H214073   1.078   1.492  16.992 -1.0371  0.3380  0.3035
    3TMC3    C714074   1.029   1.454  17.246  0.2596 -0.4178 -0.4716
    3TMC3    C814075   1.163   1.686  16.849  0.7513  0.4184  0.2888
    3TMC3    O114076   0.951   1.395  17.172  0.2378  0.1025 -0.0647
    3TMC3    O214077   1.096   1.609  16.784 -0.1100  0.3609 -0.4589
    4MPD1     C14078   1.416   1.760  16.418 -0.1185 -0.9324  0.0635
    4MPD1    C114079   1.489   1.816  16.520  0.3781 -0.0011 -0.2243
    4MPD1    C214080   1.432   1.833  16.641 -0.3773  0.2919  0.2129
    4MPD1    C314081   1.314   1.768  16.670 -0.0715  0.0054  0.7231
    4MPD1    C414082   1.248   1.706  16.571  0.3075  0.3677 -0.3448
    4MPD1    C514083   1.292   1.715  16.445  0.0126  0.1599  0.6285
    4MPD1     H14084   1.485   1.874  16.725 -1.2353 -2.8290  2.2818
    4MPD1    H114085   1.149   1.663  16.577  1.0995 -1.3966  0.2024
    4MPD1    H214086   1.456   1.753  16.318 -0.1824  0.5326 -0.0607
    4MPD1    H314087   1.230   1.676  16.365  2.4616 -0.8479 -0.7799
    4MPD1     N14088   1.277   1.754  16.804  0.0459 -0.5071 -0.1278
    4MPD1    H514089   1.349   1.776  16.872 -1.5535  1.1543  1.0196
    4MPD1    N114090   1.610   1.881  16.486  0.1765  0.5954 -0.0563
    4MPD1    H614091   1.682   1.882  16.558  1.3996 -0.8833 -1.2646
    4MPD1    H714092   1.654   1.832  16.408  1.2491 -0.8692  1.4568
    1TCq1    O114093   3.041   0.953  11.853  0.4678 -0.2000  0.5806
    1TCq1    C114094   2.909   0.979  11.841  0.1168 -0.2946 -0.0185
    1TCq1    O214095   2.831   0.938  11.926 -0.4754  0.5663 -0.7098
    1TCq1    C214096   2.906   1.109  11.773 -1.1437  0.2305  0.2550
    1TCq1    C314097   2.957   1.107  11.647 -0.0340 -0.3337  0.0002
    1TCq1    C414098   2.926   1.216  11.560  0.1724  0.8158 -0.0676
    1TCq1    C514099   2.836   1.313  11.605  0.3689  0.2572 -0.0327
    1TCq1    C614100   2.803   1.320  11.734  0.6188 -0.5015  0.7473
    1TCq1    C714101   2.833   1.210  11.817  0.9150  0.0509  0.5378
    1TCq1    C814102   2.753   1.441  11.803  0.2024  0.1125  0.0001
    1TCq1    O414103   2.781   1.442  11.919  0.4117  0.1115 -0.4407
    1TCq1    C914104   2.938   1.201  11.413  0.4639  0.0020 -0.7726
    1TCq1    O514105   2.846   1.244  11.343 -0.1486  0.0102 -0.1697
    1TCq1    O614106   3.014   1.107  11.366 -0.8463 -0.4581 -0.0550
    1TCq1    H114107   3.090   0.994  11.778 -3.1818 -0.5887 -1.9903
    1TCq1    H214108   2.995   1.019  11.597 -0.0140 -0.3162 -0.0156
    1TCq1    H314109   2.814   1.389  11.531  1.3499  0.6344  0.0600
    1TCq1    H414110   2.803   1.205  11.921 -0.0449  0.4826  0.2836
    2MPD1     C14111   2.363   1.771  11.851 -0.5757  0.8439  0.9341
    2MPD1    C114112   2.373   1.737  11.718  0.0606  0.3489  0.4350
    2MPD1    C214113   2.481   1.652  11.678  0.6798 -0.5785  0.1744
    2MPD1    C314114   2.557   1.598  11.776  0.3043  0.1245  1.1417
    2MPD1    C414115   2.557   1.638  11.911  0.1029 -0.2696 -0.6911
    2MPD1    C514116   2.454   1.716  11.944 -0.4030 -0.9201 -0.2670
    2MPD1     H14117   2.510   1.631  11.575 -0.6998 -1.3482 -0.0615
    2MPD1    H114118   2.618   1.594  11.989 -1.3052  2.7517  2.0907
    2MPD1    H214119   2.279   1.829  11.888 -0.1832  0.2747  2.7376
    2MPD1    H314120   2.436   1.737  12.049  0.9714 -0.7410 -0.0555
    2MPD1     N14121   2.657   1.508  11.732  0.1603  0.4721 -0.1591
    2MPD1    H514122   2.644   1.479  11.636 -0.2915  1.0191 -0.2634
    2MPD1    N114123   2.288   1.787  11.617  0.0389  0.1690 -0.5821
    2MPD1    H614124   2.284   1.888  11.623 -0.7203  0.1042  0.1301
    2MPD1    H714125   2.312   1.755  11.523 -0.9136 -0.6576 -0.5491
    1TMC1    C114126   2.964   1.290   0.777 -0.1536  0.3377  0.2184
    1TMC1    C214127   2.967   1.162   0.826 -0.2797 -0.6191 -0.3913
    1TMC1    C314128   3.055   1.068   0.772 -0.7159  0.5719  1.2060
    1TMC1    C414129   3.062   1.325   0.688 -0.1260 -0.8471  0.5893
    1TMC1    C514130   3.156   1.236   0.650  0.3308  0.0604  0.2541
    1TMC1    C614131   3.154   1.101   0.688  0.1960  0.0664 -0.0711
    1TMC1     C14132   2.864   1.385   0.816  0.2096  0.2428  0.6219
    1TMC1     O14133   2.883   1.497   0.774  0.1589 -0.6595  0.0756
    1TMC1     H14134   2.899   1.112   0.894  0.7584 -2.6175 -0.8213
    1TMC1    H114135   3.063   1.416   0.631 -2.4862 -1.8207 -0.9979
    1TMC1    H214136   3.224   1.028   0.648 -0.0259 -1.5391  2.4947
    1TMC1    C714137   3.247   1.272   0.542 -0.0706 -0.3183 -0.0554
    1TMC1    C814138   3.064   0.940   0.832  0.3304 -0.1546 -0.6036
    1TMC1    O114139   3.291   1.190   0.466  0.0187  0.4347  0.7009
    1TMC1    O214140   3.045   0.912   0.950  0.1684 -0.1465  0.6552
    1TMC1    O314141   3.296   1.398   0.563 -0.3867  0.1608 -0.3227
    1TMC1    H314142   3.272   1.435   0.651 -0.2504  1.4766 -0.8259
    1TMC1    O514143   3.045   0.855   0.728  0.2569 -0.2132 -0.5439
    1TMC1    H514144   3.018   0.899   0.645 -0.6732  0.6073  0.1856
    2MPD1     C14145   2.413   1.506   1.029  0.3506  0.4775  0.3931
    2MPD1    C114146   2.438   1.376   1.055  0.6039 -0.1551 -0.7853
    2MPD1    C214147   2.558   1.326   1.022 -0.2738  0.4277 -0.2426
    2MPD1    C314148   2.643   1.399   0.939  0.5014 -0.5491  0.3200
    2MPD1    C414149   2.603   1.517   0.880 -0.8896 -0.3177  0.5150
    2MPD1    C514150   2.500   1.575   0.939 -0.2723 -0.5669 -0.5355
    2MPD1     H14151   2.591   1.227   1.052 -0.5758  0.3119 -0.2937
    2MPD1    H114152   2.660   1.574   0.807 -1.2005  0.0449  0.5580
    2MPD1    H214153   2.329   1.552   1.080 -0.2433  0.5805 -0.6617
    2MPD1    H314154   2.483   1.680   0.914  3.4342 -0.3842 -2.1831
    2MPD1     N14155   2.759   1.331   0.881  0.5389 -0.0818  0.1078
    2MPD1    H514156   2.758   1.234   0.909  0.6845  0.4652  2.0056
    2MPD1    N114157   2.365   1.307   1.147  0.2149  0.3546 -0.0851
    2MPD1    H614158   2.266   1.329   1.154  0.4747  1.6644 -0.6950
    2MPD1    H714159   2.370   1.209   1.118 -0.8770 -0.0519  1.0791
    1MPD1     C14160   3.875   2.317  11.718  0.6345 -0.6218 -0.2372
    1MPD1    C114161   3.919   2.232  11.622 -0.2112  0.0234  0.2026
    1MPD1    C214162   3.989   2.283  11.521  0.7032 -0.3642  0.6603
    1MPD1    C314163   4.020   2.419  11.508 -0.1800  0.1470  0.8605
    1MPD1    C414164   3.997   2.499  11.619  0.1469  0.2818 -0.5564
    1MPD1    C514165   3.920   2.453  11.719 -0.7415  0.5162 -0.6844
    1MPD1     H14166   4.006   2.229  11.429 -0.6887  4.5447 -2.4741
    1MPD1    H114167   4.011   2.606  11.630  1.2777  0.2042 -1.1764
    1MPD1    H214168   3.803   2.288  11.794 -0.0798  1.0381 -0.2728
    1MPD1    H314169   3.880   2.516  11.798 -0.6103  0.1936 -0.3622
    1MPD1     N14170   4.087   2.459  11.388  0.1752  0.2197 -0.0388
    1MPD1    H514171   4.093   2.391  11.313 -1.6789 -1.3120  1.2076
    1MPD1    N114172   3.878   2.096  11.614 -0.1890  0.3400 -0.5494
    1MPD1    H614173   3.852   2.054  11.703  0.4868  1.0458 -0.0249
    1MPD1    H714174   3.949   2.035  11.575  0.1470 -0.9159  2.0469
    2MPD1     C14175   3.380   1.995  11.207 -0.3860  0.2118  0.3787
    2MPD1    C114176   3.332   1.889  11.133  0.2366 -0.1474 -0.5676
    2MPD1    C214177   3.363   1.896  10.995 -0.9283 -1.5007  0.8343
    2MPD1    C314178   3.431   2.003  10.942  0.3379  0.5921  0.2447
    2MPD1    C414179   3.482   2.103  11.024 -0.6322  0.9638 -0.0657
    2MPD1    C514180   3.451   2.099  11.155  0.7756  0.6433 -0.4219
    2MPD1     H14181   3.332   1.811  10.935 -2.7721 -0.4041  0.2393
    2MPD1    H114182   3.536   2.189  10.986  1.0143  0.5355  1.3361
    2MPD1    H214183   3.366   2.012  11.313  0.5437  2.0916  0.2006
    2MPD1    H314184   3.495   2.173  11.221  0.1104  1.9452 -1.4377
    2MPD1     N14185   3.462   2.019  10.804 -0.0845  0.3332 -0.2407
    2MPD1    H514186   3.533   2.084  10.773  0.4393  0.8257  2.0099
    2MPD1    N114187   3.240   1.802  11.192  0.0090 -0.2952  0.5679
    2MPD1    H614188   3.218   1.712  11.150  1.6686 -1.6531  2.6148
    2MPD1    H714189   3.254   1.779  11.290 -1.6462  1.7920  1.3128
    3MPD1     C14190   3.190   1.602   9.898  0.3988  0.8832  0.2072
    3MPD1    C114191   3.157   1.564  10.026  0.3038 -0.7867  0.5430
    3MPD1    C214192   3.201   1.645  10.129 -0.1997 -0.1708 -0.0392
    3MPD1    C314193   3.276   1.758  10.109  0.2987  0.0870  0.2217
    3MPD1    C414194   3.302   1.793   9.975 -0.1916  0.0261  0.9600
    3MPD1    C514195   3.265   1.707   9.873 -0.4360 -0.7070 -0.2843
    3MPD1     H14196   3.189   1.610  10.230 -2.5340 -1.4714 -0.7755
    3MPD1    H114197   3.344   1.888   9.946  2.5400 -0.7203  2.3615
    3MPD1    H214198   3.170   1.545   9.808 -2.3630  2.2748 -0.0704
    3MPD1    H314199   3.275   1.738   9.769 -0.9357 -1.6718 -0.6216
    3MPD1     N14200   3.329   1.825  10.218  0.3864  0.5320  0.0240
    3MPD1    H514201   3.294   1.813  10.312 -0.0304 -1.9016 -0.4216
    3MPD1    N114202   3.085   1.440  10.041 -0.1294 -0.3044 -0.6572
    3MPD1    H614203   3.132   1.381  10.110  0.6638 -0.5146 -1.3794
    3MPD1    H714204   3.064   1.391   9.954  1.9717 -0.0643 -1.3077
    4MPD2     C14205   4.284   3.049  10.922 -0.1353 -0.2644  0.9585
    4MPD2    C114206   4.325   2.926  10.879  0.2396 -0.3096  0.1945
    4MPD2    C214207   4.310   2.884  10.747 -0.7828  0.2480  0.6362
    4MPD2    C314208   4.244   2.967  10.663 -0.1824 -0.3676 -0.0795
    4MPD2    C414209   4.201   3.098  10.703 -0.4006  0.8781  0.1578
    4MPD2    C514210   4.235   3.135  10.833 -0.4451  1.2791  0.1283
    4MPD2     H14211   4.328   2.785  10.706  1.2419  1.0575 -0.4373
    4MPD2    H114212   4.155   3.173  10.640  0.4076  0.6367 -0.7362
    4MPD2    H214213   4.296   3.073  11.027  2.7826 -0.3151  0.6251
    4MPD2    H314214   4.198   3.230  10.868 -1.8903  0.6278  0.3825
    4MPD2     N14215   4.225   2.907  10.537  0.2199  0.1534  0.4867
    4MPD2    H514216   4.252   2.810  10.527 -4.2076 -1.0517  0.0561
    4MPD2    N114217   4.366   2.828  10.976 -0.2730  0.3595  0.6483
    4MPD2    H714218   4.385   2.735  10.939 -1.0032 -0.0151  1.2002
    5TMC3    C114219   4.416   2.710  11.181 -0.2459 -0.2888 -0.5528
    5TMC3    C214220   4.322   2.690  11.274 -0.2195  0.1713 -0.6775
    5TMC3    C314221   4.241   2.578  11.268  0.3681  0.1248  0.0807
    5TMC3    C414222   4.448   2.614  11.100 -0.2076  0.0201  0.7466
    5TMC3    C514223   4.366   2.503  11.088 -0.1135  0.3177  0.3023
    5TMC3    C614224   4.255   2.479  11.169  0.1960 -0.4543 -0.8938
    5TMC3     C14225   4.390   2.837  11.115  0.3643 -0.5323  0.0592
    5TMC3     O14226   4.363   2.931  11.189  0.6969 -0.0625 -0.4444
    5TMC3     H14227   4.287   2.770  11.338  0.9191  0.5146 -0.4773
    5TMC3    H114228   4.527   2.622  11.026  0.2520 -0.5921  1.1699
    5TMC3    H214229   4.202   2.386  11.182 -0.2644  0.0227  0.7398
    5TMC3    C714230   4.343   2.481  10.950  0.2601 -0.0121 -0.4387
    5TMC3    C814231   4.150   2.576  11.380  0.0557 -0.0655 -0.1930
    5TMC3    O114232   4.352   2.575  10.870  0.3262  0.0041 -0.4530
    5TMC3    O214233   4.163   2.661  11.466 -0.0401  0.4643  0.0026
    6TMC3    C114234   3.428   2.016  10.568  0.3154  0.0333  0.0298
    6TMC3    C214235   3.427   1.939  10.453  0.4070 -0.3771 -0.1808
    6TMC3    C314236   3.424   2.000  10.337 -0.5727  0.6322  0.1366
    6TMC3    C414237   3.429   2.151  10.565  0.0301 -0.4205 -0.0013
    6TMC3    C514238   3.426   2.208  10.443 -1.4710  0.5768 -0.3961
    6TMC3    C614239   3.423   2.135  10.327  0.8759 -0.1479  0.4361
    6TMC3     C14240   3.400   1.955  10.697  0.5395 -0.4378 -0.4728
    6TMC3     O14241   3.328   1.856  10.700 -0.1272 -0.5931  0.0400
    6TMC3     H14242   3.418   1.833  10.469 -0.9132 -0.3916 -1.0001
    6TMC3    H114243   3.411   2.208  10.656 -1.0627  1.2040 -1.2337
    6TMC3    H214244   3.421   2.183  10.230 -1.7163  0.3628  0.7352
    6TMC3    C714245   3.424   2.346  10.443 -0.0521 -0.1187 -0.6291
    6TMC3    C814246   3.415   1.929  10.210 -0.9652  0.0795 -0.0488
    6TMC3    O114247   3.474   2.400  10.538  0.3859  0.1709 -0.1506
    6TMC3    O214248   3.500   1.952  10.128 -0.4025  0.9648 -0.4293
    7MPD2     C14249   4.130   2.211  10.558  0.1672  0.0129  0.1659
    7MPD2    C114250   4.196   2.337  10.553 -0.0496  0.0350  0.3516
    7MPD2    C214251   4.252   2.387  10.677 -0.0933 -0.5541  0.5096
    7MPD2    C314252   4.246   2.310  10.791  0.1463  1.2697  0.7364
    7MPD2    C414253   4.212   2.178  10.780 -0.3072 -0.8291  0.5124
    7MPD2    C514254   4.145   2.135  10.670  0.3541  0.2930  0.0788
    7MPD2     H14255   4.308   2.479  10.668 -3.2492  1.1166 -2.0523
    7MPD2    H114256   4.208   2.121  10.872  0.6440  0.5805  1.4270
    7MPD2    H214257   4.080   2.173  10.470  0.0391 -1.1469  0.7333
    7MPD2    H314258   4.095   2.040  10.666 -1.4830  1.2904 -0.5430
    7MPD2     N14259   4.288   2.361  10.921  0.2216  0.6180  0.3548
    7MPD2    H514260   4.289   2.287  10.990  4.2884  0.1190 -0.2743
    7MPD2    N114261   4.183   2.421  10.437  0.1626 -0.2105  0.1532
    7MPD2    H714262   4.141   2.375  10.356  2.5516 -3.0753  0.5433
    8TMC3    C114263   4.198   2.619  10.311 -0.4417 -0.2964  0.2589
    8TMC3    C214264   4.073   2.586  10.273  0.3528  0.5517  0.5242
    8TMC3    C314265   3.980   2.688  10.274 -0.2668 -0.6369  0.1549
    8TMC3    C414266   4.240   2.749  10.334  0.2178 -0.2734  0.2263
    8TMC3    C514267   4.144   2.851  10.328  0.1897 -0.1105  0.2059
    8TMC3    C614268   4.015   2.822  10.293  0.1394 -0.1949  1.1849
    8TMC3     C14269   4.219   2.552  10.437 -0.2665  0.0396  0.6099
    8TMC3     O14270   4.265   2.623  10.528 -0.6479  0.1338 -0.0859
    8TMC3     H14271   4.047   2.487  10.237 -0.7632  1.0843 -0.1471
    8TMC3    H114272   4.342   2.779  10.356  0.0809  0.3038  0.0674
    8TMC3    H214273   3.935   2.895  10.303  2.1674  1.8431  2.5277
    8TMC3    C714274   4.155   2.960  10.427 -0.0666 -0.4781  0.7764
    8TMC3    C814275   3.848   2.644  10.306 -0.0703 -0.0490 -1.0797
    8TMC3    O114276   4.085   3.057  10.413  0.4464 -0.2956 -0.6486
    8TMC3    O214277   3.842   2.536  10.362 -0.2086  0.4115 -0.0476
    9MPD2     C14278   3.537   2.734  10.149 -0.3634  0.7008  0.2648
    9MPD2    C114279   3.610   2.669  10.243  0.5132 -0.2835  0.3455
    9MPD2    C214280   3.556   2.570  10.321  0.2754 -0.3173 -0.0510
    9MPD2    C314281   3.428   2.518  10.282 -0.2321 -0.6702  0.3328
    9MPD2    C414282   3.361   2.579  10.177  0.4173  0.0945  0.1756
    9MPD2    C514283   3.416   2.688  10.108  0.8280  0.5321 -0.0120
    9MPD2     H14284   3.614   2.523  10.399  1.6520 -1.0782 -1.5519
    9MPD2    H114285   3.272   2.541  10.129  0.7641  0.0046 -0.3943
    9MPD2    H214286   3.577   2.812  10.085  0.6353 -0.7902 -0.9804
    9MPD2    H314287   3.380   2.716  10.010  1.6537 -1.8068 -0.9675
    9MPD2     N14288   3.371   2.401  10.329  0.1303  0.2383  0.4111
    9MPD2    H514289   3.317   2.348  10.262  1.9525 -0.4573 -0.5189
    9MPD2    N114290   3.746   2.715  10.245 -0.1095 -0.2152 -0.5991
    9MPD2    H714291   3.767   2.794  10.185 -0.0478  0.6439  0.5608
    1MPD1     C14292   3.345   0.485  15.644 -0.6980 -0.5625  0.2950
    1MPD1    C114293   3.428   0.389  15.583 -0.3363  0.9034 -0.3795
    1MPD1    C214294   3.373   0.266  15.542  0.4982  0.2515  0.4996
    1MPD1    C314295   3.237   0.247  15.558 -0.5090  0.3645 -0.1585
    1MPD1    C414296   3.164   0.333  15.640 -0.6184 -0.0094  0.3737
    1MPD1    C514297   3.213   0.461  15.675 -0.4606  0.6768 -0.1361
    1MPD1     H14298   3.436   0.199  15.484  1.5218  1.6433 -0.0034
    1MPD1    H114299   3.069   0.297  15.677 -0.2469 -0.5834  0.7679
    1MPD1    H214300   3.391   0.580  15.668  3.5861 -2.4025 -0.5979
    1MPD1    H314301   3.159   0.540  15.725 -0.0286  1.1943 -0.4872
    1MPD1     N14302   3.173   0.130  15.518 -0.3022  0.1062 -0.0605
    1MPD1    H514303   3.076   0.127  15.547  0.4815 -0.6360  2.4230
    1MPD1    N114304   3.564   0.418  15.566 -0.6164 -0.3280 -0.1473
    1MPD1    H614305   3.617   0.353  15.508 -3.1824 -0.7597 -1.9951
    1MPD1    H714306   3.593   0.512  15.538 -0.4873 -0.1862  0.4517
    2TMC2    C114307   2.956   4.519  15.473  0.8957  0.5176  0.5383
    2TMC2    C214308   2.978   4.441  15.358  0.6034 -0.5433 -0.0907
    2TMC2    C314309   3.078   4.479  15.279 -0.6207  0.1353 -0.1298
    2TMC2    C414310   3.040   4.624  15.505 -0.2234 -0.4952  0.3945
    2TMC2    C514311   3.148   4.653  15.421  0.3480 -0.4863  0.3860
    2TMC2    C614312   3.169   4.579  15.304 -0.2939 -0.7635 -0.2058
    2TMC2     C14313   2.847   4.492  15.567 -0.4474 -0.1562  1.2375
    2TMC2     O14314   2.847   4.550  15.673  0.2648 -0.0670  0.1587
    2TMC2     H14315   2.923   4.350  15.339  1.4623 -1.0808 -0.0183
    2TMC2    H114316   3.023   4.688  15.591  1.8140  0.6663 -0.0432
    2TMC2    H214317   3.262   4.598  15.252 -0.9102  0.6712 -0.7941
    2TMC2    C714318   3.223   0.035  15.428 -0.2639 -0.6686  0.2983
    2TMC2    C814319   3.075   4.434  15.146 -0.1382  0.0765 -0.2416
    2TMC2    O114320   3.319   0.039  15.352 -0.4567  0.0854 -0.0012
    2TMC2    O214321   3.005   4.341  15.105 -0.4291 -0.0557 -0.4793
    2TMC2    O514322   3.123   4.540  15.068 -0.0701 -0.2247 -0.2029
    2TMC2    H514323   3.151   4.618  15.122  0.9203  0.3183 -1.4844
    3MPD1     C14324   2.388   4.261  15.659 -0.0370 -0.0835  0.0124
    3MPD1    C114325   2.449   4.208  15.545  0.4493 -0.1771  0.1809
    3MPD1    C214326   2.576   4.257  15.507 -0.0417  0.5164  0.2317
    3MPD1    C314327   2.644   4.347  15.583  0.3581 -0.2080 -0.1116
    3MPD1    C414328   2.585   4.392  15.696  0.3922 -0.4182  0.0807
    3MPD1    C514329   2.456   4.350  15.735 -0.5018 -0.1807 -0.1230
    3MPD1     H14330   2.621   4.217  15.417  0.4952 -1.5378  1.4204
    3MPD1    H114331   2.639   4.457  15.765 -1.3829  0.7972  0.3136
    3MPD1    H214332   2.292   4.236  15.703 -0.0579  1.9737  1.1566
    3MPD1    H314333   2.414   4.388  15.827  0.6403  0.6820  0.0474
    3MPD1     N14334   2.770   4.389  15.523  0.5997  0.4937  0.4840
    3MPD1    H514335   2.794   4.347  15.434 -1.9007 -0.3838  0.2112
    3MPD1    N114336   2.384   4.129  15.453  0.1361  0.2272 -0.3606
    3MPD1    H614337   2.310   4.082  15.506  0.6227  0.0183  0.1310
    3MPD1    H714338   2.446   4.052  15.426  0.2462 -0.9920  3.3349
    1TMC1    C114339   1.361   4.497  12.164  0.2015  0.4738 -0.2384
    1TMC1    C214340   1.347   4.374  12.223 -0.4971  0.6316  0.3124
    1TMC1    C314341   1.257   4.285  12.173 -0.3018  0.5061  0.1563
    1TMC1    C414342   1.265   4.538  12.072 -0.2718  0.3556  0.3442
    1TMC1    C514343   1.172   4.445  12.022 -0.1005  0.2183 -0.1457
    1TMC1    C614344   1.175   4.314  12.066 -0.6780  0.2932 -0.2933
    1TMC1     C14345   1.436   4.606  12.226  0.1486 -0.7636 -0.3273
    1TMC1     O14346   1.409   4.721  12.195  0.6426 -0.3053 -0.2420
    1TMC1     H14347   1.413   4.350  12.305  2.6871  1.6827 -1.9373
    1TMC1    H114348   1.253   4.640  12.035 -3.3936 -0.4434 -0.8472
    1TMC1    H214349   1.113   4.236  12.022  1.0980 -0.8167 -0.8314
    1TMC1    C714350   1.075   4.496  11.920 -0.0585  0.7313  0.2407
    1TMC1    C814351   1.261   4.147  12.210 -0.4416  0.2402 -0.1711
    1TMC1    O114352   1.089   4.599  11.854 -0.1503  0.0988  0.7122
    1TMC1    O214353   1.230   4.055  12.135  0.1654 -0.8370  0.4932
    1TMC1    O314354   0.988   4.399  11.881  0.5855  0.1967  0.1054
    1TMC1    H314355   0.970   4.329  11.946  1.4536 -0.0603  0.0694
    1TMC1    O514356   1.299   4.138  12.338 -0.2816  0.2220 -0.0349
    1TMC1    H514357   1.313   4.219  12.392  0.8796 -0.2148  0.3313
    2MPD2     C14358   1.631   0.018  12.396  0.1001  0.2606  0.4273
    2MPD2    C114359   1.609   4.625  12.402  0.3457 -0.2918  0.2981
    2MPD2    C214360   1.688   4.553  12.492  0.1791  0.0723  0.0838
    2MPD2    C314361   1.782   4.616  12.569  0.2385  0.8740 -0.3217
    2MPD2    C414362   1.803   0.009  12.565  0.3007 -0.0974 -0.4560
    2MPD2    C514363   1.721   0.078  12.478 -0.7490 -0.1437 -0.1340
    2MPD2     H14364   1.660   4.449  12.495 -4.1309  1.2532  1.4912
    2MPD2    H114365   1.880   0.069  12.613  0.6439  0.6636 -1.9517
    2MPD2    H214366   1.586   0.086  12.324 -2.0263 -0.4148  1.1341
    2MPD2    H314367   1.737   0.185  12.468  1.2615 -0.4507 -0.3203
    2MPD2     N14368   1.849   4.526  12.656 -0.0443 -0.3310  0.5514
    2MPD2    H514369   1.834   4.426  12.644  0.4252 -0.0085 -2.9285
    2MPD2    N114370   1.525   4.557  12.313 -0.2520 -0.5464 -0.1702
    2MPD2    H714371   1.523   4.456  12.328 -1.4731 -0.6359 -0.9428
    3TCq1    O114372   2.378   4.364  12.918  0.1093 -0.3751  0.4181
    3TCq1    C114373   2.293   4.259  12.925 -0.3768 -0.1762 -0.3497
    3TCq1    O214374   2.318   4.145  12.957  0.0401  0.1067  0.3203
    3TCq1    C214375   2.157   4.301  12.903 -0.3058  0.3309  0.0927
    3TCq1    C314376   2.067   4.198  12.923 -0.0659 -0.3878 -0.2971
    3TCq1    C414377   1.934   4.223  12.902  0.0562  0.6712  0.2830
    3TCq1    C514378   1.888   4.345  12.860 -0.6273 -0.4286 -0.0457
    3TCq1    C614379   1.982   4.444  12.828 -0.4371  0.4010 -0.5442
    3TCq1    C714380   2.116   4.425  12.849 -1.0046  0.4533 -0.4655
    3TCq1    C814381   1.942   4.561  12.750 -0.4164 -0.1790 -0.4830
    3TCq1    O414382   2.000   4.668  12.773  0.4351 -0.0766 -0.2649
    3TCq1    C914383   1.845   4.120  12.943 -0.0189 -0.1545 -0.0438
    3TCq1    O514384   1.892   4.001  12.973  0.6496 -0.1543  0.5778
    3TCq1    O614385   1.718   4.136  12.946 -0.1077 -0.2251  0.6384
    3TCq1    H114386   2.326   4.445  12.899 -1.9988 -1.2565  2.4416
    3TCq1    H214387   2.102   4.101  12.954 -1.1867 -0.5425  0.4752
    3TCq1    H314388   1.780   4.359  12.855 -0.4916  0.8588  0.6466
    3TCq1    H414389   2.188   4.505  12.839  0.3792 -0.8068 -0.6274
    1MPD2     C14390   1.167   4.618  14.919  0.2051  0.5258  0.1668
    1MPD2    C114391   1.043   4.595  14.966 -0.5238 -0.2666  0.7816
    1MPD2    C214392   1.028   4.471  15.033 -0.7464  0.2888 -0.8032
    1MPD2    C314393   1.125   4.379  15.051  0.3039  0.6257  0.3325
    1MPD2    C414394   1.246   4.393  14.991  0.1460  0.9188  0.6046
    1MPD2    C514395   1.262   4.519  14.934 -0.1384 -0.0933  0.6052
    1MPD2     H14396   0.931   4.442  15.071 -2.0355  4.0942 -1.2096
    1MPD2    H114397   1.329   4.324  14.994  1.4277  2.3377 -1.5957
    1MPD2    H214398   1.203   4.710  14.875  2.9635 -0.9977 -0.7897
    1MPD2    H314399   1.359   4.549  14.898 -0.1979 -0.8491 -0.1847
    1MPD2     N14400   1.089   4.267  15.129 -0.3106  0.1029 -0.9876
    1MPD2    H514401   0.999   4.273  15.176  1.0026 -1.0556  1.6385
    1MPD2    N114402   0.935   4.680  14.964  0.2303 -0.6395 -1.0646
    1MPD2    H714403   0.846   4.661  15.010  1.5250 -0.2100  1.6315
    2TMC3    C114404   0.785   0.094  14.882 -0.5890 -0.2697  0.1096
    2TMC3    C214405   0.697   4.733  14.872  0.7540 -0.6385 -1.0375
    2TMC3    C314406   0.562   0.018  14.892  0.1744 -0.3364 -0.0893
    2TMC3    C414407   0.751   0.226  14.885  0.1285 -0.2328  0.1494
    2TMC3    C514408   0.619   0.250  14.915 -0.0487  0.2422 -0.4236
    2TMC3    C614409   0.526   0.147  14.910  0.1317  0.0877  0.4579
    2TMC3     C14410   0.925   0.056  14.895 -0.4343 -0.0946  0.1386
    2TMC3     O14411   1.015   0.136  14.866  0.1655  0.4102  0.3034
    2TMC3     H14412   0.717   4.627  14.863  2.0674 -0.4122 -0.8172
    2TMC3    H114413   0.817   0.310  14.899  2.7193 -2.3373  0.4526
    2TMC3    H214414   0.422   0.177  14.921  0.5117  1.5951 -0.0379
    2TMC3    C714415   0.570   0.382  14.922  0.8101  0.2927 -0.0441
    2TMC3    C814416   0.470   4.651  14.924  0.0831 -0.0036 -0.9000
    2TMC3    O114417   0.495   0.415  15.013  0.3194 -0.1374  0.5107
    2TMC3    O214418   0.355   4.654  14.889 -0.0851  0.2268  0.3911
    3TCq1    O114419   0.915   1.118  13.993 -0.0377  0.2895 -0.0503
    3TCq1    C114420   0.840   1.148  14.103 -0.3053 -0.1579 -0.1578
    3TCq1    O214421   0.847   1.249  14.171  0.8983  0.3796 -0.1037
    3TCq1    C214422   0.760   1.031  14.140  0.2166 -0.6906  0.0871
    3TCq1    C314423   0.717   0.954  14.040 -0.3821 -0.2812  0.0524
    3TCq1    C414424   0.637   0.847  14.074 -0.3670 -0.8557  0.0284
    3TCq1    C514425   0.596   0.828  14.203 -0.3436  0.0141  1.2172
    3TCq1    C614426   0.632   0.921  14.301 -0.4450 -0.0548 -0.4268
    3TCq1    C714427   0.714   1.023  14.273 -0.6674 -0.0996  0.1178
    3TCq1    C814428   0.571   0.904  14.430  0.0725 -0.1725  0.0004
    3TCq1    O414429   0.581   1.003  14.505  0.1986 -0.0637 -0.1668
    3TCq1    C914430   0.594   0.757  13.969 -0.5087  0.4875  0.6194
    3TCq1    O514431   0.494   0.681  13.990  0.2235 -0.3315 -0.3273
    3TCq1    O614432   0.648   0.778  13.854 -0.0207  0.2000  0.1972
    3TCq1    H114433   0.921   1.021  13.989  1.1480  0.2941  1.7304
    3TCq1    H214434   0.731   0.978  13.935  1.7963 -0.9899  0.1665
    3TCq1    H314435   0.535   0.742  14.228  1.4524 -1.7221 -0.3138
    3TCq1    H414436   0.750   1.091  14.348 -2.6128  1.0951 -0.0318
    4MPD2     C14437   0.453   0.805  14.681  0.0153  0.1956 -0.3635
    4MPD2    C114438   0.522   0.725  14.590 -0.2784  0.4291 -0.5592
    4MPD2    C214439   0.560   0.603  14.632 -0.4368  0.1281 -0.0134
    4MPD2    C314440   0.535   0.567  14.766 -0.7655 -0.7857 -0.1828
    4MPD2    C414441   0.448   0.646  14.839 -0.0081  0.0349 -0.1402
    4MPD2    C514442   0.404   0.766  14.797  0.8523 -0.2776  0.2537
    4MPD2     H14443   0.622   0.537  14.572  0.6388  1.4388 -0.3435
    4MPD2    H114444   0.425   0.618  14.941 -0.6492  0.0564 -0.2802
    4MPD2    H214445   0.424   0.901  14.641 -0.7726  0.4783  0.8983
    4MPD2    H314446   0.341   0.832  14.855  0.6648 -1.3852  1.3273
    4MPD2     N14447   0.589   0.446  14.800 -0.8043  0.3970 -0.6715
    4MPD2    H514448   0.653   0.401  14.735  1.5321 -0.8758  2.4776
    4MPD2    N114449   0.562   0.774  14.463 -0.2848 -0.5494 -0.1903
    4MPD2    H714450   0.604   0.712  14.395 -1.3055 -0.1864 -1.1467
    5TMC2    C114451   0.844   4.062  15.219  0.6344 -0.2487  1.0105
    5TMC2    C214452   0.842   3.951  15.138 -0.5065 -1.2174 -0.3818
    5TMC2    C314453   0.961   3.895  15.113  1.0119  0.1690 -0.3438
    5TMC2    C414454   0.956   4.111  15.276  0.6103 -0.4097  0.6270
    5TMC2    C514455   1.082   4.066  15.227  0.0144 -0.2896  0.2310
    5TMC2    C614456   1.083   3.949  15.159 -0.0777  0.1406 -0.4504
    5TMC2     C14457   0.733   4.153  15.222  0.3640 -0.1491 -0.3405
    5TMC2     O14458   0.752   4.256  15.282  0.1671  0.3301 -0.5313
    5TMC2     H14459   0.749   3.909  15.103 -0.1918 -1.6045 -0.7595
    5TMC2    H114460   0.964   4.199  15.339 -0.0583 -0.4616  0.7770
    5TMC2    H214461   1.182   3.907  15.150  0.0021  0.4333 -0.9487
    5TMC2    C714462   1.167   4.160  15.154  0.7396  0.0160  0.1501
    5TMC2    C814463   0.957   3.771  15.036 -0.1392 -0.4866 -0.2771
    5TMC2    O114464   1.271   4.130  15.105  0.4069  0.3138  0.1212
    5TMC2    O214465   0.865   3.690  15.028  0.4095 -0.1899 -0.5097
    5TMC2    O514466   1.088   3.739  15.016 -0.2391 -0.4514 -0.4384
    5TMC2    H514467   1.137   3.807  14.965  1.4830 -2.5200 -1.5448
    6MPD2     C14468   0.357   4.379  14.990 -0.8117  0.0610  0.3642
    6MPD2    C114469   0.481   4.425  15.027  0.3671  0.1974  0.2886
    6MPD2    C214470   0.574   4.342  15.080  0.1542 -0.1279 -0.5469
    6MPD2    C314471   0.535   4.211  15.094  1.0151  0.1179 -0.7217
    6MPD2    C414472   0.417   4.158  15.037 -0.1157  0.5732 -0.3464
    6MPD2    C514473   0.327   4.241  14.983  0.8034  0.1569  0.7416
    6MPD2     H14474   0.676   4.371  15.102 -0.4671 -0.1543  2.3626
    6MPD2    H114475   0.388   4.054  15.045 -1.5010  0.9547 -0.3837
    6MPD2    H214476   0.283   4.444  14.944  0.5546  1.5761  0.3152
    6MPD2    H314477   0.242   4.202  14.928  0.9999  1.7581 -0.6736
    6MPD2     N14478   0.633   4.117  15.139 -0.3935 -0.2649 -0.1972
    6MPD2    H514479   0.616   4.017  15.127  1.4910 -0.3937 -1.7673
    6MPD2    N114480   0.532   4.556  14.999  0.1293 -0.2582 -0.7116
    6MPD2    H714481   0.617   4.584  15.046  0.3308 -1.8752 -0.0928
  945NH3     N114482   4.239   0.689   1.009 -0.5834  0.3573  0.2288
  945NH3     H214483   4.201   0.751   1.080 -2.2474 -0.7103  0.2606
  945NH3     H314484   4.200   0.600   1.038 -1.5046  0.8219  0.4248
  945NH3     H414485   4.336   0.688   1.038 -1.0186 -0.4361  1.6500
  946SOD     NA14486   1.131   3.921  13.889  0.0152  0.2683 -0.0642
  947SOD     NA14487   3.301   0.880  12.948 -0.2095 -0.2757 -0.2473
  948SOD     NA14488   4.528   2.305   3.035  0.4138  0.6933  0.5484
  949SOD     NA14489   0.534   0.319   8.612  0.3720  0.2076 -0.1266
  950SOD     NA14490   2.777   2.280  11.576 -0.2198  0.2189  0.2107
  951SOD     NA14491   4.549   2.642   4.785 -0.0867 -0.0197 -0.0755
  952SOD     NA14492   3.005   3.505   3.895  0.0406  0.1387  0.5436
  953SOD     NA14493   0.673   2.726  15.572  0.1513 -0.1178 -0.1316
  954SOL     OW14494   1.274   0.179  11.511  0.0757 -0.7273 -0.2510
  954SOL    HW114495   1.340   0.247  11.531  0.1359 -0.8163 -0.1468
  954SOL    HW214496   1.234   0.156  11.595  0.1714 -0.8147 -0.2295
  955SOL     OW14497   0.209   1.910   4.322 -0.4224 -0.1771 -0.1889
  955SOL    HW114498   0.134   1.853   4.305 -0.3187 -0.9580  1.8922
  955SOL    HW214499   0.244   1.921   4.234  1.8776 -0.6382  0.6616
  956SOL     OW14500   2.674   0.750   5.440  0.2245 -0.3106  0.0701
  956SOL    HW114501   2.683   0.712   5.352 -0.1318  0.8123 -0.4513
  956SOL    HW214502   2.685   0.664   5.481  0.8462 -0.0589  0.4211
  957SOL     OW14503   1.777   2.981   7.215  0.1172  0.1550 -0.3988
  957SOL    HW114504   1.802   2.900   7.261 -2.9430  0.4195  1.7259
  957SOL    HW214505   1.833   2.977   7.137 -0.7182 -1.5390 -0.9197
  958SOL     OW14506   1.990   3.617  11.731 -0.6594  0.6733  0.3659
  958SOL    HW114507   1.968   3.691  11.787 -0.4190  0.3486  0.8922
  958SOL    HW214508   2.052   3.581  11.795  0.5323  1.0562 -0.5988
  959SOL     OW14509   1.471   3.446  17.056 -0.3187  0.1168 -0.3199
  959SOL    HW114510   1.402   3.501  17.092 -0.8877 -0.0072 -1.2188
  959SOL    HW214511   1.468   3.369  17.112  1.9390  0.3402  0.1323
  960SOL     OW14512   0.205   1.444   5.848  0.3938  0.3672 -0.2730
  960SOL    HW114513   0.184   1.468   5.939 -2.0769  2.6622 -1.4454
  960SOL    HW214514   0.123   1.457   5.801 -1.1135 -2.7699  1.5387
  961SOL     OW14515   1.573   1.099   9.961  0.0870  0.7288  0.3554
  961SOL    HW114516   1.513   1.172   9.978 -0.1421  1.0843 -1.9492
  961SOL    HW214517   1.520   1.021   9.977  1.3766 -0.2385 -0.1989
  962SOL     OW14518   3.253   0.251  15.943 -0.1921 -0.2305 -0.6012
  962SOL    HW114519   3.167   0.263  15.905 -0.2460  1.6652  0.1362
  962SOL    HW214520   3.285   0.341  15.941  0.4830 -0.4550 -0.2053
  963SOL     OW14521   4.410   3.185   1.572 -0.3132  0.2665 -0.2279
  963SOL    HW114522   4.384   3.097   1.599 -1.6821  0.5803 -0.5380
  963SOL    HW214523   4.484   3.157   1.518  0.0631  0.0933  0.3753
  964SOL     OW14524   2.494   4.489   9.085 -0.4424  0.4264 -0.0984
  964SOL    HW114525   2.422   4.520   9.141 -0.3361  2.2375 -0.9667
  964SOL    HW214526   2.536   4.420   9.136 -1.1114  0.0707 -0.0162
  965SOL     OW14527   3.456   3.715   8.347  0.0148  0.3147 -0.2621
  965SOL    HW114528   3.474   3.681   8.434 -0.8426  1.3787  0.3369
  965SOL    HW214529   3.510   3.652   8.300 -1.9186 -1.4966 -0.0404
  966SOL     OW14530   0.192   0.867   6.528 -0.2957 -0.0793 -0.6800
  966SOL    HW114531   0.198   0.777   6.559  1.2960  0.2098 -0.1306
  966SOL    HW214532   0.272   0.896   6.572 -0.1783 -1.0643 -0.2641
  967SOL     OW14533   1.522   1.530   3.159  0.3748  0.5508  0.2928
  967SOL    HW114534   1.559   1.478   3.230  0.7673 -0.6336 -0.7780
  967SOL    HW214535   1.435   1.535   3.201 -0.4381 -3.0699 -0.9809
  968SOL     OW14536   2.546   3.662   4.534 -0.5259  0.1955 -0.7207
  968SOL    HW114537   2.547   3.588   4.473  2.2433 -1.2983  1.1571
  968SOL    HW214538   2.581   3.733   4.481 -1.1820  1.0407 -0.0123
  969SOL     OW14539   3.308   4.492   0.459 -1.0381  0.2263 -0.1278
  969SOL    HW114540   3.295   4.477   0.553  1.4639 -0.9692  0.0251
  969SOL    HW214541   3.262   4.576   0.456  0.1697  1.0373  3.1152
  970SOL     OW14542   1.774   3.527  17.238 -0.3775  1.2467  0.1258
  970SOL    HW114543   1.835   3.601  17.243 -0.3839  1.2725 -0.2035
  970SOL    HW214544   1.728   3.547  17.157  2.3335  2.7625 -1.0104
  971SOL     OW14545   4.339   2.340   3.359 -0.2617  0.3130  0.5043
  971SOL    HW114546   4.249   2.311   3.345  0.4645 -1.3094 -0.9183
  971SOL    HW214547   4.327   2.433   3.376 -0.4802  0.6373 -1.3713
  972SOL     OW14548   1.864   0.125   8.962 -0.3502 -0.2640 -0.7224
  972SOL    HW114549   1.942   0.169   8.927  1.0904 -2.4781 -0.3128
  972SOL    HW214550   1.843   0.186   9.033  2.1109 -1.0021  0.6466
  973SOL     OW14551   3.941   2.663   8.010  0.3290  0.1877 -0.1027
  973SOL    HW114552   3.998   2.716   7.955  0.7324 -1.2594 -1.0424
  973SOL    HW214553   3.942   2.578   7.966 -2.1937  0.2165 -0.2393
  974SOL     OW14554   4.384   0.720   4.137 -0.9507  0.7199 -0.1536
  974SOL    HW114555   4.344   0.750   4.055  1.4717  1.3343 -1.0956
  974SOL    HW214556   4.304   0.687   4.178 -0.5868 -0.6568 -0.5507
  975SOL     OW14557   1.747   4.432  16.261 -0.0466  0.5975  0.3204
  975SOL    HW114558   1.680   4.427  16.329 -0.0463 -2.5025  0.1163
  975SOL    HW214559   1.793   4.507  16.298  0.1724  0.6722 -0.0969
  976SOL     OW14560   3.585   4.346   3.014 -0.0777 -0.6516  0.2193
  976SOL    HW114561   3.544   4.280   3.071  2.0826 -1.8117  0.4109
  976SOL    HW214562   3.613   4.407   3.082 -0.2158  0.2678 -0.5606
  977SOL     OW14563   4.625   0.930  14.926 -0.4239  0.3765 -0.5363
  977SOL    HW114564   4.563   0.997  14.897  0.8905  1.6858 -0.3346
  977SOL    HW214565   4.710   0.970  14.907  0.1034  0.0022  1.0698
  978SOL     OW14566   2.757   3.145   4.304  0.1517 -0.7805  0.3597
  978SOL    HW114567   2.666   3.158   4.331 -0.5011 -1.6257 -1.4427
  978SOL    HW214568   2.754   3.150   4.209 -0.9174 -1.3541  0.3607
  979SOL     OW14569   1.893   3.825   8.687 -0.3747 -0.0947  0.3906
  979SOL    HW114570   1.853   3.753   8.638 -3.4134  0.9805  1.2786
  979SOL    HW214571   1.816   3.877   8.710 -1.3653 -1.0342 -0.7582
  980SOL     OW14572   1.612   2.340  11.700  0.4224 -0.1992 -0.1002
  980SOL    HW114573   1.692   2.376  11.662  0.7268  0.0227  0.7634
  980SOL    HW214574   1.638   2.358  11.790 -1.1148  0.7022  0.1619
  981SOL     OW14575   0.574   1.652   3.618  0.2767  0.4422 -0.8524
  981SOL    HW114576   0.660   1.615   3.597  1.0696  0.4184  2.5535
  981SOL    HW214577   0.522   1.574   3.635  1.6442 -0.4587 -0.7720
  982SOL     OW14578   1.508   1.004   3.779 -0.2230 -0.3982  0.6111
  982SOL    HW114579   1.503   0.983   3.686 -1.1129 -3.2423  1.3059
  982SOL    HW214580   1.415   1.024   3.790  0.4204  1.5194  2.7631
  983SOL     OW14581   0.398   2.001  16.029 -0.0524  0.3041  0.0158
  983SOL    HW114582   0.385   2.090  16.063 -1.8704  0.2486 -0.5139
  983SOL    HW214583   0.341   2.000  15.952  1.9511 -0.3320 -1.4534
  984SOL     OW14584   3.935   2.002   5.378  0.6060 -0.2422  0.5057
  984SOL    HW114585   3.855   2.011   5.325  0.9601 -1.3122 -0.2207
  984SOL    HW214586   3.957   1.910   5.362  1.1402 -0.4330  2.3361
  985SOL     OW14587   4.016   3.557   7.342  0.3786  0.2186 -0.0766
  985SOL    HW114588   3.994   3.464   7.349 -3.7384  1.1820 -0.3102
  985SOL    HW214589   4.057   3.573   7.427 -2.3170  0.0173  1.2680
  986SOL     OW14590   2.849   0.217   4.408  0.3211 -0.2347 -0.0169
  986SOL    HW114591   2.757   0.229   4.432 -0.5050 -1.0918 -2.6626
  986SOL    HW214592   2.890   0.279   4.467 -0.5771 -0.5071  0.8916
  987SOL     OW14593   2.056   1.262   7.689  0.0984 -0.6887  0.1355
  987SOL    HW114594   2.071   1.245   7.782  0.3620  1.9051  0.5489
  987SOL    HW214595   2.146   1.286   7.668 -0.7087  1.1841 -1.2028
  988SOL     OW14596   4.101   0.568   3.797  0.7964  0.0798 -0.6342
  988SOL    HW114597   4.132   0.623   3.869 -2.1850 -1.4659  1.8146
  988SOL    HW214598   4.085   0.637   3.732 -1.5705  1.1809  1.1208
  989SOL     OW14599   2.783   1.877   4.788 -0.5185 -0.1208 -0.6058
  989SOL    HW114600   2.722   1.951   4.783 -0.1155  0.2183 -0.4423
  989SOL    HW214601   2.826   1.875   4.702  0.0534 -0.4520 -0.3092
  990SOL     OW14602   1.943   3.815   4.903 -0.0989  0.2995 -0.1612
  990SOL    HW114603   1.908   3.726   4.906  0.1018  0.2343  0.2334
  990SOL    HW214604   2.035   3.791   4.917 -0.6544 -0.4141  2.1069
  991SOL     OW14605   3.305   0.672   7.871  0.0156 -0.2144 -0.0711
  991SOL    HW114606   3.216   0.640   7.882 -0.8498  1.5834 -1.8942
  991SOL    HW214607   3.337   0.675   7.961 -0.0969 -0.2907 -0.0290
  992SOL     OW14608   1.835   0.936   7.712  0.0564  0.7179  0.1004
  992SOL    HW114609   1.769   1.004   7.723 -1.5100 -0.6567 -0.9599
  992SOL    HW214610   1.853   0.917   7.804  1.4440  1.4988 -0.0101
  993SOL     OW14611   1.168   4.581   7.276 -0.3215  0.1557 -0.1703
  993SOL    HW114612   1.194   4.665   7.313  0.5297 -0.9338  1.7309
  993SOL    HW214613   1.116   4.544   7.348  1.3116  0.1269  0.9929
  994SOL     OW14614   2.957   3.843  13.201  0.0385  0.4976 -0.4652
  994SOL    HW114615   3.036   3.812  13.156  0.0339 -2.6261  1.6627
  994SOL    HW214616   3.001   3.913  13.250 -1.6478  1.4781 -0.3545
  995SOL     OW14617   1.714   2.196  16.422  0.0724  0.2634 -0.1174
  995SOL    HW114618   1.784   2.201  16.487 -0.4776 -1.2884  0.6022
  995SOL    HW214619   1.744   2.142  16.349  1.5135  2.4221 -1.1386
  996SOL     OW14620   4.641   2.563   5.790  0.0648  0.0719  0.4465
  996SOL    HW114621   4.605   2.576   5.878  0.3898 -0.0992  0.6040
  996SOL    HW214622   4.655   2.469   5.802 -1.7100 -0.3981 -1.0498
  997SOL     OW14623   3.998   1.594   7.196 -0.2313  0.0159  0.0700
  997SOL    HW114624   4.080   1.601   7.245 -0.4480 -0.2872  0.4755
  997SOL    HW214625   3.958   1.676   7.223  1.5489  0.6223  0.8759
  998SOL     OW14626   2.055   4.526   6.208 -0.3601 -0.0939 -0.2966
  998SOL    HW114627   2.126   4.463   6.222 -0.9033 -0.7991 -0.6807
  998SOL    HW214628   2.058   4.549   6.115  0.3701 -0.9670 -0.4963
  999SOL     OW14629   1.726   2.475  10.764  0.3842 -0.0436 -0.0047
  999SOL    HW114630   1.749   2.385  10.740  1.6481  0.2759 -0.0037
  999SOL    HW214631   1.635   2.489  10.739  0.8285  1.2848 -0.8765
 1000SOL     OW14632   2.882   2.814   7.720  0.1107  0.1508  0.3439
 1000SOL    HW114633   2.873   2.905   7.749 -0.8598  0.6710 -1.6300
 1000SOL    HW214634   2.912   2.769   7.800  1.7155  0.7508  0.0832
 1001SOL     OW14635   3.949   0.854   5.196 -0.2504 -0.1114  0.1878
 1001SOL    HW114636   3.986   0.849   5.284 -0.8442 -0.6162  0.4103
 1001SOL    HW214637   3.869   0.907   5.207 -1.3397 -1.1003 -2.8084
 1002SOL     OW14638   2.660   4.105   5.162  0.0941  0.5824  0.3036
 1002SOL    HW114639   2.631   4.016   5.184 -2.9199  1.0992 -1.5869
 1002SOL    HW214640   2.748   4.114   5.199  0.4667 -0.2505 -0.3653
 1003SOL     OW14641   0.631   3.365   7.181  0.2299 -0.3907  0.3671
 1003SOL    HW114642   0.632   3.348   7.275  0.3299  0.5921  0.5353
 1003SOL    HW214643   0.708   3.421   7.175 -1.2045  1.6692  1.3746
 1004SOL     OW14644   2.938   2.259   5.139 -0.3380 -0.7419 -0.2106
 1004SOL    HW114645   2.956   2.178   5.092 -0.6747 -1.8293  1.5449
 1004SOL    HW214646   3.011   2.318   5.118  0.5503 -1.4230  0.9853
 1005SOL     OW14647   0.874   0.627  13.784  0.1966 -0.0835 -0.5452
 1005SOL    HW114648   0.785   0.662  13.776  0.8022  1.3856 -0.8328
 1005SOL    HW214649   0.861   0.533  13.793  1.7813 -0.7178 -4.7830
 1006SOL     OW14650   0.825   1.520   6.064 -0.1961  0.2643  0.6792
 1006SOL    HW114651   0.917   1.504   6.044 -0.6938 -0.5606 -0.9552
 1006SOL    HW214652   0.798   1.501   5.974 -1.4421 -0.0775  1.1207
 1007SOL     OW14653   3.346   3.208   1.238  0.1525  0.0651  0.2035
 1007SOL    HW114654   3.323   3.297   1.209 -0.5745 -0.1213  0.2078
 1007SOL    HW214655   3.262   3.167   1.259  1.4410 -1.5702  2.1247
 1008SOL     OW14656   1.300   3.368  10.600  0.1470 -0.7127  0.2394
 1008SOL    HW114657   1.362   3.326  10.659 -1.1482 -0.6410  1.6566
 1008SOL    HW214658   1.343   3.344  10.518  0.3004  0.0805  0.0879
 1009SOL     OW14659   1.706   2.377   8.231  0.1773 -0.2674  0.2049
 1009SOL    HW114660   1.727   2.306   8.292 -0.8311  0.8829  1.8953
 1009SOL    HW214661   1.612   2.388   8.246  0.1373  0.2034 -0.3854
 1010SOL     OW14662   3.444   1.184   8.163 -0.2849  0.1641  0.5087
 1010SOL    HW114663   3.414   1.167   8.074 -1.5387 -1.1913  1.1915
 1010SOL    HW214664   3.504   1.111   8.176 -1.2881 -1.2186 -2.7151
 1011SOL     OW14665   2.586   2.131  16.336  0.3682 -0.2363 -0.4111
 1011SOL    HW114666   2.624   2.069  16.275  1.6752 -0.8497  1.0197
 1011SOL    HW214667   2.635   2.109  16.416  1.4014  1.9809 -0.4277
 1012SOL     OW14668   1.797   1.747   5.919 -0.1112 -0.1510 -0.0941
 1012SOL    HW114669   1.889   1.724   5.904  0.1409  0.8114 -0.0335
 1012SOL    HW214670   1.755   1.666   5.948 -0.0048  0.0885  0.7300
 1013SOL     OW14671   3.522   3.145  12.373  0.8650  0.0467  0.2091
 1013SOL    HW114672   3.526   3.237  12.347 -2.7356 -0.0304 -0.6196
 1013SOL    HW214673   3.450   3.153  12.436  1.6986  0.6237  1.0927
 1014SOL     OW14674   2.207   3.067   5.475  0.0721 -0.2463 -0.0843
 1014SOL    HW114675   2.291   3.109   5.495  0.8007 -1.2493 -1.0035
 1014SOL    HW214676   2.221   3.067   5.380  1.5813 -2.3467  0.1433
 1015SOL     OW14677   4.146   2.467   7.873 -0.0322 -0.3766  0.1058
 1015SOL    HW114678   4.139   2.562   7.867  1.5146 -0.2177  0.8123
 1015SOL    HW214679   4.123   2.449   7.782 -0.3420 -0.2110  0.1512
 1016SOL     OW14680   2.600   4.421   3.313  0.0082  0.2880  0.3410
 1016SOL    HW114681   2.518   4.465   3.336 -0.3587 -0.4941  0.5401
 1016SOL    HW214682   2.581   4.327   3.315 -0.4665  0.3459 -1.1863
 1017SOL     OW14683   0.680   1.751  12.607 -0.4548  0.6423  0.1036
 1017SOL    HW114684   0.761   1.716  12.644 -0.0160  0.2714 -1.1708
 1017SOL    HW214685   0.713   1.831  12.566 -0.6380  0.5102 -0.3070
 1018SOL     OW14686   0.682   4.583   7.805  0.0119  0.1495  0.6158
 1018SOL    HW114687   0.719   4.625   7.728  1.6432  0.7448  1.7216
 1018SOL    HW214688   0.672   4.654   7.869  1.7274 -0.1915  1.2844
 1019SOL     OW14689   3.773   1.837   3.254 -0.3476  0.3319  0.4882
 1019SOL    HW114690   3.761   1.918   3.302  0.8300  2.1369 -2.2909
 1019SOL    HW214691   3.684   1.801   3.250 -0.9285  1.8558 -0.0972
 1020SOL     OW14692   1.152   0.888   5.470  0.1349  0.3109 -0.2150
 1020SOL    HW114693   1.127   0.838   5.393 -2.1920  1.8297 -0.4365
 1020SOL    HW214694   1.198   0.822   5.522 -1.4235 -0.1172  0.6365
 1021SOL     OW14695   1.483   3.261  16.122  0.2427  0.5071 -0.1223
 1021SOL    HW114696   1.466   3.294  16.034  1.2041 -1.6044 -1.1083
 1021SOL    HW214697   1.509   3.344  16.162 -0.2512  0.9415 -0.7017
 1022SOL     OW14698   3.159   3.976   8.211 -0.2537  0.0944  0.8383
 1022SOL    HW114699   3.132   3.916   8.280 -1.2528 -0.8348 -0.3758
 1022SOL    HW214700   3.161   4.063   8.252  0.6870  0.6811 -0.4785
 1023SOL     OW14701   0.502   1.323   6.481 -0.1944 -0.1323  0.3211
 1023SOL    HW114702   0.440   1.318   6.408  0.1674  2.8861 -0.2009
 1023SOL    HW214703   0.440   1.334   6.554 -1.9332 -0.5798 -1.0829
 1024SOL     OW14704   1.529   3.098   0.347 -0.4112  1.0299 -0.5010
 1024SOL    HW114705   1.538   3.018   0.295 -1.1519  0.0693  0.8792
 1024SOL    HW214706   1.508   3.159   0.275  1.9090  0.4168 -1.6956
 1025SOL     OW14707   3.260   0.549  16.551 -0.1602 -0.1209 -0.0132
 1025SOL    HW114708   3.296   0.486  16.489 -0.0200  2.2201 -2.3571
 1025SOL    HW214709   3.295   0.523  16.636  1.0318  0.7569 -0.2346
 1026SOL     OW14710   3.320   1.415   7.804 -0.3988  0.3770 -0.7463
 1026SOL    HW114711   3.229   1.435   7.826 -1.2084 -2.9605 -1.2188
 1026SOL    HW214712   3.332   1.335   7.856 -1.7227  2.8529  3.4255
 1027SOL     OW14713   0.412   3.783   4.609 -0.0785  0.0452 -0.5909
 1027SOL    HW114714   0.384   3.731   4.533 -0.0578  0.1609 -0.6786
 1027SOL    HW214715   0.492   3.734   4.630 -0.6592 -1.1665 -1.1952
 1028SOL     OW14716   3.412   3.348   9.451  0.0486 -0.3025 -0.3345
 1028SOL    HW114717   3.480   3.304   9.503 -0.3699 -0.7341 -0.1478
 1028SOL    HW214718   3.387   3.266   9.408  0.4161 -0.7630  0.3290
 1029SOL     OW14719   3.723   1.034  12.411 -0.3095  0.2294 -0.2337
 1029SOL    HW114720   3.642   0.992  12.383  0.0094  0.1698 -1.0868
 1029SOL    HW214721   3.789   0.970  12.384 -0.7390 -0.2029 -0.2656
 1030SOL     OW14722   4.133   4.132   4.146  0.0008 -0.5915  0.1308
 1030SOL    HW114723   4.225   4.151   4.166  0.6592 -0.9180 -2.5069
 1030SOL    HW214724   4.148   4.049   4.101  1.7520  1.0571 -2.3262
 1031SOL     OW14725   1.550   2.241   5.637  0.1825  0.1225 -0.3287
 1031SOL    HW114726   1.538   2.309   5.704  0.7347  0.6653 -0.7861
 1031SOL    HW214727   1.536   2.287   5.554 -0.3790  1.9049  0.7586
 1032SOL     OW14728   1.083   2.547   9.867  0.2319  0.2701  0.0029
 1032SOL    HW114729   1.052   2.603   9.937 -2.7376 -1.3712  0.0052
 1032SOL    HW214730   1.108   2.469   9.918  0.8041  0.6643  0.3271
 1033SOL     OW14731   3.832   4.016   4.326 -0.1507  0.6238  0.0096
 1033SOL    HW114732   3.877   4.010   4.410  0.9877  2.0237 -0.5057
 1033SOL    HW214733   3.746   4.018   4.368  0.7524 -0.5145  1.9302
 1034SOL     OW14734   2.185   0.322   6.547 -1.1127 -0.0710 -0.2244
 1034SOL    HW114735   2.168   0.404   6.500 -1.4929  0.3313  0.6157
 1034SOL    HW214736   2.204   0.363   6.631  0.3151  0.3376 -0.7382
 1035SOL     OW14737   4.172   0.903   8.322 -0.0785 -0.0903 -0.1132
 1035SOL    HW114738   4.106   0.881   8.256  1.5026 -1.5784 -1.2192
 1035SOL    HW214739   4.127   0.966   8.377  2.0920  0.1615  1.3500
 1036SOL     OW14740   2.995   1.469   2.716 -0.2514 -0.3250 -0.2347
 1036SOL    HW114741   2.956   1.478   2.629 -0.9042  0.1808  0.1104
 1036SOL    HW214742   3.030   1.557   2.724  0.6800 -0.7566  0.3589
 1037SOL     OW14743   4.701   1.495   5.732 -0.7304  0.3354  0.1126
 1037SOL    HW114744   4.668   1.578   5.764  1.0909  0.3785  1.8665
 1037SOL    HW214745   4.614   1.454   5.729 -0.7718  0.4153  0.2113
 1038SOL     OW14746   2.708   3.091   5.655  0.0481 -0.8469  0.3585
 1038SOL    HW114747   2.753   3.104   5.739 -1.3878 -0.6707  1.1101
 1038SOL    HW214748   2.684   2.998   5.654 -1.1144 -0.5257 -0.9051
 1039SOL     OW14749   4.433   3.930  10.011 -0.3527  0.0546  0.6002
 1039SOL    HW114750   4.350   3.895   9.979  0.4476 -1.8553  0.5571
 1039SOL    HW214751   4.435   4.009   9.957  2.2798 -0.9075 -0.7524
 1040SOL     OW14752   2.184   4.134   8.067 -0.2821 -0.4241  0.0201
 1040SOL    HW114753   2.217   4.141   8.156 -0.0206  2.2848 -0.3037
 1040SOL    HW214754   2.258   4.175   8.023 -1.9915  0.0505 -2.4289
 1041SOL     OW14755   3.738   2.630   3.987  0.0436 -0.0378 -0.3850
 1041SOL    HW114756   3.816   2.681   4.011  0.0393 -0.2108 -0.0017
 1041SOL    HW214757   3.681   2.703   3.963  1.9854  2.4735  2.5565
 1042SOL     OW14758   3.813   1.331   1.984  0.1123 -0.1727  0.0568
 1042SOL    HW114759   3.907   1.321   1.998 -0.2049  0.5330  2.7592
 1042SOL    HW214760   3.787   1.278   2.059 -1.5266 -0.2257 -0.5493
 1043SOL     OW14761   2.236   1.679  16.487 -0.7932 -0.5932 -0.4655
 1043SOL    HW114762   2.305   1.613  16.496 -0.7758 -0.4840  0.2380
 1043SOL    HW214763   2.240   1.686  16.392 -0.5400  1.1926 -0.3273
 1044SOL     OW14764   1.485   4.213   6.552 -0.4580  0.7087  0.2175
 1044SOL    HW114765   1.407   4.177   6.594 -1.0226  0.8550 -0.6867
 1044SOL    HW214766   1.457   4.299   6.518  0.5094  1.7239  2.0233
 1045SOL     OW14767   3.786   3.665   8.118  0.6071 -0.7078  0.2287
 1045SOL    HW114768   3.760   3.728   8.185 -0.9608 -0.6363 -0.4457
 1045SOL    HW214769   3.724   3.592   8.126 -0.7295  0.6385  2.2454
 1046SOL     OW14770   4.393   4.731  11.597  0.6429 -0.2431 -0.4278
 1046SOL    HW114771   4.478   0.017  11.563  0.3508 -0.1627 -1.1025
 1046SOL    HW214772   4.371   0.069  11.645 -1.2853 -2.0602  1.6686
 1047SOL     OW14773   2.494   1.503  16.467 -0.2243  0.6386  0.0912
 1047SOL    HW114774   2.559   1.542  16.408  0.9717 -0.2214  0.8274
 1047SOL    HW214775   2.472   1.431  16.408 -0.2056  1.7886 -1.3349
 1048SOL     OW14776   2.367   4.335  17.573 -0.1568 -0.1104 -0.4407
 1048SOL    HW114777   2.401   4.380  17.651 -2.1776  1.4443 -0.4667
 1048SOL    HW214778   2.444   4.350  17.518 -0.3850  0.1358 -0.6916
 1049SOL     OW14779   2.807   4.022   3.042  0.5931  0.0168 -1.0836
 1049SOL    HW114780   2.785   4.020   3.136  0.3530  0.4515 -1.1266
 1049SOL    HW214781   2.739   4.088   3.030 -0.4329 -0.7812  0.2991
 1050SOL     OW14782   1.508   1.920   6.864 -0.1677  0.0414  0.3183
 1050SOL    HW114783   1.540   1.976   6.935  1.2180 -0.3714  0.0213
 1050SOL    HW214784   1.534   1.974   6.789  1.6558 -2.8984 -1.1821
 1051SOL     OW14785   2.599   2.647   7.100 -0.7831  0.0436  0.9769
 1051SOL    HW114786   2.678   2.668   7.149  0.3601  0.2498 -0.9487
 1051SOL    HW214787   2.624   2.678   7.012 -0.8374 -0.9833  0.6024
 1052SOL     OW14788   1.191   1.753   8.975  0.5179 -0.2458  0.0744
 1052SOL    HW114789   1.282   1.782   8.980 -0.3663  2.1497  1.9975
 1052SOL    HW214790   1.157   1.791   9.056 -2.6604 -0.7424 -0.9907
 1053SOL     OW14791   0.145   4.336   1.692 -0.0113 -0.1714 -0.5753
 1053SOL    HW114792   0.240   4.343   1.687  0.1150 -1.6329 -0.2062
 1053SOL    HW214793   0.125   4.276   1.764  1.8626  0.8125  0.7467
 1054SOL     OW14794   1.639   1.497   1.573 -0.0993 -0.8658 -0.0317
 1054SOL    HW114795   1.638   1.403   1.554 -1.6912 -1.0507  0.9286
 1054SOL    HW214796   1.596   1.530   1.495  0.8039 -0.0125 -0.1708
 1055SOL     OW14797   3.606   3.095   8.836 -0.2485  0.8957  0.1643
 1055SOL    HW114798   3.635   3.004   8.832 -0.6459  0.7688  0.0911
 1055SOL    HW214799   3.600   3.119   8.743  0.5347  2.5674  0.5580
 1056SOL     OW14800   0.948   0.550   4.188 -0.0292  0.0649 -0.1878
 1056SOL    HW114801   0.920   0.622   4.130 -2.7101 -0.4087  0.5157
 1056SOL    HW214802   0.889   0.482   4.155  2.3022 -2.4247  0.7902
 1057SOL     OW14803   2.173   2.822   6.321 -0.1865 -1.0604 -0.1945
 1057SOL    HW114804   2.092   2.771   6.328  0.2268 -1.3441  2.6956
 1057SOL    HW214805   2.143   2.912   6.335 -3.1497 -2.0083 -0.5498
 1058SOL     OW14806   3.807   3.814   7.181  0.0120  0.2002 -0.3860
 1058SOL    HW114807   3.885   3.765   7.156  0.0678 -0.5920  1.3114
 1058SOL    HW214808   3.769   3.751   7.244 -2.4161 -0.5377 -2.5862
 1059SOL     OW14809   0.491   0.345   0.440 -0.5051 -0.0498  0.2441
 1059SOL    HW114810   0.542   0.404   0.495 -0.0264 -2.5303  2.4943
 1059SOL    HW214811   0.508   0.381   0.353  0.0468  1.9149  1.1772
 1060SOL     OW14812   1.297   4.373   7.180 -0.4462  0.0268 -0.8207
 1060SOL    HW114813   1.236   4.441   7.209  1.0962 -0.6510  4.0802
 1060SOL    HW214814   1.362   4.353   7.247 -0.9584  0.0093 -0.3248
 1061SOL     OW14815   0.232   2.112   4.846  0.1007 -0.3174  0.1644
 1061SOL    HW114816   0.178   2.157   4.781  0.1900  0.9244  0.9659
 1061SOL    HW214817   0.271   2.043   4.791 -0.5787 -1.2593  0.8612
 1062SOL     OW14818   3.140   3.378   8.657 -0.4579  0.4117 -0.1856
 1062SOL    HW114819   3.180   3.392   8.571  2.0746 -0.8637  0.7647
 1062SOL    HW214820   3.183   3.444   8.713  0.8210 -0.2122 -0.4288
 1063SOL     OW14821   0.512   0.066  10.061  0.1236  0.1840  0.7423
 1063SOL    HW114822   0.510   0.013   9.981  0.1526  0.4219  0.5842
 1063SOL    HW214823   0.444   0.027  10.116  1.7054 -0.5268  2.1982
 1064SOL     OW14824   1.132   0.716   1.508 -0.2802  0.3158 -0.0510
 1064SOL    HW114825   1.133   0.623   1.532 -0.1158  0.5216  0.7205
 1064SOL    HW214826   1.042   0.736   1.532 -0.7236 -3.0880  1.0889
 1065SOL     OW14827   3.381   0.643   4.395  0.2529  0.4120  0.1210
 1065SOL    HW114828   3.359   0.708   4.328 -0.1040 -2.1070 -2.1685
 1065SOL    HW214829   3.344   0.560   4.366 -2.2867  1.2848  0.8413
 1066SOL     OW14830   0.877   4.693   1.575 -0.3266  0.1385  0.1048
 1066SOL    HW114831   0.962   4.688   1.533  0.0846 -2.0325  1.1755
 1066SOL    HW214832   0.842   4.604   1.574 -0.0790  0.0332  0.8347
 1067SOL     OW14833   3.733   0.998   8.589 -0.3300 -0.1866  0.1140
 1067SOL    HW114834   3.651   0.965   8.553 -1.3406 -0.9649  3.1240
 1067SOL    HW214835   3.703   1.033   8.672  2.8796  1.3058  0.6516
 1068SOL     OW14836   0.176   1.920   3.469 -0.0683  0.4473 -0.3139
 1068SOL    HW114837   0.219   2.000   3.499 -0.0289 -1.1399  3.8875
 1068SOL    HW214838   0.144   1.884   3.552  0.0093 -1.4054 -1.0971
 1069SOL     OW14839   0.273   1.590   2.075  0.2763 -0.2486 -0.1272
 1069SOL    HW114840   0.187   1.552   2.090  0.2018  0.1293  0.3976
 1069SOL    HW214841   0.319   1.582   2.158 -2.2451  0.6353  1.3529
 1070SOL     OW14842   3.121   4.528   6.272 -0.6133 -0.0578  0.1973
 1070SOL    HW114843   3.152   4.617   6.257 -0.0366 -0.2963 -0.0221
 1070SOL    HW214844   3.046   4.551   6.326  1.1824  2.6870  1.5232
 1071SOL     OW14845   3.025   0.323   1.574 -0.8406  0.5233 -0.1345
 1071SOL    HW114846   3.103   0.291   1.530 -1.5632 -0.7940 -0.4737
 1071SOL    HW214847   3.012   0.256   1.641 -2.2340  0.6748 -0.2489
 1072SOL     OW14848   0.105   1.507   2.954 -0.3910  0.6510  0.0752
 1072SOL    HW114849   0.160   1.470   3.023 -0.0890  1.5995  0.3440
 1072SOL    HW214850   0.167   1.576   2.931  0.2469 -0.2701 -1.0222
 1073SOL     OW14851   4.686   2.698   5.275  0.0863  0.1705  0.4532
 1073SOL    HW114852   4.657   2.670   5.362  4.0804 -1.2970  1.3401
 1073SOL    HW214853   0.001   2.774   5.292  1.2398 -0.4739 -0.4537
 1074SOL     OW14854   3.890   0.407  12.144 -0.6529  0.1893  0.2188
 1074SOL    HW114855   3.894   0.343  12.073 -2.4576 -0.4021  0.6409
 1074SOL    HW214856   3.982   0.430  12.153 -0.6018  0.4027 -0.8285
 1075SOL     OW14857   4.039   2.910   8.160  0.0868  0.1374 -0.6420
 1075SOL    HW114858   4.058   2.859   8.238 -1.4556  2.5043  1.3014
 1075SOL    HW214859   4.080   2.867   8.086  0.3375 -1.4614  0.4352
 1076SOL     OW14860   3.622   3.348   7.227 -0.0631 -0.2192  0.2129
 1076SOL    HW114861   3.657   3.283   7.166 -0.1356  2.4123 -2.6649
 1076SOL    HW214862   3.699   3.391   7.264 -1.4476  3.6071 -1.2948
 1077SOL     OW14863   4.379   4.520   7.346 -0.1212  0.6233  0.2822
 1077SOL    HW114864   4.470   4.503   7.370 -1.3945 -2.0511  3.3079
 1077SOL    HW214865   4.366   4.428   7.323  1.6395  0.6414 -0.7439
 1078SOL     OW14866   0.427   3.507  10.384 -0.6701  0.4065 -0.1506
 1078SOL    HW114867   0.506   3.492  10.436  0.2141 -3.0651 -2.4939
 1078SOL    HW214868   0.373   3.565  10.437 -1.5641  0.0764 -0.6834
 1079SOL     OW14869   4.292   3.113   1.925 -0.3688 -0.7510  0.6125
 1079SOL    HW114870   4.385   3.129   1.943  0.0047 -0.0865 -1.9897
 1079SOL    HW214871   4.250   3.197   1.942 -0.3875 -0.8668  1.1291
 1080SOL     OW14872   0.073   0.583  10.338  0.1500 -0.1105 -0.1556
 1080SOL    HW114873   0.131   0.618  10.271 -0.5333 -1.7058 -1.5715
 1080SOL    HW214874   0.100   0.492  10.326  3.6975  1.0849 -1.1740
 1081SOL     OW14875   0.852   0.247   6.372 -0.1685 -0.0748  0.3058
 1081SOL    HW114876   0.937   0.242   6.326 -0.7322 -0.0775 -0.7447
 1081SOL    HW214877   0.788   0.232   6.302  0.8067  2.1513 -1.0562
 1082SOL     OW14878   3.816   4.227   6.879 -0.0016  0.6532 -0.1635
 1082SOL    HW114879   3.814   4.322   6.867  0.3417  0.8040  1.0166
 1082SOL    HW214880   3.778   4.211   6.966  1.7134  1.5476  0.7395
 1083SOL     OW14881   1.687   3.959   6.602  0.0051  0.2458 -0.6204
 1083SOL    HW114882   1.628   4.021   6.646  0.8496  0.5849  0.0230
 1083SOL    HW214883   1.624   3.893   6.572 -0.5025 -0.1975  1.4414
 1084SOL     OW14884   2.830   2.700   7.227  0.0577 -0.0431 -0.3901
 1084SOL    HW114885   2.925   2.691   7.221 -0.1982 -1.2107 -2.4138
 1084SOL    HW214886   2.819   2.709   7.322 -1.3579 -0.9343 -0.4674
 1085SOL     OW14887   2.069   4.344  15.389 -0.1401  0.1856 -0.9392
 1085SOL    HW114888   2.146   4.377  15.342 -1.2721  0.3992 -2.6324
 1085SOL    HW214889   2.065   4.251  15.365  0.9586 -0.6652  2.2682
 1086SOL     OW14890   4.313   0.852  12.675  0.0907  0.1006 -0.3703
 1086SOL    HW114891   4.247   0.786  12.654  1.2789 -0.6549 -1.7719
 1086SOL    HW214892   4.296   0.872  12.767 -0.9543 -1.1709 -0.2998
 1087SOL     OW14893   3.847   1.627   1.335  0.0116 -0.7100 -0.0275
 1087SOL    HW114894   3.764   1.609   1.291  0.3601 -0.9084 -0.6149
 1087SOL    HW214895   3.907   1.605   1.263  0.1539  1.3000 -0.5067
 1088SOL     OW14896   0.765   1.815   2.365 -0.1459 -0.5365  0.9079
 1088SOL    HW114897   0.849   1.790   2.328 -1.0539 -0.2476 -1.3449
 1088SOL    HW214898   0.734   1.866   2.290  2.2781  0.8642  0.8630
 1089SOL     OW14899   1.700   4.139   6.921  0.1324 -0.6843 -0.1104
 1089SOL    HW114900   1.655   4.203   6.975 -2.6383 -0.9106 -2.1300
 1089SOL    HW214901   1.742   4.193   6.854 -0.3586  0.9027  0.8742
 1090SOL     OW14902   0.916   3.397   6.176  0.0944  0.5548  0.3653
 1090SOL    HW114903   0.981   3.379   6.245 -0.2558  0.7258  0.7364
 1090SOL    HW214904   0.971   3.449   6.117 -0.7151  0.9771 -0.0073
 1091SOL     OW14905   4.487   0.934   2.674  0.0640 -0.2721 -0.0754
 1091SOL    HW114906   4.465   0.994   2.746  0.9875 -1.5431  1.2593
 1091SOL    HW214907   4.568   0.896   2.708 -0.8074  0.0859  2.4023
 1092SOL     OW14908   1.699   0.177   7.162  0.6721  0.0587 -0.2986
 1092SOL    HW114909   1.655   0.260   7.142  0.4286  0.3264  1.4151
 1092SOL    HW214910   1.752   0.165   7.083 -0.4236 -0.2840 -0.9810
 1093SOL     OW14911   2.317   4.566   3.364  0.5682  0.1897  0.2085
 1093SOL    HW114912   2.281   4.601   3.283  1.5248 -2.0113 -1.1872
 1093SOL    HW214913   2.348   4.646   3.406 -1.3401  1.2376 -0.4045
 1094SOL     OW14914   2.084   0.072   4.271 -0.0775 -1.1142  0.0223
 1094SOL    HW114915   2.120   0.035   4.191  1.1202 -1.0030  0.5166
 1094SOL    HW214916   1.993   0.042   4.265 -0.2167 -0.6016 -0.4079
 1095SOL     OW14917   1.022   2.984   5.254  0.4054 -0.1617  0.1089
 1095SOL    HW114918   1.044   3.032   5.334 -0.5544  0.7944 -0.1836
 1095SOL    HW214919   1.066   2.904   5.280  1.2359  0.9828  2.2452
 1096SOL     OW14920   1.041   1.496   9.045  0.6505 -0.3435  0.3978
 1096SOL    HW114921   0.996   1.536   9.120  3.3548 -1.3096  2.5468
 1096SOL    HW214922   1.061   1.578   8.999 -0.1742  0.2905  1.1365
 1097SOL     OW14923   3.935   3.234  14.778 -0.1959 -0.2347 -0.2230
 1097SOL    HW114924   3.983   3.269  14.703  0.6555 -2.6341 -0.7709
 1097SOL    HW214925   3.874   3.307  14.795  1.7332  1.4772 -0.6054
 1098SOL     OW14926   4.546   2.437   9.916  0.2330  0.1079 -0.4008
 1098SOL    HW114927   4.639   2.437   9.893  0.1064  1.6096 -0.8608
 1098SOL    HW214928   4.504   2.361   9.873  1.0111 -1.4030  1.5266
 1099SOL     OW14929   0.406   3.856  16.667  0.2361  0.7853  0.7763
 1099SOL    HW114930   0.399   3.948  16.641  1.7801  1.1044  1.4925
 1099SOL    HW214931   0.317   3.843  16.699 -0.3393 -0.9999 -1.6306
 1100SOL     OW14932   2.819   0.533   8.495 -0.2782  0.5357 -0.2141
 1100SOL    HW114933   2.834   0.439   8.482  0.0759  0.5332  0.2154
 1100SOL    HW214934   2.729   0.546   8.465 -0.2640 -0.3652 -0.6435
 1101SOL     OW14935   4.405   4.525   6.064  0.2513 -0.3688  0.0271
 1101SOL    HW114936   4.451   4.546   5.983  0.2632 -1.6209 -0.2860
 1101SOL    HW214937   4.443   4.444   6.098  0.6270 -0.1264  0.1795
 1102SOL     OW14938   1.951   0.179  17.742 -0.0960 -0.5619  0.0285
 1102SOL    HW114939   1.894   0.227   0.041  0.9283 -0.3225  0.7979
 1102SOL    HW214940   2.033   0.225  17.758 -1.8829  2.7007 -0.2521
 1103SOL     OW14941   0.579   1.594   7.039 -0.4606 -0.2636 -0.0482
 1103SOL    HW114942   0.594   1.670   6.982 -0.5497 -2.6607 -3.2294
 1103SOL    HW214943   0.669   1.587   7.071 -0.4491 -0.2636 -0.0813
 1104SOL     OW14944   3.715   1.073   2.611  0.8280  0.6141  0.2429
 1104SOL    HW114945   3.787   1.010   2.613  0.7849  0.5581  0.0499
 1104SOL    HW214946   3.757   1.158   2.621  1.4820  0.2116  0.8872
 1105SOL     OW14947   4.611   0.682  15.063  0.1432  0.2922 -0.4399
 1105SOL    HW114948   4.525   0.693  15.103  1.7716  1.4159  2.7644
 1105SOL    HW214949   4.608   0.767  15.018 -2.2487  0.8528  0.7360
 1106SOL     OW14950   1.301   0.565   8.879 -0.0604 -0.0973  0.2182
 1106SOL    HW114951   1.328   0.538   8.967 -0.8882 -0.3169  0.4006
 1106SOL    HW214952   1.241   0.637   8.896 -0.6612  0.1400 -2.8698
 1107SOL     OW14953   3.381   1.289  14.494 -0.0460 -0.1885  0.3320
 1107SOL    HW114954   3.400   1.352  14.425 -1.5762  0.5143  0.5390
 1107SOL    HW214955   3.455   1.229  14.483  0.9182  0.7909  1.5464
 1108SOL     OW14956   2.600   2.301  11.115  0.0364  0.3215  0.3496
 1108SOL    HW114957   2.585   2.288  11.022 -2.8476  1.6946  0.6237
 1108SOL    HW214958   2.585   2.395  11.126  1.5550  0.6831 -0.5774
 1109SOL     OW14959   3.344   0.813   2.535 -0.0379  0.4372  0.5049
 1109SOL    HW114960   3.257   0.818   2.573 -0.6761  1.4623 -1.0599
 1109SOL    HW214961   3.354   0.895   2.486  2.3601  1.1926  2.2534
 1110SOL     OW14962   4.693   4.405  11.270  0.2018  0.1092 -0.2521
 1110SOL    HW114963   4.648   4.454  11.201 -0.1797 -0.1622 -0.1939
 1110SOL    HW214964   4.726   4.471  11.331 -2.3084 -0.0400  1.2457
 1111SOL     OW14965   0.589   4.309   4.039 -0.1270  0.7785 -0.3267
 1111SOL    HW114966   0.639   4.386   4.067  0.9070  0.4958 -1.3734
 1111SOL    HW214967   0.661   4.246   4.041 -1.7756 -1.0999  0.3296
 1112SOL     OW14968   1.744   3.859  16.737  0.1052 -0.3166 -0.1477
 1112SOL    HW114969   1.709   3.922  16.800  2.0415  0.1856  0.4398
 1112SOL    HW214970   1.667   3.803  16.734  1.0150 -1.7616  3.2575
 1113SOL     OW14971   4.181   1.339  12.375 -0.0903  0.1230  0.2482
 1113SOL    HW114972   4.212   1.341  12.466  4.4430  2.8334 -1.3619
 1113SOL    HW214973   4.108   1.278  12.381  0.5027 -0.5584  0.5293
 1114SOL     OW14974   2.677   3.589   8.418  0.2314  0.3043 -0.1332
 1114SOL    HW114975   2.767   3.557   8.406 -0.0085 -0.2242 -0.5107
 1114SOL    HW214976   2.683   3.660   8.353 -0.4366  1.0205  0.5954
 1115SOL     OW14977   1.725   4.237   2.035 -0.1509  0.0796  0.6252
 1115SOL    HW114978   1.692   4.244   1.946 -0.4576 -0.6206  0.6867
 1115SOL    HW214979   1.798   4.300   2.031  1.1262 -1.4161  0.3526
 1116SOL     OW14980   2.259   2.096   2.072 -0.3328 -0.0750  0.2787
 1116SOL    HW114981   2.274   2.104   2.166 -3.1790 -2.2531  0.8883
 1116SOL    HW214982   2.170   2.065   2.057  0.1679 -1.2897 -0.1349
 1117SOL     OW14983   2.036   3.690   4.240  0.3943 -0.7113  0.6149
 1117SOL    HW114984   2.076   3.692   4.153 -1.7806  2.1669 -0.3051
 1117SOL    HW214985   2.045   3.780   4.273  2.6080 -0.4237 -0.7893
 1118SOL     OW14986   4.047   4.387   0.901  0.3563  0.2545  0.6718
 1118SOL    HW114987   4.118   4.328   0.877  0.4876 -0.0018  1.7092
 1118SOL    HW214988   4.070   4.465   0.851 -2.4515  1.1722  0.7724
 1119SOL     OW14989   4.464   1.636   2.437  0.6671  0.3589  0.4321
 1119SOL    HW114990   4.519   1.574   2.389 -0.1697  0.2476 -0.3744
 1119SOL    HW214991   4.498   1.627   2.526  0.4898  0.6162  0.5266
 1120SOL     OW14992   0.997   3.149  11.114 -0.2604  0.7539  0.6218
 1120SOL    HW114993   1.044   3.176  11.192 -0.1828  1.7958  0.2124
 1120SOL    HW214994   1.054   3.079  11.083  0.0240  0.4334  1.8823
 1121SOL     OW14995   1.974   1.767   3.204 -0.0271  0.4542  0.5656
 1121SOL    HW114996   1.897   1.791   3.255 -0.8169 -0.0792 -0.3681
 1121SOL    HW214997   2.039   1.764   3.274 -0.4365 -1.1961  0.8621
 1122SOL     OW14998   3.569   2.749   2.888 -0.1402  0.3870 -0.5567
 1122SOL    HW114999   3.635   2.682   2.873  0.5966  0.7688  1.0972
 1122SOL    HW215000   3.518   2.707   2.957  0.8010 -1.0692 -0.7565
 1123SOL     OW15001   1.623   0.182   3.529  0.5480  0.0480  0.3296
 1123SOL    HW115002   1.673   0.166   3.449  2.7768 -1.3859  2.0434
 1123SOL    HW215003   1.673   0.253   3.568 -2.2234  1.3516  1.5260
 1124SOL     OW15004   2.814   4.208   1.331 -0.1915  0.7143  0.1740
 1124SOL    HW115005   2.801   4.163   1.415  2.9584 -2.6644 -1.1371
 1124SOL    HW215006   2.803   4.297   1.362  0.9969  0.1115  2.3556
 1125SOL     OW15007   0.713   4.505   4.245 -0.0390 -0.4301 -0.1057
 1125SOL    HW115008   0.676   4.432   4.296  0.1021  0.7254  1.6587
 1125SOL    HW215009   0.699   4.572   4.312  0.9281 -0.8837  0.5518
 1126SOL     OW15010   2.618   2.990  12.848 -0.4612  0.6936 -0.3908
 1126SOL    HW115011   2.610   2.953  12.760  2.5862 -1.3838  0.1810
 1126SOL    HW215012   2.555   2.931  12.889  1.5377 -0.9655  0.2976
 1127SOL     OW15013   1.175   3.682   4.225 -0.5426  0.5840  0.1099
 1127SOL    HW115014   1.111   3.723   4.166  0.9236  1.9296 -0.5498
 1127SOL    HW215015   1.217   3.761   4.258  1.1124  0.2987 -1.2982
 1128SOL     OW15016   4.148   2.171   4.825  0.4501  0.5051  0.3659
 1128SOL    HW115017   4.059   2.205   4.812  0.1190 -0.8703 -1.0210
 1128SOL    HW215018   4.140   2.120   4.906 -2.2374  0.8219  0.3259
 1129SOL     OW15019   0.700   0.327  14.034  0.1298 -0.2899 -0.5068
 1129SOL    HW115020   0.634   0.389  14.064 -0.0508  0.6229 -2.8078
 1129SOL    HW215021   0.650   0.246  14.039  0.4310 -0.4161  0.4441
 1130SOL     OW15022   4.226   4.193   6.119  0.7207  0.5267  0.2664
 1130SOL    HW115023   4.212   4.165   6.209 -2.2623  1.5597  0.1164
 1130SOL    HW215024   4.200   4.116   6.069  0.7316 -0.8495  2.3657
 1131SOL     OW15025   3.932   1.941  15.754 -0.2518  0.1996 -0.0034
 1131SOL    HW115026   3.928   2.032  15.782  0.1896  0.7131 -1.6539
 1131SOL    HW215027   3.851   1.937  15.702  0.8206 -1.1729 -1.5615
 1132SOL     OW15028   2.151   4.686   4.044  0.1608 -0.5490  0.3222
 1132SOL    HW115029   2.064   4.670   4.006 -0.0653  1.1138  0.1697
 1132SOL    HW215030   2.165   4.602   4.088  0.4652 -1.6624 -1.9032
 1133SOL     OW15031   0.359   3.995   7.588  0.1187 -0.1263 -0.0336
 1133SOL    HW115032   0.389   4.086   7.586  0.3433 -0.1776  0.8582
 1133SOL    HW215033   0.381   3.974   7.679 -2.9136 -0.7188  0.5920
 1134SOL     OW15034   0.896   0.802  17.313 -0.1118  0.2162 -0.0861
 1134SOL    HW115035   0.812   0.755  17.318 -0.5044  0.9062 -0.0827
 1134SOL    HW215036   0.875   0.867  17.381 -1.5319 -1.0340  0.6720
 1135SOL     OW15037   4.151   1.075  10.253  0.0965  0.3460 -0.4149
 1135SOL    HW115038   4.197   0.991  10.255  0.6649  0.7063  1.4154
 1135SOL    HW215039   4.069   1.043  10.291  0.5272  0.1656  0.3629
 1136SOL     OW15040   3.689   4.648   5.529 -0.3395 -0.1112  0.6069
 1136SOL    HW115041   3.752   4.706   5.486  1.3402 -0.8328  2.0954
 1136SOL    HW215042   3.723   4.560   5.512  0.8196  0.6453 -1.0117
 1137SOL     OW15043   0.087   3.133   4.499  0.6580 -0.1025  0.5722
 1137SOL    HW115044   0.001   3.166   4.527  0.3895 -0.8207  0.5862
 1137SOL    HW215045   0.062   3.052   4.455  1.9886  0.2811 -0.8748
 1138SOL     OW15046   3.916   2.935  11.017 -0.2416 -0.3842 -0.0484
 1138SOL    HW115047   3.836   2.967  11.060 -1.4126  0.4829 -2.8786
 1138SOL    HW215048   3.982   3.001  11.038  1.2199 -0.9756 -2.7922
 1139SOL     OW15049   3.338   2.260  13.495 -0.7705 -0.0647 -0.1039
 1139SOL    HW115050   3.279   2.298  13.561  1.7202 -0.7779  2.5385
 1139SOL    HW215051   3.400   2.333  13.487  0.5294 -1.0693  0.8565
 1140SOL     OW15052   3.883   0.995   5.602 -0.0557 -0.1618  0.0462
 1140SOL    HW115053   3.853   0.915   5.560  0.1565  0.3233 -1.0394
 1140SOL    HW215054   3.936   1.039   5.535 -0.3332  0.4663  0.2316
 1141SOL     OW15055   2.417   0.565   7.274  0.2138  0.0014 -0.2457
 1141SOL    HW115056   2.415   0.556   7.178  1.8877 -1.6939 -0.1260
 1141SOL    HW215057   2.326   0.543   7.294  0.0283  1.8191  0.9201
 1142SOL     OW15058   2.617   1.681   8.275  0.3195 -0.2193  0.0501
 1142SOL    HW115059   2.593   1.744   8.207 -0.2772 -0.0865  0.3882
 1142SOL    HW215060   2.527   1.652   8.292  0.1207  1.5728  2.0779
 1143SOL     OW15061   1.747   1.409  16.986 -0.1505  0.2274  0.3380
 1143SOL    HW115062   1.662   1.373  16.961 -0.6321  1.7836 -0.2469
 1143SOL    HW215063   1.750   1.480  16.922 -1.0077  1.6132  1.8411
 1144SOL     OW15064   4.092   1.001   6.041  0.4226 -0.1951 -0.5722
 1144SOL    HW115065   4.053   0.919   6.010  1.2375  1.0079 -4.7816
 1144SOL    HW215066   4.043   1.011   6.122 -1.2235 -2.0517 -1.3262
 1145SOL     OW15067   1.654   3.256   3.853  0.1279 -0.2125  0.1031
 1145SOL    HW115068   1.684   3.172   3.818 -0.2636  0.7251 -2.5286
 1145SOL    HW215069   1.616   3.288   3.771 -1.7888 -0.0687  1.0432
 1146SOL     OW15070   1.682   4.058   7.675 -0.8225  0.2840 -0.5059
 1146SOL    HW115071   1.699   4.053   7.769  0.6942  0.1490 -0.7916
 1146SOL    HW215072   1.589   4.080   7.676 -1.1468 -1.1126 -1.1067
 1147SOL     OW15073   3.403   4.646   4.661 -0.5159 -0.4172  0.0820
 1147SOL    HW115074   3.433   4.660   4.750 -3.8150  0.2120  1.0690
 1147SOL    HW215075   3.479   4.668   4.606 -1.3002  2.8077  0.3317
 1148SOL     OW15076   1.029   3.596   5.290 -0.6263  0.0181 -1.0003
 1148SOL    HW115077   0.970   3.635   5.354  0.0038  0.9431 -0.9821
 1148SOL    HW215078   1.090   3.668   5.272  0.9202 -1.1667 -0.5111
 1149SOL     OW15079   1.162   2.227   3.426  0.2467 -0.2061 -0.3511
 1149SOL    HW115080   1.172   2.230   3.330 -2.3322 -0.6828 -0.6419
 1149SOL    HW215081   1.079   2.268   3.449  0.2179 -0.7369  0.4768
 1150SOL     OW15082   0.680   4.493   5.574  0.1532  0.5398  0.1587
 1150SOL    HW115083   0.629   4.546   5.513  0.7724 -1.0217 -1.7586
 1150SOL    HW215084   0.733   4.439   5.515  0.5501  2.5269 -1.2922
 1151SOL     OW15085   4.605   3.811   4.955  0.2188  0.2311  0.0076
 1151SOL    HW115086   4.522   3.830   4.912  0.7213 -0.3623 -1.2214
 1151SOL    HW215087   4.607   3.716   4.955  1.4008  0.2669  3.2071
 1152SOL     OW15088   4.339   4.025   5.067  0.5012 -0.7082 -0.4707
 1152SOL    HW115089   4.324   3.999   5.157  0.6394 -1.4889 -0.6701
 1152SOL    HW215090   4.281   4.101   5.067 -0.3980 -1.3949 -2.9781
 1153SOL     OW15091   3.347   1.680   1.205 -0.3394  0.5539  0.6389
 1153SOL    HW115092   3.256   1.670   1.232 -0.5980 -0.6029 -0.6845
 1153SOL    HW215093   3.326   1.739   1.133 -0.4596  1.0927  1.1164
 1154SOL     OW15094   1.365   1.803  10.606  0.3446 -0.4805 -0.5846
 1154SOL    HW115095   1.320   1.809  10.690  0.6231 -0.9638 -0.3987
 1154SOL    HW215096   1.452   1.768  10.627  0.2102  0.5571  1.7341
 1155SOL     OW15097   2.188   1.497   9.550 -0.0177  0.1236 -0.2773
 1155SOL    HW115098   2.138   1.433   9.600 -1.2732  1.9405  0.7981
 1155SOL    HW215099   2.267   1.446   9.533 -0.1636  0.4452 -1.8993
 1156SOL     OW15100   3.251   2.279   7.090 -0.0055  0.4626 -0.0981
 1156SOL    HW115101   3.300   2.220   7.147 -0.8177  0.5035  0.6639
 1156SOL    HW215102   3.275   2.361   7.133  2.0865 -0.0407 -0.3298
 1157SOL     OW15103   2.507   3.053   1.591  0.1114  0.3329  0.5183
 1157SOL    HW115104   2.479   3.014   1.508  0.6806 -2.5375  1.7020
 1157SOL    HW215105   2.431   3.100   1.625 -1.4686 -1.2133 -0.8822
 1158SOL     OW15106   0.027   0.899   4.095  0.2586 -0.5949 -0.2249
 1158SOL    HW115107   0.105   0.891   4.149  0.4871  0.4398 -0.3993
 1158SOL    HW215108   0.035   0.832   4.027  0.6929  0.9606 -1.6989
 1159SOL     OW15109   3.883   4.561   7.227 -0.5852  0.2530 -0.2998
 1159SOL    HW115110   3.952   4.529   7.284 -1.2311 -0.8414 -0.1445
 1159SOL    HW215111   3.803   4.513   7.247 -0.4116 -0.1952 -0.6898
 1160SOL     OW15112   2.150   3.986   9.953 -0.3297 -0.4779  0.5408
 1160SOL    HW115113   2.061   3.958   9.929 -0.6186  1.9920 -1.3506
 1160SOL    HW215114   2.208   3.919   9.916 -0.8681 -0.2661 -0.7165
 1161SOL     OW15115   2.488   1.411   3.885 -0.4788 -0.2617 -0.0382
 1161SOL    HW115116   2.543   1.397   3.962  1.8156  1.3821 -1.3465
 1161SOL    HW215117   2.452   1.323   3.889 -2.6112  0.6086 -0.3300
 1162SOL     OW15118   0.677   1.595   9.974  0.0011  0.3116 -0.0440
 1162SOL    HW115119   0.721   1.513   9.952 -2.3213 -0.7073 -0.8744
 1162SOL    HW215120   0.597   1.561  10.013 -1.4104  2.8425 -0.7778
 1163SOL     OW15121   4.286   0.203   4.832 -0.3253  0.2673  0.6224
 1163SOL    HW115122   4.291   0.282   4.886  0.7675  1.2583 -0.9069
 1163SOL    HW215123   4.374   0.184   4.799  0.0122  0.4123  1.4449
 1164SOL     OW15124   2.016   1.861   4.245  0.2347  0.0706 -0.0824
 1164SOL    HW115125   2.066   1.867   4.164 -1.7797  0.4652 -1.3164
 1164SOL    HW215126   1.930   1.883   4.208 -0.2844  0.4443  1.3366
 1165SOL     OW15127   2.515   3.523   7.137 -0.1362  0.1561  0.3671
 1165SOL    HW115128   2.549   3.453   7.082 -3.6484 -0.6619 -0.8167
 1165SOL    HW215129   2.472   3.562   7.060  0.2441 -0.5569 -0.1998
 1166SOL     OW15130   2.163   1.145   1.692  0.4702  0.3831  1.0744
 1166SOL    HW115131   2.109   1.221   1.670 -0.6182 -0.6165  0.3357
 1166SOL    HW215132   2.240   1.173   1.642 -0.5912  1.0677 -0.1659
 1167SOL     OW15133   3.458   4.620   8.486 -0.5872 -0.4250  0.2212
 1167SOL    HW115134   3.464   4.689   8.552  1.6699  0.1188 -0.5435
 1167SOL    HW215135   3.363   4.627   8.475 -0.8799 -4.5395  0.1539
 1168SOL     OW15136   3.234   1.121   8.304 -0.3105 -0.0728  0.5313
 1168SOL    HW115137   3.166   1.184   8.331 -0.4592 -0.8021  1.8490
 1168SOL    HW215138   3.294   1.164   8.243 -0.9850  0.8088  0.4818
 1169SOL     OW15139   1.908   4.092  11.747 -0.0040  0.4659 -0.1744
 1169SOL    HW115140   1.926   4.027  11.815  2.1663  0.1935 -1.0071
 1169SOL    HW215141   1.972   4.061  11.684 -0.2527  1.9187 -1.1406
 1170SOL     OW15142   4.535   4.110   4.870 -0.2785  0.5714 -0.0840
 1170SOL    HW115143   4.473   4.080   4.937  0.0641  1.5595  0.6812
 1170SOL    HW215144   4.476   4.155   4.809 -1.1455 -0.3787  0.0478
 1171SOL     OW15145   2.215   2.910   1.080 -0.9661 -0.0515  0.1245
 1171SOL    HW115146   2.225   2.816   1.086 -0.2800  0.0284  0.2205
 1171SOL    HW215147   2.151   2.926   1.149  0.7531  0.1378  1.6890
 1172SOL     OW15148   2.807   4.159   8.280  0.3413 -0.3638  0.3942
 1172SOL    HW115149   2.853   4.234   8.242  0.8298 -0.4672  0.7801
 1172SOL    HW215150   2.846   4.153   8.367  0.2006 -1.1357  0.4037
 1173SOL     OW15151   4.616   1.355   4.593  0.0591 -0.0109 -0.0029
 1173SOL    HW115152   4.534   1.375   4.638 -0.6514  2.3396 -2.3680
 1173SOL    HW215153   4.676   1.402   4.651  1.2080  2.0320 -2.9063
 1174SOL     OW15154   3.608   4.265   8.797  0.3454 -0.0221 -0.2109
 1174SOL    HW115155   3.549   4.306   8.732  0.1107  0.5913  0.3826
 1174SOL    HW215156   3.660   4.205   8.743  3.1990  1.4275  0.9337
 1175SOL     OW15157   4.401   3.133   7.849  0.6162 -0.0878 -0.0128
 1175SOL    HW115158   4.447   3.197   7.903  0.8370 -2.3250  2.4003
 1175SOL    HW215159   4.353   3.192   7.790  1.5868  2.1214  1.4175
 1176SOL     OW15160   4.337   1.242   6.526  0.6045 -0.7570  0.1371
 1176SOL    HW115161   4.286   1.187   6.466  1.8263 -1.3074 -0.3996
 1176SOL    HW215162   4.390   1.170   6.559 -0.1920 -1.8533 -0.9560
 1177SOL     OW15163   4.097   1.973   3.116  0.0926  0.0010  0.0122
 1177SOL    HW115164   4.167   1.963   3.180  0.7603 -2.1232 -1.0568
 1177SOL    HW215165   4.028   1.983   3.182 -2.0760 -0.7884 -2.1548
 1178SOL     OW15166   3.199   2.709   2.210  0.3878 -0.4636 -0.0321
 1178SOL    HW115167   3.109   2.734   2.189  0.9295  0.2086 -1.5403
 1178SOL    HW215168   3.233   2.790   2.249  0.6972 -0.4660 -0.3045
 1179SOL     OW15169   4.458   1.804   7.588 -0.3231  0.4898 -0.3410
 1179SOL    HW115170   4.550   1.827   7.579 -0.6422  1.5134 -1.0469
 1179SOL    HW215171   4.456   1.710   7.574 -0.3529  0.5218 -0.5567
 1180SOL     OW15172   4.461   1.804  17.076 -0.0536  0.1488 -0.3075
 1180SOL    HW115173   4.534   1.759  17.033  1.7782  1.4911  1.3868
 1180SOL    HW215174   4.405   1.821  17.001 -0.5999 -0.0021  0.0645
 1181SOL     OW15175   3.384   0.697   9.156 -0.0783  0.0717  0.4769
 1181SOL    HW115176   3.290   0.714   9.149 -0.1924 -0.4301  0.7554
 1181SOL    HW215177   3.428   0.782   9.157 -0.7229  0.4058 -0.2043
 1182SOL     OW15178   3.367   0.175   5.743 -0.2338  0.3562 -0.2941
 1182SOL    HW115179   3.294   0.223   5.704  1.0354  0.7525 -2.1924
 1182SOL    HW215180   3.334   0.088   5.723  0.9810 -0.5002  1.4158
 1183SOL     OW15181   0.523   3.003   8.797  0.0610  0.3175  0.0622
 1183SOL    HW115182   0.461   2.930   8.797  0.3905  0.0411 -0.1376
 1183SOL    HW215183   0.480   3.058   8.863  0.3654 -0.9750  1.3173
 1184SOL     OW15184   1.387   0.799   8.290  0.1994  0.4310 -0.5410
 1184SOL    HW115185   1.459   0.858   8.311  0.0400 -0.2468  1.9643
 1184SOL    HW215186   1.313   0.859   8.301 -1.1165 -1.5973  1.6045
 1185SOL     OW15187   1.106   3.103   5.012 -0.2110 -0.3261  0.7813
 1185SOL    HW115188   1.183   3.059   4.976 -0.4829 -0.5877  0.5122
 1185SOL    HW215189   1.111   3.092   5.107 -0.0735  0.0141  0.8103
 1186SOL     OW15190   2.075   0.289   7.567  0.0748 -0.1407  0.8245
 1186SOL    HW115191   2.117   0.374   7.556 -1.2529  0.3186 -0.6578
 1186SOL    HW215192   2.130   0.259   7.640 -0.0416  1.3044  1.4965
 1187SOL     OW15193   2.451   1.554   1.924  0.3393  0.2829 -0.0259
 1187SOL    HW115194   2.431   1.646   1.942 -0.8921 -0.1932  1.0274
 1187SOL    HW215195   2.417   1.556   1.834 -0.0316  1.1482  0.1338
 1188SOL     OW15196   3.146   0.300   4.977  0.0489 -0.1810  0.2660
 1188SOL    HW115197   3.139   0.271   5.068  1.3361  1.0476  0.7424
 1188SOL    HW215198   3.148   0.210   4.943  0.5074  0.2753 -0.8944
 1189SOL     OW15199   4.499   0.509   4.708  0.6853 -0.4218  0.1095
 1189SOL    HW115200   4.439   0.537   4.638  0.0189  2.7582  1.9301
 1189SOL    HW215201   4.534   0.430   4.669 -0.2502 -0.9134  0.2595
 1190SOL     OW15202   1.887   4.391   7.144 -1.0040  0.0808 -0.3278
 1190SOL    HW115203   1.872   4.388   7.238  0.1303 -1.9075 -0.2216
 1190SOL    HW215204   1.843   4.470   7.113 -0.5275  0.3705 -0.2633
 1191SOL     OW15205   3.800   3.564   9.453  0.3768 -0.1572  0.0282
 1191SOL    HW115206   3.811   3.647   9.500 -2.2177 -0.7049  1.5613
 1191SOL    HW215207   3.835   3.516   9.528  0.9973 -1.3824 -1.0507
 1192SOL     OW15208   3.322   1.140   4.462  0.4139  0.3634 -0.0581
 1192SOL    HW115209   3.331   1.058   4.413  1.1613  1.5066 -1.8419
 1192SOL    HW215210   3.346   1.201   4.392 -0.1110 -0.6939 -1.1621
 1193SOL     OW15211   1.877   4.681  16.615  0.6676 -0.3700 -0.7686
 1193SOL    HW115212   1.791   4.659  16.650  0.0837  2.6096 -0.3373
 1193SOL    HW215213   1.917   4.713  16.696 -0.9467  0.8974 -0.4856
 1194SOL     OW15214   1.957   3.902  14.156  0.5026 -0.0138  0.2831
 1194SOL    HW115215   2.003   3.835  14.106 -1.4787 -1.6879  0.7305
 1194SOL    HW215216   2.031   3.929  14.211 -0.3893  2.1669  0.4328
 1195SOL     OW15217   3.140   0.714  16.890  0.1340 -0.0091  0.0198
 1195SOL    HW115218   3.104   0.785  16.836  0.8318 -0.3127 -0.8406
 1195SOL    HW215219   3.176   0.754  16.968 -2.9167  1.8185  0.4981
 1196SOL     OW15220   4.529   2.846   3.228  0.1767 -0.2058 -0.3153
 1196SOL    HW115221   4.568   2.838   3.141  0.7592  0.0490 -0.0746
 1196SOL    HW215222   4.506   2.938   3.237 -3.1580 -1.0588 -0.1271
 1197SOL     OW15223   2.032   0.728   2.767  0.0946 -0.4437  0.7089
 1197SOL    HW115224   1.964   0.678   2.811  0.0916  1.7995  3.2142
 1197SOL    HW215225   1.964   0.788   2.736  0.1058  0.1981  1.9254
 1198SOL     OW15226   1.455   4.647   6.658 -0.0612 -0.0867  0.3640
 1198SOL    HW115227   1.414   4.590   6.724  0.7358 -0.0362  0.9043
 1198SOL    HW215228   1.404   4.725   6.679 -0.1231 -0.2435  0.7965
 1199SOL     OW15229   1.616   3.098  16.895 -0.5228 -0.1464  0.0515
 1199SOL    HW115230   1.711   3.108  16.900 -0.5575 -0.4375  1.1609
 1199SOL    HW215231   1.607   3.133  16.806  0.6060 -0.8440 -0.3451
 1200SOL     OW15232   0.022   3.364   1.123 -0.5507  0.1876 -0.0356
 1200SOL    HW115233   0.088   3.312   1.169 -0.9704 -1.5200 -1.3514
 1200SOL    HW215234   4.690   3.302   1.128  0.0546 -0.5488 -0.2176
 1201SOL     OW15235   2.297   3.461   6.922  0.1593 -0.0316 -0.0313
 1201SOL    HW115236   2.285   3.416   6.838  0.8466 -1.1048  0.4592
 1201SOL    HW215237   2.339   3.543   6.896  2.3986 -0.5275  2.0661
 1202SOL     OW15238   1.807   2.763  11.778  0.1550 -0.4457 -0.0322
 1202SOL    HW115239   1.801   2.791  11.869 -1.0308  2.5140 -1.0256
 1202SOL    HW215240   1.714   2.760  11.757  0.2147  0.7348 -0.4762
 1203SOL     OW15241   0.605   0.564   7.755  0.1247 -0.3307 -0.2978
 1203SOL    HW115242   0.515   0.533   7.768 -0.1429 -0.1801 -1.7585
 1203SOL    HW215243   0.589   0.645   7.707 -0.6960 -0.3600 -0.0826
 1204SOL     OW15244   3.828   0.229   2.295  0.0203  0.1458 -0.5243
 1204SOL    HW115245   3.734   0.238   2.280 -0.4184 -2.0334  0.9984
 1204SOL    HW215246   3.855   0.321   2.286 -2.3477  0.8951 -0.0174
 1205SOL     OW15247   0.062   1.455   2.147  0.1367  0.3413  0.3239
 1205SOL    HW115248   0.020   1.444   2.233  0.4449 -1.4950  0.2379
 1205SOL    HW215249   0.058   1.367   2.110 -0.3156 -0.0716  1.3297
 1206SOL     OW15250   0.569   4.433   8.132  0.4258  0.2678  0.6438
 1206SOL    HW115251   0.547   4.514   8.178 -1.5615 -0.5162  1.0667
 1206SOL    HW215252   0.664   4.429   8.122  0.2624 -1.4551 -0.3169
 1207SOL     OW15253   3.491   4.187   6.741 -0.1054  0.4132 -0.4254
 1207SOL    HW115254   3.500   4.139   6.823 -2.8042  0.5294 -0.0495
 1207SOL    HW215255   3.479   4.116   6.678 -0.6582 -1.0361  1.3202
 1208SOL     OW15256   3.332   2.780   8.092  0.1240 -0.2975 -0.6323
 1208SOL    HW115257   3.378   2.852   8.050 -0.2243  0.7179  0.7343
 1208SOL    HW215258   3.316   2.818   8.179 -2.0758  1.4455 -1.8070
 1209SOL     OW15259   1.546   2.918   7.597  0.9519 -0.1124 -0.5436
 1209SOL    HW115260   1.629   2.906   7.642 -0.2096 -3.0831  0.8845
 1209SOL    HW215261   1.564   2.870   7.516  2.7196  1.3564 -1.0176
 1210SOL     OW15262   2.069   0.740   2.196 -0.0290 -0.1805  0.4045
 1210SOL    HW115263   2.135   0.784   2.143  1.2539 -0.7598  1.5128
 1210SOL    HW215264   1.990   0.761   2.145  0.4889  0.2264 -0.2324
 1211SOL     OW15265   0.439   0.639   1.936  0.2037  0.4527  0.2070
 1211SOL    HW115266   0.469   0.557   1.897 -0.9986 -0.0424  0.3197
 1211SOL    HW215267   0.451   0.702   1.865  1.5696  1.0128  0.9377
 1212SOL     OW15268   2.235   1.433   6.985  0.1334 -0.0435  0.2613
 1212SOL    HW115269   2.197   1.514   6.952 -3.6117 -0.9874  2.2456
 1212SOL    HW215270   2.264   1.397   6.902 -2.0129  2.9851 -1.7894
 1213SOL     OW15271   4.069   1.484   5.042 -0.6547  0.1104 -0.0691
 1213SOL    HW115272   4.033   1.536   4.970  0.2012 -0.0842 -0.6400
 1213SOL    HW215273   4.131   1.540   5.090 -0.2186  0.5534 -1.1457
 1214SOL     OW15274   2.522   4.097  13.974 -0.0124 -0.5781 -0.0946
 1214SOL    HW115275   2.478   4.182  13.976  2.1470  0.5401  0.3810
 1214SOL    HW215276   2.447   4.047  14.004  1.6191 -1.6970  2.0656
 1215SOL     OW15277   1.695   0.847   6.103  0.1523 -0.1267 -0.2050
 1215SOL    HW115278   1.701   0.903   6.025 -2.6872 -1.9578 -1.7435
 1215SOL    HW215279   1.642   0.905   6.158  1.2682  0.8052 -0.1195
 1216SOL     OW15280   4.600   0.726  11.157  0.4520  0.1134 -0.3518
 1216SOL    HW115281   4.683   0.708  11.201 -0.1121 -0.1031  0.6408
 1216SOL    HW215282   4.627   0.787  11.088 -1.2023  0.5705 -0.5905
 1217SOL     OW15283   4.399   2.346   9.251  0.0598 -0.2509 -0.0271
 1217SOL    HW115284   4.344   2.422   9.269  0.1462 -0.0668 -0.5429
 1217SOL    HW215285   4.432   2.361   9.162  0.0584  0.2375  0.0549
 1218SOL     OW15286   4.661   0.140   2.489  0.7844  0.0377 -0.3050
 1218SOL    HW115287   0.013   0.163   2.488  0.2147  2.2640 -1.5187
 1218SOL    HW215288   4.642   0.139   2.396 -0.2690  0.9908 -0.1155
 1219SOL     OW15289   1.696   1.398   6.649  0.1144  0.2250  0.4172
 1219SOL    HW115290   1.698   1.484   6.691 -0.7258  0.7154 -0.5595
 1219SOL    HW215291   1.614   1.364   6.686 -0.2484 -0.0979 -0.6923
 1220SOL     OW15292   0.938   1.326   3.086 -0.1696  0.6859 -0.5010
 1220SOL    HW115293   1.033   1.332   3.076 -0.2199 -1.9209 -2.5104
 1220SOL    HW215294   0.936   1.282   3.171  2.4608  2.3309  0.4279
 1221SOL     OW15295   0.116   1.799   1.233 -0.4578  0.0989  0.4039
 1221SOL    HW115296   0.173   1.736   1.277 -0.7238 -0.0058  0.5971
 1221SOL    HW215297   0.128   1.766   1.144  0.1116  0.0994  0.4796
 1222SOL     OW15298   1.254   4.506   2.155  0.4585 -0.0558  0.7585
 1222SOL    HW115299   1.205   4.584   2.129 -0.1993 -0.1504  1.7103
 1222SOL    HW215300   1.227   4.447   2.085 -1.6259  0.6201  0.9958
 1223SOL     OW15301   2.599   3.411   3.708 -0.3752 -0.4711 -0.1431
 1223SOL    HW115302   2.530   3.345   3.699 -0.7693 -0.0437 -0.1926
 1223SOL    HW215303   2.596   3.464   3.629 -1.2644 -0.5544 -0.1626
 1224SOL     OW15304   2.558   1.991   6.166 -0.1447  0.1539  0.1528
 1224SOL    HW115305   2.489   1.928   6.186 -0.0973 -0.1208 -0.5435
 1224SOL    HW215306   2.518   2.040   6.094 -2.8561 -1.7345  0.3777
 1225SOL     OW15307   3.582   1.994   7.100  0.1562 -0.4095  0.0694
 1225SOL    HW115308   3.631   2.061   7.147  1.2474 -0.9451 -0.3107
 1225SOL    HW215309   3.569   1.931   7.171 -1.2282  0.9102  0.9875
 1226SOL     OW15310   2.348   0.873   9.179 -0.2007  0.2807  0.4262
 1226SOL    HW115311   2.258   0.848   9.157  0.3310 -0.3622 -1.0838
 1226SOL    HW215312   2.338   0.891   9.272 -0.2259  1.2268  0.2393
 1227SOL     OW15313   1.333   4.438   6.526  0.3444  0.5879  0.1237
 1227SOL    HW115314   1.260   4.492   6.497 -0.4147 -0.3409  0.3260
 1227SOL    HW215315   1.406   4.496   6.548  0.8922 -0.3138  0.6963
 1228SOL     OW15316   0.530   4.223   0.219 -0.1127 -0.0964 -0.0325
 1228SOL    HW115317   0.482   4.305   0.227  0.6588  0.4218 -0.6925
 1228SOL    HW215318   0.561   4.213   0.309  1.6261 -0.3747 -0.6607
 1229SOL     OW15319   1.574   0.051   8.322  0.3639  0.1113  0.0430
 1229SOL    HW115320   1.550   0.143   8.335  0.1380  0.1058 -0.3205
 1229SOL    HW215321   1.547   0.003   8.400 -2.9310 -3.0256 -3.0477
 1230SOL     OW15322   3.770   2.091   4.922  0.5008  0.0790  0.4024
 1230SOL    HW115323   3.691   2.144   4.920 -0.9470 -2.0662  0.1588
 1230SOL    HW215324   3.802   2.109   4.834 -1.3670 -0.3440 -0.3481
 1231SOL     OW15325   3.092   3.434   8.138  0.2132  0.0080  0.5807
 1231SOL    HW115326   3.179   3.439   8.098 -1.8870  1.4048 -3.7924
 1231SOL    HW215327   3.044   3.390   8.067  1.1952 -0.2130  0.0511
 1232SOL     OW15328   2.907   3.030   8.341  0.3926 -0.3719  0.2283
 1232SOL    HW115329   2.845   3.094   8.375  0.8730  0.1038  0.1964
 1232SOL    HW215330   2.973   3.037   8.409  0.9946 -0.9842 -0.2932
 1233SOL     OW15331   3.358   3.096   2.985 -0.4251  0.3198 -0.6179
 1233SOL    HW115332   3.264   3.113   2.978 -1.1518 -3.5953 -0.2812
 1233SOL    HW215333   3.365   3.027   3.050 -0.1256 -0.7542 -1.7892
 1234SOL     OW15334   2.303   1.171   8.658  0.0446 -0.7850 -0.0761
 1234SOL    HW115335   2.250   1.092   8.649 -1.3551  0.0057  1.3561
 1234SOL    HW215336   2.378   1.136   8.707  0.8478  0.8409 -0.1426
 1235SOL     OW15337   0.404   3.058   4.219 -0.0608 -0.9824 -0.0279
 1235SOL    HW115338   0.328   3.082   4.166  0.0974 -0.8373 -0.1893
 1235SOL    HW215339   0.477   3.090   4.167 -0.6143 -0.1297 -0.2930
 1236SOL     OW15340   1.994   2.899   6.752 -0.1822 -0.4044 -0.3906
 1236SOL    HW115341   2.051   2.860   6.686 -0.2239 -0.6201 -0.2982
 1236SOL    HW215342   1.983   2.988   6.718 -2.0301 -1.4881 -2.6420
 1237SOL     OW15343   0.945   3.829   6.726 -0.5175  0.4091  0.4738
 1237SOL    HW115344   0.856   3.818   6.760 -2.0329 -1.2220 -4.0722
 1237SOL    HW215345   0.951   3.752   6.669  0.4325 -0.4025  1.6797
 1238SOL     OW15346   2.642   1.210   7.520 -0.1775  0.6919  0.5678
 1238SOL    HW115347   2.653   1.304   7.534  2.5449  0.2031  1.8789
 1238SOL    HW215348   2.555   1.209   7.482  1.3196 -0.8977 -2.7945
 1239SOL     OW15349   3.071   2.773   5.545  0.5990  0.0871 -0.5138
 1239SOL    HW115350   3.162   2.797   5.527  0.1109  1.2477 -1.4617
 1239SOL    HW215351   3.091   2.681   5.559  1.3410  0.5468  1.4133
 1240SOL     OW15352   4.535   0.411   7.723  0.5235 -0.1383 -0.3812
 1240SOL    HW115353   4.571   0.493   7.758  2.3980 -1.5065  0.9408
 1240SOL    HW215354   4.607   0.368   7.677  3.4392  3.5615  0.6233
 1241SOL     OW15355   4.540   4.411  17.183  0.4503  0.1396 -0.3031
 1241SOL    HW115356   4.557   4.326  17.142 -1.0163 -0.3404  0.0917
 1241SOL    HW215357   4.530   4.381  17.273  1.3175 -2.2628 -1.0061
 1242SOL     OW15358   3.845   2.486  16.994 -0.4738 -0.5142 -0.1647
 1242SOL    HW115359   3.838   2.525  16.906 -1.5389  2.7385  1.3568
 1242SOL    HW215360   3.762   2.438  16.999  0.5250 -2.1357  0.7543
 1243SOL     OW15361   2.857   0.711  12.754  0.3992 -0.0436  1.1015
 1243SOL    HW115362   2.770   0.722  12.792  0.4552  1.9542  0.6094
 1243SOL    HW215363   2.849   0.620  12.724  0.3536 -0.3911  2.1494
 1244SOL     OW15364   3.704   1.376   9.022 -0.0655 -0.2022 -0.4793
 1244SOL    HW115365   3.730   1.468   9.014  2.1945 -0.7909  0.0940
 1244SOL    HW215366   3.621   1.382   9.070  0.5509  1.5815  0.3779
 1245SOL     OW15367   0.033   0.303   4.536  0.4534 -0.2810 -0.3612
 1245SOL    HW115368   0.105   0.323   4.476 -1.2523  3.6007 -1.0960
 1245SOL    HW215369   0.037   0.386   4.584 -0.8183  0.1167 -0.9561
 1246SOL     OW15370   2.589   4.616   8.861  0.0897 -0.0852 -0.2080
 1246SOL    HW115371   2.629   4.698   8.892 -1.0940  0.8402 -1.1215
 1246SOL    HW215372   2.554   4.569   8.936 -1.1188  0.8449 -0.1847
 1247SOL     OW15373   1.487   2.931   0.100  0.0796  0.6394  0.6138
 1247SOL    HW115374   1.434   3.002   0.064 -0.3168  0.0827  0.1051
 1247SOL    HW215375   1.559   2.921   0.038 -1.5810 -0.2860 -1.1749
 1248SOL     OW15376   1.136   1.165   6.316  0.4520 -0.2061 -0.4931
 1248SOL    HW115377   1.049   1.155   6.277  0.9475 -2.5843 -1.0028
 1248SOL    HW215378   1.174   1.230   6.257 -0.3113 -1.5975 -2.5186
 1249SOL     OW15379   1.387   1.399   8.488 -0.2918  0.2954 -0.1244
 1249SOL    HW115380   1.316   1.430   8.432  0.3441  1.4691 -0.2735
 1249SOL    HW215381   1.460   1.403   8.427 -0.3862  1.8755 -0.1292
 1250SOL     OW15382   4.305   4.479   4.411 -0.3786  0.6761  0.0095
 1250SOL    HW115383   4.239   4.410   4.416 -0.0404  0.2817 -0.9774
 1250SOL    HW215384   4.367   4.438   4.351 -1.2053 -0.9840  0.2837
 1251SOL     OW15385   0.826   2.912   6.322 -0.0683 -0.1388  0.2825
 1251SOL    HW115386   0.898   2.904   6.383 -0.0035 -3.5516 -0.2574
 1251SOL    HW215387   0.788   2.995   6.351  4.5611  1.3487  2.0550
 1252SOL     OW15388   2.882   0.907   5.572  0.0499  0.2884  0.6007
 1252SOL    HW115389   2.811   0.878   5.515  1.1844  0.9376 -1.1541
 1252SOL    HW215390   2.917   0.990   5.537  2.0194 -0.9375 -0.3408
 1253SOL     OW15391   2.390   0.980   4.028 -0.4152 -0.1533 -0.1373
 1253SOL    HW115392   2.340   0.899   4.020  0.5060 -0.6099 -1.2239
 1253SOL    HW215393   2.477   0.964   3.990 -0.5731 -2.7151  0.5729
 1254SOL     OW15394   3.936   4.574  14.919 -0.2984 -0.1767  1.2378
 1254SOL    HW115395   4.006   4.508  14.908 -0.3605  0.1501 -1.1477
 1254SOL    HW215396   3.941   4.613  14.832  3.6805 -0.0782  1.5070
 1255SOL     OW15397   0.853   3.147   6.874  0.4427  0.0970 -0.1464
 1255SOL    HW115398   0.888   3.234   6.853 -0.4200  0.3817 -0.4134
 1255SOL    HW215399   0.881   3.144   6.965  1.6303  0.1935 -0.5018
 1256SOL     OW15400   3.943   0.439  17.214  0.0740 -0.1299  0.3084
 1256SOL    HW115401   3.949   0.501  17.142  0.3787 -1.7399 -1.0554
 1256SOL    HW215402   3.852   0.442  17.241 -0.0282 -0.5356  0.0092
 1257SOL     OW15403   1.799   1.575  15.393  0.2773  0.1830  0.2215
 1257SOL    HW115404   1.867   1.509  15.376 -0.6359 -1.0902  1.4781
 1257SOL    HW215405   1.832   1.658  15.360 -1.9947  0.9244 -0.1739
 1258SOL     OW15406   0.993   3.369   8.979  0.1062 -0.4411 -0.0624
 1258SOL    HW115407   0.949   3.342   8.898 -1.1868  1.7409 -0.0979
 1258SOL    HW215408   1.027   3.456   8.955  0.1255 -0.1359  1.0674
 1259SOL     OW15409   1.540   3.137   6.732 -0.1306 -0.4484  0.5178
 1259SOL    HW115410   1.607   3.085   6.777  2.3251  0.6115 -1.9010
 1259SOL    HW215411   1.478   3.149   6.804 -1.1242 -2.6774  0.0439
 1260SOL     OW15412   0.873   4.532   8.848  0.5291  0.1698  0.1342
 1260SOL    HW115413   0.850   4.474   8.921  0.8537 -0.5338 -0.3244
 1260SOL    HW215414   0.787   4.542   8.807 -0.1605 -1.5811  1.1411
 1261SOL     OW15415   3.229   3.578   1.927 -0.3482 -0.3804 -0.6350
 1261SOL    HW115416   3.144   3.558   1.888  0.7980 -2.9493 -1.8283
 1261SOL    HW215417   3.207   3.628   2.005  0.7806 -0.1695 -0.4449
 1262SOL     OW15418   1.810   0.142   3.326  0.5485 -0.3975 -0.4101
 1262SOL    HW115419   1.890   0.124   3.374 -0.9977 -0.1509  2.2888
 1262SOL    HW215420   1.828   0.232   3.296 -4.6685  0.3744 -1.2058
 1263SOL     OW15421   0.686   1.117   6.174 -0.3629  0.0196 -0.0153
 1263SOL    HW115422   0.677   1.083   6.263  1.1921 -0.0036  0.1331
 1263SOL    HW215423   0.719   1.037   6.133  0.5542  0.1332  0.5068
 1264SOL     OW15424   0.403   1.573   2.310 -0.5821 -0.3874  0.2875
 1264SOL    HW115425   0.397   1.549   2.403  1.4850  0.0245  0.5205
 1264SOL    HW215426   0.442   1.494   2.272  1.0965  1.8606 -2.6321
 1265SOL     OW15427   0.095   4.452   6.452 -0.0916  0.2949  0.1153
 1265SOL    HW115428   0.021   4.494   6.496  0.6730  0.8896  0.8276
 1265SOL    HW215429   0.175   4.486   6.492 -1.5680  1.2155  2.2624
 1266SOL     OW15430   4.264   2.760  13.796  0.3425 -0.1335  0.0515
 1266SOL    HW115431   4.232   2.838  13.840  0.9980 -0.0622  0.4004
 1266SOL    HW215432   4.239   2.690  13.857  0.6857 -0.9598 -0.7540
 1267SOL     OW15433   3.212   1.700  10.464 -0.2657 -0.1932  0.1697
 1267SOL    HW115434   3.237   1.612  10.493  2.3745  1.0682  1.7548
 1267SOL    HW215435   3.143   1.728  10.525 -0.2867  1.1764 -0.4943
 1268SOL     OW15436   1.630   0.042   2.519 -0.2347 -0.3659  0.2275
 1268SOL    HW115437   1.552   0.047   2.575  0.3712 -3.3150  1.3213
 1268SOL    HW215438   1.601   4.719   2.454  1.6123 -1.1004  0.1390
 1269SOL     OW15439   2.735   2.270  11.351 -0.3733 -0.7920  0.1546
 1269SOL    HW115440   2.671   2.290  11.283  0.3901  0.4331 -0.1901
 1269SOL    HW215441   2.793   2.214  11.300 -0.9015 -1.1817 -0.0287
 1270SOL     OW15442   0.805   2.906   4.246  0.5325  0.0209 -0.1941
 1270SOL    HW115443   0.892   2.910   4.286  0.4232 -1.3793  0.1713
 1270SOL    HW215444   0.834   2.856   4.170 -1.1746  1.0631 -1.5241
 1271SOL     OW15445   1.237   1.768  14.647 -0.1082  0.0221  0.7592
 1271SOL    HW115446   1.156   1.813  14.673 -0.0423  1.7247 -2.0772
 1271SOL    HW215447   1.259   1.713  14.722 -0.4983 -0.8015  0.2651
 1272SOL     OW15448   3.574   2.428   3.987 -0.0873 -0.0969 -0.2122
 1272SOL    HW115449   3.507   2.463   3.928  0.6992 -1.5684 -1.9719
 1272SOL    HW215450   3.645   2.492   3.995 -0.3429  0.1375  0.1886
 1273SOL     OW15451   3.668   1.376   3.988  0.1658 -0.6188 -0.0954
 1273SOL    HW115452   3.606   1.407   3.922  2.9269 -0.0795 -2.4579
 1273SOL    HW215453   3.733   1.333   3.932  2.6358 -0.7034  2.8716
 1274SOL     OW15454   4.325   4.668   4.900  0.2463  0.2974  1.1445
 1274SOL    HW115455   4.308   0.021   4.903  0.2597  0.2686  2.1382
 1274SOL    HW215456   4.346   4.652   4.808  0.4318 -2.5460  1.6690
 1275SOL     OW15457   2.157   3.798  12.049 -0.1957 -0.1596 -0.0166
 1275SOL    HW115458   2.210   3.777  12.126 -0.0922  1.2726  0.2977
 1275SOL    HW215459   2.141   3.708  12.021  1.5346  0.6882 -3.7311
 1276SOL     OW15460   1.138   1.065   5.037  0.7372  0.2223  0.0685
 1276SOL    HW115461   1.199   1.056   4.963  1.0563  0.0075  0.3556
 1276SOL    HW215462   1.200   1.035   5.104 -0.3288 -0.9053  0.5387
 1277SOL     OW15463   1.993   4.373   5.898 -0.1198 -0.4254 -0.0455
 1277SOL    HW115464   1.946   4.314   5.958 -0.4295 -0.7877 -0.6511
 1277SOL    HW215465   1.948   4.455   5.915 -0.9424 -0.7988 -0.4313
 1278SOL     OW15466   0.035   2.445   4.430 -0.3744 -0.2044  0.1168
 1278SOL    HW115467   0.128   2.430   4.413 -0.6862 -1.2254 -0.7427
 1278SOL    HW215468   0.031   2.540   4.437 -0.6869 -0.2513  0.5768
 1279SOL     OW15469   4.075   0.895  11.830  0.0623 -0.1477 -0.3231
 1279SOL    HW115470   4.145   0.929  11.886  0.8626 -1.3286 -0.6004
 1279SOL    HW215471   4.060   0.806  11.864  1.2686 -0.1318  0.2319
 1280SOL     OW15472   0.281   0.078   5.965  0.5228  0.4472 -0.0917
 1280SOL    HW115473   0.228   0.048   6.039  2.5815 -3.9829 -0.4373
 1280SOL    HW215474   0.372   0.053   5.986  0.5018  0.6649  0.2633
 1281SOL     OW15475   1.775   4.163  17.213 -0.4269 -0.1446 -0.2679
 1281SOL    HW115476   1.847   4.227  17.214 -2.0941  1.7128  2.2155
 1281SOL    HW215477   1.730   4.180  17.296 -3.0013  1.4747 -2.0097
 1282SOL     OW15478   4.272   0.466  12.762  0.7153 -0.5397  0.1110
 1282SOL    HW115479   4.252   0.533  12.697 -1.5799  0.1609  1.5300
 1282SOL    HW215480   4.368   0.469  12.767  0.8138 -2.2838 -0.6213
 1283SOL     OW15481   2.702   2.753   5.538 -0.1706  0.6770  0.4348
 1283SOL    HW115482   2.724   2.660   5.531 -2.8155  0.3309 -3.3321
 1283SOL    HW215483   2.640   2.754   5.611  0.8407 -1.4985  1.3203
 1284SOL     OW15484   4.485   1.024   3.591 -0.1491  0.0279  0.4867
 1284SOL    HW115485   4.396   1.048   3.618  0.1884  0.8826  0.8491
 1284SOL    HW215486   4.488   1.060   3.502 -1.9614 -3.1814 -0.8702
 1285SOL     OW15487   1.511   3.443   7.209  0.3540 -0.7019  0.3108
 1285SOL    HW115488   1.477   3.506   7.273  1.7875  1.7728 -1.3821
 1285SOL    HW215489   1.580   3.413   7.268  0.9675  0.7426  0.3326
 1286SOL     OW15490   2.629   1.485   7.465 -0.4188  0.1659 -0.0523
 1286SOL    HW115491   2.708   1.511   7.513  1.6443  0.3609 -3.5750
 1286SOL    HW215492   2.631   1.501   7.371 -0.1683 -0.9964 -0.2454
 1287SOL     OW15493   4.087   3.769   6.734 -0.5660 -0.1740 -0.1964
 1287SOL    HW115494   4.075   3.864   6.743  3.8237  0.5004 -1.7866
 1287SOL    HW215495   3.995   3.741   6.729  0.4449 -3.4170 -0.4887
 1288SOL     OW15496   1.071   1.009   1.689 -0.0688 -0.3242  0.2843
 1288SOL    HW115497   0.989   0.964   1.708 -0.7282  0.7592  0.0581
 1288SOL    HW215498   1.045   1.101   1.688 -2.4724 -1.0073 -0.4485
 1289SOL     OW15499   0.063   3.305   6.477  0.5349 -0.4409 -0.1781
 1289SOL    HW115500   0.154   3.323   6.499  0.5039  1.6758 -1.8685
 1289SOL    HW215501   0.025   3.387   6.509  2.0838  0.6135 -1.0705
 1290SOL     OW15502   0.792   2.514   0.896  0.4297 -0.0930 -0.2198
 1290SOL    HW115503   0.879   2.520   0.937 -0.0467 -3.0118  1.2137
 1290SOL    HW215504   0.812   2.437   0.844  2.6652 -0.7412  1.5778
 1291SOL     OW15505   3.794   2.193   5.181 -0.4559 -0.0105 -0.2151
 1291SOL    HW115506   3.833   2.193   5.094  0.7639 -0.5466  0.3453
 1291SOL    HW215507   3.745   2.111   5.172 -0.7852  0.1275  0.2855
 1292SOL     OW15508   0.212   4.708  12.991 -0.0134 -1.0967 -0.0285
 1292SOL    HW115509   0.271   0.027  12.945 -2.6326  0.8434 -0.8539
 1292SOL    HW215510   0.249   4.707  13.079 -0.8337 -1.5265  0.3181
 1293SOL     OW15511   2.937   0.466   5.613 -0.3028  0.5592 -1.1345
 1293SOL    HW115512   2.856   0.513   5.593 -1.2095  1.1142  3.6976
 1293SOL    HW215513   2.969   0.523   5.684  1.0222 -0.4153 -0.9416
 1294SOL     OW15514   0.974   0.785   6.999  0.1989  0.3333  0.0609
 1294SOL    HW115515   1.060   0.799   7.038 -1.0390 -0.4604  3.0819
 1294SOL    HW215516   0.938   0.719   7.059 -0.3593  0.7351  0.1620
 1295SOL     OW15517   4.094   1.834   2.883  0.3754  0.2899 -0.1327
 1295SOL    HW115518   4.088   1.910   2.942  1.3856 -2.1297  3.0776
 1295SOL    HW215519   4.102   1.754   2.935 -0.4378  0.7552  0.7028
 1296SOL     OW15520   1.243   4.017  10.268  0.1197  0.1084  0.1619
 1296SOL    HW115521   1.231   4.040  10.360 -1.8269  1.3659 -0.4152
 1296SOL    HW215522   1.290   3.934  10.258  1.4877  0.9753 -0.5866
 1297SOL     OW15523   4.328   1.914   7.837 -0.3519 -0.3522  0.0673
 1297SOL    HW115524   4.384   1.861   7.781  1.5464  2.4382 -0.6771
 1297SOL    HW215525   4.359   2.003   7.818  1.0557 -0.9046 -0.2449
 1298SOL     OW15526   0.313   1.151   7.533 -0.2377 -0.2047 -0.0433
 1298SOL    HW115527   0.244   1.139   7.599 -1.3745  0.7650 -1.0542
 1298SOL    HW215528   0.329   1.245   7.539 -3.4454  0.4015 -0.8043
 1299SOL     OW15529   1.898   3.286   7.195 -0.0119  0.1936 -0.2565
 1299SOL    HW115530   1.824   3.258   7.249  1.4288 -3.5346 -0.1849
 1299SOL    HW215531   1.965   3.275   7.261 -0.2142 -1.1403 -0.2650
 1300SOL     OW15532   2.046   3.170   3.913  0.6540 -0.0344  0.6456
 1300SOL    HW115533   1.973   3.223   3.944 -1.3208 -1.0916 -2.0793
 1300SOL    HW215534   2.024   3.143   3.823 -1.5788 -1.1768  1.5322
 1301SOL     OW15535   4.567   2.559   2.598  0.9354 -0.7894  0.0372
 1301SOL    HW115536   4.632   2.621   2.565 -0.4459 -0.0809 -1.3536
 1301SOL    HW215537   4.581   2.478   2.550 -2.1015 -0.0082 -2.1219
 1302SOL     OW15538   4.517   2.239  16.552  0.1528  0.2629 -0.3604
 1302SOL    HW115539   4.476   2.255  16.467 -2.8452 -0.5479  0.9419
 1302SOL    HW215540   4.594   2.295  16.545  1.7925 -1.6894  1.7350
 1303SOL     OW15541   0.499   1.391  12.151 -0.6200 -0.1389  0.3271
 1303SOL    HW115542   0.457   1.459  12.099 -2.7760 -0.6012  1.4444
 1303SOL    HW215543   0.557   1.442  12.207 -1.0773  0.3479  0.3529
 1304SOL     OW15544   3.436   0.861   6.570 -0.6130  0.6261 -0.0982
 1304SOL    HW115545   3.525   0.839   6.542 -1.3209  0.4607 -2.2111
 1304SOL    HW215546   3.449   0.952   6.597 -2.3589  0.8801 -0.1325
 1305SOL     OW15547   0.100   4.652   3.016  0.0504 -0.3576  0.2525
 1305SOL    HW115548   0.033   4.632   3.081 -0.2685  0.7121  0.2558
 1305SOL    HW215549   0.104   4.565   2.977 -0.6663  0.5093 -1.7221
 1306SOL     OW15550   1.120   2.439   3.134 -0.0133  0.0758 -0.5613
 1306SOL    HW115551   1.141   2.408   3.046 -1.0831  3.9349 -2.1951
 1306SOL    HW215552   1.123   2.534   3.118 -1.8849 -0.0530 -1.6890
 1307SOL     OW15553   4.646   4.168  17.429 -0.7593  0.4113  0.1283
 1307SOL    HW115554   4.553   4.182  17.410 -1.3953 -3.1088  0.7030
 1307SOL    HW215555   4.650   4.072  17.429  2.1530  0.5292  0.0799
 1308SOL     OW15556   2.273   4.285  16.782  0.1763  0.0283  0.1662
 1308SOL    HW115557   2.183   4.301  16.811  0.7137  2.0927  0.7356
 1308SOL    HW215558   2.259   4.244  16.696  1.1153  0.0221  0.0154
 1309SOL     OW15559   4.586   2.881   6.447 -0.1048  0.3982 -0.3914
 1309SOL    HW115560   4.490   2.878   6.440  0.0198  0.5285 -2.1501
 1309SOL    HW215561   4.601   2.974   6.465  0.2573  0.2448  0.0915
 1310SOL     OW15562   1.792   4.194  16.115  0.3315 -0.3296  0.1937
 1310SOL    HW115563   1.744   4.273  16.141 -0.5068 -0.8290  0.1769
 1310SOL    HW215564   1.745   4.130  16.168  0.3146 -1.0608 -0.7119
 1311SOL     OW15565   3.329   4.306  14.590 -0.1737  0.6159  0.5517
 1311SOL    HW115566   3.306   4.215  14.573 -0.3783  0.3734  2.0797
 1311SOL    HW215567   3.259   4.357  14.548  0.5968  0.4494 -0.9252
 1312SOL     OW15568   3.773   4.521  10.825  0.2115  0.0011  0.7162
 1312SOL    HW115569   3.720   4.570  10.762 -1.1307  1.9651  3.3825
 1312SOL    HW215570   3.840   4.480  10.771  0.4568  0.1954  0.8751
 1313SOL     OW15571   1.511   3.984   6.825  0.2732 -0.0159  0.3390
 1313SOL    HW115572   1.574   4.038   6.873  1.8485 -0.7865 -0.8547
 1313SOL    HW215573   1.549   3.896   6.826 -0.4351 -0.3036  1.7625
 1314SOL     OW15574   0.800   4.343   0.483  0.2872 -0.3619 -0.4633
 1314SOL    HW115575   0.737   4.411   0.460 -1.4277 -0.9310  2.5041
 1314SOL    HW215576   0.751   4.261   0.482 -1.4108  0.6557 -1.2212
 1315SOL     OW15577   1.100   2.432  11.555  0.0915  0.1568  0.2636
 1315SOL    HW115578   1.157   2.381  11.612 -0.2278 -0.1297  0.3307
 1315SOL    HW215579   1.008   2.411  11.571 -0.2121  2.0681  1.0389
 1316SOL     OW15580   0.091   3.629   2.836 -0.4263 -0.1039 -0.2363
 1316SOL    HW115581   0.068   3.721   2.846 -0.2196  0.0187 -0.9307
 1316SOL    HW215582   0.176   3.640   2.879 -0.4909  1.2428 -0.4672
 1317SOL     OW15583   2.881   0.386   6.740  0.6806 -0.6636  0.2014
 1317SOL    HW115584   2.815   0.391   6.809 -0.4858 -0.2385 -0.9369
 1317SOL    HW215585   2.964   0.414   6.779  1.0375 -0.3328 -0.7891
 1318SOL     OW15586   0.727   3.314  10.811 -0.4370 -0.1049 -0.3993
 1318SOL    HW115587   0.654   3.268  10.852 -0.9558 -2.0097 -3.4492
 1318SOL    HW215588   0.739   3.369  10.889 -0.1361 -0.1510 -0.4141
 1319SOL     OW15589   3.607   3.855  17.461 -0.1876 -0.3680  0.5168
 1319SOL    HW115590   3.613   3.924  17.528  3.1826  0.0406 -0.1966
 1319SOL    HW215591   3.646   3.899  17.386 -0.8382 -0.8804 -0.1097
 1320SOL     OW15592   4.516   3.739   8.869  0.2861  0.1940  0.0112
 1320SOL    HW115593   4.568   3.696   8.802  0.6914  0.1868  0.3328
 1320SOL    HW215594   4.465   3.800   8.816  0.8305 -0.6819 -1.5007
 1321SOL     OW15595   4.495   3.545   8.303  0.0336 -0.3269  0.0798
 1321SOL    HW115596   4.558   3.561   8.373  1.3798 -2.3762 -0.6669
 1321SOL    HW215597   4.523   3.462   8.267 -0.5424  0.8990 -3.2375
 1322SOL     OW15598   1.553   3.766   4.563 -0.4080  0.9461  0.1973
 1322SOL    HW115599   1.518   3.847   4.602 -3.1489 -0.4299  0.5775
 1322SOL    HW215600   1.622   3.751   4.627 -1.1046 -0.0643  0.7087
 1323SOL     OW15601   1.699   4.519   3.953 -0.6678  0.5448  0.1191
 1323SOL    HW115602   1.706   4.508   3.858 -0.0547  2.3352 -0.0461
 1323SOL    HW215603   1.750   4.439   3.961  0.1184  0.9788 -0.6095
 1324SOL     OW15604   3.370   4.422  12.310 -0.1667  0.1466  0.7537
 1324SOL    HW115605   3.417   4.346  12.276 -0.6003 -0.1216  0.7545
 1324SOL    HW215606   3.277   4.402  12.314 -0.1230  0.3539  2.8350
 1325SOL     OW15607   3.195   3.146   4.443 -0.1730  0.5844 -0.8908
 1325SOL    HW115608   3.186   3.223   4.499 -3.3002  0.0891 -0.7227
 1325SOL    HW215609   3.215   3.075   4.503 -0.1016  2.3752  1.1935
 1326SOL     OW15610   3.003   1.151  16.999 -0.4209  0.2548 -0.3336
 1326SOL    HW115611   2.955   1.122  16.921  0.4607  0.6103 -1.0091
 1326SOL    HW215612   2.975   1.243  16.996 -1.3808  0.0287  1.6024
 1327SOL     OW15613   1.858   2.111   2.632  0.2923  0.0202 -0.1470
 1327SOL    HW115614   1.941   2.091   2.674  0.9508  1.2564 -0.8461
 1327SOL    HW215615   1.883   2.198   2.601  0.1186  0.2379  0.3187
 1328SOL     OW15616   3.965   3.765  17.425 -0.7248  0.1330 -0.2170
 1328SOL    HW115617   3.927   3.796  17.507 -0.8099  1.2344 -0.6635
 1328SOL    HW215618   3.913   3.818  17.363 -0.5599 -0.4719 -0.8713
 1329SOL     OW15619   0.049   3.933  16.800 -0.3053 -0.0959  0.6151
 1329SOL    HW115620   0.041   3.939  16.705  0.9949 -0.6410  0.4748
 1329SOL    HW215621   0.076   4.022  16.821 -1.0861  0.3208 -0.1785
 1330SOL     OW15622   0.717   4.675  15.153  0.3061 -0.3107  0.6142
 1330SOL    HW115623   0.767   0.013  15.175  2.3108 -1.3374 -0.3092
 1330SOL    HW215624   0.663   4.672  15.232  2.7669  1.5454  2.3505
 1331SOL     OW15625   1.115   1.321  14.029  0.4231 -0.3400  0.0390
 1331SOL    HW115626   1.059   1.245  14.013  0.8931 -0.6121 -0.3225
 1331SOL    HW215627   1.110   1.339  13.936 -0.9343 -0.3976  0.0978
 1332SOL     OW15628   2.915   0.559   1.765 -0.3901 -0.2596 -0.7873
 1332SOL    HW115629   2.889   0.497   1.833 -0.8897  0.7886 -0.0225
 1332SOL    HW215630   2.984   0.506   1.725 -1.3680 -1.8491 -0.3642
 1333SOL     OW15631   2.241   0.204   4.665 -0.5411 -0.0514  0.1073
 1333SOL    HW115632   2.305   0.163   4.606 -1.4594 -1.6127  0.1987
 1333SOL    HW215633   2.291   0.243   4.737 -0.5376  1.1769 -0.5575
 1334SOL     OW15634   4.395   4.486   6.642  0.2571 -0.6158  0.5097
 1334SOL    HW115635   4.331   4.427   6.601 -1.0129  0.4478  0.9541
 1334SOL    HW215636   4.341   4.539   6.701  1.6035  1.2813 -0.0052
 1335SOL     OW15637   0.575   2.418   6.156 -0.6119 -0.4378 -0.4998
 1335SOL    HW115638   0.600   2.492   6.210  1.4040 -0.5779 -1.2340
 1335SOL    HW215639   0.622   2.340   6.187 -1.8434 -0.7565  0.5524
 1336SOL     OW15640   3.268   2.014   8.394 -0.3839  0.0433  0.3740
 1336SOL    HW115641   3.324   2.091   8.385  1.0194 -1.3370 -2.6614
 1336SOL    HW215642   3.203   2.026   8.325  2.1592 -0.2985 -2.0494
 1337SOL     OW15643   1.787   3.402   5.797  0.4882  0.1391  0.5293
 1337SOL    HW115644   1.757   3.484   5.758  1.9561  0.8371  0.9112
 1337SOL    HW215645   1.845   3.439   5.863  2.0969  1.5526 -1.6946
 1338SOL     OW15646   2.420   3.416   6.434 -0.1901  0.4175 -0.2609
 1338SOL    HW115647   2.432   3.421   6.529 -0.9519 -2.8533  0.0108
 1338SOL    HW215648   2.327   3.394   6.421  0.3582 -1.7616 -0.6001
 1339SOL     OW15649   3.845   0.184   1.409  0.2693  0.5228  0.2241
 1339SOL    HW115650   3.776   0.154   1.467 -1.0681 -0.7099 -1.9804
 1339SOL    HW215651   3.920   0.136   1.444  2.1887  2.3829 -1.3108
 1340SOL     OW15652   4.370   3.256  10.189 -0.0377  0.1481  0.1652
 1340SOL    HW115653   4.413   3.318  10.248  0.8408  0.6135 -0.9503
 1340SOL    HW215654   4.408   3.294  10.109 -0.1021 -1.3316 -0.5777
 1341SOL     OW15655   0.442   2.378   5.931 -0.0597  0.6357  0.2736
 1341SOL    HW115656   0.493   2.386   6.012  0.1262 -3.8416  0.5821
 1341SOL    HW215657   0.388   2.301   5.951  0.5989 -0.5207 -2.3761
 1342SOL     OW15658   1.443   2.023   5.783  0.0530 -0.1465 -0.3216
 1342SOL    HW115659   1.484   1.975   5.711  1.4942  0.0465  0.3780
 1342SOL    HW215660   1.421   2.104   5.736 -3.2214 -1.0571 -0.3612
 1343SOL     OW15661   0.072   0.425   1.582 -0.1599  0.4102  0.2365
 1343SOL    HW115662   4.735   0.415   1.638 -1.3261 -1.1935 -1.6813
 1343SOL    HW215663   0.043   0.437   1.492  0.6290  0.3944 -0.0166
 1344SOL     OW15664   2.286   3.166  17.067  0.1327  0.1455  0.0646
 1344SOL    HW115665   2.251   3.221  17.137  0.0680  1.5777 -1.1098
 1344SOL    HW215666   2.293   3.226  16.993 -0.4459 -1.8856 -1.6459
 1345SOL     OW15667   0.605   2.848   6.817 -0.1308 -0.4025  0.0357
 1345SOL    HW115668   0.525   2.804   6.845  1.1170 -2.2460  0.6636
 1345SOL    HW215669   0.596   2.937   6.852  1.1420  0.5275 -1.9740
 1346SOL     OW15670   3.951   0.854  15.450  0.0401  0.3143  0.3163
 1346SOL    HW115671   3.891   0.781  15.467  0.1396  0.5036  1.4539
 1346SOL    HW215672   4.008   0.850  15.526 -1.1255  1.2715  1.2273
 1347SOL     OW15673   2.508   2.373   4.800  0.1228 -0.0212 -0.2402
 1347SOL    HW115674   2.531   2.415   4.883 -1.0295  3.5073 -1.6903
 1347SOL    HW215675   2.559   2.426   4.739  0.0619 -0.3863 -0.6078
 1348SOL     OW15676   4.302   3.430  17.188 -0.4965 -0.1613 -0.1321
 1348SOL    HW115677   4.330   3.483  17.114  0.3038 -1.2936 -0.6410
 1348SOL    HW215678   4.214   3.408  17.158 -0.7997 -0.9420  1.2963
 1349SOL     OW15679   0.571   0.666   8.833 -0.0392 -0.1294  0.2258
 1349SOL    HW115680   0.599   0.735   8.773 -0.5382  1.6964  2.1012
 1349SOL    HW215681   0.494   0.705   8.874 -0.9060  0.4802 -2.0297
 1350SOL     OW15682   0.520   3.731   7.880  0.0896  0.2236  0.4401
 1350SOL    HW115683   0.613   3.716   7.865  0.2452  1.6975 -0.0852
 1350SOL    HW215684   0.480   3.702   7.798 -1.0416  1.6092  0.5000
 1351SOL     OW15685   1.213   1.314   3.032  0.1339  0.0986 -0.2431
 1351SOL    HW115686   1.232   1.383   3.094 -0.8344 -1.1191  1.4269
 1351SOL    HW215687   1.273   1.338   2.962  2.7650 -0.8853  1.6860
 1352SOL     OW15688   3.332   3.756   3.490 -0.0064  0.3457 -0.6111
 1352SOL    HW115689   3.241   3.738   3.468  0.0746  0.8023 -1.3120
 1352SOL    HW215690   3.318   3.848   3.512  0.4759  0.2538  0.0708
 1353SOL     OW15691   3.523   3.096   7.755  0.0404 -0.6455  0.0656
 1353SOL    HW115692   3.610   3.131   7.774 -0.4427  0.0418  1.0018
 1353SOL    HW215693   3.541   3.031   7.688  2.2661 -0.8533  0.8798
 1354SOL     OW15694   0.771   3.079   5.796  0.2516  0.0853 -0.2598
 1354SOL    HW115695   0.797   3.079   5.888 -0.6709  0.3119 -0.0030
 1354SOL    HW215696   0.820   3.157   5.768  0.3977  0.4184  0.9059
 1355SOL     OW15697   3.849   1.045  11.742  0.4223 -0.0437 -0.1750
 1355SOL    HW115698   3.921   1.008  11.793 -0.1854  0.5810  1.1428
 1355SOL    HW215699   3.804   0.965  11.715  1.2898 -0.1370 -1.3526
 1356SOL     OW15700   0.439   3.271   3.060 -0.3379  0.0765  0.1506
 1356SOL    HW115701   0.439   3.178   3.080  4.1713  0.1659  0.5713
 1356SOL    HW215702   0.462   3.309   3.145  0.0467 -0.7330  0.4103
 1357SOL     OW15703   1.876   0.602   6.178  0.1662  0.3284  0.4403
 1357SOL    HW115704   1.844   0.545   6.248 -1.2798  1.3549  0.6098
 1357SOL    HW215705   1.820   0.679   6.186 -1.7218 -0.9238 -0.9502
 1358SOL     OW15706   2.795   1.326   9.069 -0.4708  0.0988 -0.5971
 1358SOL    HW115707   2.888   1.348   9.073 -0.6522  0.9559 -1.3787
 1358SOL    HW215708   2.784   1.241   9.113 -0.3841  1.2316  1.6316
 1359SOL     OW15709   2.094   4.467   4.244 -0.0135  0.2570  0.2148
 1359SOL    HW115710   2.019   4.472   4.303  0.8511 -2.3510  1.5431
 1359SOL    HW215711   2.131   4.379   4.257 -0.5740  0.3510  2.4630
 1360SOL     OW15712   1.498   1.856   8.489  0.1576 -0.6392 -0.1885
 1360SOL    HW115713   1.519   1.949   8.479 -0.0429 -0.7471 -1.4887
 1360SOL    HW215714   1.469   1.847   8.580  2.9977  0.3122  0.8308
 1361SOL     OW15715   1.503   0.808  11.771  0.1975 -0.0143  0.2572
 1361SOL    HW115716   1.510   0.900  11.748  0.4670 -0.1674 -0.2670
 1361SOL    HW215717   1.592   0.790  11.801 -0.3104  0.4787  2.0534
 1362SOL     OW15718   2.877   4.269   5.641  0.4305  0.5184 -0.3734
 1362SOL    HW115719   2.883   4.183   5.684  1.6023  0.7761 -0.0318
 1362SOL    HW215720   2.966   4.304   5.639  0.5878  0.0916 -0.8209
 1363SOL     OW15721   4.588   0.018   6.509 -0.0373  0.1989  0.3775
 1363SOL    HW115722   4.600   4.669   6.539 -2.2858 -1.2854 -3.1270
 1363SOL    HW215723   4.577   0.062   6.593  1.7852  0.6208  0.4099
 1364SOL     OW15724   4.358   2.632   3.301  0.6719 -1.0005  0.4410
 1364SOL    HW115725   4.412   2.702   3.264  0.2124  0.3025  2.2650
 1364SOL    HW215726   4.272   2.674   3.288  1.1197 -0.2075  0.0188
 1365SOL     OW15727   0.661   2.821   1.872  0.3173 -0.2329 -0.2992
 1365SOL    HW115728   0.699   2.734   1.883  3.5849  1.0897 -1.3215
 1365SOL    HW215729   0.603   2.803   1.798 -0.8556  1.6696  0.1521
 1366SOL     OW15730   1.675   0.131   5.838  0.4021  0.0304  0.0207
 1366SOL    HW115731   1.665   0.217   5.797 -0.5657 -0.1168 -0.0593
 1366SOL    HW215732   1.768   0.131   5.860 -0.3558  0.7013  3.2381
 1367SOL     OW15733   3.593   2.318   7.919  0.0073 -0.3878 -0.1984
 1367SOL    HW115734   3.573   2.231   7.953  0.9603  0.2838  2.0782
 1367SOL    HW215735   3.536   2.374   7.972 -0.2056  0.6980 -1.5662
 1368SOL     OW15736   2.318   3.305   3.634 -0.0422 -0.2794  0.0733
 1368SOL    HW115737   2.297   3.285   3.726  1.8788  2.2598  1.0598
 1368SOL    HW215738   2.258   3.380   3.629  0.5932  0.3257  1.3430
 1369SOL     OW15739   3.903   1.285   3.282  0.0444 -0.2306 -0.1543
 1369SOL    HW115740   3.854   1.202   3.284 -1.2326  0.4327 -3.4211
 1369SOL    HW215741   3.828   1.343   3.296  0.9152  0.9656 -0.4772
 1370SOL     OW15742   3.474   2.034   7.914  0.0001 -0.1283  0.1062
 1370SOL    HW115743   3.548   2.021   7.855  1.0860  3.7831  0.6335
 1370SOL    HW215744   3.412   2.001   7.849  0.2744 -0.3534 -0.0368
 1371SOL     OW15745   4.356   0.728   1.311  0.1808  1.0823  0.4368
 1371SOL    HW115746   4.266   0.724   1.343  0.2105 -1.9056  0.1586
 1371SOL    HW215747   4.391   0.639   1.317 -2.7517 -0.2525 -2.3594
 1372SOL     OW15748   0.083   3.770   5.374  0.5592  0.2079  0.7631
 1372SOL    HW115749   0.177   3.760   5.385  0.2699 -1.0039  2.1323
 1372SOL    HW215750   0.056   3.789   5.465  1.2079 -0.6319  1.1298
 1373SOL     OW15751   0.856   2.771   7.775  0.2531 -0.8226 -0.1077
 1373SOL    HW115752   0.898   2.781   7.860  1.1378 -0.2869 -0.6032
 1373SOL    HW215753   0.930   2.797   7.720  0.5529  0.3099  0.8445
 1374SOL     OW15754   2.245   3.897   2.212 -0.3528 -0.0442 -0.0052
 1374SOL    HW115755   2.194   3.925   2.288  1.5784 -0.0419  1.2811
 1374SOL    HW215756   2.206   3.952   2.144  0.5658  1.1798  0.4549
 1375SOL     OW15757   0.528   1.168   2.500  0.3490 -0.1071  0.4486
 1375SOL    HW115758   0.611   1.127   2.523 -0.0466  0.6751  3.3860
 1375SOL    HW215759   0.459   1.117   2.544  0.8011 -0.2472  0.9929
 1376SOL     OW15760   1.078   2.109   6.536  0.2565 -0.3493 -0.1186
 1376SOL    HW115761   1.094   2.197   6.502  1.3082 -0.6394 -0.3544
 1376SOL    HW215762   0.987   2.127   6.561  0.2388  1.2041 -1.3422
 1377SOL     OW15763   4.235   4.733   1.699 -0.2999 -0.1577  0.2669
 1377SOL    HW115764   4.319   0.008   1.655 -1.3369 -0.3118 -1.7629
 1377SOL    HW215765   4.235   4.637   1.699  2.3257 -0.1660  0.2990
 1378SOL     OW15766   2.662   1.253   5.911  0.1661  0.0750 -0.2470
 1378SOL    HW115767   2.584   1.202   5.931  1.8125 -1.7243  1.6201
 1378SOL    HW215768   2.707   1.184   5.862 -0.7181  0.0334 -1.0073
 1379SOL     OW15769   1.019   0.401   9.096  0.1118  0.2958  0.8137
 1379SOL    HW115770   1.079   0.330   9.074 -2.4726 -1.1693 -1.5672
 1379SOL    HW215771   0.938   0.366   9.058  0.5651 -0.7151  0.7802
 1380SOL     OW15772   2.348   1.407  16.751 -0.4824 -0.0608 -0.1037
 1380SOL    HW115773   2.401   1.426  16.674 -1.8813  2.0025 -0.5451
 1380SOL    HW215774   2.259   1.415  16.716  0.6082  1.7082 -2.4384
 1381SOL     OW15775   3.139   1.070   7.087  0.0285  0.0585 -0.0340
 1381SOL    HW115776   3.077   1.010   7.129 -1.6195  2.3087  0.7097
 1381SOL    HW215777   3.165   1.129   7.158 -3.7832 -0.9132  2.1474
 1382SOL     OW15778   4.450   1.955   1.607 -0.0379  0.6431 -0.2817
 1382SOL    HW115779   4.482   1.963   1.518  2.6881 -2.4564  0.4165
 1382SOL    HW215780   4.406   1.871   1.592  2.2725 -0.1326 -2.7639
 1383SOL     OW15781   1.413   1.619   1.362  0.2282 -0.1622 -0.0096
 1383SOL    HW115782   1.468   1.662   1.297 -0.5665  0.6032 -0.1691
 1383SOL    HW215783   1.363   1.557   1.309  0.7183  0.4841 -1.2323
 1384SOL     OW15784   0.603   0.535   8.541  0.5148 -0.0096  0.3263
 1384SOL    HW115785   0.532   0.571   8.594  0.9406  0.3281  0.6628
 1384SOL    HW215786   0.599   0.586   8.460 -0.6824  0.6191  0.7843
 1385SOL     OW15787   2.806   1.302   2.515  1.2845  0.2391 -0.0884
 1385SOL    HW115788   2.792   1.392   2.487 -0.8275  0.1788  0.7260
 1385SOL    HW215789   2.719   1.277   2.546  1.9856  0.3049  1.8752
 1386SOL     OW15790   3.835   0.453   1.955  0.2621 -0.9311 -0.0567
 1386SOL    HW115791   3.771   0.467   2.025  0.1358  2.8924 -0.8968
 1386SOL    HW215792   3.890   0.531   1.953 -0.6844 -0.2649 -0.2837
 1387SOL     OW15793   2.446   1.692  17.505 -0.2679 -0.4555  0.1651
 1387SOL    HW115794   2.402   1.719  17.424  1.5234 -2.4462 -1.4851
 1387SOL    HW215795   2.534   1.729  17.494 -0.7303  0.5734 -0.0717
 1388SOL     OW15796   1.081   2.833   4.329  0.3780 -0.8726 -0.7776
 1388SOL    HW115797   1.119   2.783   4.401  0.3524  0.4202  0.1325
 1388SOL    HW215798   1.091   2.924   4.359 -0.2607 -0.5704 -1.4579
 1389SOL     OW15799   2.309   1.374   5.069  0.1687  0.5754  0.1959
 1389SOL    HW115800   2.341   1.381   4.979 -1.2676  0.7896 -0.3090
 1389SOL    HW215801   2.387   1.385   5.124 -0.3586  2.3719  0.6033
 1390SOL     OW15802   2.779   3.987  14.451  0.1014 -0.5083 -0.5149
 1390SOL    HW115803   2.805   3.988  14.359  2.1787 -0.1963  0.0889
 1390SOL    HW215804   2.864   3.992  14.495 -0.4315  0.2792  0.4130
 1391SOL     OW15805   2.762   4.369  13.555  0.5255  0.0134 -0.7219
 1391SOL    HW115806   2.828   4.354  13.621  0.2434  0.4609 -0.3378
 1391SOL    HW215807   2.697   4.412  13.611  1.4285  2.3341 -1.4431
 1392SOL     OW15808   4.273   3.230   9.653 -0.2912  0.2768  0.2617
 1392SOL    HW115809   4.188   3.237   9.609  0.2867  3.0646 -0.4090
 1392SOL    HW215810   4.253   3.181   9.733  1.0399 -3.5309 -1.7363
 1393SOL     OW15811   3.570   2.128   8.142 -0.1191  0.1174 -0.1344
 1393SOL    HW115812   3.510   2.118   8.216  0.4060 -3.0947 -0.1627
 1393SOL    HW215813   3.528   2.073   8.077 -1.2153  1.1403 -0.2999
 1394SOL     OW15814   3.720   1.695  17.447 -0.2829  0.8639  0.3799
 1394SOL    HW115815   3.663   1.642  17.503  1.9335  0.0206  1.7990
 1394SOL    HW215816   3.667   1.702  17.367  1.1492 -0.3871 -0.6788
 1395SOL     OW15817   3.846   3.878   3.301  0.4243 -0.2743 -0.5786
 1395SOL    HW115818   3.847   3.783   3.313 -1.7619 -0.5162 -2.2088
 1395SOL    HW215819   3.762   3.898   3.342 -0.5481 -1.0085 -2.1991
 1396SOL     OW15820   0.970   1.213   3.357 -0.4534  0.3725  0.2414
 1396SOL    HW115821   1.018   1.145   3.310  1.2426  0.4550  1.8860
 1396SOL    HW215822   0.969   1.179   3.446  0.9883  1.0966  0.5167
 1397SOL     OW15823   2.672   3.756  16.170 -0.2237 -0.0079  0.1249
 1397SOL    HW115824   2.640   3.845  16.182 -2.1214 -1.0352  2.5955
 1397SOL    HW215825   2.595   3.703  16.192  0.0933  0.2374  1.8584
 1398SOL     OW15826   2.495   2.843   5.697  0.0633 -0.3814  0.2756
 1398SOL    HW115827   2.408   2.864   5.662 -0.2072  0.6444  1.5596
 1398SOL    HW215828   2.472   2.839   5.790  2.3426  1.1485  0.8886
 1399SOL     OW15829   0.727   2.242  14.041  0.5753 -0.5598 -0.3358
 1399SOL    HW115830   0.714   2.170  14.103  0.4729  1.3426  1.8843
 1399SOL    HW215831   0.716   2.319  14.098  1.9701 -1.0078  0.5521
 1400SOL     OW15832   0.472   2.490   1.808 -0.2367 -0.1315 -0.1552
 1400SOL    HW115833   0.501   2.409   1.766  0.8469  0.1084  0.1417
 1400SOL    HW215834   0.394   2.500   1.753  0.4204 -2.3373 -1.4797
 1401SOL     OW15835   4.204   2.854   1.948 -0.1611 -0.3626 -0.0702
 1401SOL    HW115836   4.222   2.948   1.942 -2.7469 -0.0484 -2.9356
 1401SOL    HW215837   4.118   2.857   1.989 -1.2514 -1.2906 -2.3157
 1402SOL     OW15838   2.682   3.393  16.031  0.0508 -0.2139 -0.0286
 1402SOL    HW115839   2.602   3.357  15.991 -1.0926  0.4914  1.6237
 1402SOL    HW215840   2.673   3.481  15.994  1.6989 -0.4344 -0.9589
 1403SOL     OW15841   2.347   2.785   6.862 -0.6441  0.3180 -0.4851
 1403SOL    HW115842   2.439   2.773   6.889 -1.0757 -0.9966  0.3945
 1403SOL    HW215843   2.335   2.880   6.865  3.4152  0.8343 -0.2802
 1404SOL     OW15844   4.734   4.442  14.672 -0.1743  0.3149  0.2619
 1404SOL    HW115845   0.086   4.438  14.696 -0.1759 -0.4090  0.1262
 1404SOL    HW215846   4.724   4.537  14.679  5.1428  0.9322 -0.3063
 1405SOL     OW15847   1.950   0.174   5.808 -0.4656  0.9506 -0.0871
 1405SOL    HW115848   1.937   0.265   5.782 -1.0252  0.8404 -0.2000
 1405SOL    HW215849   1.990   0.139   5.728  1.0358 -3.0580  2.4019
 1406SOL     OW15850   1.321   1.768   5.585  0.4108 -0.2846 -0.2566
 1406SOL    HW115851   1.348   1.695   5.642 -0.6687 -1.4145 -1.1778
 1406SOL    HW215852   1.397   1.771   5.527  1.8742  3.4043  1.8579
 1407SOL     OW15853   3.187   1.274   8.971  0.0005  0.2729 -0.2688
 1407SOL    HW115854   3.270   1.302   9.009  0.6316 -2.6294  0.4971
 1407SOL    HW215855   3.136   1.320   9.038 -0.7863 -0.5591 -0.2941
 1408SOL     OW15856   0.868   2.734  14.817 -0.1276  0.2785 -0.3014
 1408SOL    HW115857   0.822   2.746  14.733  1.4177  0.5522 -1.1128
 1408SOL    HW215858   0.952   2.778  14.801  0.6221 -0.9634  0.2620
 1409SOL     OW15859   0.488   2.059   4.979 -0.5443 -0.2672  0.2383
 1409SOL    HW115860   0.527   2.146   4.994 -0.9657 -0.2653  1.3684
 1409SOL    HW215861   0.397   2.088   4.980 -0.2550  0.6721 -1.8147
 1410SOL     OW15862   3.482   4.150   1.683 -0.0006 -0.3167 -0.4058
 1410SOL    HW115863   3.575   4.146   1.704  0.7166  1.4746 -3.2604
 1410SOL    HW215864   3.446   4.162   1.771 -1.0826  2.2507 -1.1911
 1411SOL     OW15865   4.180   2.103  16.756  0.3920 -0.2266  0.0942
 1411SOL    HW115866   4.160   2.087  16.664  2.6780 -2.3697 -0.0350
 1411SOL    HW215867   4.092   2.114  16.791 -0.0341  1.0669 -1.3795
 1412SOL     OW15868   0.694   0.910  10.028 -0.5392 -0.0745 -0.5871
 1412SOL    HW115869   0.624   0.940  10.087 -0.7852 -2.1903  0.2012
 1412SOL    HW215870   0.691   0.815  10.038 -1.4447 -0.2008 -2.1103
 1413SOL     OW15871   3.522   2.732   4.657 -0.1839 -0.8795  0.0965
 1413SOL    HW115872   3.611   2.706   4.631 -0.0455 -0.5690  0.2478
 1413SOL    HW215873   3.504   2.643   4.685  1.1695 -0.4968  2.2658
 1414SOL     OW15874   4.019   1.700   9.622  0.2728  0.5891 -0.0742
 1414SOL    HW115875   4.096   1.705   9.566  0.4149  1.0558  0.1593
 1414SOL    HW215876   4.053   1.722   9.709  0.8030 -0.9355  0.1121
 1415SOL     OW15877   3.986   2.905   8.740 -0.5029  0.0146 -0.2641
 1415SOL    HW115878   3.939   2.867   8.666 -2.1644 -0.3646  0.9943
 1415SOL    HW215879   3.911   2.922   8.797  0.9188  3.2394  0.6868
 1416SOL     OW15880   3.381   3.486   8.749  0.3155 -0.1046 -0.2244
 1416SOL    HW115881   3.418   3.461   8.834 -0.0836 -0.0013 -0.0188
 1416SOL    HW215882   3.379   3.581   8.761  1.6672  0.0691 -1.4171
 1417SOL     OW15883   3.354   3.932   8.930  0.5467  0.2383 -0.1299
 1417SOL    HW115884   3.325   3.900   9.016 -0.3868 -2.1906 -1.3620
 1417SOL    HW215885   3.333   4.025   8.930 -1.0464 -0.1279 -1.1680
 1418SOL     OW15886   1.103   4.503   0.370  0.3423 -0.2959 -0.0981
 1418SOL    HW115887   1.175   4.473   0.315  0.0401 -0.0824 -0.6125
 1418SOL    HW215888   1.034   4.510   0.304  0.1196 -2.7063 -0.1199
 1419SOL     OW15889   3.867   2.874   6.514  0.8207  0.0802 -0.0323
 1419SOL    HW115890   3.858   2.901   6.422 -3.2843 -0.7593  0.0874
 1419SOL    HW215891   3.954   2.838   6.525  0.4326 -0.1529  2.1795
 1420SOL     OW15892   3.341   4.321   8.529 -0.1035  0.1095 -0.1930
 1420SOL    HW115893   3.276   4.357   8.590 -0.3801 -0.5609 -0.0977
 1420SOL    HW215894   3.378   4.401   8.490  1.2172 -0.1720  0.4670
 1421SOL     OW15895   2.106   2.038   7.744  0.2334  0.0181 -0.4521
 1421SOL    HW115896   2.162   2.042   7.667  0.7360  0.2757 -0.0681
 1421SOL    HW215897   2.050   1.965   7.715  0.6791 -0.6259  0.2860
 1422SOL     OW15898   3.012   2.849   5.157 -0.2283 -0.1167 -0.4487
 1422SOL    HW115899   2.970   2.859   5.243 -0.2707 -2.4926 -0.1851
 1422SOL    HW215900   2.943   2.864   5.093  0.4223  0.1278 -1.0898
 1423SOL     OW15901   0.783   0.277   6.708  0.3466  0.2190 -0.8532
 1423SOL    HW115902   0.768   0.370   6.694 -1.2312  0.0414 -0.3524
 1423SOL    HW215903   0.839   0.269   6.785 -0.4004  1.3334 -0.2032
 1424SOL     OW15904   3.091   0.969  17.571 -0.2040 -0.2911  0.0588
 1424SOL    HW115905   3.039   1.043  17.539  1.3577  1.2227  1.0177
 1424SOL    HW215906   3.057   0.975  17.660 -0.7796  0.2065 -0.1970
 1425SOL     OW15907   2.060   3.864  12.830 -0.0810 -0.1608  0.0693
 1425SOL    HW115908   2.107   3.827  12.905  0.3688  2.7165  1.2100
 1425SOL    HW215909   1.995   3.912  12.880  0.1989  0.7868 -0.4777
 1426SOL     OW15910   0.292   2.741  15.472  0.5282 -0.1631 -0.1407
 1426SOL    HW115911   0.313   2.832  15.494  2.9742 -0.6336 -0.5354
 1426SOL    HW215912   0.360   2.688  15.513 -0.2561  0.1745  1.5921
 1427SOL     OW15913   2.079   2.213  17.399  0.1836  0.1115  0.7982
 1427SOL    HW115914   2.073   2.130  17.447 -0.7554 -0.7448 -0.8346
 1427SOL    HW215915   2.019   2.265  17.453 -0.4321  0.2735 -0.0394
 1428SOL     OW15916   3.392   0.598  15.929  0.2603  0.2070  0.7695
 1428SOL    HW115917   3.442   0.612  16.009  0.7009 -0.4211  0.6123
 1428SOL    HW215918   3.450   0.551  15.869 -0.9384  0.0982 -0.3051
 1429SOL     OW15919   3.625   0.142   5.073  0.0310 -0.0043  0.0723
 1429SOL    HW115920   3.667   0.227   5.065  1.8232 -0.7572  1.5540
 1429SOL    HW215921   3.531   0.158   5.068  0.0801  0.4884  0.7571
 1430SOL     OW15922   3.733   3.217   7.021  0.5487  0.4559 -0.0117
 1430SOL    HW115923   3.804   3.167   6.980  0.0640 -1.6193  1.7049
 1430SOL    HW215924   3.747   3.306   6.990  1.2091  0.3862  0.0758
 1431SOL     OW15925   2.735   4.165   4.557 -0.2687 -0.2129  0.2289
 1431SOL    HW115926   2.699   4.111   4.486  0.1635 -0.3682  0.1302
 1431SOL    HW215927   2.767   4.099   4.618  1.7980  2.1831  1.7455
 1432SOL     OW15928   0.875   3.883  13.094 -0.4186  0.0030 -0.3775
 1432SOL    HW115929   0.925   3.949  13.047 -0.6040 -0.8697 -1.8094
 1432SOL    HW215930   0.847   3.928  13.174 -2.5755 -1.8541 -0.0613
 1433SOL     OW15931   0.948   0.283   5.533 -0.3576  0.5092 -0.0498
 1433SOL    HW115932   0.929   0.195   5.503  1.2433  0.1195  0.0762
 1433SOL    HW215933   0.871   0.298   5.588 -1.3979 -3.0210 -0.5708
 1434SOL     OW15934   1.881   2.689   1.926  0.8617  0.4969 -0.4196
 1434SOL    HW115935   1.862   2.607   1.973 -1.2955  1.3204  0.1520
 1434SOL    HW215936   1.847   2.669   1.839  0.0293  0.0138  0.0037
 1435SOL     OW15937   2.315   3.021   7.006 -0.2030  0.1982  0.0858
 1435SOL    HW115938   2.330   2.960   7.079  0.7016 -0.3788 -0.5904
 1435SOL    HW215939   2.237   3.070   7.032 -0.7067 -1.2396  1.2628
 1436SOL     OW15940   0.127   3.013  14.682  0.3689  0.2874  0.0277
 1436SOL    HW115941   0.168   3.065  14.613 -2.2173  1.7518 -0.4086
 1436SOL    HW215942   0.035   3.003  14.658 -0.0829  0.8527  1.4907
 1437SOL     OW15943   4.576   1.058   5.171  0.5133  0.3966  0.4728
 1437SOL    HW115944   4.604   0.984   5.225 -1.2743 -1.0141 -0.5160
 1437SOL    HW215945   4.581   1.137   5.225  1.3081 -0.0058  0.9934
 1438SOL     OW15946   2.254   4.171  16.534  0.0687  0.0605  0.0628
 1438SOL    HW115947   2.244   4.252  16.483 -1.1457  0.3856  0.8315
 1438SOL    HW215948   2.216   4.099  16.483 -0.7138  0.3920  0.1914
 1439SOL     OW15949   3.768   0.096   4.293 -0.8327  0.6643 -0.1361
 1439SOL    HW115950   3.795   0.063   4.208  1.1369  0.6212  0.4960
 1439SOL    HW215951   3.857   0.114   4.325 -0.5474  0.3301 -0.7491
 1440SOL     OW15952   2.657   1.019   3.482 -0.2017 -0.4431 -0.6085
 1440SOL    HW115953   2.623   1.108   3.493  1.2230  0.0980 -0.4746
 1440SOL    HW215954   2.717   1.030   3.408  1.4775  2.5936  1.1805
 1441SOL     OW15955   0.800   2.295   9.965  0.1567  0.0154 -0.3823
 1441SOL    HW115956   0.766   2.213  10.003  3.2848 -1.0290  0.2106
 1441SOL    HW215957   0.875   2.254   9.920  0.0070  1.7983 -2.2654
 1442SOL     OW15958   3.700   3.611   4.425  0.0216 -0.0371 -0.2917
 1442SOL    HW115959   3.727   3.688   4.375 -3.3500  2.7452  2.2059
 1442SOL    HW215960   3.774   3.616   4.486 -0.3336  1.3455  0.0426
 1443SOL     OW15961   1.456   1.895   8.762 -0.1061 -0.1182  0.1938
 1443SOL    HW115962   1.444   1.970   8.820  1.3625  1.0905 -1.0418
 1443SOL    HW215963   1.506   1.835   8.817 -1.2986  1.4492  2.9402
 1444SOL     OW15964   3.078   0.991   7.838  0.0079  0.0436 -0.5153
 1444SOL    HW115965   3.140   0.973   7.768  1.5459 -0.5493  0.9821
 1444SOL    HW215966   3.018   0.918   7.824 -0.0784 -0.1531  0.8645
 1445SOL     OW15967   1.551   1.583   8.319  0.5948  0.3639 -0.0152
 1445SOL    HW115968   1.641   1.567   8.290  0.1485 -0.2717 -1.0366
 1445SOL    HW215969   1.565   1.641   8.394 -0.1110  0.0102  0.3920
 1446SOL     OW15970   0.559   2.954  10.929 -0.1492  0.0478 -0.0516
 1446SOL    HW115971   0.616   2.880  10.908  1.5034  0.5106  2.8473
 1446SOL    HW215972   0.612   2.998  10.995 -1.6479  1.7910 -0.0146
 1447SOL     OW15973   3.050   0.014  17.632  0.3222 -0.1459  0.0931
 1447SOL    HW115974   3.028   0.067  17.555 -0.7713 -0.3003  0.3093
 1447SOL    HW215975   3.039   0.070  17.709  0.7556  3.4487 -2.4782
 1448SOL     OW15976   3.990   3.668  15.962  0.7289  0.6667  0.6001
 1448SOL    HW115977   3.995   3.662  15.866 -1.8527  0.2333  0.4826
 1448SOL    HW215978   4.085   3.675  15.973  1.1525  0.2053 -2.6340
 1449SOL     OW15979   1.514   2.684   8.343 -0.2605  0.3675  0.5023
 1449SOL    HW115980   1.517   2.646   8.255  2.4133  0.3626  0.5835
 1449SOL    HW215981   1.461   2.616   8.383  1.2986 -1.5900 -0.7566
 1450SOL     OW15982   4.310   3.288   4.999  0.4749 -0.4815  0.4732
 1450SOL    HW115983   4.337   3.364   5.051  0.4159 -0.5303  0.5736
 1450SOL    HW215984   4.216   3.299   5.009  0.2377 -0.1737 -2.1240
 1451SOL     OW15985   0.004   2.352   1.936  0.3898  0.5792 -0.1314
 1451SOL    HW115986   4.675   2.303   1.981 -1.3019  2.6850 -0.4500
 1451SOL    HW215987   0.022   2.297   1.860  1.6097  0.9083 -0.0832
 1452SOL     OW15988   0.790   2.080   3.695 -0.1231  0.4665 -0.6559
 1452SOL    HW115989   0.854   2.013   3.675 -1.2572 -0.9930  0.6590
 1452SOL    HW215990   0.715   2.058   3.639  1.0682 -1.5486 -1.4606
 1453SOL     OW15991   0.555   0.550   4.752 -0.3704 -0.0489  0.5605
 1453SOL    HW115992   0.584   0.534   4.663  1.8162  2.3723  0.8394
 1453SOL    HW215993   0.632   0.534   4.806 -0.5908  1.6790  1.4072
 1454SOL     OW15994   1.782   3.780  13.033  0.4496  0.2460 -0.5707
 1454SOL    HW115995   1.819   3.759  13.119 -0.4596  1.4730  0.1270
 1454SOL    HW215996   1.810   3.871  13.018  0.7743  0.4087  1.0194
 1455SOL     OW15997   0.812   1.522  16.735 -0.3054  0.1769  0.0382
 1455SOL    HW115998   0.900   1.498  16.765 -0.9196 -0.2833  1.4932
 1455SOL    HW215999   0.822   1.612  16.703 -2.1784  0.6092  0.6665
 1456SOL     OW16000   1.974   4.457   3.012 -0.3476  0.7503  0.0100
 1456SOL    HW116001   1.894   4.405   3.004 -0.7283  1.3349  0.0377
 1456SOL    HW216002   2.040   4.394   2.983 -1.6051  0.2688 -1.7893
 1457SOL     OW16003   1.716   3.975   1.985  0.1611  0.2358  0.3209
 1457SOL    HW116004   1.725   4.064   2.017 -4.4340  1.0552 -0.6682
 1457SOL    HW216005   1.673   3.991   1.900  1.7612  2.6284 -0.0281
 1458SOL     OW16006   4.612   3.334   7.441 -0.3996 -0.3769  0.0637
 1458SOL    HW116007   4.595   3.349   7.534  0.1535 -0.7669  0.2264
 1458SOL    HW216008   4.707   3.341   7.435 -0.5194  0.6574 -0.6492
 1459SOL     OW16009   4.061   2.360   8.120 -0.3003  0.0741  0.1152
 1459SOL    HW116010   4.151   2.356   8.088 -0.5377  0.2007 -0.5703
 1459SOL    HW216011   4.008   2.353   8.040 -0.6155  0.9622  0.2468
 1460SOL     OW16012   1.621   3.923   5.064 -0.1197  0.1379 -0.6145
 1460SOL    HW116013   1.679   3.871   5.119 -0.8798 -1.3504 -1.2258
 1460SOL    HW216014   1.671   4.002   5.043  0.0593 -0.6788 -3.2549
 1461SOL     OW16015   2.727   2.782   3.505 -0.1635 -0.2467 -0.5538
 1461SOL    HW116016   2.681   2.801   3.587  3.1860 -3.2188  2.0598
 1461SOL    HW216017   2.742   2.687   3.509 -0.9961 -0.2805  1.4966
 1462SOL     OW16018   1.035   2.032   4.881  0.4457  0.2498 -0.2299
 1462SOL    HW116019   1.009   1.978   4.956  1.8480 -0.7762 -0.4694
 1462SOL    HW216020   1.088   2.088   4.938 -0.0360  1.1609 -0.6792
 1463SOL     OW16021   1.873   3.857  13.331  0.1959 -0.4268  0.0909
 1463SOL    HW116022   1.859   3.793  13.400 -1.3894  0.2143  0.3703
 1463SOL    HW216023   1.873   3.938  13.383  2.2607 -2.3488  3.0703
 1464SOL     OW16024   3.793   0.972   3.343  0.6224 -0.7518 -0.2480
 1464SOL    HW116025   3.704   0.999   3.366  1.1278  1.4860 -0.8868
 1464SOL    HW216026   3.786   0.877   3.350 -2.2749 -0.2336  4.4201
 1465SOL     OW16027   3.482   2.876   9.358  0.0185 -0.0201 -0.3944
 1465SOL    HW116028   3.552   2.825   9.318  0.8738  3.6714 -3.5944
 1465SOL    HW216029   3.482   2.833   9.443  0.1990  0.9829  0.1050
 1466SOL     OW16030   1.377   1.050   7.246  0.8408 -0.4641  0.3960
 1466SOL    HW116031   1.361   1.129   7.194  2.0629  0.0543  0.8033
 1466SOL    HW216032   1.438   1.090   7.309 -0.7182  0.5767  1.2514
 1467SOL     OW16033   3.899   0.805   2.288 -0.3421 -0.4640  0.8667
 1467SOL    HW116034   3.934   0.745   2.354  0.3697  1.2137  2.0053
 1467SOL    HW216035   3.922   0.896   2.308 -3.3557  0.6605 -0.8093
 1468SOL     OW16036   1.339   1.253   9.643 -0.4125 -0.0941  0.1500
 1468SOL    HW116037   1.421   1.288   9.679 -0.0250  0.2024 -1.0305
 1468SOL    HW216038   1.283   1.237   9.719  0.3376 -0.9922  0.5255
 1469SOL     OW16039   1.620   2.858   8.537  0.4235  0.5386  0.0605
 1469SOL    HW116040   1.538   2.907   8.534  0.6704  0.8980 -0.8129
 1469SOL    HW216041   1.597   2.782   8.485  0.1297  1.0318 -0.5309
 1470SOL     OW16042   0.304   2.755  12.127 -0.1338  0.2849 -0.0690
 1470SOL    HW116043   0.309   2.777  12.033 -5.2269 -0.2459 -0.5013
 1470SOL    HW216044   0.308   2.661  12.114 -2.3290  0.0506  1.0558
 1471SOL     OW16045   4.302   2.123   6.605  0.1831  0.1943  0.1648
 1471SOL    HW116046   4.271   2.079   6.684  2.0831  0.7506  1.2186
 1471SOL    HW216047   4.264   2.210   6.613 -1.5166 -0.6076  0.8648
 1472SOL     OW16048   1.330   0.266   2.634 -0.5546  0.0695 -0.1496
 1472SOL    HW116049   1.299   0.357   2.637 -0.1313  0.2576 -1.5983
 1472SOL    HW216050   1.319   0.245   2.542  0.3144  2.4578 -0.8033
 1473SOL     OW16051   3.645   4.568   1.577 -0.6008  0.6580  0.3017
 1473SOL    HW116052   3.731   4.542   1.544 -1.1228 -0.6339 -0.0798
 1473SOL    HW216053   3.650   4.655   1.539  0.3259  0.8070  0.7452
 1474SOL     OW16054   0.994   0.242   0.470  0.1942  0.3761 -0.5841
 1474SOL    HW116055   1.003   0.203   0.383 -2.2781 -0.8470 -0.3159
 1474SOL    HW216056   1.053   0.184   0.519 -1.2475  0.3704  1.1592
 1475SOL     OW16057   0.601   0.088   8.671  0.1619  0.3054 -0.0665
 1475SOL    HW116058   0.674   0.048   8.625  0.6714 -0.4627  1.4072
 1475SOL    HW216059   0.540   0.023   8.635  0.3847  0.4579 -0.7149
 1476SOL     OW16060   0.479   2.050   6.824 -0.9765 -0.3214  0.1848
 1476SOL    HW116061   0.536   2.107   6.874  1.7589 -1.9460 -1.0943
 1476SOL    HW216062   0.413   2.115   6.800 -0.3476  0.6677  1.2019
 1477SOL     OW16063   2.293   3.960   7.460  0.6847 -0.2880  0.0213
 1477SOL    HW116064   2.350   3.958   7.384 -0.4463 -1.1810 -0.8105
 1477SOL    HW216065   2.260   4.050   7.462 -0.8643 -0.8719  1.1135
 1478SOL     OW16066   1.010   0.562  10.727 -0.4237 -0.2194  0.0136
 1478SOL    HW116067   0.970   0.496  10.783 -4.8512  2.0538 -0.4897
 1478SOL    HW216068   0.942   0.562  10.660 -1.0401  1.5777  0.6376
 1479SOL     OW16069   2.445   0.437   7.022  0.1370  0.3221 -0.1006
 1479SOL    HW116070   2.383   0.471   6.957 -1.4780 -1.1886  0.6376
 1479SOL    HW216071   2.399   0.371   7.075  0.6729  0.2706  0.2981
 1480SOL     OW16072   1.054   4.406  17.745  0.4145 -0.0361 -0.0231
 1480SOL    HW116073   0.965   4.429  17.718  0.4081 -0.5689 -0.4533
 1480SOL    HW216074   1.064   4.461   0.062  2.0244 -2.6963  1.6157
 1481SOL     OW16075   0.226   2.369   2.542  0.6369  0.2005  0.0663
 1481SOL    HW116076   0.213   2.457   2.506  0.7306  0.8898  1.7005
 1481SOL    HW216077   0.217   2.327   2.456  1.3180  0.0806  0.0528
 1482SOL     OW16078   3.972   0.082   1.669 -0.3725 -0.1657 -0.1749
 1482SOL    HW116079   3.963   0.135   1.749  1.0931 -0.5555  0.2518
 1482SOL    HW216080   4.054   0.038   1.691  0.1629  1.5157  1.1635
 1483SOL     OW16081   2.542   2.697  17.208  0.2318  0.3183  0.3401
 1483SOL    HW116082   2.478   2.758  17.170 -1.5146 -1.0259  1.1164
 1483SOL    HW216083   2.598   2.695  17.131 -1.1424 -2.5275 -0.5683
 1484SOL     OW16084   0.717   1.151   5.221  0.4161 -0.2410 -0.9502
 1484SOL    HW116085   0.785   1.118   5.161 -1.0104 -3.0105 -1.0666
 1484SOL    HW216086   0.737   1.095   5.296 -1.8443 -0.5799 -0.6184
 1485SOL     OW16087   3.230   1.274   8.636 -0.2345 -0.2083 -0.6053
 1485SOL    HW116088   3.235   1.369   8.628 -0.2499 -0.2563 -1.1477
 1485SOL    HW216089   3.183   1.246   8.557 -0.1841 -4.9015  1.0152
 1486SOL     OW16090   3.786   2.012   2.507 -0.4053 -0.1955  0.4856
 1486SOL    HW116091   3.838   2.044   2.580 -2.3439  2.8259  0.5573
 1486SOL    HW216092   3.786   2.088   2.448 -0.1024  0.1011  0.8688
 1487SOL     OW16093   2.412   2.443   6.207  0.2482  0.3629 -0.0387
 1487SOL    HW116094   2.487   2.384   6.217 -0.4815 -0.6861 -0.7090
 1487SOL    HW216095   2.382   2.412   6.121  0.7725 -1.8745  0.5662
 1488SOL     OW16096   3.710   3.872   2.820 -0.0349  0.2706 -0.0780
 1488SOL    HW116097   3.766   3.942   2.785 -1.7235  0.9992 -1.3513
 1488SOL    HW216098   3.775   3.817   2.864 -0.6208 -1.7373 -1.7432
 1489SOL     OW16099   3.757   3.199   2.639 -0.0351  0.3953 -0.3273
 1489SOL    HW116100   3.741   3.122   2.693  0.6275  0.7571  0.3947
 1489SOL    HW216101   3.716   3.171   2.558  0.8963 -0.7787 -0.3845
 1490SOL     OW16102   3.086   0.671  15.116  0.3028  0.0376  0.0970
 1490SOL    HW116103   3.094   0.741  15.051 -0.8524 -2.6530 -2.9555
 1490SOL    HW216104   3.029   0.610  15.068  1.0995  0.7698 -1.7643
 1491SOL     OW16105   2.067   4.061  15.303 -0.4013  0.0018 -0.1004
 1491SOL    HW116106   1.976   4.032  15.306 -0.3661 -0.1455 -0.4982
 1491SOL    HW216107   2.118   3.980  15.304 -1.2014 -0.5244 -2.1057
 1492SOL     OW16108   1.575   0.126   1.460  0.1680  0.0373 -0.6471
 1492SOL    HW116109   1.602   0.166   1.378 -0.1124  0.4041 -0.5558
 1492SOL    HW216110   1.542   0.206   1.499  1.5902  0.7064 -0.8043
 1493SOL     OW16111   1.184   3.001  16.090 -0.3954  0.0562 -0.3964
 1493SOL    HW116112   1.261   2.985  16.145  0.0024  0.0025 -0.9739
 1493SOL    HW216113   1.117   3.025  16.155 -0.6693 -1.9949  0.0541
 1494SOL     OW16114   3.371   1.485   7.369  0.3447  0.2165  0.5105
 1494SOL    HW116115   3.350   1.574   7.396 -1.7384  0.3505 -1.5796
 1494SOL    HW216116   3.355   1.492   7.275  2.0348 -1.7452  0.0626
 1495SOL     OW16117   3.320   3.092   7.117 -0.0036 -0.1764 -0.2314
 1495SOL    HW116118   3.388   3.093   7.184  0.2104 -0.2857 -0.4494
 1495SOL    HW216119   3.383   3.079   7.047  1.0932  0.6154  0.6135
 1496SOL     OW16120   3.375   2.785   6.900 -0.4809 -0.2304  0.2252
 1496SOL    HW116121   3.407   2.862   6.947 -0.0604  0.4871 -1.2322
 1496SOL    HW216122   3.450   2.766   6.844 -0.6964 -0.6150  0.0657
 1497SOL     OW16123   1.794   2.498   8.927  0.3600  0.1544 -0.3411
 1497SOL    HW116124   1.779   2.413   8.887  0.1268 -0.0907  0.2679
 1497SOL    HW216125   1.781   2.559   8.855 -0.5816  0.3916  0.0322
 1498SOL     OW16126   0.408   3.292   2.331 -0.4398  0.0811  0.3279
 1498SOL    HW116127   0.492   3.338   2.328 -1.4955  1.9461 -1.4992
 1498SOL    HW216128   0.429   3.236   2.405  0.8941  1.0974  0.7268
 1499SOL     OW16129   0.829   4.633  12.998  0.3882  0.0217 -0.4224
 1499SOL    HW116130   0.829   4.634  12.903  1.4006 -0.7072 -0.4223
 1499SOL    HW216131   0.923   4.622  13.016  0.5387  0.8926 -0.6618
 1500SOL     OW16132   2.533   2.481   2.365  0.3662 -0.4507  0.4369
 1500SOL    HW116133   2.468   2.548   2.341 -0.5107 -0.1423  3.6039
 1500SOL    HW216134   2.566   2.460   2.278  0.3891 -0.9879  0.5779
 1501SOL     OW16135   4.272   4.004  13.480  0.0651 -0.0886  0.9814
 1501SOL    HW116136   4.332   4.072  13.508 -1.3658  2.0154 -1.0925
 1501SOL    HW216137   4.326   3.958  13.415 -1.7461 -1.7847  0.6399
 1502SOL     OW16138   2.923   4.188  10.156  1.0694  0.1312 -0.3667
 1502SOL    HW116139   2.880   4.204  10.240 -1.7560 -1.0599 -1.5921
 1502SOL    HW216140   2.867   4.117  10.124 -1.0634  2.7412 -2.4859
 1503SOL     OW16141   0.630   1.877   5.102  0.4088  0.5980 -0.4427
 1503SOL    HW116142   0.566   1.932   5.057 -0.8573 -0.7038 -0.2209
 1503SOL    HW216143   0.652   1.918   5.186  2.3279  0.7442 -1.0039
 1504SOL     OW16144   2.533   2.290   2.152  0.2806 -0.3012 -0.7831
 1504SOL    HW116145   2.579   2.241   2.220 -2.5855 -0.4907  1.0032
 1504SOL    HW216146   2.567   2.255   2.070  0.5429  2.0410 -1.6717
 1505SOL     OW16147   4.692   2.040   6.460  0.4158  0.2906  0.3632
 1505SOL    HW116148   4.708   2.118   6.406 -2.1195 -0.3212 -1.2440
 1505SOL    HW216149   0.006   1.973   6.420  1.1895 -0.0756  2.0412
 1506SOL     OW16150   2.564   2.367   1.510  0.1828  0.0130 -0.5990
 1506SOL    HW116151   2.540   2.423   1.584 -0.5127  1.4694 -1.9463
 1506SOL    HW216152   2.488   2.389   1.456  0.4866  0.8128 -0.6954
 1507SOL     OW16153   0.960   3.667   7.034 -0.0669  0.0436 -0.3368
 1507SOL    HW116154   0.915   3.749   7.015 -1.6691 -0.8843 -0.6008
 1507SOL    HW216155   1.044   3.673   6.990  0.3489  0.0445  0.4485
 1508SOL     OW16156   0.158   0.215   3.044 -0.1640  0.3367 -0.1887
 1508SOL    HW116157   0.098   0.211   2.970 -2.0312  4.5127  1.0852
 1508SOL    HW216158   0.166   0.124   3.074  0.1661 -0.6161 -3.2533
 1509SOL     OW16159   1.283   0.564   0.694 -0.0972 -0.0125 -0.1092
 1509SOL    HW116160   1.213   0.628   0.686 -1.0222 -0.4400  4.5863
 1509SOL    HW216161   1.345   0.595   0.628  0.4932 -1.9146 -0.4470
 1510SOL     OW16162   4.072   1.431   4.194 -0.4101 -0.2288 -0.3237
 1510SOL    HW116163   4.074   1.524   4.172  0.2544 -0.0976  0.3096
 1510SOL    HW216164   3.979   1.406   4.200 -0.1498 -1.0361  0.3695
 1511SOL     OW16165   3.170   4.585   7.320 -0.3216  0.0629  0.1076
 1511SOL    HW116166   3.212   4.645   7.259 -1.2004  0.1016 -0.4617
 1511SOL    HW216167   3.111   4.544   7.257 -0.4630  0.5835 -0.0945
 1512SOL     OW16168   4.479   0.270  16.835 -0.0803 -0.1688  0.9047
 1512SOL    HW116169   4.528   0.345  16.801  1.1254 -0.7341  1.4016
 1512SOL    HW216170   4.451   0.246  16.747  0.1562  1.8203  0.2726
 1513SOL     OW16171   3.643   0.303   1.768 -0.6188  0.1141 -0.3117
 1513SOL    HW116172   3.584   0.362   1.815 -0.6421 -1.7993  2.0688
 1513SOL    HW216173   3.713   0.363   1.742  0.3596 -1.5803 -1.5411
 1514SOL     OW16174   4.422   4.481   3.135  0.2703  0.4004 -0.3398
 1514SOL    HW116175   4.337   4.513   3.165 -0.1645 -2.3643  1.4023
 1514SOL    HW216176   4.404   4.390   3.159 -1.3397  0.6107 -0.7761
 1515SOL     OW16177   2.582   4.638   2.376 -0.2557 -0.2106  0.0813
 1515SOL    HW116178   2.618   4.726   2.370  1.3854 -0.9537 -1.1268
 1515SOL    HW216179   2.630   4.594   2.306  1.4901  1.0106  0.5033
 1516SOL     OW16180   1.112   3.609   6.020 -0.0083  0.1510 -0.2318
 1516SOL    HW116181   1.100   3.664   5.942 -1.2261 -0.2189 -0.3015
 1516SOL    HW216182   1.200   3.585   5.991 -1.7171 -2.8444 -2.8936
 1517SOL     OW16183   0.202   4.251   8.962  0.2831  0.3901  0.0954
 1517SOL    HW116184   0.174   4.164   8.990  4.6509 -1.1056 -0.1165
 1517SOL    HW216185   0.122   4.288   8.926  0.3699 -0.3440 -0.8434
 1518SOL     OW16186   2.553   1.188   7.150 -0.1911 -0.2000  0.5210
 1518SOL    HW116187   2.527   1.279   7.134 -0.8153 -0.2046  1.4919
 1518SOL    HW216188   2.574   1.161   7.061  1.2503 -0.3676  0.9097
 1519SOL     OW16189   3.867   2.587   6.241 -0.0431  0.2584  0.3958
 1519SOL    HW116190   3.874   2.493   6.257  1.4685  0.2885 -0.1490
 1519SOL    HW216191   3.875   2.592   6.146 -0.9500  0.6895  0.3432
 1520SOL     OW16192   3.412   4.621  12.492  0.3743  0.4320 -0.3149
 1520SOL    HW116193   3.408   4.560  12.419 -2.0993  0.5357 -0.2493
 1520SOL    HW216194   3.465   4.582  12.561 -0.4335  1.9229  1.1466
 1521SOL     OW16195   1.780   0.154   3.869 -1.0838 -0.0781  0.0915
 1521SOL    HW116196   1.688   0.130   3.863 -0.1947 -3.0967 -1.4727
 1521SOL    HW216197   1.783   0.250   3.872  1.1529 -0.0964 -1.4149
 1522SOL     OW16198   2.216   4.740   2.153 -0.1359  0.2228 -0.0600
 1522SOL    HW116199   2.311   0.003   2.139  0.0310  2.5192  1.7448
 1522SOL    HW216200   2.193   0.091   2.138  1.2113  0.1363 -2.5363
 1523SOL     OW16201   4.319   2.425   3.045  0.0682 -0.1442 -0.0731
 1523SOL    HW116202   4.322   2.520   3.033 -2.2168 -0.5204 -3.7951
 1523SOL    HW216203   4.227   2.399   3.035 -0.4200  1.6973 -0.4522
 1524SOL     OW16204   3.480   2.620   7.614 -0.1904  0.6920 -0.0456
 1524SOL    HW116205   3.398   2.662   7.638  0.5264  1.4323  1.1381
 1524SOL    HW216206   3.524   2.627   7.699 -0.3247  4.1127 -0.2756
 1525SOL     OW16207   1.865   0.151   1.587 -0.0617 -0.3215  0.2402
 1525SOL    HW116208   1.874   0.072   1.533 -0.6969 -0.2452  0.0207
 1525SOL    HW216209   1.774   0.142   1.616  0.5179 -0.5379  1.9782
 1526SOL     OW16210   2.337   2.124   4.815 -0.2128  0.3723 -0.1474
 1526SOL    HW116211   2.260   2.068   4.829 -1.0591  1.7280  0.5453
 1526SOL    HW216212   2.367   2.109   4.905 -0.8608 -0.1260 -0.0144
 1527SOL     OW16213   4.629   0.941   6.644  0.4404 -0.1394 -0.6570
 1527SOL    HW116214   4.663   0.885   6.574  0.2738 -0.3908 -0.5361
 1527SOL    HW216215   4.654   0.891   6.722 -1.3000  1.2222  0.7549
 1528SOL     OW16216   1.819   3.147  14.136 -0.0121  0.2558  0.2976
 1528SOL    HW116217   1.762   3.163  14.211 -0.7193 -0.8832  0.0105
 1528SOL    HW216218   1.762   3.087  14.087  1.2388 -1.4741  0.9612
 1529SOL     OW16219   3.505   3.460  12.656 -1.0001  0.0849  0.0685
 1529SOL    HW116220   3.597   3.484  12.669 -0.5735 -1.0251 -0.9060
 1529SOL    HW216221   3.501   3.455  12.560  2.4471  0.7812 -0.1139
 1530SOL     OW16222   2.508   0.239   1.650 -0.0978 -0.1800 -0.2009
 1530SOL    HW116223   2.553   0.222   1.567  0.4310  2.2669 -0.4231
 1530SOL    HW216224   2.563   0.302   1.697 -3.2841  1.0639  1.8526
 1531SOL     OW16225   1.463   3.174   5.306  0.2904  0.9242 -0.8406
 1531SOL    HW116226   1.413   3.235   5.359 -1.2074 -0.3934 -0.7271
 1531SOL    HW216227   1.462   3.223   5.223 -0.6600  3.8530  0.9187
 1532SOL     OW16228   4.147   0.666   1.448  0.0282  0.0913 -0.0619
 1532SOL    HW116229   4.117   0.610   1.520 -2.1211 -0.0410 -1.0519
 1532SOL    HW216230   4.063   0.692   1.410 -0.5279 -0.9651  0.4337
 1533SOL     OW16231   4.547   4.665   9.700 -0.2779  0.5524 -0.2022
 1533SOL    HW116232   4.476   4.602   9.693 -1.1411  1.5069 -0.0395
 1533SOL    HW216233   4.626   4.610   9.701 -1.2191 -0.8027  1.1226
 1534SOL     OW16234   0.105   2.079   0.642 -0.4372 -0.4745  0.0660
 1534SOL    HW116235   0.110   2.052   0.733 -0.2612 -2.7072 -0.6110
 1534SOL    HW216236   0.076   1.995   0.607  2.3317 -1.6017  0.5263
 1535SOL     OW16237   1.669   1.478  13.311  0.5793  0.0176  0.5256
 1535SOL    HW116238   1.649   1.562  13.270 -2.7312 -1.6914 -1.3857
 1535SOL    HW216239   1.589   1.427  13.301  0.2449  0.8279 -0.9712
 1536SOL     OW16240   2.149   4.230   8.986  0.2750 -0.1325  0.0566
 1536SOL    HW116241   2.061   4.258   9.008  0.4628  0.8091 -0.3830
 1536SOL    HW216242   2.191   4.204   9.068 -0.1785  1.1337  0.6959
 1537SOL     OW16243   4.709   1.072   4.590  0.2091 -0.4222  0.9321
 1537SOL    HW116244   4.653   1.001   4.619  0.8215 -1.1242  0.3881
 1537SOL    HW216245   4.679   1.146   4.643  2.3136  0.1954  1.2680
 1538SOL     OW16246   1.183   0.237   7.888  0.4125  0.0430  0.6918
 1538SOL    HW116247   1.235   0.215   7.966 -2.8499 -4.1986  1.6482
 1538SOL    HW216248   1.242   0.301   7.848 -0.2536  0.0022 -0.3385
 1539SOL     OW16249   2.543   2.327  10.851  0.1405  0.0635 -0.2235
 1539SOL    HW116250   2.552   2.407  10.800 -0.3429 -0.1719 -0.6708
 1539SOL    HW216251   2.496   2.274  10.787 -0.4713 -0.2685  0.5049
 1540SOL     OW16252   2.761   0.653  16.741  0.0734 -0.6432 -0.1096
 1540SOL    HW116253   2.830   0.650  16.674  1.1742 -2.9629  1.1055
 1540SOL    HW216254   2.682   0.650  16.688 -0.7561 -1.9643  1.2180
 1541SOL     OW16255   1.407   3.951   5.254  0.2905  0.6792 -0.1584
 1541SOL    HW116256   1.496   3.932   5.224  0.2771 -1.0526  0.8909
 1541SOL    HW216257   1.432   3.967   5.345  1.0460  0.0916 -0.2622
 1542SOL     OW16258   2.083   4.537   2.671 -0.2793  0.1976 -0.6463
 1542SOL    HW116259   1.999   4.584   2.668 -1.8320 -2.4017  2.0030
 1542SOL    HW216260   2.105   4.513   2.581 -1.7262  0.7448 -1.1458
 1543SOL     OW16261   1.815   1.538   5.122  0.0972  0.0601  0.2941
 1543SOL    HW116262   1.846   1.548   5.032 -1.8565  3.2698 -0.0062
 1543SOL    HW216263   1.802   1.626   5.158  1.0885  0.3564 -0.0599
 1544SOL     OW16264   3.758   0.143   6.286  0.1126  0.0011  0.6012
 1544SOL    HW116265   3.728   0.175   6.201  0.2559 -0.5594  0.3344
 1544SOL    HW216266   3.852   0.163   6.287  0.1778 -0.2549 -0.0397
 1545SOL     OW16267   0.137   2.820   2.261  0.0731 -0.4183  0.6067
 1545SOL    HW116268   0.109   2.854   2.176 -1.4515 -0.3851  1.1113
 1545SOL    HW216269   0.232   2.827   2.257 -0.0719  2.1378  1.7675
 1546SOL     OW16270   3.956   0.783   4.912  0.1896  0.0865  0.0926
 1546SOL    HW116271   4.001   0.835   4.979 -0.8024 -0.3826  1.1321
 1546SOL    HW216272   3.868   0.788   4.949  0.2431  1.5262  0.0253
 1547SOL     OW16273   0.506   3.655   1.058 -0.1133  0.4425 -0.6589
 1547SOL    HW116274   0.417   3.620   1.056  0.0366 -0.1970  2.4410
 1547SOL    HW216275   0.516   3.669   1.153  2.2859  0.4495 -0.9173
 1548SOL     OW16276   3.380   2.824   6.551  0.0732  0.3511 -0.9741
 1548SOL    HW116277   3.326   2.869   6.486 -2.5297  2.0667  2.3775
 1548SOL    HW216278   3.422   2.897   6.597 -1.5651  1.1043 -0.6725
 1549SOL     OW16279   4.263   0.158   0.478  0.2886 -0.0020  0.5618
 1549SOL    HW116280   4.280   0.125   0.566 -0.1415  1.0107  1.0307
 1549SOL    HW216281   4.225   0.078   0.441  2.1114 -0.2714 -0.6902
 1550SOL     OW16282   3.241   2.300   6.128  0.3956 -0.6943  0.1873
 1550SOL    HW116283   3.283   2.363   6.070 -0.9013  0.4826  0.5549
 1550SOL    HW216284   3.241   2.221   6.074  0.1863 -0.4808 -0.1224
 1551SOL     OW16285   0.540   0.487   6.735  0.0109  0.0472 -0.2556
 1551SOL    HW116286   0.581   0.520   6.815  0.0484 -1.1052  0.1991
 1551SOL    HW216287   0.448   0.472   6.755  0.3452 -2.2389 -0.3969
 1552SOL     OW16288   2.253   0.366   0.845 -0.7779 -0.2860  0.0419
 1552SOL    HW116289   2.271   0.420   0.922 -1.4231  1.1784 -0.8277
 1552SOL    HW216290   2.234   0.282   0.886 -0.9900  0.1593  0.8621
 1553SOL     OW16291   0.185   2.363  13.456  0.4634  0.0174 -0.3496
 1553SOL    HW116292   0.121   2.338  13.389 -0.0691  3.0066 -0.9662
 1553SOL    HW216293   0.134   2.356  13.537 -0.5526  1.1232 -0.8813
 1554SOL     OW16294   1.824   2.178   6.752 -0.1232  0.2679  0.7166
 1554SOL    HW116295   1.901   2.233   6.742 -1.9312  2.5214 -0.8422
 1554SOL    HW216296   1.760   2.246   6.733 -0.0947  0.2860  0.6856
 1555SOL     OW16297   3.078   0.529   7.329  0.1014 -0.3887 -0.0829
 1555SOL    HW116298   3.108   0.559   7.244 -1.2864  1.4742  0.1106
 1555SOL    HW216299   3.079   0.434   7.315  0.3595 -0.6171  1.4543
 1556SOL     OW16300   0.003   4.212  13.174 -0.0666 -0.2651  0.2334
 1556SOL    HW116301   4.685   4.242  13.105 -0.3774  1.6021  1.3167
 1556SOL    HW216302   4.711   4.123  13.165 -1.3522  0.3271 -1.0216
 1557SOL     OW16303   2.159   3.586   5.834  0.3613 -0.4077 -0.5997
 1557SOL    HW116304   2.211   3.505   5.839 -2.4962 -2.3237 -2.1424
 1557SOL    HW216305   2.077   3.547   5.864 -1.2905  3.8344  0.3450
 1558SOL     OW16306   2.593   1.017  12.066  0.4686 -0.0092  0.3595
 1558SOL    HW116307   2.653   0.976  12.004 -1.0634  0.4784 -1.4286
 1558SOL    HW216308   2.632   0.994  12.150 -1.9403  2.5764  2.1921
 1559SOL     OW16309   0.342   1.553  14.389  0.2150  0.0166 -0.6832
 1559SOL    HW116310   0.340   1.585  14.299  1.6599  1.0335 -0.3526
 1559SOL    HW216311   0.429   1.577  14.421  0.7969 -0.1480 -2.1552
 1560SOL     OW16312   3.022   3.525   4.978 -0.5112 -0.2763 -0.2969
 1560SOL    HW116313   3.116   3.535   4.958 -0.6249 -0.7315 -1.0664
 1560SOL    HW216314   2.970   3.549   4.902 -0.9075  0.3622  0.1740
 1561SOL     OW16315   4.240   0.711   4.514  0.1945 -0.4987 -0.3173
 1561SOL    HW116316   4.293   0.788   4.496  1.2778 -0.4045  3.4570
 1561SOL    HW216317   4.191   0.748   4.587  0.2187 -1.0424 -0.0304
 1562SOL     OW16318   1.484   0.157   8.751  0.3245  0.0676 -0.5872
 1562SOL    HW116319   1.456   0.212   8.678 -0.7897  1.9091  1.2175
 1562SOL    HW216320   1.401   0.114   8.770  0.2292 -0.1583 -1.5575
 1563SOL     OW16321   2.308   4.040  12.698  0.1638  0.1412  0.1959
 1563SOL    HW116322   2.387   3.986  12.686 -0.0657 -0.0930 -0.2564
 1563SOL    HW216323   2.326   4.060  12.790  1.6643  0.7401 -0.2309
 1564SOL     OW16324   2.453   2.996  15.228 -0.2504  0.2761  0.3335
 1564SOL    HW116325   2.446   3.018  15.321 -0.5546  0.9203  0.1593
 1564SOL    HW216326   2.523   3.045  15.184 -0.4115 -1.6167 -2.0358
 1565SOL     OW16327   1.288   0.974   1.522  0.0827  0.4404  0.0532
 1565SOL    HW116328   1.227   0.998   1.592 -0.4475 -1.3122  0.1948
 1565SOL    HW216329   1.243   0.891   1.506 -2.5918  1.9122  0.0631
 1566SOL     OW16330   2.424   2.581   5.688  0.1457  0.0196  0.0142
 1566SOL    HW116331   2.396   2.561   5.778 -1.6419 -0.0714 -0.5596
 1566SOL    HW216332   2.478   2.658   5.704 -0.4532  0.7956 -1.8223
 1567SOL     OW16333   1.455   2.474  10.681  0.7943  0.2862  0.3029
 1567SOL    HW116334   1.414   2.500  10.763  0.8146 -1.0341  0.7323
 1567SOL    HW216335   1.405   2.520  10.614  1.9561  1.2157  0.0654
 1568SOL     OW16336   0.866   3.314   5.730  0.2680  0.1749  0.0755
 1568SOL    HW116337   0.812   3.393   5.736  1.2146  0.8109  0.2877
 1568SOL    HW216338   0.950   3.360   5.731  0.9665 -1.0844 -1.7458
 1569SOL     OW16339   4.227   0.851   5.113 -0.0595  0.7607  0.1460
 1569SOL    HW116340   4.286   0.783   5.146  1.9502  2.6883  0.5250
 1569SOL    HW216341   4.144   0.804   5.118  0.9243 -1.0175 -0.3848
 1570SOL     OW16342   3.645   1.693   2.686 -0.1736 -0.1452  0.4359
 1570SOL    HW116343   3.636   1.598   2.681 -1.2291 -0.0433  0.3301
 1570SOL    HW216344   3.705   1.714   2.758  0.4323  0.0518 -0.1234
 1571SOL     OW16345   0.950   1.335   7.479  0.2889  0.4592 -0.4611
 1571SOL    HW116346   1.002   1.323   7.558 -1.0064 -0.0283  0.3222
 1571SOL    HW216347   0.868   1.297   7.510 -0.4060  3.5364  1.4638
 1572SOL     OW16348   3.075   2.403   7.354  0.1383 -0.0220 -0.8076
 1572SOL    HW116349   3.008   2.409   7.286  0.0002  2.5606 -0.4472
 1572SOL    HW216350   3.109   2.492   7.357 -0.8470  0.3135  0.7752
 1573SOL     OW16351   3.018   2.685   3.600 -0.2849  0.0750 -0.3844
 1573SOL    HW116352   2.944   2.636   3.565 -0.2726 -1.4117  1.6363
 1573SOL    HW216353   3.023   2.767   3.550 -1.6311 -0.0587 -0.7196
 1574SOL     OW16354   3.011   0.738   6.670  0.0540 -0.4260 -0.7089
 1574SOL    HW116355   3.093   0.702   6.705  0.4180  0.1078 -1.0163
 1574SOL    HW216356   2.947   0.691   6.724  0.9809 -0.0024  0.7495
 1575SOL     OW16357   0.268   2.510   1.636  0.0584  0.5299  0.6649
 1575SOL    HW116358   0.257   2.501   1.541  0.2084  0.7280  0.6287
 1575SOL    HW216359   0.184   2.548   1.660  0.0779 -0.8530  2.8923
 1576SOL     OW16360   3.145   3.081   5.242  0.0069  0.2925 -0.7061
 1576SOL    HW116361   3.168   3.080   5.335 -0.9423 -0.3036 -0.4758
 1576SOL    HW216362   3.103   2.997   5.226 -0.9794  1.1785 -2.7916
 1577SOL     OW16363   3.442   0.915  12.513 -0.1936 -0.2623 -0.1630
 1577SOL    HW116364   3.410   0.952  12.596 -0.6974  0.7386 -0.8066
 1577SOL    HW216365   3.366   0.917  12.455  0.4391  1.0613 -0.9573
 1578SOL     OW16366   2.086   1.065  14.537 -0.6263  0.2957 -0.3337
 1578SOL    HW116367   2.094   1.014  14.456 -0.2069  0.0954 -0.1676
 1578SOL    HW216368   2.171   1.037  14.572 -0.0391  1.3508 -0.9211
 1579SOL     OW16369   1.159   0.775   0.560 -0.1528  0.0697 -0.5820
 1579SOL    HW116370   1.192   0.857   0.523 -0.6677  0.2554 -0.6203
 1579SOL    HW216371   1.100   0.810   0.627 -2.9109  0.3568 -3.1851
 1580SOL     OW16372   1.077   2.414  12.869  0.2335  0.2286 -0.0752
 1580SOL    HW116373   0.985   2.400  12.845  0.5091 -0.5861 -0.6404
 1580SOL    HW216374   1.084   2.364  12.950 -2.9702  1.4500  0.9687
 1581SOL     OW16375   2.215   2.858   4.625  0.1642 -0.3641 -0.0856
 1581SOL    HW116376   2.231   2.932   4.684  1.9735 -0.8603  0.0569
 1581SOL    HW216377   2.121   2.860   4.611  0.2297 -1.1379 -0.6398
 1582SOL     OW16378   3.997   2.257  11.143  0.0164 -0.1586  0.3637
 1582SOL    HW116379   3.999   2.326  11.077  3.2021 -1.0691 -0.4949
 1582SOL    HW216380   3.976   2.177  11.094  1.2588  0.7445 -1.6583
 1583SOL     OW16381   3.581   4.085  16.502 -0.1408 -0.2448  0.0574
 1583SOL    HW116382   3.527   4.146  16.452 -0.4355 -2.1957 -2.0025
 1583SOL    HW216383   3.525   4.017  16.539 -0.0997  0.9649  2.3291
 1584SOL     OW16384   2.078   1.518   3.117  0.0067  0.7380  0.2611
 1584SOL    HW116385   2.087   1.612   3.135  0.5558  1.0813 -1.8834
 1584SOL    HW216386   2.123   1.482   3.193 -0.1651 -0.6448 -0.2909
 1585SOL     OW16387   3.719   4.482   5.113 -0.2924 -0.4346  0.0718
 1585SOL    HW116388   3.658   4.535   5.062  0.6627  0.8998  0.3198
 1585SOL    HW216389   3.651   4.457   5.176 -1.5353  4.9565  0.8909
 1586SOL     OW16390   4.739   4.319   3.347 -0.2171 -0.4218  0.0371
 1586SOL    HW116391   0.067   4.253   3.354  0.7361  0.4830 -0.8843
 1586SOL    HW216392   4.669   4.288   3.405 -1.0875  0.9826 -0.2704
 1587SOL     OW16393   1.737   4.658   4.611 -0.0561 -0.3376 -0.0699
 1587SOL    HW116394   1.782   4.702   4.683  1.4371 -2.7227  0.4286
 1587SOL    HW216395   1.724   4.572   4.650  3.5803 -0.4138  0.9043
 1588SOL     OW16396   1.287   0.326   3.844 -0.1964 -0.2693 -0.0989
 1588SOL    HW116397   1.354   0.262   3.867 -1.8590 -1.2031  2.1345
 1588SOL    HW216398   1.341   0.405   3.840  1.8884 -1.7557 -1.2057
 1589SOL     OW16399   1.949   2.011   7.330  0.3646  0.5288  0.6508
 1589SOL    HW116400   1.939   2.084   7.269  2.1962  0.9631  0.8438
 1589SOL    HW216401   1.995   2.062   7.397  1.6058  1.0542 -0.6010
 1590SOL     OW16402   4.343   0.140   7.629  0.1708 -0.1172  0.3342
 1590SOL    HW116403   4.320   0.055   7.665  0.4319 -1.0880 -1.8132
 1590SOL    HW216404   4.432   0.144   7.664  0.1028  0.8463  0.3948
 1591SOL     OW16405   4.106   0.172   3.519 -0.0997 -0.1223  0.4236
 1591SOL    HW116406   4.127   0.194   3.609 -2.6763 -0.0760  1.0217
 1591SOL    HW216407   4.154   0.091   3.506 -0.0251  0.2205 -1.5689
 1592SOL     OW16408   4.016   0.335   5.993  0.4865  0.6328 -0.9740
 1592SOL    HW116409   4.085   0.394   6.025  0.6539 -0.6424  1.0048
 1592SOL    HW216410   4.046   0.323   5.903 -0.4880  2.8452 -1.5909
 1593SOL     OW16411   1.853   2.578   8.525  0.9124  0.6086 -0.0112
 1593SOL    HW116412   1.840   2.610   8.614  0.1955 -0.1184  0.1513
 1593SOL    HW216413   1.775   2.526   8.506  1.4826  0.3814 -1.7678
 1594SOL     OW16414   2.314   2.999   3.400  0.3277 -0.2588 -0.0111
 1594SOL    HW116415   2.369   3.038   3.468  0.5092  1.1030 -0.9324
 1594SOL    HW216416   2.354   2.947   3.330  1.9412 -0.8036  1.3020
 1595SOL     OW16417   0.783   1.990  13.876 -0.4474  0.1569  0.1346
 1595SOL    HW116418   0.798   2.063  13.936  3.6961 -0.3657 -0.2554
 1595SOL    HW216419   0.688   1.979  13.867 -0.8031  2.4467  0.9679
 1596SOL     OW16420   2.676   2.234   5.080  0.0971 -0.1785 -0.1802
 1596SOL    HW116421   2.633   2.305   5.129  1.7237 -0.3357  1.4508
 1596SOL    HW216422   2.762   2.228   5.121  1.5994  0.8841 -3.1147
 1597SOL     OW16423   0.418   4.716   6.591  0.2230 -0.2156 -0.5771
 1597SOL    HW116424   0.489   0.039   6.588 -0.0499  0.2224  2.3984
 1597SOL    HW216425   0.459   4.634   6.620 -0.0595  0.6711  2.2935
 1598SOL     OW16426   3.552   0.232  16.615 -0.2230  0.1204  0.1622
 1598SOL    HW116427   3.637   0.217  16.575  0.4414  1.7995  0.9394
 1598SOL    HW216428   3.505   0.260  16.536  0.0958  1.8249  0.5695
 1599SOL     OW16429   3.208   2.228  16.700  0.5136 -0.1837 -0.1006
 1599SOL    HW116430   3.138   2.212  16.637  1.9310 -1.3416 -1.3717
 1599SOL    HW216431   3.265   2.158  16.670 -0.5308 -1.5101  1.0334
 1600SOL     OW16432   0.217   1.261   1.657  0.6205 -0.4106 -0.4313
 1600SOL    HW116433   0.135   1.280   1.613 -0.3143  0.7990  1.8708
 1600SOL    HW216434   0.230   1.330   1.722  0.5662 -0.8648  0.0601
 1601SOL     OW16435   3.635   0.048   6.529 -0.0929  0.2017 -0.0359
 1601SOL    HW116436   3.588   4.719   6.482 -0.1593  0.0690  0.2305
 1601SOL    HW216437   3.650   0.105   6.453 -0.8097 -1.8283 -1.7217
 1602SOL     OW16438   3.259   3.478   0.024  0.5258  0.1670  0.1939
 1602SOL    HW116439   3.304   3.441  17.709 -0.9780 -0.4819 -0.3744
 1602SOL    HW216440   3.280   3.415   0.092  0.5401 -0.5305 -0.4519
 1603SOL     OW16441   0.129   0.543   6.022  0.4456  0.1191 -0.2316
 1603SOL    HW116442   0.135   0.626   6.070 -0.4046  0.5212 -0.8127
 1603SOL    HW216443   0.088   0.486   6.087  0.3748  1.4791  0.9261
 1604SOL     OW16444   2.061   3.512   2.720  0.1149 -0.0134  0.0505
 1604SOL    HW116445   2.045   3.602   2.749 -0.8196 -0.4045  0.7259
 1604SOL    HW216446   2.102   3.534   2.636 -3.7856  1.1781 -1.5398
 1605SOL     OW16447   4.063   1.708   1.963 -0.1309 -0.0135  0.3708
 1605SOL    HW116448   4.019   1.647   2.021 -1.7395 -0.2014 -1.0300
 1605SOL    HW216449   4.127   1.751   2.020  2.4934 -0.7671 -1.9573
 1606SOL     OW16450   4.144   2.968  16.623 -0.3703  0.2626  0.0907
 1606SOL    HW116451   4.202   2.928  16.687  0.2664 -1.3404 -1.4848
 1606SOL    HW216452   4.060   2.931  16.649  0.4369 -0.7860  1.1894
 1607SOL     OW16453   2.140   1.356  16.312  0.3182  0.4502  0.0585
 1607SOL    HW116454   2.191   1.407  16.248  0.2552 -0.3876 -0.6652
 1607SOL    HW216455   2.143   1.401  16.396  0.9126 -0.5027  0.5546
 1608SOL     OW16456   0.935   4.266   2.647  0.4872  0.2456 -0.2168
 1608SOL    HW116457   0.868   4.304   2.705  1.7845  1.8093  0.2397
 1608SOL    HW216458   0.978   4.345   2.616 -0.7060  0.2197 -1.9701
 1609SOL     OW16459   2.848   1.095   8.320 -0.1967 -0.3284  0.8726
 1609SOL    HW116460   2.826   1.101   8.227 -2.3832  0.2526  1.4337
 1609SOL    HW216461   2.880   1.005   8.325  0.0162 -0.4100 -2.2756
 1610SOL     OW16462   0.844   3.184   3.079 -0.0947 -0.0544  1.2505
 1610SOL    HW116463   0.908   3.116   3.059  0.6932  1.1018 -0.1216
 1610SOL    HW216464   0.777   3.165   3.013 -0.9345  0.0319  2.0833
 1611SOL     OW16465   0.460   0.426   3.904 -0.1740  0.0325 -0.1711
 1611SOL    HW116466   0.364   0.421   3.904 -0.0841 -1.8515  0.4252
 1611SOL    HW216467   0.488   0.349   3.855  0.2811  1.4431 -2.1172
 1612SOL     OW16468   3.336   3.787   5.111  0.0388  0.4129  0.3265
 1612SOL    HW116469   3.249   3.799   5.072  0.1657 -1.7596 -0.5810
 1612SOL    HW216470   3.385   3.861   5.076 -0.8893  0.8649 -0.0143
 1613SOL     OW16471   0.986   2.672   9.004 -0.0191 -0.2879  0.7327
 1613SOL    HW116472   0.984   2.719   8.921  0.8295 -1.9227 -0.1999
 1613SOL    HW216473   0.905   2.623   9.012  1.2753 -2.2937  1.5088
 1614SOL     OW16474   0.573   0.883   4.465 -0.2413  0.6325  0.1354
 1614SOL    HW116475   0.515   0.959   4.455  1.4852  1.8652 -0.5233
 1614SOL    HW216476   0.541   0.830   4.538  2.4616 -1.3168 -0.1227
 1615SOL     OW16477   4.400   1.096  14.830  0.1779  0.2957  0.6437
 1615SOL    HW116478   4.346   1.017  14.834  1.4181 -0.5353  0.7771
 1615SOL    HW216479   4.362   1.123  14.747  0.1923  0.1030  0.5734
 1616SOL     OW16480   3.513   4.245   3.999 -0.0926 -0.1061 -0.3550
 1616SOL    HW116481   3.556   4.305   4.061  0.5845 -0.6696 -0.2832
 1616SOL    HW216482   3.510   4.287   3.913 -0.8590  0.7541  0.0834
 1617SOL     OW16483   1.133   0.582   0.374  0.2079 -0.0473 -0.0257
 1617SOL    HW116484   1.062   0.530   0.410  0.5392 -1.0871 -0.8725
 1617SOL    HW216485   1.136   0.657   0.434  1.4117  0.2082 -0.4051
 1618SOL     OW16486   0.598   1.890   0.806  0.2251 -0.1146  0.3362
 1618SOL    HW116487   0.511   1.850   0.808  0.6851 -1.1369 -0.5328
 1618SOL    HW216488   0.572   1.982   0.797  2.5427  0.7930  2.8165
 1619SOL     OW16489   0.426   1.162   4.175  0.0838 -0.0675 -0.8843
 1619SOL    HW116490   0.374   1.116   4.240 -1.2034 -1.3851 -2.8495
 1619SOL    HW216491   0.368   1.236   4.157 -1.0706 -0.1405  2.5415
 1620SOL     OW16492   0.602   1.823   6.901 -0.4241  0.1182  0.5288
 1620SOL    HW116493   0.527   1.872   6.867 -0.2553 -1.6446 -2.3898
 1620SOL    HW216494   0.632   1.874   6.977  2.2180 -0.4853 -0.0933
 1621SOL     OW16495   2.115   2.473   7.756 -0.2105  0.1318 -0.2091
 1621SOL    HW116496   2.060   2.402   7.722  0.5017  0.7096 -2.5059
 1621SOL    HW216497   2.172   2.494   7.683  2.8835 -0.7005  1.9503
 1622SOL     OW16498   0.424   0.462  10.228  0.3161  0.4021  0.4439
 1622SOL    HW116499   0.411   0.396  10.295  2.1523  1.2080  1.5932
 1622SOL    HW216500   0.483   0.412  10.170  0.5156 -0.8151  1.6956
 1623SOL     OW16501   1.225   4.254   8.981 -0.4098 -0.4727  0.4270
 1623SOL    HW116502   1.266   4.202   9.049  1.6425 -0.8106 -1.0689
 1623SOL    HW216503   1.260   4.342   8.994  0.5393 -0.9066  0.7573
 1624SOL     OW16504   3.826   0.317   3.652 -0.4372 -0.5160 -0.4743
 1624SOL    HW116505   3.905   0.294   3.701 -0.5737 -0.9377 -0.4491
 1624SOL    HW216506   3.849   0.400   3.611  1.3385 -1.0962 -0.6474
 1625SOL     OW16507   2.330   0.237   0.503  0.3676  0.1450 -0.4711
 1625SOL    HW116508   2.374   0.252   0.419 -1.5427  1.6444 -1.1798
 1625SOL    HW216509   2.240   0.245   0.473  0.8682  0.3249 -1.9495
 1626SOL     OW16510   0.618   4.578  11.519 -0.1661  0.3911  0.0303
 1626SOL    HW116511   0.678   4.614  11.585  0.3660  1.0706 -0.8253
 1626SOL    HW216512   0.676   4.570  11.443 -0.7099  0.5961 -0.4034
 1627SOL     OW16513   0.408   3.438   5.332 -0.0499  0.7110 -0.5522
 1627SOL    HW116514   0.391   3.344   5.330 -0.1776  0.7231 -0.0459
 1627SOL    HW216515   0.463   3.452   5.409  0.3914 -2.6153 -0.2576
 1628SOL     OW16516   3.276   1.647   2.763  0.0594 -0.2331  0.2883
 1628SOL    HW116517   3.357   1.639   2.713  0.7004 -0.8390  1.4408
 1628SOL    HW216518   3.220   1.702   2.707 -0.7170 -1.0569  0.2596
 1629SOL     OW16519   1.086   1.213   2.629 -0.4719 -0.2426 -0.1155
 1629SOL    HW116520   1.043   1.147   2.575  0.4668 -0.7566 -0.2460
 1629SOL    HW216521   1.030   1.291   2.623  1.3248  0.9765 -1.0011
 1630SOL     OW16522   2.450   0.081  17.111  0.0477  0.4101 -0.3946
 1630SOL    HW116523   2.423   0.168  17.083  0.6701  0.5067 -0.6769
 1630SOL    HW216524   2.458   0.092  17.206 -1.1421 -0.0833 -0.2309
 1631SOL     OW16525   1.526   3.066  13.352  0.4580  0.2735 -0.1006
 1631SOL    HW116526   1.611   3.065  13.395 -0.4389 -1.5248  1.6324
 1631SOL    HW216527   1.482   3.143  13.387 -3.1953 -2.2413  0.9190
 1632SOL     OW16528   1.139   0.002   5.935  0.2646 -0.2011 -0.3866
 1632SOL    HW116529   1.212   0.026   5.877  0.4121 -1.9528 -0.9243
 1632SOL    HW216530   1.190   4.721   6.013 -0.8851 -1.8402 -0.0953
 1633SOL     OW16531   2.884   3.159  17.376 -0.2705 -0.3618 -0.4519
 1633SOL    HW116532   2.963   3.109  17.355  1.5269  1.7795  1.2260
 1633SOL    HW216533   2.825   3.091  17.409 -0.2295 -0.2455 -0.1398
 1634SOL     OW16534   4.160   3.597   6.372 -0.3186 -0.0469 -0.4716
 1634SOL    HW116535   4.079   3.626   6.414 -0.7535 -2.6634  0.5055
 1634SOL    HW216536   4.186   3.517   6.418 -1.2927 -0.6731 -1.0209
 1635SOL     OW16537   0.935   0.191   8.270  0.1379 -0.3361 -0.2445
 1635SOL    HW116538   0.939   0.202   8.365 -1.6663  1.3181 -0.3658
 1635SOL    HW216539   1.015   0.139   8.263 -0.2106 -0.7066 -1.5601
 1636SOL     OW16540   1.133   3.471   6.325 -0.6377 -0.2090  0.4915
 1636SOL    HW116541   1.160   3.405   6.261  0.1103 -0.2069  0.8054
 1636SOL    HW216542   1.169   3.557   6.303 -1.6409 -0.6056 -2.7118
 1637SOL     OW16543   1.570   4.689   2.251 -0.0471 -0.9099  0.2205
 1637SOL    HW116544   1.566   0.030   2.202 -3.1422 -1.2927 -0.1579
 1637SOL    HW216545   1.582   4.639   2.170  1.2408  1.5253 -1.0799
 1638SOL     OW16546   2.087   3.845   8.467  0.3377  0.3741 -0.1015
 1638SOL    HW116547   2.068   3.931   8.431 -3.2402 -1.0426 -1.6072
 1638SOL    HW216548   2.030   3.848   8.543 -0.7530  0.1360 -0.9086
 1639SOL     OW16549   2.100   2.882  14.820  0.4489 -0.5410 -0.1271
 1639SOL    HW116550   2.026   2.867  14.879 -0.0999  0.5693 -0.5411
 1639SOL    HW216551   2.078   2.813  14.757 -1.0448 -0.5698  0.4174
 1640SOL     OW16552   0.848   0.269   1.437 -0.1975 -0.3837 -0.5353
 1640SOL    HW116553   0.797   0.195   1.471  0.1994 -0.7792 -0.7932
 1640SOL    HW216554   0.923   0.224   1.397 -1.0818 -1.1958 -1.2828
 1641SOL     OW16555   3.982   4.229  11.193  0.0706  0.3926  0.0605
 1641SOL    HW116556   3.922   4.227  11.119  0.8936  1.3660 -0.6245
 1641SOL    HW216557   3.928   4.168  11.244 -0.1529  0.2774 -0.3118
 1642SOL     OW16558   4.553   0.697   6.128 -0.0130 -0.4181  0.0988
 1642SOL    HW116559   4.579   0.649   6.050 -3.3396 -1.0293 -0.6306
 1642SOL    HW216560   4.623   0.759   6.148 -0.3297  0.2972 -1.0205
 1643SOL     OW16561   4.076   3.833   6.032  0.4524  0.1148 -0.0834
 1643SOL    HW116562   4.139   3.860   6.100  2.6307 -0.6385 -1.7990
 1643SOL    HW216563   4.045   3.753   6.075 -1.6949  1.7575  1.4183
 1644SOL     OW16564   1.830   3.565   2.914 -0.3110 -0.3533  0.3483
 1644SOL    HW116565   1.898   3.630   2.898  0.7313 -1.3780  0.6224
 1644SOL    HW216566   1.751   3.598   2.872  1.5042  0.9713 -1.9790
 1645SOL     OW16567   3.639   3.293  13.726  0.0350 -0.7121 -0.3778
 1645SOL    HW116568   3.629   3.198  13.737  1.7654 -0.6269  1.9530
 1645SOL    HW216569   3.718   3.320  13.772  1.0476 -0.7448 -2.1111
 1646SOL     OW16570   3.622   0.913   3.663  0.2843  0.3297  0.4917
 1646SOL    HW116571   3.651   0.823   3.681 -1.2100 -0.0816  0.8761
 1646SOL    HW216572   3.539   0.908   3.712 -0.7506 -0.1340 -1.2917
 1647SOL     OW16573   1.677   3.260   9.489  0.1483 -0.4822 -0.2284
 1647SOL    HW116574   1.721   3.187   9.531 -0.0302  0.2748  1.2949
 1647SOL    HW216575   1.677   3.228   9.399 -2.3852  0.4759 -0.5983
 1648SOL     OW16576   4.375   1.281   3.300 -0.5869  0.0302  0.1851
 1648SOL    HW116577   4.424   1.200   3.316 -1.0781 -0.7129 -2.1454
 1648SOL    HW216578   4.447   1.329   3.258  0.6722  0.4438  2.7882
 1649SOL     OW16579   3.027   0.391   8.691  0.3488 -0.4361  0.0804
 1649SOL    HW116580   3.100   0.429   8.643 -1.3938 -0.7104 -2.7995
 1649SOL    HW216581   3.061   0.389   8.780 -2.3915  0.4233  1.1600
 1650SOL     OW16582   1.518   3.498   4.523 -0.0543  0.6617 -0.0147
 1650SOL    HW116583   1.580   3.487   4.451 -1.4832  0.3906 -1.2033
 1650SOL    HW216584   1.522   3.593   4.528  0.7250  0.5384  1.6327
 1651SOL     OW16585   1.757   0.141   2.044 -0.5752  0.4632 -0.4299
 1651SOL    HW116586   1.752   0.201   2.118 -1.2469 -2.6534  2.0066
 1651SOL    HW216587   1.838   0.173   2.004 -0.9941  0.7369 -1.0622
 1652SOL     OW16588   0.752   0.830   6.335  0.1766 -0.2093 -0.1850
 1652SOL    HW116589   0.712   0.764   6.391 -1.6860 -0.0588 -1.3461
 1652SOL    HW216590   0.721   0.907   6.382  0.7286 -0.0582 -0.0631
 1653SOL     OW16591   4.025   1.324   2.464  0.3336 -0.6453 -0.1801
 1653SOL    HW116592   3.999   1.415   2.451  2.2330  0.1478  1.5014
 1653SOL    HW216593   4.092   1.314   2.396 -0.4032 -0.2587 -0.9596
 1654SOL     OW16594   3.627   3.982   5.208 -0.3704  0.0954  0.2286
 1654SOL    HW116595   3.658   4.071   5.224  1.2051  0.1198 -2.9143
 1654SOL    HW216596   3.639   3.983   5.113  1.1607  0.1714  0.4114
 1655SOL     OW16597   3.132   4.607  12.452 -0.5519 -0.0799 -0.4533
 1655SOL    HW116598   3.125   4.553  12.373 -1.8683 -0.4732 -0.0606
 1655SOL    HW216599   3.223   4.637  12.443 -0.5023 -0.9382 -3.0861
 1656SOL     OW16600   0.159   3.090   5.670  0.0164  0.1710 -0.7199
 1656SOL    HW116601   0.096   3.156   5.701  1.1070  0.9619 -0.2028
 1656SOL    HW216602   0.185   3.044   5.749 -0.5155 -0.9545 -1.2074
 1657SOL     OW16603   2.492   3.892   6.684 -0.5425  0.5823 -0.0819
 1657SOL    HW116604   2.465   3.971   6.731 -0.2640  0.6608 -0.0561
 1657SOL    HW216605   2.578   3.926   6.659  0.8031 -0.7843  2.5574
 1658SOL     OW16606   2.050   1.046   3.610 -0.1492  0.7381  0.5155
 1658SOL    HW116607   2.068   0.973   3.670  0.6795  0.8789  0.4304
 1658SOL    HW216608   2.123   1.034   3.549 -0.0978  0.5384  0.6172
 1659SOL     OW16609   3.050   0.566   7.926  0.0236 -0.1458 -0.2161
 1659SOL    HW116610   2.988   0.540   7.857 -2.4336 -2.0456  2.6951
 1659SOL    HW216611   3.010   0.539   8.008  0.2228  0.2042 -0.0059
 1660SOL     OW16612   1.189   1.915   5.201  0.2302  0.0240  0.1033
 1660SOL    HW116613   1.100   1.935   5.171  0.5534  2.0294  0.4785
 1660SOL    HW216614   1.170   1.831   5.242 -1.5107 -0.1965 -1.1401
 1661SOL     OW16615   2.774   3.116   7.565 -0.0460 -0.2642  0.0003
 1661SOL    HW116616   2.866   3.096   7.582  0.7084  1.7283 -1.7499
 1661SOL    HW216617   2.758   3.103   7.472 -2.5110  2.2698  0.0867
 1662SOL     OW16618   2.450   4.026  13.148 -0.8373 -0.7079 -0.0322
 1662SOL    HW116619   2.407   4.080  13.082 -2.3099 -1.0388  0.6524
 1662SOL    HW216620   2.524   4.082  13.168 -0.3448 -1.0739 -0.8191
 1663SOL     OW16621   3.741   1.616   9.316 -0.3477 -0.4616 -0.1050
 1663SOL    HW116622   3.714   1.615   9.224 -2.0146 -4.4175  0.4147
 1663SOL    HW216623   3.778   1.704   9.313  0.5721 -0.8953 -1.7111
 1664SOL     OW16624   0.659   2.909   5.323 -0.5242  0.0955  0.1932
 1664SOL    HW116625   0.690   2.907   5.413  1.8123  0.6543 -0.5926
 1664SOL    HW216626   0.628   3.000   5.318  0.9485  0.5665 -0.6104
 1665SOL     OW16627   0.524   1.669   2.756  0.6926  0.2212  0.0764
 1665SOL    HW116628   0.526   1.582   2.796 -0.1589  0.5438  0.8443
 1665SOL    HW216629   0.591   1.653   2.690  0.9676  2.0630 -0.1018
 1666SOL     OW16630   1.989   4.290   0.850  0.1877  0.1476  0.0260
 1666SOL    HW116631   1.902   4.256   0.825  0.7176 -0.2760 -1.2618
 1666SOL    HW216632   2.021   4.212   0.895 -1.6292 -0.2878  0.5676
 1667SOL     OW16633   1.853   4.347   8.325  0.1817  0.0668  0.0202
 1667SOL    HW116634   1.944   4.372   8.343 -0.5030  1.9292  0.8981
 1667SOL    HW216635   1.830   4.392   8.243 -0.7491  1.0897  0.8518
 1668SOL     OW16636   3.726   1.208  12.841  0.1930  0.3228 -0.1222
 1668SOL    HW116637   3.680   1.286  12.809 -4.2419 -1.6695  1.4322
 1668SOL    HW216638   3.674   1.203  12.920  0.3758 -0.4941 -0.0531
 1669SOL     OW16639   0.899   2.290   7.999 -0.0587 -0.7217  0.4542
 1669SOL    HW116640   0.883   2.369   7.947 -4.1903  0.8759  4.2348
 1669SOL    HW216641   0.871   2.227   7.932 -0.2838 -0.6221  0.4532
 1670SOL     OW16642   2.813   2.903   2.461 -0.1238  0.7179 -0.2298
 1670SOL    HW116643   2.742   2.886   2.523 -0.0583 -1.0302 -0.6369
 1670SOL    HW216644   2.822   2.814   2.427  0.3198  1.2157 -1.4076
 1671SOL     OW16645   2.270   3.614   2.187  0.2689 -0.2705  0.2661
 1671SOL    HW116646   2.192   3.618   2.243 -0.2614  1.0971 -0.5754
 1671SOL    HW216647   2.284   3.706   2.168  0.6720 -0.7644 -1.7618
 1672SOL     OW16648   0.344   1.590  14.109  0.3179  0.0460 -0.7764
 1672SOL    HW116649   0.311   1.574  14.020 -4.6415 -0.6761  1.1526
 1672SOL    HW216650   0.420   1.534  14.094  0.8970  0.7227 -0.3297
 1673SOL     OW16651   2.940   1.512   6.698  0.3830 -0.1083  0.1389
 1673SOL    HW116652   3.035   1.509   6.712  0.6479  0.9372 -1.3752
 1673SOL    HW216653   2.920   1.421   6.674  2.1481 -0.5090  0.1103
 1674SOL     OW16654   4.304   2.964   6.365  0.0660 -0.2131 -0.3288
 1674SOL    HW116655   4.260   2.882   6.389 -0.9832 -0.0216 -1.6353
 1674SOL    HW216656   4.250   3.031   6.406  1.4597  1.0448 -0.5421
 1675SOL     OW16657   1.939   3.852  11.892 -0.4561 -0.2476  0.4391
 1675SOL    HW116658   1.896   3.856  11.977  1.0046  0.3203  1.1477
 1675SOL    HW216659   2.023   3.819  11.922 -0.3085  0.2383  0.5529
 1676SOL     OW16660   4.011   0.994   4.072  0.2397 -0.0600  0.0488
 1676SOL    HW116661   4.045   1.044   4.147  2.4599 -1.0283 -0.3163
 1676SOL    HW216662   4.085   1.011   4.014 -1.2515  1.9386 -1.2562
 1677SOL     OW16663   4.707   1.952   3.297 -0.2144 -0.4096 -0.5168
 1677SOL    HW116664   0.033   1.913   3.353  0.6358 -0.6782 -1.7238
 1677SOL    HW216665   4.669   2.020   3.352  1.5438 -0.4033  0.6814
 1678SOL     OW16666   1.532   0.438   7.477 -0.2148  0.4695  0.1409
 1678SOL    HW116667   1.511   0.531   7.482  0.1175  0.5324  0.3194
 1678SOL    HW216668   1.622   0.457   7.451 -0.9246  1.0708 -1.9231
 1679SOL     OW16669   0.323   3.208   7.841  0.1306 -0.2940  0.0174
 1679SOL    HW116670   0.352   3.287   7.797  0.6395 -1.4487 -1.6987
 1679SOL    HW216671   0.247   3.175   7.792 -0.0948 -0.0329  0.1937
 1680SOL     OW16672   3.654   2.975   6.058 -0.4665 -0.9638 -0.7761
 1680SOL    HW116673   3.668   3.028   5.980 -1.0838 -0.3411 -0.4626
 1680SOL    HW216674   3.608   3.030   6.121  0.2538 -2.0343  0.6846
 1681SOL     OW16675   1.431   0.312   5.627  0.0822  0.3220 -0.3544
 1681SOL    HW116676   1.343   0.338   5.598  0.4811  1.6536 -0.3809
 1681SOL    HW216677   1.419   0.220   5.648  1.3789 -0.2141 -2.0365
 1682SOL     OW16678   3.661   0.738   7.080  0.5054  0.0238  0.3213
 1682SOL    HW116679   3.679   0.647   7.055 -1.1523 -0.4746  0.9476
 1682SOL    HW216680   3.744   0.785   7.086 -0.6380  2.0095  0.4750
 1683SOL     OW16681   2.582   0.765   0.868  0.4548 -0.0012  0.4322
 1683SOL    HW116682   2.584   0.675   0.833 -0.4396 -0.6410  2.0012
 1683SOL    HW216683   2.659   0.769   0.923  1.4195 -0.0842 -0.9147
 1684SOL     OW16684   2.915   1.676   4.251 -0.2029  0.1011  0.0591
 1684SOL    HW116685   2.946   1.765   4.270  0.4387 -0.0715 -0.1856
 1684SOL    HW216686   2.984   1.645   4.193  0.9764  1.4097  0.7554
 1685SOL     OW16687   2.713   2.121   3.329  0.3783 -0.3039  0.0190
 1685SOL    HW116688   2.671   2.205   3.310  0.1884 -0.8082 -1.7716
 1685SOL    HW216689   2.766   2.107   3.251  2.2867 -0.2855  1.3184
 1686SOL     OW16690   1.889   0.564   2.952  0.1898 -0.4821 -0.1609
 1686SOL    HW116691   1.892   0.472   2.976  1.1689 -0.7929 -1.4510
 1686SOL    HW216692   1.896   0.614   3.033  3.1574  0.3855 -0.9423
 1687SOL     OW16693   2.060   2.697   3.029  0.1191  0.2353  0.3575
 1687SOL    HW116694   1.978   2.681   3.076  1.0670 -2.1769  1.1990
 1687SOL    HW216695   2.118   2.632   3.068 -2.1395 -2.6166 -1.0425
 1688SOL     OW16696   1.024   2.582   5.201  0.4088 -0.0548 -0.2565
 1688SOL    HW116697   0.957   2.650   5.214  0.2451 -0.2601 -0.0357
 1688SOL    HW216698   1.102   2.632   5.226  1.9467 -2.1175 -0.9723
 1689SOL     OW16699   4.153   1.311   6.277  0.2507 -0.1084 -0.2144
 1689SOL    HW116700   4.187   1.380   6.334 -0.1188  1.2754 -1.6625
 1689SOL    HW216701   4.077   1.356   6.239 -1.4365 -1.1469  1.9228
 1690SOL     OW16702   0.002   3.784   7.402  0.0910 -0.5206  0.4884
 1690SOL    HW116703   4.707   3.813   7.319  0.7943  0.8056  0.6409
 1690SOL    HW216704   4.662   3.759   7.446 -1.6237  1.3874 -1.6096
 1691SOL     OW16705   3.016   4.457   6.550 -0.3108  0.1350 -0.1041
 1691SOL    HW116706   2.988   4.427   6.637 -0.8073  0.3933 -0.1753
 1691SOL    HW216707   2.985   4.547   6.543 -1.4753 -0.3578 -1.2398
 1692SOL     OW16708   4.208   0.618   5.729 -0.1357 -0.2938 -0.1085
 1692SOL    HW116709   4.269   0.691   5.733 -0.2801 -0.2485  1.4543
 1692SOL    HW216710   4.255   0.549   5.777 -0.3714 -0.9203 -0.7678
 1693SOL     OW16711   2.125   1.892   1.712 -0.0403 -0.1178  0.6463
 1693SOL    HW116712   2.161   1.980   1.728 -2.5233  0.8295  0.9791
 1693SOL    HW216713   2.036   1.924   1.696 -0.0541  0.1797  1.3125
 1694SOL     OW16714   4.321   0.138  12.673 -0.1783 -0.1288 -0.0334
 1694SOL    HW116715   4.270   0.150  12.752  0.6404 -3.3678  0.9814
 1694SOL    HW216716   4.253   0.095  12.620 -2.5144  0.4487  2.5279
 1695SOL     OW16717   2.853   3.549   4.063 -0.2944  0.3548 -0.2320
 1695SOL    HW116718   2.768   3.543   4.020  1.1385 -0.0688 -2.9581
 1695SOL    HW216719   2.831   3.619   4.124  1.5868  0.4194  0.3616
 1696SOL     OW16720   1.336   0.979   2.076  0.8952  0.0945 -0.7755
 1696SOL    HW116721   1.312   1.059   2.030  1.2639 -0.0276 -1.1743
 1696SOL    HW216722   1.288   0.920   2.017 -0.4411  1.2456 -0.8392
 1697SOL     OW16723   2.099   3.111  14.126 -0.2313 -0.0316  0.0586
 1697SOL    HW116724   2.155   3.187  14.143 -0.2076 -0.1889  0.6715
 1697SOL    HW216725   2.016   3.141  14.163 -0.8798 -0.9711 -0.6260
 1698SOL     OW16726   3.498   2.848   9.786 -0.1464  0.3290  0.2797
 1698SOL    HW116727   3.410   2.873   9.814 -1.2461 -2.8448 -0.3573
 1698SOL    HW216728   3.468   2.779   9.727  0.1216 -0.6430  1.2720
 1699SOL     OW16729   3.229   1.934   7.722 -0.0383  0.5810  0.2472
 1699SOL    HW116730   3.221   1.850   7.766  1.4386  0.9089  1.1613
 1699SOL    HW216731   3.186   1.909   7.641 -0.1385  1.1591  0.1230
 1700SOL     OW16732   2.177   4.234  14.223  0.1266 -0.9839 -0.2651
 1700SOL    HW116733   2.122   4.179  14.279 -0.2265 -0.6155 -0.2568
 1700SOL    HW216734   2.194   4.307  14.282 -0.3686 -1.2693  0.2319
 1701SOL     OW16735   3.623   4.577   3.690 -0.0053  0.0724  0.2196
 1701SOL    HW116736   3.586   4.645   3.746  1.0145 -0.2947  1.3356
 1701SOL    HW216737   3.568   4.579   3.612 -1.1358  5.5294  1.1952
 1702SOL     OW16738   0.339   0.386   0.917 -0.1063 -0.3901  0.2227
 1702SOL    HW116739   0.290   0.332   0.854 -0.2177  0.1809 -0.1842
 1702SOL    HW216740   0.425   0.350   0.898 -0.5704 -0.4328 -1.8946
 1703SOL     OW16741   4.066   3.369   3.996  0.2212  0.6652  0.4163
 1703SOL    HW116742   4.007   3.303   4.031 -0.0305  0.1906 -0.8873
 1703SOL    HW216743   3.999   3.433   3.970  0.2834  1.1556  1.4580
 1704SOL     OW16744   3.195   0.333  14.849 -0.2108 -0.6711 -0.4841
 1704SOL    HW116745   3.157   0.419  14.835  2.2903  0.6496  0.8739
 1704SOL    HW216746   3.121   0.291  14.893 -1.1841  0.0859 -1.3987
 1705SOL     OW16747   0.364   3.166   8.977 -0.7460  0.2083  1.1889
 1705SOL    HW116748   0.429   3.190   9.042  0.1156 -0.8008  0.7048
 1705SOL    HW216749   0.361   3.254   8.940 -0.9355 -0.1928  0.2426
 1706SOL     OW16750   3.178   3.038   6.123 -0.3429  0.0093  0.3750
 1706SOL    HW116751   3.086   3.063   6.136 -0.7835 -1.4535  0.1745
 1706SOL    HW216752   3.167   2.944   6.106 -1.0923  0.0388  0.6713
 1707SOL     OW16753   2.057   0.468  14.654 -0.0866  0.3705 -0.3608
 1707SOL    HW116754   2.128   0.468  14.590 -0.0309 -2.5278 -0.3135
 1707SOL    HW216755   2.100   0.529  14.714  0.2853  0.5248 -0.7822
 1708SOL     OW16756   0.764   4.312  15.997  0.6005  0.0165  0.7952
 1708SOL    HW116757   0.759   4.381  16.064  0.8723 -1.5902  2.4766
 1708SOL    HW216758   0.709   4.244  16.036 -0.3047 -0.3762 -1.1567
 1709SOL     OW16759   3.806   2.888   6.794 -0.5255  0.2338 -0.2081
 1709SOL    HW116760   3.839   2.861   6.708  0.9894 -0.2652  0.5387
 1709SOL    HW216761   3.816   2.807   6.845 -2.2994 -0.9595 -1.7447
 1710SOL     OW16762   1.975   1.217   5.933 -0.1155 -0.3717  0.3688
 1710SOL    HW116763   1.995   1.175   5.850  2.9123  1.9093 -0.0400
 1710SOL    HW216764   2.065   1.244   5.950 -0.5600 -0.7483  3.3182
 1711SOL     OW16765   3.875   4.319  16.240 -0.1506 -0.9356  0.1432
 1711SOL    HW116766   3.909   4.290  16.155 -0.4456 -1.1433  0.0950
 1711SOL    HW216767   3.892   4.243  16.294  1.7610 -1.9126 -1.8000
 1712SOL     OW16768   0.892   1.604  10.508 -0.1394  0.1849  0.1604
 1712SOL    HW116769   0.921   1.584  10.419  3.1235  1.6471  0.8853
 1712SOL    HW216770   0.977   1.620  10.549  0.3915 -2.1184 -0.0184
 1713SOL     OW16771   1.641   0.528   3.482 -0.5862 -0.2041  0.1083
 1713SOL    HW116772   1.696   0.593   3.438 -0.4610 -0.1485  0.3427
 1713SOL    HW216773   1.706   0.473   3.527  0.3020  1.7956  1.2938
 1714SOL     OW16774   3.421   1.326   5.290 -0.3862 -0.3696 -0.1813
 1714SOL    HW116775   3.325   1.329   5.296 -0.3334  1.6416 -0.6654
 1714SOL    HW216776   3.448   1.327   5.382  1.7403  1.0319 -0.8263
 1715SOL     OW16777   1.069   3.553  17.413 -0.2124 -0.2669  0.3969
 1715SOL    HW116778   1.005   3.607  17.459  0.0301 -0.1340  0.5752
 1715SOL    HW216779   1.049   3.476  17.466 -0.1514 -0.4216  0.1955
 1716SOL     OW16780   0.870   3.115   7.845  0.4673  0.0672 -0.2697
 1716SOL    HW116781   0.791   3.077   7.808  0.3402  1.6642 -1.6375
 1716SOL    HW216782   0.925   3.102   7.768 -0.8573 -0.8105 -1.0609
 1717SOL     OW16783   2.463   0.359  13.552  0.2731 -0.3126 -0.7402
 1717SOL    HW116784   2.394   0.306  13.514 -0.2779  1.8842 -2.8030
 1717SOL    HW216785   2.520   0.376  13.477  0.7947 -3.2771 -1.0040
 1718SOL     OW16786   3.337   1.475  13.577 -0.3983  0.3743 -0.0170
 1718SOL    HW116787   3.262   1.418  13.560 -0.4045  0.6182 -0.7998
 1718SOL    HW216788   3.290   1.551  13.543 -0.4053  0.5535  0.3904
 1719SOL     OW16789   2.042   3.112   0.463 -0.3706 -0.3551 -0.5185
 1719SOL    HW116790   2.022   3.201   0.493 -1.9942 -0.8853 -0.0762
 1719SOL    HW216791   1.952   3.088   0.443  0.1967  0.2021 -3.8529
 1720SOL     OW16792   0.435   2.377  12.572  0.4794 -0.3419  0.0295
 1720SOL    HW116793   0.371   2.448  12.581  2.6120  1.5019  0.4984
 1720SOL    HW216794   0.514   2.422  12.543  1.4642 -2.4416 -0.6032
 1721SOL     OW16795   2.274   1.579   2.459  0.4052  0.0697  0.2677
 1721SOL    HW116796   2.288   1.668   2.491  0.4904  0.5978 -1.2360
 1721SOL    HW216797   2.273   1.519   2.533  2.4655 -0.1800  0.0922
 1722SOL     OW16798   1.800   3.056   8.645 -0.5539 -0.3690  0.1393
 1722SOL    HW116799   1.753   3.098   8.717 -0.8736 -1.5292  0.6016
 1722SOL    HW216800   1.756   2.971   8.641 -0.4815 -0.3359 -1.3582
 1723SOL     OW16801   2.365   0.977   1.196 -0.3575  0.7234  0.7615
 1723SOL    HW116802   2.390   0.970   1.104  1.1668 -1.5004  1.3518
 1723SOL    HW216803   2.443   0.928   1.223 -0.6805 -0.1878  0.0448
 1724SOL     OW16804   3.171   1.668  12.005  0.3450 -0.3641  0.6819
 1724SOL    HW116805   3.251   1.718  11.986  0.6119 -0.4409  1.6227
 1724SOL    HW216806   3.209   1.604  12.066  2.5637 -1.9903 -2.3645
 1725SOL     OW16807   1.628   2.839   4.239 -0.1888  0.1773 -0.0154
 1725SOL    HW116808   1.563   2.771   4.256 -0.6919  0.2989 -1.3855
 1725SOL    HW216809   1.600   2.911   4.296  2.9154  0.7456  0.7983
 1726SOL     OW16810   4.363   2.071  12.561  0.1074 -0.2372  0.4174
 1726SOL    HW116811   4.396   2.010  12.627 -0.4189  0.5173  1.3642
 1726SOL    HW216812   4.306   2.125  12.615 -1.5648  0.0457 -1.6307
 1727SOL     OW16813   2.751   0.450  12.189 -0.0152  0.0302 -0.9487
 1727SOL    HW116814   2.755   0.512  12.116  0.5384  0.5949 -0.4440
 1727SOL    HW216815   2.836   0.454  12.234  0.8676  0.9598 -2.6816
 1728SOL     OW16816   3.403   2.514   8.834  0.4391  0.2265 -0.5136
 1728SOL    HW116817   3.434   2.423   8.833 -0.8168 -0.1730 -3.0930
 1728SOL    HW216818   3.444   2.549   8.913  0.2571 -0.6248 -0.0470
 1729SOL     OW16819   2.457   0.746   7.050 -0.5068 -0.0331  0.1555
 1729SOL    HW116820   2.431   0.837   7.067 -1.5843 -0.6036  1.5725
 1729SOL    HW216821   2.420   0.733   6.963  1.6625 -0.4332 -0.7066
 1730SOL     OW16822   1.492   4.525   2.039  0.3286 -0.1978  0.2628
 1730SOL    HW116823   1.409   4.573   2.032  0.8866  0.8361  0.6399
 1730SOL    HW216824   1.480   4.460   2.108  1.5015 -1.6971 -0.9380
 1731SOL     OW16825   4.372   0.780   7.079  0.0672 -0.5836  0.2762
 1731SOL    HW116826   4.288   0.796   7.123 -0.0100  1.7037 -0.7023
 1731SOL    HW216827   4.349   0.707   7.022  2.3746 -0.7350 -0.4595
 1732SOL     OW16828   3.560   3.002   6.669  0.3305 -0.2552 -0.8112
 1732SOL    HW116829   3.636   2.951   6.642  1.1525  0.4387  0.1816
 1732SOL    HW216830   3.602   3.087   6.661 -0.9420  0.1825 -2.6963
 1733SOL     OW16831   4.155   1.974  12.263 -0.3489  0.1687  0.2464
 1733SOL    HW116832   4.186   1.971  12.172 -1.2457  0.1257 -0.0569
 1733SOL    HW216833   4.134   1.883  12.283  0.3389  0.1617  0.9391
 1734SOL     OW16834   3.700   0.754   5.015  0.3075  0.2953 -0.5848
 1734SOL    HW116835   3.646   0.713   4.948  2.3568  0.5876 -2.4228
 1734SOL    HW216836   3.718   0.684   5.077  0.7651 -0.5807 -1.6986
 1735SOL     OW16837   2.370   1.145   9.016  0.1933 -0.6415  0.0633
 1735SOL    HW116838   2.288   1.096   9.025 -0.4068  0.3007 -0.2936
 1735SOL    HW216839   2.410   1.118   8.933 -0.9663 -0.0642 -0.6843
 1736SOL     OW16840   2.278   4.268   2.582 -0.1068  0.0300  0.1454
 1736SOL    HW116841   2.362   4.254   2.625 -0.3308 -1.7046  0.0269
 1736SOL    HW216842   2.288   4.337   2.517 -0.9583  0.7838  0.8079
 1737SOL     OW16843   4.463   3.215   5.640 -0.0124 -0.8779  1.0208
 1737SOL    HW116844   4.492   3.145   5.582  0.5015 -0.4885  0.8035
 1737SOL    HW216845   4.550   3.239   5.673 -0.5797  3.4633 -0.6211
 1738SOL     OW16846   4.296   0.783   6.156  0.2347  0.1038  0.2820
 1738SOL    HW116847   4.385   0.750   6.156 -0.4651 -1.7544  2.5510
 1738SOL    HW216848   4.296   0.832   6.074  0.7898  0.8178  0.7117
 1739SOL     OW16849   1.372   2.451   7.527 -0.3989  0.0706 -0.0241
 1739SOL    HW116850   1.424   2.482   7.601  1.2222  1.5997 -1.8132
 1739SOL    HW216851   1.302   2.516   7.529 -1.4068 -1.0472  1.3193
 1740SOL     OW16852   2.624   3.657   9.868  0.2164  0.0961 -0.1146
 1740SOL    HW116853   2.593   3.569   9.845  1.2554 -0.6289  1.1754
 1740SOL    HW216854   2.650   3.644   9.960 -1.0562 -3.9255 -0.3118
 1741SOL     OW16855   1.210   0.532   2.655  0.4107 -0.1240  0.7355
 1741SOL    HW116856   1.170   0.608   2.613 -0.2651  0.9640  3.3456
 1741SOL    HW216857   1.291   0.580   2.672  0.8181  0.4907 -2.9274
 1742SOL     OW16858   4.227   4.212  11.054  0.3539 -0.4992 -0.2281
 1742SOL    HW116859   4.144   4.243  11.089  0.1214 -0.8805 -0.4455
 1742SOL    HW216860   4.198   4.128  11.021  2.5423 -1.6042  0.6295
 1743SOL     OW16861   4.106   1.733  12.899 -0.1151 -0.5192  0.5833
 1743SOL    HW116862   4.201   1.738  12.909 -0.0052 -0.1704 -0.6224
 1743SOL    HW216863   4.090   1.657  12.843 -1.2285  0.3727 -0.3181
 1744SOL     OW16864   3.894   4.194  17.140 -0.7277 -0.1958  0.5309
 1744SOL    HW116865   3.907   4.205  17.046 -0.0836  1.6045  0.8358
 1744SOL    HW216866   3.820   4.253  17.158 -1.6415 -1.8339  2.1773
 1745SOL     OW16867   1.853   3.989   4.517  0.4038  0.0822  0.2320
 1745SOL    HW116868   1.908   4.050   4.566  0.3086  0.7612 -0.5092
 1745SOL    HW216869   1.855   3.910   4.572 -1.1630  0.5348  0.9423
 1746SOL     OW16870   0.551   1.291   1.648 -0.5063 -0.1740 -0.2520
 1746SOL    HW116871   0.522   1.213   1.602  0.7065  1.8052 -4.3464
 1746SOL    HW216872   0.573   1.266   1.738 -2.2835 -1.9993 -0.3175
 1747SOL     OW16873   4.172   0.246   8.055  0.2409  0.3326 -0.0839
 1747SOL    HW116874   4.188   0.287   8.140  0.6552  0.2192 -0.1065
 1747SOL    HW216875   4.181   0.152   8.071 -0.8130  0.3966  0.9551
 1748SOL     OW16876   4.446   2.321   5.691  0.3552  0.6915  0.0553
 1748SOL    HW116877   4.523   2.307   5.745  1.0085 -1.7840 -1.5620
 1748SOL    HW216878   4.461   2.258   5.621  1.0063  0.5676  0.3050
 1749SOL     OW16879   1.363   0.102   0.097 -0.0086 -0.3527 -0.1185
 1749SOL    HW116880   1.306   0.090   0.173 -0.0752 -0.0496 -0.1222
 1749SOL    HW216881   1.309   0.154   0.038 -1.5235 -3.2006 -1.2641
 1750SOL     OW16882   0.117   4.193   6.114 -0.3554 -0.2263  0.0958
 1750SOL    HW116883   0.072   4.275   6.133 -0.4278 -0.1539 -0.3908
 1750SOL    HW216884   0.110   4.154   6.201 -0.3891 -0.7641 -0.1460
 1751SOL     OW16885   0.945   1.019   7.736 -0.2373 -0.5572  0.0346
 1751SOL    HW116886   0.979   1.064   7.813  0.9249 -0.3153 -0.6221
 1751SOL    HW216887   0.866   1.068   7.715  0.2744  0.3203  0.1684
 1752SOL     OW16888   1.087   4.449  16.381 -0.4572  0.1964  0.6920
 1752SOL    HW116889   1.167   4.397  16.377  1.5531  3.3961 -0.8895
 1752SOL    HW216890   1.044   4.456  16.296  0.4397 -1.5233  0.1020
 1753SOL     OW16891   0.039   2.840   9.018  0.4096  0.7430  0.2969
 1753SOL    HW116892   0.111   2.797   8.972 -0.7816 -0.4398 -0.4582
 1753SOL    HW216893   0.053   2.931   8.993  2.0293  0.6816  0.9695
 1754SOL     OW16894   3.549   2.344   2.716  0.0221  0.2619  0.4526
 1754SOL    HW116895   3.463   2.387   2.710 -1.1790 -2.3022 -0.6830
 1754SOL    HW216896   3.519   2.265   2.760 -1.6683 -0.0054 -1.1542
 1755SOL     OW16897   3.851   1.881   1.468  0.0564 -0.2575  0.0282
 1755SOL    HW116898   3.943   1.887   1.494  0.5436 -1.5846 -1.3742
 1755SOL    HW216899   3.850   1.799   1.418  0.8361  1.4886 -2.8868
 1756SOL     OW16900   0.090   3.926   2.453  0.2387 -0.3843 -0.4262
 1756SOL    HW116901   0.078   3.851   2.511 -0.4594  1.4633  1.8266
 1756SOL    HW216902   0.006   3.972   2.456  0.4625 -0.0949  1.2654
 1757SOL     OW16903   0.325   4.339  12.526 -0.8167 -0.1579 -0.0955
 1757SOL    HW116904   0.381   4.264  12.508  0.8562  0.9552  0.5132
 1757SOL    HW216905   0.305   4.361  12.435 -0.1017  3.2404  0.5570
 1758SOL     OW16906   2.158   1.630  10.051  0.2104 -0.6764 -0.4661
 1758SOL    HW116907   2.187   1.566  10.116 -0.3116 -0.2626  0.1762
 1758SOL    HW216908   2.248   1.644  10.022  0.9245  0.7730  2.5061
 1759SOL     OW16909   3.425   3.563   7.206  0.1488 -0.1387 -0.1128
 1759SOL    HW116910   3.493   3.505   7.170  1.3818 -0.8102  3.3277
 1759SOL    HW216911   3.345   3.510   7.199 -1.2342  2.2748 -2.3889
 1760SOL     OW16912   0.137   0.042   3.257 -0.0847 -0.0763  0.2029
 1760SOL    HW116913   0.078   0.111   3.287  0.7883  1.1925 -1.0070
 1760SOL    HW216914   0.079   4.709   3.241  0.7243  0.1774 -4.0654
 1761SOL     OW16915   0.178   1.787   6.085 -0.1351 -0.2826  0.1365
 1761SOL    HW116916   0.270   1.783   6.058 -0.3408  0.0654 -0.6096
 1761SOL    HW216917   0.154   1.695   6.094  0.3113 -0.5215 -1.1332
 1762SOL     OW16918   1.194   3.478   4.045 -0.3300  0.3057 -0.4037
 1762SOL    HW116919   1.230   3.407   4.098 -0.4773  0.8013  0.3671
 1762SOL    HW216920   1.192   3.549   4.110 -3.7055  0.5108 -0.7118
 1763SOL     OW16921   3.547   1.333   5.555  0.1930  0.4528  0.8619
 1763SOL    HW116922   3.487   1.272   5.600 -0.2608  1.1479  1.1993
 1763SOL    HW216923   3.541   1.421   5.593 -0.4841  0.3943  0.8985
 1764SOL     OW16924   4.340   0.059   6.409 -0.4646 -0.3633 -0.4057
 1764SOL    HW116925   4.420   0.034   6.455  0.5984 -1.9538 -3.1080
 1764SOL    HW216926   4.322   0.144   6.450 -0.4058 -1.0481  1.0413
 1765SOL     OW16927   2.255   1.685   3.782  0.1567 -0.2310 -0.5581
 1765SOL    HW116928   2.274   1.605   3.831  2.9114  1.0657  0.4990
 1765SOL    HW216929   2.337   1.707   3.738 -0.1832  0.5294 -0.7963
 1766SOL     OW16930   2.209   1.695   4.689  0.2736 -0.1128  0.2989
 1766SOL    HW116931   2.276   1.722   4.751 -0.1274 -2.0540  1.5843
 1766SOL    HW216932   2.196   1.782   4.652  0.0914 -1.0643 -1.9010
 1767SOL     OW16933   1.488   3.210  17.208  0.2213 -0.0713  0.1116
 1767SOL    HW116934   1.565   3.157  17.188 -0.4156 -1.0298  0.1973
 1767SOL    HW216935   1.409   3.160  17.188 -0.9123  0.7002  2.5855
 1768SOL     OW16936   2.341   1.116  16.126  0.6274  0.3980 -0.3274
 1768SOL    HW116937   2.313   1.024  16.123  0.5096  0.4908 -2.6652
 1768SOL    HW216938   2.285   1.145  16.053  0.2107  1.0206  0.2480
 1769SOL     OW16939   3.589   3.457   1.572 -0.3249 -0.1257 -0.0470
 1769SOL    HW116940   3.499   3.428   1.584 -0.3134 -1.3365 -2.8781
 1769SOL    HW216941   3.617   3.394   1.505  3.6681  0.6401  0.8775
 1770SOL     OW16942   4.692   4.534   2.565 -0.2797 -0.2637  0.3457
 1770SOL    HW116943   0.003   4.456   2.544 -1.4670 -1.0377  0.2495
 1770SOL    HW216944   4.647   4.547   2.481  0.0170 -1.4215  0.0053
 1771SOL     OW16945   3.143   0.422   8.979  0.2215 -0.1839 -0.5440
 1771SOL    HW116946   3.199   0.345   8.994  2.3257  1.2491 -0.9761
 1771SOL    HW216947   3.214   0.479   8.948  0.1614  0.9147  1.3052
 1772SOL     OW16948   0.162   1.959   7.697 -0.0307  0.6984  0.1934
 1772SOL    HW116949   0.208   1.901   7.636 -1.2386  0.1814 -0.2219
 1772SOL    HW216950   0.192   1.920   7.780  0.0464  1.0889  0.3455
 1773SOL     OW16951   2.862   0.315  16.352  0.0957  0.6315  0.0095
 1773SOL    HW116952   2.871   0.408  16.375 -2.0392  0.7261  0.4841
 1773SOL    HW216953   2.913   0.275  16.423 -0.5903 -0.3532 -0.0577
 1774SOL     OW16954   3.373   1.278   1.679  0.5092  0.5179 -0.4618
 1774SOL    HW116955   3.415   1.208   1.729 -0.2305  0.7478  0.4734
 1774SOL    HW216956   3.386   1.257   1.586  3.5259 -0.1618  0.1149
 1775SOL     OW16957   2.739   3.410   2.414  0.1743 -0.0409 -0.3033
 1775SOL    HW116958   2.657   3.436   2.457  1.0619  0.7574  0.8831
 1775SOL    HW216959   2.727   3.412   2.319  1.1477 -0.2916 -0.4229
 1776SOL     OW16960   3.233   4.016   7.822  0.1343 -0.0755  0.3388
 1776SOL    HW116961   3.173   3.984   7.890 -0.4822  0.3624 -0.0028
 1776SOL    HW216962   3.186   3.985   7.744  0.2760  0.2493  0.1241
 1777SOL     OW16963   2.094   2.004   0.454  0.4612 -0.3221  0.1811
 1777SOL    HW116964   2.114   1.966   0.539  0.1653  1.5850  1.0957
 1777SOL    HW216965   2.086   2.099   0.466 -1.6219 -0.1818 -2.1297
 1778SOL     OW16966   4.124   2.731   6.337 -0.3878 -0.6328  0.8915
 1778SOL    HW116967   4.096   2.737   6.429  1.1200 -1.0982  1.3806
 1778SOL    HW216968   4.067   2.659   6.308 -0.8421  0.3923 -0.7439
 1779SOL     OW16969   2.634   1.431   4.149  0.1213 -0.1463  0.4222
 1779SOL    HW116970   2.674   1.345   4.138 -0.6354 -0.3676 -0.5233
 1779SOL    HW216971   2.546   1.406   4.176  0.8586 -2.5585  0.5692
 1780SOL     OW16972   2.104   4.727   9.176  0.0778 -0.0722  0.3934
 1780SOL    HW116973   2.028   4.728   9.233  1.4716  1.6179  2.2624
 1780SOL    HW216974   2.084   4.656   9.116  2.7807  1.5984 -2.5541
 1781SOL     OW16975   2.905   3.219  16.166  0.1254  0.3642 -0.5041
 1781SOL    HW116976   2.834   3.276  16.135 -1.1360 -0.8406  0.1546
 1781SOL    HW216977   2.899   3.242  16.259  3.1953 -1.5764  0.1599
 1782SOL     OW16978   2.221   2.589   4.821  0.7227  0.3632  0.5727
 1782SOL    HW116979   2.227   2.680   4.850 -0.3526  0.5634  0.1684
 1782SOL    HW216980   2.291   2.588   4.756  1.1285 -1.4893  1.0444
 1783SOL     OW16981   3.667   4.003  13.129 -0.5463 -0.3374  0.6068
 1783SOL    HW116982   3.576   3.985  13.154  0.5729 -3.3507  2.5212
 1783SOL    HW216983   3.693   3.914  13.105 -2.3968 -0.8781  0.6138
 1784SOL     OW16984   1.935   0.040   7.595  0.0611 -0.0621  0.2692
 1784SOL    HW116985   2.025   0.007   7.594 -0.8135 -2.3949 -0.2248
 1784SOL    HW216986   1.953   0.131   7.570  1.0476 -0.7404 -1.4655
 1785SOL     OW16987   2.412   0.986   0.930  0.4881  0.1074  0.2784
 1785SOL    HW116988   2.394   1.060   0.872  1.0663  0.2079  0.2314
 1785SOL    HW216989   2.419   0.911   0.870 -2.8722 -0.6851  0.8702
 1786SOL     OW16990   4.586   0.676   1.084 -0.2179 -0.3237  0.2417
 1786SOL    HW116991   4.595   0.595   1.035  2.3241 -0.1922  0.5057
 1786SOL    HW216992   4.667   0.721   1.062 -1.7281  1.6908 -1.1943
 1787SOL     OW16993   2.165   3.633   2.491 -0.9025  0.0300 -0.1006
 1787SOL    HW116994   2.075   3.659   2.509 -1.3111 -0.5749 -1.3167
 1787SOL    HW216995   2.206   3.716   2.514 -1.4604  0.2279  0.1764
 1788SOL     OW16996   4.278   0.739   7.964 -0.1045 -0.4623 -0.3665
 1788SOL    HW116997   4.276   0.733   7.869 -3.1617 -0.7905 -0.2688
 1788SOL    HW216998   4.310   0.655   7.997 -0.0565  0.3641  1.7082
 1789SOL     OW16999   4.409   3.237   8.510  0.7341 -0.0709  1.0340
 1789SOL    HW117000   4.478   3.204   8.452  0.9775  1.8077  0.2395
 1789SOL    HW217001   4.381   3.159   8.559 -1.9557  1.8537  2.5607
 1790SOL     OW17002   2.965   2.788   6.437  0.1481 -0.0601  0.0074
 1790SOL    HW117003   2.964   2.882   6.457 -0.4188 -0.3982  1.6279
 1790SOL    HW217004   3.053   2.762   6.462 -0.7429 -1.8987  1.2334
 1791SOL     OW17005   1.719   2.727   5.579  0.4299 -0.1552 -0.0202
 1791SOL    HW117006   1.706   2.757   5.669 -0.2601  0.5084 -0.3398
 1791SOL    HW217007   1.628   2.711   5.551  0.0617  2.3811 -0.3004
 1792SOL     OW17008   0.020   0.247   6.427 -0.2221  0.3788  0.0897
 1792SOL    HW117009   4.732   0.293   6.505  0.2486  0.2642  0.3342
 1792SOL    HW217010   4.681   0.199   6.406 -0.5710  0.8108  0.4155
 1793SOL     OW17011   1.075   1.389   6.971  0.5388 -0.2290  0.0138
 1793SOL    HW117012   1.020   1.330   6.919 -0.3283  0.4910  0.1187
 1793SOL    HW217013   1.063   1.344   7.055  0.5827  0.5703  0.4457
 1794SOL     OW17014   3.104   2.189   3.448 -0.2786 -0.4996  0.5495
 1794SOL    HW117015   3.053   2.210   3.526 -0.6059 -0.2855  0.2776
 1794SOL    HW217016   3.128   2.101   3.476  0.8747 -0.9973 -1.9869
 1795SOL     OW17017   4.289   2.517   9.435  0.6169 -0.3214 -0.1333
 1795SOL    HW117018   4.320   2.494   9.522  3.9543  2.7757 -0.5009
 1795SOL    HW217019   4.296   2.613   9.435 -0.4603 -0.2429  1.5190
 1796SOL     OW17020   2.967   2.085   1.553 -0.4721 -0.4891  0.1674
 1796SOL    HW117021   3.032   2.116   1.615 -1.7753  0.1659  1.2026
 1796SOL    HW217022   2.883   2.123   1.580 -1.4300 -0.0916 -3.3484
 1797SOL     OW17023   0.094   3.200  10.114  0.4772  0.2320  0.6386
 1797SOL    HW117024   0.136   3.259  10.176  0.6998  3.0142 -2.1750
 1797SOL    HW217025   0.125   3.112  10.137  2.1446  0.7462  0.3753
 1798SOL     OW17026   3.372   2.398   5.548 -0.0023  0.1104 -0.2655
 1798SOL    HW117027   3.364   2.336   5.621  0.1220  1.0439  0.5372
 1798SOL    HW217028   3.426   2.342   5.493 -0.3813  0.7345 -1.2690
 1799SOL     OW17029   1.492   2.343   6.469  0.1649  0.9146  0.0109
 1799SOL    HW117030   1.560   2.405   6.440 -2.1209  2.6596 -1.5862
 1799SOL    HW217031   1.505   2.270   6.408 -1.1070  0.4900  0.2504
 1800SOL     OW17032   2.287   1.026   3.194 -0.0568 -0.6806  0.2201
 1800SOL    HW117033   2.376   1.003   3.168  0.0467 -1.4458  1.2363
 1800SOL    HW217034   2.250   1.022   3.106  0.7919 -1.3115 -0.1076
 1801SOL     OW17035   0.636   0.315   7.870  0.0083 -0.0856 -0.5609
 1801SOL    HW117036   0.721   0.321   7.913  0.2873 -2.6446 -0.8037
 1801SOL    HW217037   0.628   0.406   7.840 -0.6931 -0.6127 -1.9345
 1802SOL     OW17038   0.950   0.523   8.340  0.0622  0.2613  0.3099
 1802SOL    HW117039   0.993   0.600   8.376  0.5703  0.4683 -0.7391
 1802SOL    HW217040   0.950   0.471   8.421 -0.3684 -1.1660 -0.6059
 1803SOL     OW17041   2.056   3.308   2.169 -0.1936  0.0456  0.2618
 1803SOL    HW117042   2.110   3.337   2.095  0.6425 -0.3804  0.7044
 1803SOL    HW217043   2.032   3.394   2.204  0.3606 -0.9220  3.0244
 1804SOL     OW17044   4.554   2.175   6.113 -0.2568  0.1871  0.1846
 1804SOL    HW117045   4.465   2.159   6.145 -0.7827  1.9771 -0.3877
 1804SOL    HW217046   4.566   2.092   6.068 -0.5103  0.4386 -0.3441
 1805SOL     OW17047   2.441   0.950  14.943  0.8393 -0.1051  0.1460
 1805SOL    HW117048   2.434   1.001  15.024 -1.1899  0.1746 -0.1880
 1805SOL    HW217049   2.510   0.886  14.957  0.4820 -0.7551 -1.1086
 1806SOL     OW17050   0.423   0.244   5.531 -0.3752  0.1927 -0.0528
 1806SOL    HW117051   0.330   0.252   5.510  0.0568  2.7001 -0.9818
 1806SOL    HW217052   0.436   0.280   5.618  0.5948  0.6714 -0.3843
 1807SOL     OW17053   3.603   1.090   2.379 -0.4046  0.4091 -0.2317
 1807SOL    HW117054   3.577   1.002   2.354 -0.2303  0.3619 -0.2404
 1807SOL    HW217055   3.625   1.069   2.470 -1.7435 -1.3931 -0.3199
 1808SOL     OW17056   2.308   1.996   0.268 -0.1870 -0.0482 -0.8029
 1808SOL    HW117057   2.247   2.013   0.340  1.4210  2.0212  0.0850
 1808SOL    HW217058   2.311   1.900   0.272  0.9158 -0.0974 -2.7631
 1809SOL     OW17059   0.536   1.858   7.325 -0.2400 -0.4007  0.1945
 1809SOL    HW117060   0.590   1.877   7.248 -0.7022 -0.5033 -0.1580
 1809SOL    HW217061   0.484   1.789   7.283  1.3162 -1.8700  0.6816
 1810SOL     OW17062   2.358   1.145  17.603  0.4595  0.2937  0.2950
 1810SOL    HW117063   2.411   1.220  17.579  0.7606 -0.7098 -2.2829
 1810SOL    HW217064   2.399   1.073  17.555 -0.7074  0.1876 -0.5602
 1811SOL     OW17065   3.220   3.404   7.274  0.3850 -0.3442 -0.3508
 1811SOL    HW117066   3.299   3.372   7.319 -0.1046  2.6937  2.7002
 1811SOL    HW217067   3.185   3.474   7.330  1.6354 -1.0501  1.3221
 1812SOL     OW17068   0.955   1.432  12.301  0.0024  0.2428 -0.5160
 1812SOL    HW117069   0.913   1.348  12.283  2.2639 -0.6729 -1.6009
 1812SOL    HW217070   1.011   1.405  12.373 -2.2014  0.4075  1.2337
 1813SOL     OW17071   3.856   0.078   2.967  0.4792 -0.3781 -1.3666
 1813SOL    HW117072   3.790   0.051   2.903 -0.0376  0.0861 -1.0273
 1813SOL    HW217073   3.928   0.026   2.932  1.6375 -0.1938  0.7719
 1814SOL     OW17074   4.677   2.666   4.605  0.6818 -0.2540 -0.1863
 1814SOL    HW117075   4.706   2.575   4.606 -1.0154 -0.8170 -1.2126
 1814SOL    HW217076   0.019   2.711   4.588  1.0307 -1.3749 -1.4553
 1815SOL     OW17077   2.148   4.428   3.834 -0.8748  0.2217 -0.2250
 1815SOL    HW117078   2.199   4.399   3.758  0.6300  1.3795  0.3668
 1815SOL    HW217079   2.182   4.517   3.824  0.2168 -0.2557 -0.8131
 1816SOL     OW17080   4.635   0.373   1.786  0.9462 -0.2387 -1.1977
 1816SOL    HW117081   4.562   0.336   1.835  0.9709 -0.1159 -1.0697
 1816SOL    HW217082   4.659   0.451   1.835 -3.2108 -0.4006  1.0651
 1817SOL     OW17083   4.614   0.839   4.397  0.3479 -0.0605 -0.1073
 1817SOL    HW117084   4.534   0.866   4.443  0.9579  1.6383 -0.0146
 1817SOL    HW217085   4.625   0.917   4.343 -1.3959  0.9733  1.0119
 1818SOL     OW17086   2.007   4.123   4.101  0.2050 -0.8432 -0.3569
 1818SOL    HW117087   1.925   4.121   4.150  0.0516 -0.1305 -0.5930
 1818SOL    HW217088   2.071   4.117   4.173 -0.7199  1.8989  0.6827
 1819SOL     OW17089   2.859   4.355  14.720  0.2817 -0.3102  0.1841
 1819SOL    HW117090   2.824   4.368  14.632  1.7669  2.9413  0.0778
 1819SOL    HW217091   2.783   4.391  14.767 -0.0707  0.1601 -0.7412
 1820SOL     OW17092   2.298   1.716   1.523  0.7260  0.5076  0.2977
 1820SOL    HW117093   2.238   1.772   1.572 -0.0010 -0.0011 -0.0080
 1820SOL    HW217094   2.370   1.778   1.512  0.3536  0.9988  0.6257
 1821SOL     OW17095   0.915   0.796   4.076 -0.2011 -0.2264 -0.4519
 1821SOL    HW117096   0.830   0.807   4.119  0.1875 -0.8025  0.4511
 1821SOL    HW217097   0.900   0.834   3.990 -1.1456 -0.6311 -0.4652
 1822SOL     OW17098   1.314   4.495   9.083  0.4563 -0.1739  0.0309
 1822SOL    HW117099   1.365   4.481   9.162  0.1408 -0.4628  0.1837
 1822SOL    HW217100   1.355   4.575   9.051 -0.5563 -0.3439 -1.7001
 1823SOL     OW17101   4.681   1.822   9.392  0.2439  0.3981  0.6094
 1823SOL    HW117102   4.644   1.864   9.470  1.1677 -1.4329  2.0263
 1823SOL    HW217103   0.028   1.797   9.421  0.4097  0.3969  0.1050
 1824SOL     OW17104   3.263   1.906   7.312 -0.0524  0.2757 -1.0030
 1824SOL    HW117105   3.241   1.999   7.312  0.9641  0.5137 -1.2504
 1824SOL    HW217106   3.203   1.876   7.243 -0.9903 -0.4511  0.1344
 1825SOL     OW17107   2.415   0.942   6.282  0.2868  0.1827 -0.1194
 1825SOL    HW117108   2.464   0.868   6.317  0.6633  0.6343  0.3049
 1825SOL    HW217109   2.326   0.926   6.314 -0.0170 -0.8330 -1.4609
 1826SOL     OW17110   3.126   2.488   8.794  0.4047  0.1725 -0.0938
 1826SOL    HW117111   3.220   2.505   8.789  0.2118  0.7982 -2.0076
 1826SOL    HW217112   3.111   2.467   8.701  1.3283 -0.2015 -0.1547
 1827SOL     OW17113   1.540   2.724   1.126 -0.2047 -0.9935 -0.0537
 1827SOL    HW117114   1.630   2.720   1.158  0.4387  2.3933 -1.3796
 1827SOL    HW217115   1.530   2.819   1.113 -3.5614 -1.3013  0.1841
 1828SOL     OW17116   3.397   3.025  10.239 -0.1991 -0.1178  0.5984
 1828SOL    HW117117   3.460   3.085  10.280 -1.0439 -0.1029  1.8912
 1828SOL    HW217118   3.394   2.958  10.307 -3.1112  2.1902  2.7550
 1829SOL     OW17119   0.606   2.146   0.993  0.0431 -0.1084 -0.3938
 1829SOL    HW117120   0.685   2.177   0.948  0.8905 -1.6429  0.0327
 1829SOL    HW217121   0.546   2.146   0.918 -1.7602 -0.2005  1.0689
 1830SOL     OW17122   3.220   3.545   6.161 -0.2426  0.5811  0.1145
 1830SOL    HW117123   3.211   3.606   6.088 -1.3391 -2.3783 -2.2125
 1830SOL    HW217124   3.230   3.458   6.125 -1.1702  0.8845 -0.8478
 1831SOL     OW17125   1.526   0.936   3.521 -0.5487 -0.5254 -0.1825
 1831SOL    HW117126   1.484   0.850   3.522 -0.4255 -0.5883 -0.6728
 1831SOL    HW217127   1.610   0.923   3.478 -0.9013 -2.7838 -0.2085
 1832SOL     OW17128   0.516   1.372   3.202  0.4847  0.3752  0.2976
 1832SOL    HW117129   0.531   1.427   3.124 -0.2676 -0.2809 -0.3092
 1832SOL    HW217130   0.593   1.397   3.253  2.4310 -0.9917 -1.9272
 1833SOL     OW17131   3.316   0.658   4.800  0.2832  0.7270 -0.2213
 1833SOL    HW117132   3.306   0.749   4.771 -1.9318  1.0723  1.5757
 1833SOL    HW217133   3.409   0.645   4.785  0.5270  4.1610 -1.9028
 1834SOL     OW17134   0.093   3.789   6.705  0.0706 -0.6142  0.1290
 1834SOL    HW117135   0.152   3.825   6.772  0.4222  3.0846 -2.1484
 1834SOL    HW217136   0.161   3.744   6.655 -0.3431  0.1707 -1.1245
 1835SOL     OW17137   4.122   1.338   3.161 -0.4633  0.4763  0.3023
 1835SOL    HW117138   4.177   1.277   3.211  0.5338 -0.6924 -2.2326
 1835SOL    HW217139   4.035   1.323   3.199 -1.6904  0.0624 -2.6813
 1836SOL     OW17140   3.590   2.948   3.461 -0.2455  0.4130  0.3435
 1836SOL    HW117141   3.642   2.987   3.391 -0.3427 -1.8050 -0.9608
 1836SOL    HW217142   3.645   2.976   3.535 -2.8510  0.3494  2.2995
 1837SOL     OW17143   0.504   0.686   1.427  0.4219  0.2885 -0.4747
 1837SOL    HW117144   0.434   0.642   1.378 -0.5783  2.3178 -0.8727
 1837SOL    HW217145   0.563   0.615   1.454  0.2260  0.1725 -0.3461
 1838SOL     OW17146   1.982   1.080  11.639 -0.0491 -0.2847 -0.2301
 1838SOL    HW117147   2.067   1.102  11.599  0.4870 -0.2875  0.9226
 1838SOL    HW217148   1.995   0.986  11.654 -0.6112 -0.4393 -0.7280
 1839SOL     OW17149   2.223   4.645   7.775 -0.1634 -0.2354  0.0133
 1839SOL    HW117150   2.296   4.629   7.835 -0.9435  0.5379  1.1673
 1839SOL    HW217151   2.158   4.692   7.827  1.4291  2.4260 -0.4145
 1840SOL     OW17152   1.293   2.535   8.459  0.1992  0.0409 -0.3258
 1840SOL    HW117153   1.273   2.583   8.539 -0.0042  0.3265 -0.5419
 1840SOL    HW217154   1.206   2.515   8.423 -0.6136  0.1718  1.6058
 1841SOL     OW17155   2.696   1.206   3.137 -0.1081 -0.0475  0.2588
 1841SOL    HW117156   2.770   1.239   3.086  0.6281 -0.7607  0.8650
 1841SOL    HW217157   2.676   1.289   3.181 -2.1377 -0.2261 -0.3056
 1842SOL     OW17158   0.611   3.127  12.017  0.4058  0.5609 -0.3151
 1842SOL    HW117159   0.632   3.110  11.925 -0.2540  5.0808 -1.3212
 1842SOL    HW217160   0.691   3.168  12.051  0.8181  1.5943 -2.5184
 1843SOL     OW17161   3.392   4.410   1.564 -0.1912 -0.5333 -0.1640
 1843SOL    HW117162   3.470   4.465   1.568  0.3291 -1.2233 -0.9985
 1843SOL    HW217163   3.439   4.327   1.557  0.0863 -0.3805 -0.0910
 1844SOL     OW17164   2.433   3.728   0.841  0.1154 -0.0836 -0.2877
 1844SOL    HW117165   2.428   3.823   0.846 -2.8074 -0.2533  0.0118
 1844SOL    HW217166   2.526   3.704   0.851  0.4577  1.3700  0.0182
 1845SOL     OW17167   1.751   1.932   3.295  0.8327  0.1545  0.1178
 1845SOL    HW117168   1.730   1.931   3.389 -2.6217 -0.4218 -0.6565
 1845SOL    HW217169   1.665   1.962   3.265  0.9090 -0.3028 -0.5586
 1846SOL     OW17170   2.399   0.953   4.924  0.6276  0.2005 -0.1909
 1846SOL    HW117171   2.464   0.999   4.976  0.1934  0.1861  0.3580
 1846SOL    HW217172   2.446   0.870   4.919 -1.0762 -0.7891  0.1248
 1847SOL     OW17173   3.376   3.702  11.361 -0.2345 -0.1711  0.1490
 1847SOL    HW117174   3.314   3.743  11.421 -2.0002 -0.8513 -1.2010
 1847SOL    HW217175   3.365   3.757  11.283 -0.9773 -2.2847 -1.2444
 1848SOL     OW17176   1.712   3.284   5.028  0.1185 -0.4839 -0.0111
 1848SOL    HW117177   1.620   3.303   5.045 -0.0465 -1.2859  0.0245
 1848SOL    HW217178   1.691   3.208   4.973 -0.0683 -1.4533  1.3728
 1849SOL     OW17179   2.726   4.286  16.168 -0.0227  0.5977  0.5583
 1849SOL    HW117180   2.649   4.324  16.211 -0.9047 -0.6438  0.0932
 1849SOL    HW217181   2.777   4.363  16.145  1.9385 -0.7928  0.2700
 1850SOL     OW17182   4.184   1.835   6.146  0.7413 -0.2267  0.5994
 1850SOL    HW117183   4.195   1.833   6.051  2.5762  1.0220  0.7895
 1850SOL    HW217184   4.141   1.920   6.160  0.2764 -0.1844 -1.0609
 1851SOL     OW17185   4.168   3.161   3.465  0.7816 -0.7065 -0.1778
 1851SOL    HW117186   4.082   3.187   3.498 -0.2462 -0.9553 -2.6498
 1851SOL    HW217187   4.155   3.132   3.375 -2.1585 -0.0335  0.0316
 1852SOL     OW17188   0.875   1.897   4.704  0.6994 -0.2098 -0.2551
 1852SOL    HW117189   0.853   1.953   4.630  0.0984  2.3987  1.9270
 1852SOL    HW217190   0.929   1.954   4.759  2.8161 -1.1199 -1.3751
 1853SOL     OW17191   1.129   3.192   2.947  0.1487  0.5273  0.0147
 1853SOL    HW117192   1.108   3.276   2.989 -0.3410  0.6280 -0.4282
 1853SOL    HW217193   1.063   3.175   2.880  1.1147 -0.1173 -0.7590
 1854SOL     OW17194   3.578   2.970   0.484 -0.2315 -0.1418 -0.0423
 1854SOL    HW117195   3.484   2.986   0.497 -0.0392  1.1799 -0.3421
 1854SOL    HW217196   3.575   2.902   0.416 -0.1904  1.0143 -1.1958
 1855SOL     OW17197   2.593   3.460   3.970 -0.0128  0.5053  0.1073
 1855SOL    HW117198   2.609   3.440   3.878  0.7249  2.1906 -0.1351
 1855SOL    HW217199   2.558   3.550   3.965 -0.5144  0.3382  0.5303
 1856SOL     OW17200   0.254   2.202   2.925  0.3666  0.6341  0.2792
 1856SOL    HW117201   0.220   2.156   2.848 -1.4948  0.4955  1.1798
 1856SOL    HW217202   0.206   2.150   2.990 -0.4631  1.2616  0.1716
 1857SOL     OW17203   1.644   3.359   8.505  0.1854  0.0165 -0.1627
 1857SOL    HW117204   1.566   3.306   8.526 -3.1356  3.4433 -3.9750
 1857SOL    HW217205   1.698   3.319   8.437 -1.4469 -0.3121 -1.2613
 1858SOL     OW17206   1.164   0.418   4.340  0.3982  0.1734  0.4321
 1858SOL    HW117207   1.100   0.484   4.312  1.6905  1.6347  0.9073
 1858SOL    HW217208   1.154   0.368   4.259  1.2813  0.5387  0.0975
 1859SOL     OW17209   0.588   0.575  11.499 -0.3630  0.2211 -0.6479
 1859SOL    HW117210   0.659   0.625  11.539 -1.0882 -1.9116  3.3948
 1859SOL    HW217211   0.557   0.518  11.570 -2.9542  2.0679 -0.3278
 1860SOL     OW17212   3.105   4.420   4.336  0.1627  0.4395 -0.5977
 1860SOL    HW117213   3.092   4.394   4.428  3.7378  0.3610 -0.1368
 1860SOL    HW217214   3.191   4.462   4.334 -0.0640  0.9916  1.0161
 1861SOL     OW17215   0.700   4.099   7.746 -0.1009 -0.1901 -0.0160
 1861SOL    HW117216   0.734   4.130   7.830  0.4550 -1.4897  0.2315
 1861SOL    HW217217   0.667   4.179   7.705 -0.3501  0.2835  1.1138
 1862SOL     OW17218   2.262   2.277  13.691 -0.2295 -0.3402 -0.5407
 1862SOL    HW117219   2.234   2.312  13.607 -0.4017  0.9774  0.0668
 1862SOL    HW217220   2.209   2.197  13.689  1.6759 -1.5515 -1.7839
 1863SOL     OW17221   0.693   3.095  15.759  0.7495  0.2566  0.9377
 1863SOL    HW117222   0.766   3.048  15.800 -0.0301 -0.0077  2.0192
 1863SOL    HW217223   0.667   3.152  15.832 -0.4058 -0.9793  1.4755
 1864SOL     OW17224   4.114   1.757   9.874 -0.5801  0.1708 -0.2540
 1864SOL    HW117225   4.107   1.671   9.915 -4.9600 -0.0862 -1.5445
 1864SOL    HW217226   4.174   1.793   9.940 -1.2911  1.2530 -0.1972
 1865SOL     OW17227   4.647   2.144   3.480  0.5489 -0.0221 -0.6797
 1865SOL    HW117228   4.581   2.188   3.533  0.5894  0.0277 -0.6696
 1865SOL    HW217229   4.711   2.212   3.456 -0.2428 -0.3597 -3.7912
 1866SOL     OW17230   3.779   3.664   1.558  0.2258  0.0439 -0.0011
 1866SOL    HW117231   3.691   3.629   1.570  0.3032  0.5387  2.0142
 1866SOL    HW217232   3.769   3.760   1.552 -0.6948 -0.0741 -0.3546
 1867SOL     OW17233   2.120   0.305   2.527  0.3191  0.2301  0.0679
 1867SOL    HW117234   2.097   0.377   2.468 -0.9954  0.9658  1.4653
 1867SOL    HW217235   2.216   0.312   2.529  0.3568 -0.6068  1.3070
 1868SOL     OW17236   1.357   1.274   2.379  0.0599 -0.5091  0.3905
 1868SOL    HW117237   1.331   1.350   2.431 -2.8991 -0.4666 -1.1304
 1868SOL    HW217238   1.452   1.289   2.378  0.1222 -0.9229  0.1489
 1869SOL     OW17239   1.409   3.784  16.332  0.1817  0.1082 -0.2541
 1869SOL    HW117240   1.476   3.786  16.265  0.0932 -2.2961 -0.4256
 1869SOL    HW217241   1.464   3.766  16.408 -0.6393  0.2368  0.3807
 1870SOL     OW17242   0.406   2.368  11.772  0.1589  0.2975 -0.0966
 1870SOL    HW117243   0.457   2.336  11.847 -1.4163 -0.1013  0.7966
 1870SOL    HW217244   0.353   2.439  11.809 -0.9644 -0.5080 -0.1667
 1871SOL     OW17245   1.997   4.102   6.290  0.5279 -0.1806  0.6108
 1871SOL    HW117246   2.020   4.165   6.222  1.6930 -0.1827  0.9973
 1871SOL    HW217247   1.947   4.155   6.352 -0.2373  2.0372 -1.9351
 1872SOL     OW17248   0.964   0.189   8.530  0.3679  0.1470 -0.1164
 1872SOL    HW117249   0.905   0.132   8.579 -0.1369  0.8398  0.0925
 1872SOL    HW217250   0.970   0.256   8.599  1.2286 -0.1735  0.1153
 1873SOL     OW17251   1.469   3.279  14.141  0.2052 -0.4785  0.7258
 1873SOL    HW117252   1.460   3.313  14.230 -2.0225 -0.1983  0.4057
 1873SOL    HW217253   1.558   3.244  14.129 -0.5775 -2.4993  0.7220
 1874SOL     OW17254   2.699   3.664   5.908 -0.6591  0.1967  0.1335
 1874SOL    HW117255   2.645   3.739   5.932  0.7024  0.6198  1.8768
 1874SOL    HW217256   2.784   3.703   5.925 -0.5851  0.6881 -1.3606
 1875SOL     OW17257   0.722   0.038   2.523  0.1931  0.3133  0.4240
 1875SOL    HW117258   0.744   0.128   2.499  1.4103  0.7577  3.2384
 1875SOL    HW217259   0.646   0.066   2.574  0.0302  1.6718 -0.5670
 1876SOL     OW17260   3.907   2.485   8.513 -0.1676 -0.2778 -0.0891
 1876SOL    HW117261   3.852   2.548   8.465 -0.5924  0.6982  1.6699
 1876SOL    HW217262   3.912   2.408   8.456  1.7943  1.4197 -2.2295
 1877SOL     OW17263   0.208   3.644  15.276  1.4184  0.0503  0.1903
 1877SOL    HW117264   0.158   3.708  15.225  1.6198 -1.0294 -1.3703
 1877SOL    HW217265   0.202   3.690  15.360  1.1020 -1.7737  1.1593
 1878SOL     OW17266   3.316   2.816   5.427  0.5658  0.8353 -0.2905
 1878SOL    HW117267   3.376   2.770   5.485  0.3288 -0.7361 -1.2826
 1878SOL    HW217268   3.369   2.839   5.351  2.6447 -1.1425  0.5656
 1879SOL     OW17269   1.955   3.079  15.969 -0.1669  0.1116  0.1168
 1879SOL    HW117270   1.942   3.120  16.055 -1.1022 -0.0128  0.0334
 1879SOL    HW217271   1.869   3.038  15.957  0.1746 -0.1556 -1.4508
 1880SOL     OW17272   1.266   3.803   4.540 -0.5315 -0.4536 -0.4657
 1880SOL    HW117273   1.261   3.811   4.635  1.1077 -0.0097 -0.4143
 1880SOL    HW217274   1.283   3.892   4.509 -0.5687 -0.2313  0.1446
 1881SOL     OW17275   4.705   1.275   4.966  0.0157  0.2411  0.2364
 1881SOL    HW117276   0.046   1.284   5.014  0.9662 -1.1961 -1.1232
 1881SOL    HW217277   4.651   1.219   5.022  0.9741 -1.2758 -0.3531
 1882SOL     OW17278   0.797   4.678  11.732 -0.0927  0.2155  0.4136
 1882SOL    HW117279   0.794   0.009  11.795 -2.5792 -1.0077  1.6791
 1882SOL    HW217280   0.883   4.638  11.751 -0.0447  0.3066  0.3880
 1883SOL     OW17281   0.494   3.411   3.297  0.5361  0.4525 -0.4300
 1883SOL    HW117282   0.572   3.453   3.333  0.2354  1.5535 -1.0634
 1883SOL    HW217283   0.525   3.325   3.325 -0.9194 -0.6313 -2.1749
 1884SOL     OW17284   0.482   4.479  13.154 -0.2335  0.1719  0.0196
 1884SOL    HW117285   0.416   4.409  13.158 -2.7200  2.4567 -0.6348
 1884SOL    HW217286   0.421   4.544  13.191 -2.8351 -2.1420 -0.1418
 1885SOL     OW17287   4.214   2.057  17.179  0.6436  0.7249  0.5822
 1885SOL    HW117288   4.174   2.136  17.214  2.6621  2.2686 -0.6201
 1885SOL    HW217289   4.276   2.037  17.250  2.3190  1.6843 -0.6140
 1886SOL     OW17290   1.607   1.274  17.279 -0.4313  0.2606  0.1218
 1886SOL    HW117291   1.578   1.272  17.370 -4.2993  0.3063 -1.0957
 1886SOL    HW217292   1.693   1.315  17.283 -0.6855  0.8664 -0.5761
 1887SOL     OW17293   1.254   3.363   2.510 -0.6313  0.3617  0.5144
 1887SOL    HW117294   1.197   3.292   2.541  2.1003 -1.8745  0.3983
 1887SOL    HW217295   1.340   3.323   2.498 -0.1059  1.2902  1.2670
 1888SOL     OW17296   4.016   4.128   2.197 -0.3338  0.2294  0.0681
 1888SOL    HW117297   4.059   4.213   2.186 -0.7899  0.2417 -1.6162
 1888SOL    HW217298   3.926   4.150   2.171 -0.5593  1.0551  1.5546
 1889SOL     OW17299   3.002   4.530  17.460 -0.6283  0.0525  0.2176
 1889SOL    HW117300   3.036   4.613  17.494 -1.5991  0.8347 -0.7451
 1889SOL    HW217301   2.929   4.523  17.521  0.2721  1.0303  1.4220
 1890SOL     OW17302   0.295   1.084  17.429 -0.1571  0.0539  0.6400
 1890SOL    HW117303   0.341   1.013  17.475  0.4864 -0.4186 -0.7317
 1890SOL    HW217304   0.201   1.072  17.439  0.0952 -1.2847  1.5323
 1891SOL     OW17305   2.812   3.264   6.489 -0.5442 -0.1073  0.0707
 1891SOL    HW117306   2.737   3.234   6.436 -1.2459  0.9839  0.4533
 1891SOL    HW217307   2.857   3.328   6.434 -0.1608  1.9417  2.7617
 1892SOL     OW17308   1.838   3.997   8.186 -0.1770 -0.6778  0.4557
 1892SOL    HW117309   1.758   3.945   8.194 -0.2600 -0.7152 -0.6350
 1892SOL    HW217310   1.913   3.938   8.193  0.0251 -0.3204  1.3688
 1893SOL     OW17311   4.406   4.110   9.794 -0.2330  0.4120  0.2590
 1893SOL    HW117312   4.324   4.062   9.781 -0.1740  0.3882 -0.0455
 1893SOL    HW217313   4.359   4.193   9.798  0.0004  0.6028 -0.9081
 1894SOL     OW17314   0.753   0.577   2.734 -0.4173  0.2476  0.3827
 1894SOL    HW117315   0.694   0.516   2.691 -0.0934 -1.0812  1.8016
 1894SOL    HW217316   0.829   0.519   2.748 -0.5320 -0.0232 -0.1355
 1895SOL     OW17317   0.952   2.297   4.813 -0.0325 -0.0590  0.0762
 1895SOL    HW117318   1.020   2.340   4.762 -1.4994  1.3802 -0.6897
 1895SOL    HW217319   0.999   2.224   4.852 -2.0978 -0.8879  1.0130
 1896SOL     OW17320   3.370   2.934   1.991  0.2814 -0.4301 -0.0084
 1896SOL    HW117321   3.277   2.914   1.988  0.0221  0.9581 -1.1776
 1896SOL    HW217322   3.394   2.874   1.921  0.5152 -0.3248 -0.0195
 1897SOL     OW17323   0.046   0.857   0.991  0.2610  0.3920  0.2961
 1897SOL    HW117324   0.093   0.776   0.966 -0.6585 -0.3922  1.1366
 1897SOL    HW217325   0.114   0.905   1.038  1.0974  0.9885 -1.4911
 1898SOL     OW17326   4.133   1.401   5.951  0.1498 -0.6969 -0.1732
 1898SOL    HW117327   4.043   1.372   5.967 -0.1849  1.4464  1.8045
 1898SOL    HW217328   4.166   1.317   5.918 -3.1911 -1.3689 -1.8126
 1899SOL     OW17329   1.221   4.396   8.527 -0.2038 -0.1314  0.2525
 1899SOL    HW117330   1.192   4.446   8.603 -1.2499 -1.5542  0.7786
 1899SOL    HW217331   1.254   4.314   8.564  1.1135 -0.3784 -1.4686
 1900SOL     OW17332   3.920   0.262  11.172 -0.3260 -0.1416  0.3395
 1900SOL    HW117333   3.959   0.176  11.162 -0.6150 -0.2436  0.0915
 1900SOL    HW217334   3.921   0.293  11.082 -0.5901  1.3976  0.8588
 1901SOL     OW17335   4.319   1.502   5.747  0.3545  0.2578  0.0967
 1901SOL    HW117336   4.271   1.488   5.828  1.2770  2.1522  0.9686
 1901SOL    HW217337   4.299   1.420   5.703  0.5247 -0.0056  0.5141
 1902SOL     OW17338   2.493   1.313  16.257 -0.3213 -0.3980 -0.2790
 1902SOL    HW117339   2.452   1.266  16.185 -0.4254 -0.4865 -0.1611
 1902SOL    HW217340   2.492   1.239  16.317  0.0555 -0.7293 -0.6829
 1903SOL     OW17341   3.475   0.534  12.889  0.4172 -0.2178  0.3924
 1903SOL    HW117342   3.499   0.540  12.982  1.4562  0.5413  0.0648
 1903SOL    HW217343   3.446   0.621  12.862  0.8909  0.1227  0.9732
 1904SOL     OW17344   1.756   0.440   6.395  0.2467  0.2211 -0.2466
 1904SOL    HW117345   1.665   0.411   6.396 -0.1253  1.3382 -2.3345
 1904SOL    HW217346   1.808   0.363   6.420  1.5496  0.1942 -3.0641
 1905SOL     OW17347   2.039   2.330   2.640  0.1999 -0.5223 -0.1020
 1905SOL    HW117348   2.116   2.329   2.696  0.1564  1.6519  0.0012
 1905SOL    HW217349   2.009   2.415   2.673 -0.9285 -0.0042 -2.4263
 1906SOL     OW17350   1.045   0.273   7.414 -0.2070 -0.2401 -0.8605
 1906SOL    HW117351   0.961   0.320   7.412 -0.4080 -0.6940 -2.7535
 1906SOL    HW217352   1.085   0.324   7.484 -0.1172 -1.2558 -0.1756
 1907SOL     OW17353   4.176   1.730  17.119 -0.0735 -0.2598  0.0301
 1907SOL    HW117354   4.176   1.768  17.206 -2.3299  0.1341 -0.1464
 1907SOL    HW217355   4.224   1.792  17.064 -0.3919 -0.0649 -0.0257
 1908SOL     OW17356   4.679   3.553   2.077  0.4125  0.1361 -0.1812
 1908SOL    HW117357   4.623   3.478   2.056  0.2710 -0.2245  1.4402
 1908SOL    HW217358   0.017   3.503   2.097 -0.7888 -0.4522  3.0528
 1909SOL     OW17359   2.573   1.170   9.209  0.3030  0.1369 -0.6341
 1909SOL    HW117360   2.548   1.084   9.174  2.5006 -0.4078 -0.8338
 1909SOL    HW217361   2.519   1.228   9.155 -0.3466 -0.7251 -0.9256
 1910SOL     OW17362   3.500   2.464  13.400 -0.2187 -0.2448 -0.2663
 1910SOL    HW117363   3.491   2.559  13.392 -1.9862 -0.2989  1.1056
 1910SOL    HW217364   3.590   2.463  13.432 -0.9154  3.2911  1.7814
 1911SOL     OW17365   3.447   3.251   3.603  0.4482 -0.4463 -0.0420
 1911SOL    HW117366   3.475   3.267   3.513  0.2892 -0.7610 -0.1488
 1911SOL    HW217367   3.388   3.176   3.598 -0.7687  0.6027 -1.1494
 1912SOL     OW17368   1.087   2.252  13.084 -0.3351 -0.0924  0.1988
 1912SOL    HW117369   1.071   2.161  13.059  0.0082 -0.3815  1.0238
 1912SOL    HW217370   1.103   2.247  13.178 -0.1294 -1.5035  0.0915
 1913SOL     OW17371   0.208   2.445   0.060 -0.1312 -0.0325 -0.6887
 1913SOL    HW117372   0.230   2.404   0.143  0.2297 -1.1521 -1.3406
 1913SOL    HW217373   0.130   2.497   0.078 -0.6738 -0.5094 -1.7125
 1914SOL     OW17374   4.025   1.761   5.280 -0.4663  0.7652 -0.1941
 1914SOL    HW117375   4.014   1.802   5.194  1.1419 -1.4467 -1.4427
 1914SOL    HW217376   4.093   1.694   5.268  1.0153  2.1669  0.2494
 1915SOL     OW17377   2.274   0.299   7.745  0.8388 -0.0313 -0.2718
 1915SOL    HW117378   2.349   0.321   7.690  0.0426  1.2656 -0.8373
 1915SOL    HW217379   2.319   0.252   7.816 -0.7778 -0.6427  0.3347
 1916SOL     OW17380   4.185   1.007   2.983  0.0917 -0.0967 -0.3064
 1916SOL    HW117381   4.158   1.091   2.946 -0.5079  0.2803  0.9992
 1916SOL    HW217382   4.120   0.980   3.048 -0.0636  1.7681  0.3299
 1917SOL     OW17383   1.040   1.192   3.860 -0.5172 -0.2998 -1.1840
 1917SOL    HW117384   1.085   1.255   3.916 -0.4162 -0.2965 -1.2701
 1917SOL    HW217385   0.951   1.228   3.860  0.3382  1.7856 -1.2483
 1918SOL     OW17386   2.608   2.192   9.892 -0.5944  0.0744 -0.2488
 1918SOL    HW117387   2.600   2.108   9.938 -0.6862  0.8409  1.1177
 1918SOL    HW217388   2.525   2.202   9.845 -1.9329  0.0720  2.1562
 1919SOL     OW17389   0.200   1.400  13.045  0.4823  0.1371 -0.0625
 1919SOL    HW117390   0.210   1.495  13.045  2.6936 -0.1000  0.7478
 1919SOL    HW217391   0.293   1.379  13.048  0.0203 -1.9978 -0.2414
 1920SOL     OW17392   2.830   0.488  17.312  0.0602 -0.1345  0.1888
 1920SOL    HW117393   2.848   0.582  17.315  1.0003 -0.2464 -2.1827
 1920SOL    HW217394   2.740   0.492  17.279 -0.6634 -2.8591  1.8464
 1921SOL     OW17395   0.819   3.831   8.776  0.7557  0.1073  0.0245
 1921SOL    HW117396   0.850   3.850   8.864 -0.0810 -0.9963  0.5544
 1921SOL    HW217397   0.814   3.913   8.727 -0.9389 -0.7336 -1.2371
 1922SOL     OW17398   4.533   1.245   7.437 -0.6748  0.3271  0.0087
 1922SOL    HW117399   4.546   1.253   7.343 -2.1408 -3.2366 -0.4658
 1922SOL    HW217400   4.541   1.152   7.455  0.7913  0.4345 -0.0643
 1923SOL     OW17401   0.866   3.997   9.273  0.0698  0.1278  0.2192
 1923SOL    HW117402   0.861   4.092   9.267  0.5088  0.1905  0.9115
 1923SOL    HW217403   0.924   3.992   9.348 -1.7565 -2.7167  1.4692
 1924SOL     OW17404   4.399   1.168   4.275  0.0279  0.8435 -0.5852
 1924SOL    HW117405   4.461   1.241   4.264  1.4282 -0.2620  0.0339
 1924SOL    HW217406   4.422   1.091   4.224 -0.5104  0.0045  0.4313
 1925SOL     OW17407   0.285   0.418   6.365 -0.4483 -0.1056 -0.2611
 1925SOL    HW117408   0.315   0.406   6.455  1.7359  1.7118 -0.7679
 1925SOL    HW217409   0.210   0.359   6.352 -0.4513 -0.2939  0.6238
 1926SOL     OW17410   1.234   3.660   5.065 -0.3603  0.3425 -0.1829
 1926SOL    HW117411   1.319   3.637   5.100 -0.8455  0.1795  0.8943
 1926SOL    HW217412   1.233   3.617   4.980 -0.1805  1.5376 -0.7833
 1927SOL     OW17413   3.252   1.118  16.384 -0.5032  0.1943 -0.0934
 1927SOL    HW117414   3.212   1.201  16.359 -2.2879 -1.1046 -1.6278
 1927SOL    HW217415   3.345   1.136  16.375 -0.9712  1.9350 -1.5327
 1928SOL     OW17416   2.277   2.308   4.645 -0.8985  0.2509  0.2983
 1928SOL    HW117417   2.292   2.240   4.710  1.2754  1.0712  0.6215
 1928SOL    HW217418   2.323   2.379   4.689  2.4477 -1.7225 -0.0490
 1929SOL     OW17419   1.904   4.621  16.366 -0.0669 -0.1026 -0.0098
 1929SOL    HW117420   1.901   4.641  16.459 -0.7397  1.2889 -0.3253
 1929SOL    HW217421   1.986   4.666  16.347  0.5530 -1.1277  0.2499
 1930SOL     OW17422   1.937   2.964  12.267 -0.0364  0.0301 -0.1983
 1930SOL    HW117423   1.851   3.003  12.282 -0.0216 -0.7699  1.9829
 1930SOL    HW217424   1.992   3.020  12.323 -1.8829  1.3122  0.3336
 1931SOL     OW17425   4.116   0.691   3.265  0.3842 -0.1619 -0.2690
 1931SOL    HW117426   4.095   0.599   3.257 -0.4129  0.3430 -3.8098
 1931SOL    HW217427   4.146   0.705   3.175  1.5056  2.7314  0.5413
 1932SOL     OW17428   0.387   0.652   6.287 -0.5023  0.2785 -0.0725
 1932SOL    HW117429   0.348   0.565   6.295  0.1201  0.0130  0.1126
 1932SOL    HW217430   0.454   0.647   6.356 -2.1552 -1.7536  1.4032
 1933SOL     OW17431   1.854   4.563   3.515 -0.3014  0.1272  0.1823
 1933SOL    HW117432   1.892   4.592   3.432  2.6014 -2.9120  0.4360
 1933SOL    HW217433   1.854   4.467   3.509 -0.1435  0.2058 -1.1713
 1934SOL     OW17434   4.546   2.002   4.234 -0.2390 -0.5812  0.0749
 1934SOL    HW117435   4.512   1.940   4.298 -1.4159 -1.6779 -1.6188
 1934SOL    HW217436   4.567   2.083   4.282  1.5957 -0.7250 -0.5054
 1935SOL     OW17437   1.205   0.055   8.581  0.2723 -0.2381 -0.1664
 1935SOL    HW117438   1.147   0.129   8.566 -0.8850 -1.3631 -1.2167
 1935SOL    HW217439   1.173   0.029   8.667  3.1245 -1.0571  0.6431
 1936SOL     OW17440   3.721   2.654   6.938 -0.2635 -0.6045 -0.0355
 1936SOL    HW117441   3.641   2.641   6.887 -0.4636  1.6353 -0.2925
 1936SOL    HW217442   3.753   2.564   6.948 -1.2560 -0.8275  1.0921
 1937SOL     OW17443   0.608   1.140   8.574 -0.4107 -0.2632 -0.7467
 1937SOL    HW117444   0.521   1.122   8.537 -1.2649  0.0015  1.1561
 1937SOL    HW217445   0.644   1.187   8.499 -0.9384 -2.5951 -2.4625
 1938SOL     OW17446   2.648   0.331   4.941 -0.0041 -0.0461  0.2332
 1938SOL    HW117447   2.617   0.245   4.913  0.5483 -0.9978  2.5890
 1938SOL    HW217448   2.729   0.341   4.892  0.6087  0.6521  1.3984
 1939SOL     OW17449   3.203   1.952  13.484  0.3023  0.1285 -0.3390
 1939SOL    HW117450   3.258   1.990  13.552 -0.8937  2.6715 -0.7917
 1939SOL    HW217451   3.118   1.995  13.491 -0.1187 -0.4571 -1.6583
 1940SOL     OW17452   0.393   2.708   4.910  0.3417 -1.0961  0.0106
 1940SOL    HW117453   0.374   2.706   5.004  2.0466  1.2318  0.4098
 1940SOL    HW217454   0.482   2.742   4.913 -0.8465  2.0424 -0.1479
 1941SOL     OW17455   2.101   4.328   9.307 -0.7680  0.1863 -0.0529
 1941SOL    HW117456   2.161   4.263   9.269  0.3535  0.3297  1.4658
 1941SOL    HW217457   2.040   4.348   9.237 -0.9706 -0.8174 -0.1738
 1942SOL     OW17458   1.671   0.486   2.355  0.5611  0.5214  0.1530
 1942SOL    HW117459   1.720   0.406   2.336  0.1524  0.5129 -0.8927
 1942SOL    HW217460   1.720   0.548   2.302  1.1986  0.0566  0.1957
 1943SOL     OW17461   2.281   2.856   4.947 -0.5566 -0.2533  0.1958
 1943SOL    HW117462   2.342   2.876   5.017 -1.8233 -0.7585  1.4619
 1943SOL    HW217463   2.240   2.941   4.928 -0.4129 -0.3073 -0.3491
 1944SOL     OW17464   0.133   1.763   5.046 -0.1701  0.1992 -0.4482
 1944SOL    HW117465   0.099   1.701   5.111  1.5159  0.7839  1.0023
 1944SOL    HW217466   0.205   1.710   5.013  0.9597  0.2716  1.8649
 1945SOL     OW17467   1.295   4.024  16.380  0.1527  0.0304 -0.1325
 1945SOL    HW117468   1.319   3.932  16.370 -0.2773 -0.1875  0.8601
 1945SOL    HW217469   1.231   4.041  16.310 -1.2522  0.6537  1.3045
 1946SOL     OW17470   4.453   0.649  13.310 -0.3489 -0.4419  0.1195
 1946SOL    HW117471   4.499   0.722  13.352 -1.1591  0.2553 -0.1919
 1946SOL    HW217472   4.390   0.639  13.382 -0.0602  0.9203  0.5611
 1947SOL     OW17473   3.458   3.190   5.896 -0.0302  0.7130 -0.1884
 1947SOL    HW117474   3.480   3.134   5.821 -1.3955 -0.9946  0.6899
 1947SOL    HW217475   3.524   3.258   5.881 -0.8271  1.7009  0.8306
 1948SOL     OW17476   3.716   0.709   3.424 -0.6802 -0.7454 -0.6460
 1948SOL    HW117477   3.646   0.688   3.363 -0.4320 -1.4472 -0.6804
 1948SOL    HW217478   3.678   0.673   3.504 -2.3032 -0.1787 -1.1504
 1949SOL     OW17479   0.148   2.042  12.717  0.1383  0.6239 -0.4429
 1949SOL    HW117480   0.147   2.096  12.796 -0.1319 -1.5934  1.0690
 1949SOL    HW217481   0.218   1.980  12.737 -0.8009 -1.1643 -2.6693
 1950SOL     OW17482   1.714   0.001   5.434 -0.0919  0.0875 -0.0115
 1950SOL    HW117483   1.772   4.714   5.362 -2.2464  0.5927 -1.9466
 1950SOL    HW217484   1.625   4.741   5.398  0.2876  2.1563 -1.0392
 1951SOL     OW17485   3.269   4.737  16.106  0.1081  0.7601 -0.4981
 1951SOL    HW117486   3.242   0.083  16.136 -1.0265  0.1152  0.3801
 1951SOL    HW217487   3.194   4.685  16.135  0.4988  1.1697  1.2777
 1952SOL     OW17488   1.436   0.943  16.677  0.0352 -0.1559  0.2968
 1952SOL    HW117489   1.394   1.004  16.616 -0.2570 -1.9136 -1.2567
 1952SOL    HW217490   1.462   0.996  16.752 -1.1538  0.1789  0.4729
 1953SOL     OW17491   0.872   3.247  16.072  0.3175 -0.4379 -0.1661
 1953SOL    HW117492   0.921   3.310  16.018  0.3392  0.8422  1.3460
 1953SOL    HW217493   0.781   3.251  16.041  0.6733  1.0354 -1.0336
 1954SOL     OW17494   3.940   1.975   5.660 -0.3892 -0.2354 -0.8029
 1954SOL    HW117495   3.993   1.898   5.677 -1.0205 -0.3512  0.6027
 1954SOL    HW217496   3.956   1.984   5.566  0.1160  1.0633 -0.5911
 1955SOL     OW17497   2.651   0.214   2.776 -0.0350 -0.0413 -0.3746
 1955SOL    HW117498   2.741   0.185   2.793 -0.6041 -1.4564  0.2470
 1955SOL    HW217499   2.613   0.212   2.864  0.3547  0.1863 -0.2029
 1956SOL     OW17500   4.345   4.403   3.564 -0.0361 -0.4619  0.7378
 1956SOL    HW117501   4.344   4.470   3.497  0.4193 -0.3214  0.8720
 1956SOL    HW217502   4.266   4.423   3.615 -0.8385 -1.6552 -0.0289
 1957SOL     OW17503   3.522   2.741  16.470 -0.2619  0.1506  0.8185
 1957SOL    HW117504   3.615   2.729  16.487  0.0955 -0.2266 -1.3495
 1957SOL    HW217505   3.489   2.756  16.559 -0.7292 -0.8200  0.8105
 1958SOL     OW17506   3.792   3.699   3.006  0.5191  0.2421  0.1883
 1958SOL    HW117507   3.788   3.663   3.094 -0.3309  0.3517  0.1980
 1958SOL    HW217508   3.757   3.624   2.958 -0.2809  1.1961 -0.7261
 1959SOL     OW17509   4.566   3.044  10.109 -0.1991  0.0859 -0.2366
 1959SOL    HW117510   4.509   3.094  10.168 -1.2206 -2.5944  1.0486
 1959SOL    HW217511   4.645   3.097  10.100 -0.1686  0.6448  3.5129
 1960SOL     OW17512   0.813   2.548   1.597 -0.0017  0.4298  0.6099
 1960SOL    HW117513   0.855   2.626   1.561 -2.1341  1.4629  0.3227
 1960SOL    HW217514   0.747   2.544   1.527  0.3905 -1.5760  0.3595
 1961SOL     OW17515   0.104   0.306   2.100 -0.2621  0.6011  0.6979
 1961SOL    HW117516   0.167   0.266   2.040 -1.3758  0.0883 -0.1272
 1961SOL    HW217517   0.088   0.391   2.059  0.2033  2.2246  3.8479
 1962SOL     OW17518   1.686   4.323   8.532  0.1280  0.0251  0.0777
 1962SOL    HW117519   1.743   4.317   8.456 -1.3875 -0.2018 -1.0344
 1962SOL    HW217520   1.743   4.351   8.604 -1.3473 -0.2504  1.3642
 1963SOL     OW17521   1.354   1.575   2.045  0.2207 -0.1481 -0.2435
 1963SOL    HW117522   1.426   1.558   1.986  2.0223 -0.9271  2.1700
 1963SOL    HW217523   1.348   1.670   2.043 -0.6366 -0.2439 -1.6889
 1964SOL     OW17524   0.200   1.343   5.088  0.0759  0.0839 -0.3162
 1964SOL    HW117525   0.229   1.332   4.997  0.4760  1.9864 -0.4334
 1964SOL    HW217526   0.274   1.308   5.137 -0.6800  0.5443  1.1629
 1965SOL     OW17527   1.898   0.466  14.410 -1.0537 -0.6580  0.2446
 1965SOL    HW117528   1.888   0.371  14.414 -1.2818 -0.7477 -2.7254
 1965SOL    HW217529   1.939   0.486  14.494  0.3691 -1.5034 -0.2465
 1966SOL     OW17530   3.988   2.798   4.400  0.4556  0.0081  0.4347
 1966SOL    HW117531   4.082   2.812   4.387  0.8108 -2.1409  0.8162
 1966SOL    HW217532   3.968   2.884   4.436 -0.0250  0.0577  0.0554
 1967SOL     OW17533   3.044   1.226   3.202 -0.2182 -0.3511 -0.1250
 1967SOL    HW117534   3.097   1.186   3.133 -0.1407 -1.5393  0.6219
 1967SOL    HW217535   3.065   1.318   3.186  0.5296 -0.7734 -1.5809
 1968SOL     OW17536   3.948   0.226   6.539 -0.2946 -0.2773  0.1610
 1968SOL    HW117537   3.977   0.226   6.448  0.5517  1.0420  0.4341
 1968SOL    HW217538   3.892   0.148   6.539 -0.0592 -0.4481 -0.4541
 1969SOL     OW17539   1.536   1.928   1.649  0.3447  0.3011  0.0406
 1969SOL    HW117540   1.464   1.966   1.699  3.2535  0.6832  3.9047
 1969SOL    HW217541   1.484   1.916   1.569 -0.2116  0.8253  0.3268
 1970SOL     OW17542   0.755   0.087   4.141  0.1989 -0.1211  0.8382
 1970SOL    HW117543   0.750   0.046   4.055  3.7554 -1.9358  1.5232
 1970SOL    HW217544   0.683   0.043   4.187 -0.3674  0.7652  0.8159
 1971SOL     OW17545   3.108   0.981   2.824  0.2308 -0.4063  0.5681
 1971SOL    HW117546   3.111   0.902   2.770  1.6208  0.3415 -0.4493
 1971SOL    HW217547   3.113   1.053   2.762  0.9970 -0.5158  0.4953
 1972SOL     OW17548   2.693   0.325   6.927 -0.1093  0.0971  0.2843
 1972SOL    HW117549   2.605   0.340   6.961 -1.8881 -4.7432 -2.2717
 1972SOL    HW217550   2.683   0.233   6.904  1.7097  0.5272 -2.1430
 1973SOL     OW17551   3.881   2.225   7.098 -0.1224 -0.8345 -0.1225
 1973SOL    HW117552   3.904   2.132   7.105 -0.3094 -1.0571 -2.4623
 1973SOL    HW217553   3.967   2.256   7.068 -0.6475  1.5889  0.9337
 1974SOL     OW17554   4.574   1.042  11.257  0.3888 -0.3889 -0.2139
 1974SOL    HW117555   4.650   1.098  11.244 -0.3686  1.1528  2.2036
 1974SOL    HW217556   4.545   1.068  11.344 -1.4176 -2.2511 -0.2547
 1975SOL     OW17557   3.858   2.527   9.823  0.8326 -0.4298 -0.0385
 1975SOL    HW117558   3.791   2.515   9.890  0.5896  0.4566 -0.1154
 1975SOL    HW217559   3.933   2.487   9.867  0.1239 -0.0944  1.4859
 1976SOL     OW17560   1.757   2.483   4.057 -0.2363 -0.2589  0.0690
 1976SOL    HW117561   1.739   2.394   4.087  0.5429  0.4457  2.6384
 1976SOL    HW217562   1.676   2.513   4.015 -0.5513  1.4556  1.9194
 1977SOL     OW17563   3.147   3.158  15.169 -0.6918  0.2078 -0.1947
 1977SOL    HW117564   3.151   3.151  15.073 -1.9147 -1.0051 -0.1614
 1977SOL    HW217565   3.092   3.236  15.181  1.1008  1.5379 -0.6682
 1978SOL     OW17566   2.094   3.006   8.764  0.8885  0.2798  0.5570
 1978SOL    HW117567   2.017   2.985   8.711  0.3559  0.2631  1.3362
 1978SOL    HW217568   2.156   2.953   8.715 -0.3771 -0.7169  0.0341
 1979SOL     OW17569   0.231   2.373   3.770  0.5185 -0.2107 -0.3981
 1979SOL    HW117570   0.308   2.343   3.819  1.8537  1.7420 -1.3021
 1979SOL    HW217571   0.160   2.324   3.812  0.9977 -2.3318 -2.0306
 1980SOL     OW17572   2.320   4.357  15.285  0.3903  0.0477  0.4233
 1980SOL    HW117573   2.322   4.317  15.198 -1.2532  0.3457  0.2441
 1980SOL    HW217574   2.334   4.280  15.341  2.2649  0.4341  0.4783
 1981SOL     OW17575   2.155   2.724  15.160  0.4808  0.5823 -0.2253
 1981SOL    HW117576   2.211   2.792  15.122  1.1068  1.7688  2.8211
 1981SOL    HW217577   2.226   2.664  15.183 -0.3444 -1.0112 -1.8423
 1982SOL     OW17578   1.606   2.138   1.934  0.2751  0.4482  0.0538
 1982SOL    HW117579   1.700   2.152   1.947  0.3900 -1.6892  1.4494
 1982SOL    HW217580   1.579   2.207   1.873 -1.8292  0.1024  0.5759
 1983SOL     OW17581   3.995   1.820  13.999 -0.2927 -0.2953 -0.2059
 1983SOL    HW117582   3.951   1.761  13.937  1.9790 -2.5370  0.3016
 1983SOL    HW217583   4.085   1.806  13.970 -0.9721  0.0144 -2.4777
 1984SOL     OW17584   1.086   2.804   1.751 -0.5078 -0.9604 -0.3456
 1984SOL    HW117585   1.171   2.785   1.712 -0.9646 -2.7409 -0.4415
 1984SOL    HW217586   1.105   2.814   1.844  1.6513 -1.5334 -0.7257
 1985SOL     OW17587   3.250   0.575   3.300  0.0631 -0.1034 -0.6500
 1985SOL    HW117588   3.293   0.612   3.377  0.2935  0.9643 -1.2849
 1985SOL    HW217589   3.294   0.491   3.294 -0.3418 -0.4124  0.7663
 1986SOL     OW17590   1.273   4.687  14.192 -0.3592 -0.5726  0.1870
 1986SOL    HW117591   1.251   4.704  14.100  0.3115  1.4939  0.4003
 1986SOL    HW217592   1.356   4.640  14.180  0.7321  1.0579  1.3116
 1987SOL     OW17593   2.421   3.680   5.273 -0.0232 -0.0770 -0.4630
 1987SOL    HW117594   2.363   3.611   5.306  0.8370 -0.2019  0.7969
 1987SOL    HW217595   2.379   3.710   5.193 -2.9234 -0.6949  0.7993
 1988SOL     OW17596   0.974   0.806   6.187  0.1546 -0.8241 -0.2592
 1988SOL    HW117597   1.055   0.833   6.230 -1.9257 -1.2671  3.9196
 1988SOL    HW217598   0.904   0.814   6.251 -0.4536  0.2792 -1.0568
 1989SOL     OW17599   3.682   4.686   1.852  0.0733 -0.0520  0.4629
 1989SOL    HW117600   3.629   4.623   1.803  0.9688 -0.4676  0.0189
 1989SOL    HW217601   3.721   4.733   1.778  2.7367 -1.2789  1.0801
 1990SOL     OW17602   2.051   3.247   1.248 -0.0561  0.2598  1.4814
 1990SOL    HW117603   2.102   3.266   1.169 -0.1524 -1.8556  0.9083
 1990SOL    HW217604   2.126   3.252   1.308  1.1126 -0.3854  0.0670
 1991SOL     OW17605   0.269   1.907   1.540  0.1979  0.2215  0.4540
 1991SOL    HW117606   0.356   1.930   1.574  0.8394  1.6778 -2.1964
 1991SOL    HW217607   0.227   1.993   1.540 -1.1981 -0.4832 -1.8774
 1992SOL     OW17608   2.667   0.486   5.596  0.6323  0.1073  0.2052
 1992SOL    HW117609   2.635   0.417   5.538  1.2873  0.6303 -0.7829
 1992SOL    HW217610   2.609   0.464   5.669  2.3144  0.4170  1.6466
 1993SOL     OW17611   2.448   0.282   2.589 -0.2489 -0.5421  0.5959
 1993SOL    HW117612   2.433   0.191   2.562 -1.1462 -0.7074  1.6722
 1993SOL    HW217613   2.513   0.272   2.658 -2.3085 -1.2596  2.4165
 1994SOL     OW17614   2.123   0.771   4.529  0.1973 -0.3231 -0.5758
 1994SOL    HW117615   2.035   0.801   4.550  0.6423  0.7797 -0.2781
 1994SOL    HW217616   2.173   0.847   4.558  0.1434 -0.9902  1.2509
 1995SOL     OW17617   2.426   0.666  13.796  0.7472  0.2490  0.1669
 1995SOL    HW117618   2.412   0.572  13.812  0.9706 -0.1780 -2.1362
 1995SOL    HW217619   2.436   0.671  13.701 -0.9068  0.5267  0.0086
 1996SOL     OW17620   2.188   0.902  16.093 -0.1278  0.5478  0.1841
 1996SOL    HW117621   2.237   0.838  16.041  0.1478  2.3687 -1.7812
 1996SOL    HW217622   2.097   0.876  16.074  0.8912 -1.2795 -2.3243
 1997SOL     OW17623   4.297   1.596   3.640  0.0889 -0.1367  0.1531
 1997SOL    HW117624   4.285   1.502   3.626  2.2090 -0.3559 -0.1951
 1997SOL    HW217625   4.382   1.601   3.683  0.8992 -0.7178 -1.3731
 1998SOL     OW17626   2.404   2.989   6.515 -0.2910 -0.1969  0.1920
 1998SOL    HW117627   2.326   3.036   6.486 -1.2501 -2.3081 -0.6781
 1998SOL    HW217628   2.443   3.047   6.580 -1.7634  0.3906  0.5406
 1999SOL     OW17629   2.140   1.259  15.122 -0.0136  0.0675 -0.6727
 1999SOL    HW117630   2.165   1.324  15.055  1.4438  0.4568  0.2568
 1999SOL    HW217631   2.225   1.218  15.136 -0.7394 -1.1961 -0.0011
 2000SOL     OW17632   0.935   0.470  16.469 -0.2573  0.2341 -0.2885
 2000SOL    HW117633   1.017   0.466  16.420 -2.6322  0.0244 -4.2206
 2000SOL    HW217634   0.910   0.561  16.453  2.2823  1.1888  1.1566
 2001SOL     OW17635   4.089   0.699  16.771  0.0748 -0.6079 -0.3987
 2001SOL    HW117636   4.071   0.620  16.720  0.3257 -1.1811  0.4058
 2001SOL    HW217637   4.174   0.727  16.736  0.0530 -1.7763 -1.3833
 2002SOL     OW17638   0.360   3.634  17.438 -0.4761  0.4921  0.3701
 2002SOL    HW117639   0.404   3.596  17.514 -0.9645 -0.3533  0.2262
 2002SOL    HW217640   0.311   3.710  17.471  1.0610  1.1478  1.1789
 2003SOL     OW17641   0.957   0.304  10.586 -0.7532 -0.3751  0.6312
 2003SOL    HW117642   0.935   0.388  10.546  0.1373 -0.1617  0.5754
 2003SOL    HW217643   0.906   0.304  10.667  0.3816 -1.2146  1.3465
 2004SOL     OW17644   3.821   3.840   3.755  0.1916  0.3498  0.5000
 2004SOL    HW117645   3.891   3.905   3.745  1.3586 -1.0365 -0.3986
 2004SOL    HW217646   3.866   3.783   3.818 -0.2759  0.7736  1.2173
 2005SOL     OW17647   2.331   3.175   7.761 -0.0339  0.4134  0.6452
 2005SOL    HW117648   2.361   3.197   7.849 -0.0620  2.2795  0.1742
 2005SOL    HW217649   2.322   3.264   7.727  0.6246  0.5095  0.7288
 2006SOL     OW17650   2.251   3.730   9.699 -0.3420  0.0686 -0.3721
 2006SOL    HW117651   2.316   3.774   9.754  0.0617  0.6041 -1.2598
 2006SOL    HW217652   2.171   3.722   9.750 -0.8095 -3.7513 -1.6866
 2007SOL     OW17653   0.219   1.622   3.447 -0.2151  0.5251 -0.1326
 2007SOL    HW117654   0.183   1.711   3.451 -1.2795 -0.0235  2.9356
 2007SOL    HW217655   0.303   1.639   3.404  0.9124 -0.1813  1.8075
 2008SOL     OW17656   1.232   2.577   6.124  0.0634  0.3690  0.1408
 2008SOL    HW117657   1.324   2.572   6.101 -0.4168  0.7424 -1.9280
 2008SOL    HW217658   1.198   2.502   6.074  1.2140  0.2432 -0.4417
 2009SOL     OW17659   0.413   4.317   1.224  0.3193 -0.2157  0.0065
 2009SOL    HW117660   0.467   4.281   1.154  3.0929  1.3110  1.3968
 2009SOL    HW217661   0.326   4.283   1.204  0.6474 -0.0001 -1.7643
 2010SOL     OW17662   2.612   1.772   7.818 -0.0341 -0.0457  0.1352
 2010SOL    HW117663   2.679   1.827   7.859  1.6307 -2.4711  0.6869
 2010SOL    HW217664   2.613   1.807   7.729  0.1905  0.3467  0.2905
 2011SOL     OW17665   4.443   3.666   4.428  0.3792 -0.5334  0.4155
 2011SOL    HW117666   4.523   3.718   4.437  0.1947  0.2065 -2.3352
 2011SOL    HW217667   4.488   3.596   4.381 -0.0528 -0.8469  0.4703
 2012SOL     OW17668   2.871   4.355  15.886  0.0447 -0.5597 -0.3164
 2012SOL    HW117669   2.957   4.320  15.862  1.1841  1.5822  0.6844
 2012SOL    HW217670   2.851   4.424  15.823  0.9622  1.4791  1.6134
 2013SOL     OW17671   2.278   2.692   2.318  0.2087 -0.1596 -0.0835
 2013SOL    HW117672   2.230   2.677   2.400  1.6807 -1.2510  0.5783
 2013SOL    HW217673   2.201   2.672   2.264  0.5077 -0.3094 -0.4486
 2014SOL     OW17674   3.197   0.245   6.724  0.2599  0.0801 -0.2084
 2014SOL    HW117675   3.246   0.177   6.770  1.1727  0.3780 -0.7348
 2014SOL    HW217676   3.191   0.320   6.783 -0.9408 -0.7475  0.7109
 2015SOL     OW17677   2.442   0.842  14.234 -0.0506 -0.3414  0.1664
 2015SOL    HW117678   2.512   0.831  14.170  0.0323  1.1630  0.0059
 2015SOL    HW217679   2.366   0.836  14.176  0.2674 -0.6242 -0.2148
 2016SOL     OW17680   1.498   1.064  10.326  0.3881  0.0646  0.2409
 2016SOL    HW117681   1.562   0.997  10.348 -0.7135 -1.6425 -1.7741
 2016SOL    HW217682   1.444   1.011  10.267  0.3878  0.6901 -0.3232
 2017SOL     OW17683   1.226   4.369   7.701  0.1419 -0.0917  0.2095
 2017SOL    HW117684   1.221   4.440   7.765 -0.8721 -0.6092  0.7074
 2017SOL    HW217685   1.258   4.420   7.627  0.0542  1.2199  1.0836
 2018SOL     OW17686   0.772   2.620   3.068  0.1892  0.1282  0.0251
 2018SOL    HW117687   0.837   2.595   3.003 -1.2709  0.6446 -1.6494
 2018SOL    HW217688   0.804   2.588   3.152  0.8238 -0.2630 -0.3689
 2019SOL     OW17689   3.074   4.030   4.421 -0.0975  0.1319 -0.8162
 2019SOL    HW117690   3.090   4.106   4.477 -0.0206 -1.0650  0.7894
 2019SOL    HW217691   3.151   3.979   4.445 -1.5234 -1.8531 -0.4550
 2020SOL     OW17692   1.692   3.835   4.788  0.8320 -0.0498  0.2280
 2020SOL    HW117693   1.656   3.792   4.865 -0.3071 -1.3698 -1.0527
 2020SOL    HW217694   1.738   3.906   4.833 -1.6628  1.2924  0.6623
 2021SOL     OW17695   3.100   3.436  16.066  0.1679 -0.3489 -0.1136
 2021SOL    HW117696   3.025   3.397  16.111  0.8284 -0.6539  0.7199
 2021SOL    HW217697   3.156   3.444  16.143  0.8895  0.3846 -0.7121
 2022SOL     OW17698   4.304   2.760   8.307  0.1422 -0.4571 -0.1164
 2022SOL    HW117699   4.209   2.753   8.310  0.1453 -0.1842  0.9439
 2022SOL    HW217700   4.317   2.755   8.402  3.9275  1.1919 -0.5645
 2023SOL     OW17701   3.599   2.396   9.386 -0.0896  0.2088  0.5764
 2023SOL    HW117702   3.632   2.486   9.393  1.7010 -0.3632 -0.7544
 2023SOL    HW217703   3.612   2.361   9.474  0.3309  2.3357  1.3789
 2024SOL     OW17704   1.970   2.765   0.368 -0.3698 -0.0156  0.2200
 2024SOL    HW117705   1.898   2.780   0.306  0.3226  0.9730 -0.3663
 2024SOL    HW217706   2.031   2.762   0.294 -1.2010  0.1875 -0.4808
 2025SOL     OW17707   0.156   1.518   1.156  0.6490  0.2137 -0.2293
 2025SOL    HW117708   0.162   1.567   1.073 -0.8957 -0.1507 -0.5540
 2025SOL    HW217709   0.241   1.506   1.198  0.6369  0.7411 -0.0616
 2026SOL     OW17710   0.483   2.260   4.465  0.3422 -0.1404  0.7026
 2026SOL    HW117711   0.418   2.329   4.448  1.2769  0.3565 -0.8558
 2026SOL    HW217712   0.428   2.201   4.516 -0.4523  0.3268  0.4026
 2027SOL     OW17713   0.797   1.896   6.701 -0.1860  0.0341  0.0601
 2027SOL    HW117714   0.766   1.887   6.611 -0.9660 -0.1791  0.3556
 2027SOL    HW217715   0.713   1.893   6.745 -0.1801 -0.0556  0.0648
 2028SOL     OW17716   2.325   3.811   5.067  0.3437  0.4320  0.1623
 2028SOL    HW117717   2.413   3.831   5.037  0.1187 -1.2839 -1.6790
 2028SOL    HW217718   2.287   3.798   4.980  1.3215  1.2862 -0.3905
 2029SOL     OW17719   2.842   1.001   2.697  0.3889  0.1353  0.0363
 2029SOL    HW117720   2.876   1.063   2.632  1.2825  2.2800  2.5498
 2029SOL    HW217721   2.919   0.995   2.755  2.0733  1.8943 -2.0298
 2030SOL     OW17722   1.934   1.683   1.825 -0.6833 -0.4213 -0.1082
 2030SOL    HW117723   1.932   1.642   1.739 -2.0459 -0.3487 -0.1078
 2030SOL    HW217724   1.940   1.775   1.799  3.0325  0.0616  2.4543
 2031SOL     OW17725   2.588   4.693  15.909 -0.2172  0.1118  0.2178
 2031SOL    HW117726   2.513   4.651  15.950 -0.6034 -0.2223 -0.8384
 2031SOL    HW217727   2.663   4.649  15.950  1.5226  1.2678 -1.6941
 2032SOL     OW17728   4.475   3.338   5.306 -0.0821  0.2160  0.2305
 2032SOL    HW117729   4.546   3.387   5.264 -0.1684 -0.3088 -0.5300
 2032SOL    HW217730   4.497   3.359   5.396  0.4022 -1.4561  0.5068
 2033SOL     OW17731   1.250   3.364   8.732 -0.5266 -0.0524  0.2993
 2033SOL    HW117732   1.220   3.427   8.797  0.3648 -0.9921  1.6151
 2033SOL    HW217733   1.327   3.407   8.696 -0.2099  2.4346  3.9891
 2034SOL     OW17734   0.868   4.020  12.219 -0.1413  0.2067 -0.0420
 2034SOL    HW117735   0.943   3.966  12.245  0.6072  1.9047  1.2683
 2034SOL    HW217736   0.799   3.963  12.254  0.6082  0.2552  1.4940
 2035SOL     OW17737   0.458   0.027  17.075 -0.5541 -0.2974 -0.2143
 2035SOL    HW117738   0.474   0.067  17.160  0.1962 -0.1280 -0.4401
 2035SOL    HW217739   0.548   0.002  17.057  0.5092  2.2044  1.5868
 2036SOL     OW17740   2.376   1.940   6.584  0.5595  0.8322  0.2388
 2036SOL    HW117741   2.464   1.969   6.560 -0.3761  2.5777 -1.0770
 2036SOL    HW217742   2.332   2.021   6.558  1.0950  1.0543  0.0373
 2037SOL     OW17743   0.219   3.653   6.501  0.4685  0.0906  0.0571
 2037SOL    HW117744   0.198   3.575   6.449 -0.4147 -0.7601  1.6820
 2037SOL    HW217745   0.291   3.686   6.448 -0.3592  1.1352 -0.4160
 2038SOL     OW17746   3.565   4.512   0.329 -0.1369 -0.1456 -0.0985
 2038SOL    HW117747   3.546   4.579   0.264  1.6213  2.0370  1.6284
 2038SOL    HW217748   3.479   4.490   0.366  0.2439 -0.4554  0.6021
 2039SOL     OW17749   1.523   2.104   6.327  0.0146  0.4441  0.8317
 2039SOL    HW117750   1.468   2.120   6.250  1.3377  0.9640 -0.0007
 2039SOL    HW217751   1.473   2.027   6.353 -1.7702  0.1196 -3.4632
 2040SOL     OW17752   3.756   1.225   2.234  0.0511  0.0359 -0.4345
 2040SOL    HW117753   3.703   1.171   2.293  1.3954 -1.3755 -0.5053
 2040SOL    HW217754   3.842   1.190   2.256  0.8412  3.2200  1.4833
 2041SOL     OW17755   1.541   1.579   2.255 -0.1245  0.4737  0.3908
 2041SOL    HW117756   1.605   1.621   2.198 -0.7378  0.4022 -0.3468
 2041SOL    HW217757   1.468   1.578   2.194 -1.0902 -1.6184  1.5553
 2042SOL     OW17758   2.079   4.035   3.846  0.1986  0.3079  0.0141
 2042SOL    HW117759   2.001   3.980   3.844  0.3055  0.1385  0.6876
 2042SOL    HW217760   2.081   4.066   3.937 -1.1310  0.3864  0.0164
 2043SOL     OW17761   2.858   2.079   6.739  0.9862  0.8988 -0.0930
 2043SOL    HW117762   2.884   2.165   6.772  2.9328 -0.1475  1.0652
 2043SOL    HW217763   2.912   2.067   6.661  1.6677  0.0940  0.5085
 2044SOL     OW17764   1.432   0.903   1.182  0.0372  0.4194 -0.5911
 2044SOL    HW117765   1.393   0.821   1.215 -0.5646  0.9227 -0.0341
 2044SOL    HW217766   1.381   0.905   1.101 -0.5720 -0.7417 -0.2496
 2045SOL     OW17767   2.393   2.198  10.650  0.2306 -0.0636 -0.7335
 2045SOL    HW117768   2.399   2.282  10.604  3.9664 -1.1219 -2.1975
 2045SOL    HW217769   2.302   2.179  10.628  0.3290  0.4310 -1.5614
 2046SOL     OW17770   3.929   0.147   4.890 -0.6966  0.1012  0.0208
 2046SOL    HW117771   3.999   0.116   4.948  0.7043 -1.6375 -2.6021
 2046SOL    HW217772   3.892   0.216   4.945 -2.5129  0.5746 -1.8146
 2047SOL     OW17773   2.763   4.023   8.789  0.1801 -0.3444 -0.2603
 2047SOL    HW117774   2.757   3.927   8.780  1.9674 -0.3394 -1.4124
 2047SOL    HW217775   2.801   4.028   8.877 -1.9706  1.8855  0.5320
 2048SOL     OW17776   1.041   2.097   0.712  0.4451 -0.3823 -0.1901
 2048SOL    HW117777   0.981   2.024   0.727  0.0497 -0.1148 -0.4681
 2048SOL    HW217778   1.001   2.133   0.632  1.4556  0.0279 -0.5091
 2049SOL     OW17779   2.722   4.088   6.675 -0.0501 -0.3686  0.3452
 2049SOL    HW117780   2.793   4.144   6.707 -0.1096 -1.3316  2.1040
 2049SOL    HW217781   2.713   4.119   6.584 -2.4717 -0.7265  0.4499
 2050SOL     OW17782   4.660   1.239   1.998  0.0395 -0.1515  0.1939
 2050SOL    HW117783   4.643   1.283   1.914 -2.9034  0.2824  1.0386
 2050SOL    HW217784   4.706   1.166   1.957 -0.8501 -0.7307  0.2380
 2051SOL     OW17785   1.084   1.100  10.237  0.3655 -0.2662  0.0844
 2051SOL    HW117786   1.169   1.141  10.254  1.5074 -2.5668 -0.1505
 2051SOL    HW217787   1.088   1.011  10.271  0.6997 -0.3166 -0.0824
 2052SOL     OW17788   3.295   2.309  10.065  0.2994  0.6502 -0.8001
 2052SOL    HW117789   3.347   2.234  10.036 -2.6787 -0.6211 -2.8969
 2052SOL    HW217790   3.313   2.376   9.998  3.0360 -0.6168 -1.3410
 2053SOL     OW17791   4.384   3.849   5.917  0.4859  0.0060 -0.2903
 2053SOL    HW117792   4.443   3.778   5.941  0.3693 -0.1947 -0.5945
 2053SOL    HW217793   4.427   3.934   5.917 -2.8612  1.7290 -0.2307
 2054SOL     OW17794   2.962   4.402   8.289 -0.2030 -0.0857 -0.2913
 2054SOL    HW117795   3.012   4.330   8.330  0.2258  1.3945  1.7788
 2054SOL    HW217796   2.999   4.405   8.201  0.6346  1.4268  0.1227
 2055SOL     OW17797   2.748   0.880   3.695 -0.3308 -0.0654  0.0823
 2055SOL    HW117798   2.838   0.909   3.688 -0.6707  0.5483 -1.7973
 2055SOL    HW217799   2.710   0.921   3.618  1.0919 -0.1250 -0.6474
 2056SOL     OW17800   1.783   0.637   5.524 -0.8865  0.5847 -0.0781
 2056SOL    HW117801   1.828   0.676   5.449 -1.0320 -2.7254 -1.8854
 2056SOL    HW217802   1.696   0.677   5.528 -0.5166  1.4929 -1.0423
 2057SOL     OW17803   1.761   1.317   7.087  0.1256  0.1210  0.1610
 2057SOL    HW117804   1.676   1.340   7.126 -0.5569  0.4794 -1.5110
 2057SOL    HW217805   1.765   1.393   7.029  0.7868 -0.4006 -0.4722
 2058SOL     OW17806   4.323   0.648  17.439  0.3006  0.0004  0.2687
 2058SOL    HW117807   4.389   0.580  17.423  1.3081  0.6866  1.5848
 2058SOL    HW217808   4.244   0.594  17.429  0.5424 -0.6677  2.0327
 2059SOL     OW17809   4.722   0.792   3.481 -0.1970  0.1481 -0.2953
 2059SOL    HW117810   0.051   0.856   3.466  0.5297 -0.7271 -0.5950
 2059SOL    HW217811   0.023   0.715   3.443  1.8596  1.2274 -0.2154
 2060SOL     OW17812   3.390   1.789   5.566 -0.0032 -0.7835  0.1368
 2060SOL    HW117813   3.443   1.727   5.616  0.3141 -2.0895 -1.7934
 2060SOL    HW217814   3.315   1.737   5.534 -0.5427  0.4193 -0.5389
 2061SOL     OW17815   1.688   4.270   2.310 -0.5564  0.1739  0.0327
 2061SOL    HW117816   1.697   4.237   2.221 -0.9747  0.3902 -0.0914
 2061SOL    HW217817   1.596   4.297   2.316  0.1482  2.9184 -1.5900
 2062SOL     OW17818   3.862   3.375  14.217  0.5430 -0.7284  0.5976
 2062SOL    HW117819   3.785   3.342  14.170  0.3165 -0.9392  1.1209
 2062SOL    HW217820   3.909   3.412  14.143 -0.6073 -0.5883 -0.0737
 2063SOL     OW17821   3.707   4.405   9.497  0.2699  0.1472 -0.0323
 2063SOL    HW117822   3.741   4.469   9.435 -0.5228 -0.6783 -1.3102
 2063SOL    HW217823   3.789   4.384   9.543 -0.4463 -2.3899  0.0657
 2064SOL     OW17824   2.513   4.292   2.723  0.4368 -0.1680  0.0475
 2064SOL    HW117825   2.601   4.286   2.686  0.4047 -1.7109  0.2483
 2064SOL    HW217826   2.523   4.371   2.778 -0.8276  0.2783 -0.3552
 2065SOL     OW17827   0.611   2.502   5.654  0.2608 -0.0322 -0.3036
 2065SOL    HW117828   0.670   2.439   5.696 -1.1714  0.1759  2.0102
 2065SOL    HW217829   0.659   2.541   5.581  0.5418  0.9717  0.4283
 2066SOL     OW17830   2.050   1.629   5.917 -0.1675  0.0141 -0.7788
 2066SOL    HW117831   2.144   1.614   5.928 -0.5124  1.1876  4.0067
 2066SOL    HW217832   2.036   1.570   5.843  1.5348  0.2673 -1.2862
 2067SOL     OW17833   0.135   1.888   6.350 -0.6064 -0.3088  0.0853
 2067SOL    HW117834   0.155   1.860   6.260 -0.6873  0.4370 -0.1624
 2067SOL    HW217835   0.220   1.918   6.380  0.3451 -1.2025 -1.6940
 2068SOL     OW17836   0.134   3.690  14.479  0.3331  0.5477 -0.1533
 2068SOL    HW117837   0.068   3.702  14.547 -0.2231  2.6059 -1.0686
 2068SOL    HW217838   0.089   3.723  14.401 -0.3866 -1.4082 -0.5717
 2069SOL     OW17839   1.578   0.755   7.797  0.2060 -0.2557  0.0088
 2069SOL    HW117840   1.562   0.829   7.739 -2.6501  0.4280  1.6835
 2069SOL    HW217841   1.491   0.715   7.801  0.3363 -0.4167  1.1645
 2070SOL     OW17842   0.858   0.318   8.014 -0.5254 -0.6204 -0.4078
 2070SOL    HW117843   0.896   0.272   8.089 -0.5129 -1.8476 -1.1493
 2070SOL    HW217844   0.930   0.377   7.991 -1.5175  1.2577  1.3519
 2071SOL     OW17845   4.104   4.276   4.397 -0.0499  0.9065 -0.1203
 2071SOL    HW117846   4.067   4.206   4.451 -0.1623  1.5824  0.6817
 2071SOL    HW217847   4.117   4.230   4.314 -0.9017  1.3426 -0.4952
 2072SOL     OW17848   2.428   1.813   4.072 -0.0587 -0.5951  0.0878
 2072SOL    HW117849   2.368   1.740   4.091 -0.5217 -0.2705 -0.1261
 2072SOL    HW217850   2.502   1.785   4.125 -0.3885 -2.5061 -0.4462
 2073SOL     OW17851   0.989   2.890   9.557  0.2935  0.2577 -0.0757
 2073SOL    HW117852   0.991   2.830   9.483 -0.0510 -1.5280  1.3725
 2073SOL    HW217853   1.079   2.874   9.586 -0.2380  0.2832  1.5908
 2074SOL     OW17854   1.276   2.779   7.995  0.5526  0.8192  0.0547
 2074SOL    HW117855   1.311   2.862   8.027 -1.2173  2.3423 -1.9504
 2074SOL    HW217856   1.346   2.728   8.037  1.4684 -0.3635 -2.9099
 2075SOL     OW17857   1.760   1.945   4.135 -0.1973  0.3153  0.1923
 2075SOL    HW117858   1.690   1.927   4.198  0.8750  0.8454  1.5019
 2075SOL    HW217859   1.736   2.035   4.113 -0.5229  0.4403  1.0515
 2076SOL     OW17860   0.105   3.260  13.847 -0.0363  0.2288 -0.3784
 2076SOL    HW117861   0.133   3.168  13.849  1.6785  0.7745  0.8130
 2076SOL    HW217862   0.056   3.253  13.929  0.4865  0.5166 -0.0465
 2077SOL     OW17863   2.618   4.105   2.051  0.5311 -0.1553 -0.5646
 2077SOL    HW117864   2.540   4.156   2.030  0.9838  0.1083 -1.6019
 2077SOL    HW217865   2.602   4.022   2.005 -0.0810 -0.6133  0.4763
 2078SOL     OW17866   0.210   0.543   7.644 -0.1062 -0.4456 -0.0187
 2078SOL    HW117867   0.282   0.564   7.586  0.4599 -2.8762 -0.1985
 2078SOL    HW217868   0.244   0.558   7.732  0.4640  0.8484 -0.4655
 2079SOL     OW17869   2.389   1.258   9.482  0.0828 -0.0231 -0.2137
 2079SOL    HW117870   2.450   1.291   9.548 -0.2547  0.4894 -0.1606
 2079SOL    HW217871   2.431   1.254   9.397 -0.2739  1.8441 -0.4764
 2080SOL     OW17872   2.818   1.622  14.646 -0.0808 -0.3499 -0.0188
 2080SOL    HW117873   2.908   1.605  14.616  0.3745 -0.7287  1.5611
 2080SOL    HW217874   2.819   1.586  14.734  0.7674  1.0493  0.5484
 2081SOL     OW17875   0.568   4.319  14.450 -0.4832  0.6652  0.6338
 2081SOL    HW117876   0.539   4.341  14.539 -1.7820  0.2585  0.3075
 2081SOL    HW217877   0.559   4.401  14.402  0.0106 -0.3968 -1.2528
 2082SOL     OW17878   2.708   3.867  13.111  0.5429 -0.2070 -0.1188
 2082SOL    HW117879   2.792   3.841  13.148 -0.1527 -1.1057  0.8172
 2082SOL    HW217880   2.689   3.797  13.048 -1.8746  0.6983 -0.3855
 2083SOL     OW17881   0.042   0.710   0.386 -0.0184 -0.6102  0.0553
 2083SOL    HW117882   0.115   0.721   0.447  2.1847 -3.2650 -2.0731
 2083SOL    HW217883   4.719   0.756   0.440 -0.1232 -0.6244 -0.0574
 2084SOL     OW17884   1.160   1.684  15.151  0.1967  0.2941  0.1539
 2084SOL    HW117885   1.120   1.606  15.190  0.4927 -0.0274 -0.1855
 2084SOL    HW217886   1.243   1.688  15.198 -1.0474  2.4078  2.1447
 2085SOL     OW17887   1.993   2.353   4.592  0.0607 -0.2393  0.6398
 2085SOL    HW117888   2.087   2.356   4.609 -0.0348 -0.6760  1.2673
 2085SOL    HW217889   1.982   2.429   4.536 -0.5585 -0.8773 -0.1027
 2086SOL     OW17890   3.134   1.651   3.480  0.2893  0.6181 -0.2183
 2086SOL    HW117891   3.175   1.699   3.408  1.8184 -0.4968 -0.0797
 2086SOL    HW217892   3.160   1.686   3.565  0.6691 -1.6691  0.6202
 2087SOL     OW17893   3.520   2.813   3.881  0.2425 -0.1977  0.4637
 2087SOL    HW117894   3.543   2.847   3.795  1.8305 -0.7482  0.6812
 2087SOL    HW217895   3.502   2.892   3.932 -2.2843  0.3469 -1.2490
 2088SOL     OW17896   4.563   4.200   6.622 -0.4533  0.0876  0.6480
 2088SOL    HW117897   4.478   4.197   6.665  0.3808 -1.0159  2.2157
 2088SOL    HW217898   4.576   4.105   6.611  0.1622  0.3448 -0.8222
 2089SOL     OW17899   1.056   2.094  10.038  0.1120 -0.0526  0.0405
 2089SOL    HW117900   1.063   2.078  10.132 -3.7742  4.5460  1.1318
 2089SOL    HW217901   1.107   2.174  10.027  1.1434 -0.6845  0.1560
 2090SOL     OW17902   3.059   3.688   9.514  0.7470 -0.1096 -0.4722
 2090SOL    HW117903   3.107   3.641   9.446  0.9030 -0.3227 -0.2123
 2090SOL    HW217904   3.131   3.712   9.573  1.4950 -0.5674 -1.2185
 2091SOL     OW17905   4.243   1.675  17.712 -0.1707  0.2818 -0.5464
 2091SOL    HW117906   4.319   1.733  17.705  0.2715 -0.3265 -0.8627
 2091SOL    HW217907   4.173   1.738  17.700 -0.6095  0.1006  1.0891
 2092SOL     OW17908   4.129   2.660  15.520  0.6885  0.0561  0.1168
 2092SOL    HW117909   4.188   2.586  15.537  0.5537 -0.5771 -2.0709
 2092SOL    HW217910   4.119   2.706  15.603  4.0627  1.0122  0.0230
 2093SOL     OW17911   2.383   3.144   7.366  0.8626 -0.0115  0.0069
 2093SOL    HW117912   2.404   3.087   7.440  1.1594 -1.1041 -0.9152
 2093SOL    HW217913   2.400   3.081   7.296  2.2974 -0.4332  0.7301
 2094SOL     OW17914   2.864   3.244   5.457  0.2753  0.1764 -0.1576
 2094SOL    HW117915   2.815   3.179   5.508  1.1007  0.2551  0.7425
 2094SOL    HW217916   2.938   3.188   5.433 -0.8878 -1.5010  0.1496
 2095SOL     OW17917   0.719   2.727   9.478  0.1031  1.1244 -0.2064
 2095SOL    HW117918   0.662   2.769   9.543 -2.3274  0.8156 -2.1512
 2095SOL    HW217919   0.781   2.673   9.528 -0.7442 -0.8777 -1.3297
 2096SOL     OW17920   0.484   3.950   2.260  0.4167  0.2649 -0.3665
 2096SOL    HW117921   0.403   3.902   2.278 -1.0607  2.5893 -0.8312
 2096SOL    HW217922   0.537   3.891   2.313 -2.1106 -2.1168 -0.4578
 2097SOL     OW17923   2.117   4.025  13.553 -0.2069 -0.1452  0.0857
 2097SOL    HW117924   2.143   3.969  13.626  0.8798  0.5685  0.2427
 2097SOL    HW217925   2.186   4.004  13.490  0.2234 -3.2982  1.5964
 2098SOL     OW17926   1.723   2.594  11.354 -0.1369 -0.7013  0.1114
 2098SOL    HW117927   1.783   2.521  11.336 -0.5211 -0.4445 -2.2228
 2098SOL    HW217928   1.689   2.552  11.433 -1.5874  2.9719  1.3989
 2099SOL     OW17929   0.195   1.854   5.398 -0.2828  0.4294 -0.0445
 2099SOL    HW117930   0.116   1.874   5.348 -1.0496 -0.1188  0.9445
 2099SOL    HW217931   0.168   1.851   5.489 -0.7224 -0.4465 -0.2095
 2100SOL     OW17932   3.445   2.495  14.486 -0.6415  0.4022  0.8171
 2100SOL    HW117933   3.364   2.524  14.444  1.1902  0.8256 -2.3765
 2100SOL    HW217934   3.403   2.456  14.563 -1.3290 -1.2958 -0.4099
 2101SOL     OW17935   2.631   3.205   1.898  0.4410  0.1231  0.7266
 2101SOL    HW117936   2.603   3.113   1.900 -0.1841  0.2737 -1.5718
 2101SOL    HW217937   2.674   3.220   1.983 -0.3936 -0.5438  1.2621
 2102SOL     OW17938   0.098   0.766   7.886  0.1545  0.0633 -0.3695
 2102SOL    HW117939   0.105   0.763   7.981 -0.6149 -2.0587 -0.3623
 2102SOL    HW217940   0.015   0.718   7.884 -0.2233  0.8125 -2.3562
 2103SOL     OW17941   1.424   0.468   4.144 -0.0726 -0.0825 -0.6047
 2103SOL    HW117942   1.491   0.530   4.172 -0.5318  0.0756  0.1393
 2103SOL    HW217943   1.370   0.522   4.085 -0.7645  0.0024  0.1035
 2104SOL     OW17944   3.319   1.442   3.382 -0.0742 -0.0698  0.3188
 2104SOL    HW117945   3.266   1.520   3.398 -0.0169 -0.2132  1.2102
 2104SOL    HW217946   3.343   1.457   3.290  0.3753  0.1747  0.4769
 2105SOL     OW17947   2.591   1.453  11.415 -0.0299  0.9877  0.2771
 2105SOL    HW117948   2.574   1.363  11.387  0.1225  0.6655  1.2201
 2105SOL    HW217949   2.651   1.484  11.347 -0.4893 -0.8215 -0.9545
 2106SOL     OW17950   2.746   4.012   6.012 -0.0961 -0.1861 -0.3594
 2106SOL    HW117951   2.755   4.013   6.107  0.7230 -1.8682 -0.4140
 2106SOL    HW217952   2.660   3.971   6.001  0.3109 -1.0794 -0.2652
 2107SOL     OW17953   2.916   2.433   7.131  0.0744 -0.3062  0.3410
 2107SOL    HW117954   2.854   2.506   7.133 -0.3213 -0.6254 -0.2795
 2107SOL    HW217955   2.991   2.455   7.074  2.0201 -2.7943  1.9353
 2108SOL     OW17956   1.302   4.180   5.656 -0.6218  0.1026 -0.3812
 2108SOL    HW117957   1.230   4.133   5.696 -0.5878  1.8475  1.7435
 2108SOL    HW217958   1.294   4.252   5.720 -0.1276  1.1237 -1.4586
 2109SOL     OW17959   0.745   1.551   8.315 -0.2327 -0.1610 -0.2631
 2109SOL    HW117960   0.779   1.464   8.335 -0.5065  0.1628  1.5784
 2109SOL    HW217961   0.759   1.558   8.220  0.5818  1.5225 -0.0126
 2110SOL     OW17962   3.081   1.019   2.063  0.3729  0.1654  0.2447
 2110SOL    HW117963   3.168   1.052   2.086 -0.0106  1.0664  0.3813
 2110SOL    HW217964   3.030   1.099   2.072 -1.3104 -0.5947 -2.3836
 2111SOL     OW17965   0.680   0.472   1.517 -0.0155 -0.1400  0.7651
 2111SOL    HW117966   0.716   0.406   1.458 -0.2498  0.2620  0.1762
 2111SOL    HW217967   0.679   0.425   1.601  0.0669  0.5461  1.1519
 2112SOL     OW17968   3.154   0.869   5.877  0.0238 -0.4147  0.7352
 2112SOL    HW117969   3.242   0.858   5.841  0.0897  0.0079  0.7610
 2112SOL    HW217970   3.090   0.822   5.823 -0.4997  0.9795  0.1411
 2113SOL     OW17971   3.297   2.270  14.889 -0.1774 -0.4565 -0.2085
 2113SOL    HW117972   3.388   2.297  14.877  0.4435 -2.1964  0.5068
 2113SOL    HW217973   3.275   2.273  14.796 -2.4087 -1.9115  0.2745
 2114SOL     OW17974   2.460   3.373  13.406  0.0129  0.1707 -0.4059
 2114SOL    HW117975   2.499   3.405  13.325  0.4763  2.5502  0.7604
 2114SOL    HW217976   2.529   3.388  13.470 -0.6737  1.6508  0.0032
 2115SOL     OW17977   4.699   2.987  12.942 -0.2314  0.2006  0.6760
 2115SOL    HW117978   4.631   2.939  12.989 -1.0479 -1.5278 -2.1997
 2115SOL    HW217979   0.028   2.924  12.960  1.4337  1.1244 -2.4248
 2116SOL     OW17980   0.985   0.875  12.656  0.1886  0.5657 -0.1405
 2116SOL    HW117981   0.987   0.849  12.564  0.0832  0.1454 -0.0246
 2116SOL    HW217982   0.904   0.925  12.653  0.3684  0.8060 -1.1234
 2117SOL     OW17983   2.401   3.814   2.964 -0.9429 -0.3748  0.0046
 2117SOL    HW117984   2.308   3.793   2.973 -0.7485 -0.8045  0.9891
 2117SOL    HW217985   2.397   3.909   2.952  0.2884 -0.3416 -0.1990
 2118SOL     OW17986   3.409   3.655   4.335  0.3847 -0.2177  0.3393
 2118SOL    HW117987   3.504   3.667   4.346  0.4375  0.8936 -1.1825
 2118SOL    HW217988   3.407   3.689   4.245 -0.8340  0.2111  0.5383
 2119SOL     OW17989   1.531   2.796  11.691  0.1888  0.2600  0.7242
 2119SOL    HW117990   1.507   2.866  11.631  2.4157  0.6123  0.2430
 2119SOL    HW217991   1.479   2.726  11.651 -0.1388  0.8807  0.0771
 2120SOL     OW17992   0.927   4.690   3.243  0.0159  0.2595  0.2990
 2120SOL    HW117993   1.006   4.734   3.276  1.8720 -1.6071 -1.6290
 2120SOL    HW217994   0.951   4.597   3.245  0.4701  0.3630 -0.8718
 2121SOL     OW17995   3.074   1.179   2.654 -0.4537  0.0736 -0.1332
 2121SOL    HW117996   3.016   1.240   2.700  0.5058  0.4720  0.5440
 2121SOL    HW217997   3.144   1.242   2.636  0.2703 -0.3914  1.0524
 2122SOL     OW17998   0.214   0.710  15.624  0.7319 -0.2591 -0.1230
 2122SOL    HW117999   0.268   0.662  15.688  1.0711  1.8427  1.1660
 2122SOL    HW218000   0.193   0.644  15.558 -1.0131  0.3430 -0.1676
 2123SOL     OW18001   0.812   3.683   3.393  0.0311  0.6511 -0.3481
 2123SOL    HW118002   0.748   3.626   3.350  0.9884 -1.4212  0.9753
 2123SOL    HW218003   0.845   3.626   3.463  0.8788  0.9354 -0.5101
 2124SOL     OW18004   0.985   0.537   6.185  0.0801  0.1686  0.3702
 2124SOL    HW118005   0.896   0.549   6.216 -0.1051  0.9865 -0.5002
 2124SOL    HW218006   0.990   0.629   6.160  0.8131 -0.3069 -1.1977
 2125SOL     OW18007   2.434   3.918   4.816 -0.0534  1.2392  0.2083
 2125SOL    HW118008   2.504   3.871   4.860 -0.3850 -1.0599 -1.7003
 2125SOL    HW218009   2.483   3.999   4.803  2.3246 -0.4439 -1.1782
 2126SOL     OW18010   2.219   0.453   1.156  0.1713  0.4395  0.5658
 2126SOL    HW118011   2.260   0.511   1.220  0.2947  1.1563 -0.1575
 2126SOL    HW218012   2.142   0.409   1.190 -0.0349 -0.0060 -0.5029
 2127SOL     OW18013   1.959   2.106   3.226 -0.1556 -0.6575  0.4644
 2127SOL    HW118014   1.899   2.032   3.240  0.6852 -1.2099  1.1583
 2127SOL    HW218015   1.965   2.141   3.315  0.9657  1.0391 -0.2907
 2128SOL     OW18016   3.415   2.222   8.365 -0.0263 -0.1763 -0.2941
 2128SOL    HW118017   3.433   2.261   8.451 -1.9795 -1.6614  0.7734
 2128SOL    HW218018   3.408   2.300   8.310 -1.5053 -0.8965 -1.1056
 2129SOL     OW18019   2.374   2.068  14.368 -0.0721  0.7659  0.0776
 2129SOL    HW118020   2.382   1.976  14.394 -1.5508  0.7641  0.5004
 2129SOL    HW218021   2.413   2.063  14.281  0.7526  1.7440  0.3787
 2130SOL     OW18022   3.924   3.825  17.689 -0.0946  0.2329  0.1817
 2130SOL    HW118023   3.857   3.892  17.700 -0.1719 -0.0930  1.6966
 2130SOL    HW218024   3.997   3.848  17.745  0.3859  0.1079 -0.3888
 2131SOL     OW18025   4.426   4.626   5.530 -0.8753  0.3508  0.1868
 2131SOL    HW118026   4.441   4.629   5.435  0.2529  0.7275  0.3748
 2131SOL    HW218027   4.348   4.570   5.528  0.8019 -1.8995 -2.2120
 2132SOL     OW18028   1.618   1.315  10.278  0.2187 -0.3023  0.2972
 2132SOL    HW118029   1.541   1.372  10.272  0.6383  0.0855 -1.5160
 2132SOL    HW218030   1.564   1.238  10.295 -1.7685  1.0460  0.0388
 2133SOL     OW18031   1.503   4.102   3.478  0.2863  0.3435  0.2851
 2133SOL    HW118032   1.540   4.176   3.429  0.5770 -1.1218 -1.7062
 2133SOL    HW218033   1.413   4.132   3.495  0.5178  0.6524  0.9714
 2134SOL     OW18034   3.981   4.614   3.395  0.2700  0.3659  0.5704
 2134SOL    HW118035   3.951   4.700   3.363  1.1899  0.2669 -0.5398
 2134SOL    HW218036   3.964   4.631   3.488  0.0438 -1.3118  0.8242
 2135SOL     OW18037   3.424   1.796  15.467  0.2592 -0.1693  0.1029
 2135SOL    HW118038   3.510   1.825  15.435 -0.2821  1.5773  0.1994
 2135SOL    HW218039   3.363   1.863  15.434  1.3819  1.2521  0.9192
 2136SOL     OW18040   4.443   2.903   5.417  0.1174 -0.3337 -0.3271
 2136SOL    HW118041   4.441   2.970   5.349  2.1775  0.9933  0.9448
 2136SOL    HW218042   4.527   2.919   5.460 -1.4311  2.7978  1.4809
 2137SOL     OW18043   4.609   4.075   8.784 -0.7164 -0.6126  0.1048
 2137SOL    HW118044   4.567   4.099   8.701  0.5351  1.4386  0.0690
 2137SOL    HW218045   4.576   4.142   8.844 -0.6995  0.2048 -0.7981
 2138SOL     OW18046   1.299   1.549   4.196 -0.3792  0.0432  0.2608
 2138SOL    HW118047   1.318   1.587   4.282 -0.3019 -0.9167  0.6693
 2138SOL    HW218048   1.335   1.462   4.215  0.1789 -0.1509 -1.6716
 2139SOL     OW18049   2.791   2.328  10.215 -0.0415  0.5263 -0.3693
 2139SOL    HW118050   2.749   2.364  10.293  0.9128 -0.6764  0.7048
 2139SOL    HW218051   2.760   2.238  10.217  0.8430  0.3165  3.2549
 2140SOL     OW18052   3.960   0.333   6.962  0.4242  0.1812 -0.4196
 2140SOL    HW118053   3.899   0.395   6.923 -0.5830 -0.7601 -0.3556
 2140SOL    HW218054   3.908   0.253   6.954 -0.8086  1.0489 -1.1509
 2141SOL     OW18055   1.539   3.723   4.300 -0.0477 -0.7265  0.3283
 2141SOL    HW118056   1.543   3.777   4.379 -0.9570 -0.1564 -0.0222
 2141SOL    HW218057   1.461   3.752   4.253  1.0528  1.2289 -0.2669
 2142SOL     OW18058   0.897   4.349  14.240  0.3350 -0.1011 -0.1409
 2142SOL    HW118059   0.917   4.442  14.251 -1.8955  0.4674 -0.9203
 2142SOL    HW218060   0.976   4.307  14.204 -0.6309 -1.8509 -0.1908
 2143SOL     OW18061   3.348   3.922   2.652  0.3229 -0.3768 -0.7577
 2143SOL    HW118062   3.409   3.984   2.692 -1.8642  1.4702 -0.2411
 2143SOL    HW218063   3.382   3.910   2.564  0.4798 -1.3402 -0.5631
 2144SOL     OW18064   2.478   4.381   3.857  0.4985  0.7275  0.4957
 2144SOL    HW118065   2.564   4.422   3.860  0.7324  0.3858 -1.1518
 2144SOL    HW218066   2.431   4.448   3.807  0.3594  1.8894  2.2095
 2145SOL     OW18067   0.159   1.736   1.743 -0.2429 -0.1323  0.1046
 2145SOL    HW118068   0.175   1.795   1.670  0.6678 -0.5100 -0.0060
 2145SOL    HW218069   0.161   1.789   1.822 -0.5884  0.9740 -0.6326
 2146SOL     OW18070   4.636   0.764   9.429 -0.4542 -0.6540 -0.0468
 2146SOL    HW118071   4.706   0.710   9.391 -0.3106 -0.2887 -0.2963
 2146SOL    HW218072   4.610   0.825   9.360 -1.2858  0.9311  1.6441
 2147SOL     OW18073   2.273   1.842   2.558  0.1128 -0.2434  0.3569
 2147SOL    HW118074   2.295   1.934   2.575  0.8400  0.0958 -2.4389
 2147SOL    HW218075   2.179   1.854   2.544  0.6374 -1.0958 -3.8104
 2148SOL     OW18076   0.381   4.128   1.941 -0.8326  0.5113 -0.0053
 2148SOL    HW118077   0.304   4.127   1.884 -0.9010 -4.4938  0.2068
 2148SOL    HW218078   0.452   4.084   1.894  0.9619  3.0373  0.3097
 2149SOL     OW18079   3.113   0.265   8.057 -0.0129 -0.7365 -0.0235
 2149SOL    HW118080   3.022   0.288   8.072 -0.1483 -1.6295  0.5028
 2149SOL    HW218081   3.106   0.175   8.087  0.8021 -1.1099 -0.9385
 2150SOL     OW18082   2.704   0.761   5.950  0.5513 -0.4349 -0.1394
 2150SOL    HW118083   2.745   0.783   6.033  0.0536 -0.7858  0.2048
 2150SOL    HW218084   2.617   0.795   5.971  1.3157  2.4611 -1.6842
 2151SOL     OW18085   0.255   0.432   0.520 -0.2026  0.1529  0.0659
 2151SOL    HW118086   0.223   0.355   0.568 -1.5141  0.6965  0.0767
 2151SOL    HW218087   0.310   0.384   0.458 -0.5052 -1.2251  0.8547
 2152SOL     OW18088   1.892   4.369   9.121  0.2027 -0.1854  0.1936
 2152SOL    HW118089   1.807   4.333   9.094 -0.3917  2.1549 -1.1030
 2152SOL    HW218090   1.898   4.455   9.079  1.4203 -0.0949  0.5620
 2153SOL     OW18091   4.454   1.532   7.580  0.2137 -0.5952 -0.0351
 2153SOL    HW118092   4.527   1.476   7.607  1.3480  1.4337  1.1293
 2153SOL    HW218093   4.405   1.469   7.528  1.1214 -0.7250 -0.7263
 2154SOL     OW18094   2.920   0.806   7.696 -0.3936 -0.5407 -0.2439
 2154SOL    HW118095   2.963   0.725   7.668  0.9680  0.3698 -0.7837
 2154SOL    HW218096   2.844   0.792   7.639 -2.1439  1.7745  1.5141
 2155SOL     OW18097   3.591   3.839   3.907 -0.1812 -0.2260  0.3255
 2155SOL    HW118098   3.669   3.858   3.855 -0.1217  1.1912  0.9464
 2155SOL    HW218099   3.526   3.894   3.863  0.0518  1.2383  1.8081
 2156SOL     OW18100   4.406   0.988   2.063  0.0233  0.3917 -0.2423
 2156SOL    HW118101   4.317   1.005   2.033 -0.5779  2.0166  2.4884
 2156SOL    HW218102   4.398   0.906   2.112  1.9719 -1.3973 -2.9078
 2157SOL     OW18103   3.293   1.045  12.742  0.1164  0.0748 -0.2778
 2157SOL    HW118104   3.330   1.123  12.783  0.9971 -0.3835 -0.1866
 2157SOL    HW218105   3.262   1.080  12.658 -2.2685 -0.2565  0.4716
 2158SOL     OW18106   2.964   3.781   5.947  0.3922 -0.1922 -0.3590
 2158SOL    HW118107   2.985   3.692   5.917  1.1312 -0.2185  0.2444
 2158SOL    HW218108   2.969   3.772   6.042 -3.0142 -2.9914 -0.4183
 2159SOL     OW18109   3.913   4.296   9.610  0.2753 -0.1563  0.5304
 2159SOL    HW118110   3.962   4.282   9.692  1.3853 -2.5746 -0.5420
 2159SOL    HW218111   3.978   4.246   9.561 -1.1171 -1.0945 -0.3370
 2160SOL     OW18112   1.923   3.106   6.514  0.2172  0.4091  0.2276
 2160SOL    HW118113   1.943   3.164   6.588 -0.3120  2.2015 -1.0495
 2160SOL    HW218114   1.831   3.085   6.530  0.8079 -1.4532  1.2298
 2161SOL     OW18115   2.855   1.600   7.853 -0.2219  0.1136 -0.8970
 2161SOL    HW118116   2.837   1.575   7.762  0.7072  0.0608 -1.0633
 2161SOL    HW218117   2.784   1.657   7.882 -0.0847 -1.0481  1.7218
 2162SOL     OW18118   0.029   4.013   7.574  0.4782 -0.1944  0.5225
 2162SOL    HW118119   0.079   3.990   7.652  1.9113  0.9205 -0.0734
 2162SOL    HW218120   0.011   3.922   7.550 -1.5804  1.2465 -3.5128
 2163SOL     OW18121   2.755   2.849   8.687  0.5640  0.4399 -0.0517
 2163SOL    HW118122   2.833   2.903   8.698 -0.0837  1.0569  1.5711
 2163SOL    HW218123   2.790   2.760   8.687 -3.2067 -1.0694  3.1948
 2164SOL     OW18124   2.948   4.089   9.011  0.1984  0.1608  0.3625
 2164SOL    HW118125   2.993   4.129   9.086 -1.4743  2.3554  0.2075
 2164SOL    HW218126   2.893   4.164   8.988 -0.4272 -0.0403  1.1759
 2165SOL     OW18127   0.150   0.228   8.259 -0.2898  0.3000  0.0300
 2165SOL    HW118128   0.128   0.212   8.351 -0.6910  1.6871  0.1868
 2165SOL    HW218129   0.072   0.200   8.212 -1.0635  1.8459  0.4013
 2166SOL     OW18130   2.506   3.035   7.576  0.1837  0.1776  0.2202
 2166SOL    HW118131   2.471   3.080   7.653 -0.7820  2.2935 -1.4693
 2166SOL    HW218132   2.597   3.064   7.570  0.4549 -0.0878  3.1711
 2167SOL     OW18133   3.197   4.591   8.399 -0.3584  0.7101 -0.1483
 2167SOL    HW118134   3.116   4.605   8.449 -0.6136  2.4209 -1.0174
 2167SOL    HW218135   3.164   4.555   8.317  1.3273  0.5973 -0.7824
 2168SOL     OW18136   1.648   3.923   8.749 -1.0139  0.3307  0.1374
 2168SOL    HW118137   1.600   4.001   8.778  2.2421  2.6782 -0.8720
 2168SOL    HW218138   1.581   3.879   8.697  0.6891 -0.1334 -1.6560
 2169SOL     OW18139   4.417   1.859   1.891  0.5883 -0.0120  0.1197
 2169SOL    HW118140   4.506   1.894   1.891  0.3941  0.4885  0.5202
 2169SOL    HW218141   4.372   1.912   1.957 -0.0445  0.8616 -1.0317
 2170SOL     OW18142   3.915   3.383   9.647  0.3347  0.1483 -0.2531
 2170SOL    HW118143   3.986   3.413   9.703 -1.4161  0.9536  1.5022
 2170SOL    HW218144   3.877   3.313   9.699  1.1682  1.7528  2.5175
 2171SOL     OW18145   1.414   1.862   3.771 -0.4704  0.3712 -0.3172
 2171SOL    HW118146   1.432   1.810   3.849 -1.9500  0.3796  0.0253
 2171SOL    HW218147   1.359   1.796   3.728 -1.3977  0.9711 -0.0498
 2172SOL     OW18148   2.016   2.477   3.495 -0.1665 -0.6497  0.0884
 2172SOL    HW118149   1.972   2.459   3.577  0.7096  0.1531  0.7353
 2172SOL    HW218150   1.964   2.556   3.479  1.3290  0.5003  0.9582
 2173SOL     OW18151   3.063   3.904   5.591  0.1532 -0.1448 -0.1138
 2173SOL    HW118152   3.127   3.975   5.586 -0.3417  0.4627  2.3845
 2173SOL    HW218153   3.015   3.922   5.672  0.9901 -0.3416  0.4189
 2174SOL     OW18154   4.637   0.193   2.783 -0.5959  0.1418 -0.4772
 2174SOL    HW118155   4.587   0.130   2.731  0.0863  0.4197 -1.4690
 2174SOL    HW218156   4.718   0.196   2.733  1.3922  0.4540  2.7823
 2175SOL     OW18157   4.593   0.793   9.026  0.0236  0.1309 -0.2317
 2175SOL    HW118158   4.661   0.841   9.073 -0.6148  2.0437 -1.2454
 2175SOL    HW218159   4.519   0.826   9.077  1.2823  1.1047  0.9556
 2176SOL     OW18160   2.008   1.652  17.384 -0.0440  0.2597 -0.0747
 2176SOL    HW118161   2.050   1.699  17.456 -0.2201  0.4918 -0.1244
 2176SOL    HW218162   2.025   1.711  17.311  0.2146  0.6625  0.3144
 2177SOL     OW18163   0.207   3.773   8.232 -0.3674  0.3963 -0.0438
 2177SOL    HW118164   0.297   3.775   8.198 -0.3843  2.1554  0.0428
 2177SOL    HW218165   0.215   3.701   8.294 -1.5000  0.3768  0.0920
 2178SOL     OW18166   2.220   4.557   6.900  0.0704 -0.1340 -0.1582
 2178SOL    HW118167   2.183   4.562   6.988 -2.2781  0.3761 -1.1715
 2178SOL    HW218168   2.261   4.643   6.888  0.9886 -0.4534  0.7772
 2179SOL     OW18169   1.430   1.049   6.443 -0.1362  0.9457  0.1176
 2179SOL    HW118170   1.454   1.067   6.534 -1.2374 -0.3634  0.6846
 2179SOL    HW218171   1.456   0.959   6.425 -0.8048  0.7546  0.0878
 2180SOL     OW18172   3.474   1.926   5.810 -0.5051  0.0666 -0.1878
 2180SOL    HW118173   3.467   1.879   5.727  2.3917  1.8007 -1.4184
 2180SOL    HW218174   3.565   1.952   5.793  0.2241 -2.2296  0.2477
 2181SOL     OW18175   4.026   4.653   2.432 -0.2584 -0.2083 -0.1424
 2181SOL    HW118176   3.994   4.568   2.401 -1.2394  0.6549 -1.5047
 2181SOL    HW218177   4.102   4.625   2.483 -0.6306  1.4422  1.3111
 2182SOL     OW18178   4.701   0.614   5.160 -0.5287 -0.0770  0.1183
 2182SOL    HW118179   0.026   0.621   5.092 -0.1069  0.6101  0.6017
 2182SOL    HW218180   4.704   0.521   5.187  0.6104 -0.1849 -0.3959
 2183SOL     OW18181   0.350   1.313  12.671 -0.1923  0.0319 -0.0670
 2183SOL    HW118182   0.260   1.345  12.667 -0.3080 -0.3781 -0.6330
 2183SOL    HW218183   0.403   1.393  12.669  0.2284 -0.1933  1.7750
 2184SOL     OW18184   1.170   2.960   7.234 -0.5417  0.3544 -0.4625
 2184SOL    HW118185   1.104   2.906   7.190 -0.2338  1.0305 -1.7548
 2184SOL    HW218186   1.237   2.900   7.268 -1.2779 -0.0178  0.3425
 2185SOL     OW18187   1.583   1.675   9.803  0.5487 -0.1975 -0.0383
 2185SOL    HW118188   1.539   1.729   9.869 -2.8774 -1.7806 -1.0556
 2185SOL    HW218189   1.669   1.692   9.843 -0.5892  0.5887  2.0749
 2186SOL     OW18190   4.506   3.379   1.947  0.0979  0.0057 -0.5319
 2186SOL    HW118191   4.566   3.313   1.911 -0.8053 -1.0081 -0.1983
 2186SOL    HW218192   4.475   3.414   1.863 -1.9854  1.3067  0.7849
 2187SOL     OW18193   1.802   0.174   6.926  0.1430  0.1635 -0.2173
 2187SOL    HW118194   1.759   0.235   6.867  0.3858 -1.4598 -2.0813
 2187SOL    HW218195   1.780   0.084   6.902 -0.1619 -0.0018  0.6822
 2188SOL     OW18196   3.072   0.257   6.146 -0.0428 -0.0381 -0.4179
 2188SOL    HW118197   3.148   0.272   6.202 -0.0944 -0.9108 -0.1167
 2188SOL    HW218198   3.094   0.320   6.077 -0.0732 -0.3660 -0.7259
 2189SOL     OW18199   0.244   2.768   1.816  0.7517 -0.6621  0.0098
 2189SOL    HW118200   0.263   2.839   1.876  0.2192  0.2346 -0.8871
 2189SOL    HW218201   0.184   2.712   1.865  0.1822 -1.2378 -1.3261
 2190SOL     OW18202   3.398   3.134   4.257 -0.2067 -0.1655  0.7201
 2190SOL    HW118203   3.483   3.126   4.301  0.8670  0.7896 -1.1777
 2190SOL    HW218204   3.333   3.109   4.323 -0.1942 -3.6271 -0.5571
 2191SOL     OW18205   3.508   0.815  12.847  0.1361  0.2186 -0.4294
 2191SOL    HW118206   3.579   0.796  12.908  0.2792 -0.7106 -0.8891
 2191SOL    HW218207   3.564   0.869  12.791  0.7008  0.1326  0.0465
 2192SOL     OW18208   1.206   3.563   8.921 -0.2391 -0.1232 -0.3591
 2192SOL    HW118209   1.236   3.644   8.963 -0.4296  0.1085 -0.6707
 2192SOL    HW218210   1.266   3.498   8.957 -1.3211 -0.2851  1.1517
 2193SOL     OW18211   1.970   3.632   6.690  0.3035  0.1033 -0.5358
 2193SOL    HW118212   1.889   3.619   6.642  1.3702 -2.0432 -1.7770
 2193SOL    HW218213   1.965   3.725   6.711  1.7045  0.4003 -1.5171
 2194SOL     OW18214   1.949   1.381   2.006  0.3831  0.0699  0.1532
 2194SOL    HW118215   1.971   1.296   2.044 -1.0439 -1.0083 -1.3966
 2194SOL    HW218216   1.876   1.411   2.060 -1.7524 -2.9413 -1.0911
 2195SOL     OW18217   0.620   2.138   2.352 -0.8236  0.9467  0.4934
 2195SOL    HW118218   0.625   2.124   2.258 -0.0691 -0.7947  0.7791
 2195SOL    HW218219   0.531   2.118   2.382  0.2462  0.9731  3.7184
 2196SOL     OW18220   2.703   2.950  17.419 -0.2162 -0.1795 -0.0350
 2196SOL    HW118221   2.616   2.916  17.440 -0.1004  0.9321  2.3093
 2196SOL    HW218222   2.751   2.875  17.387  0.2322  1.3775 -2.9801
 2197SOL     OW18223   2.094   3.054  10.104  0.0317  0.3363  0.2596
 2197SOL    HW118224   2.082   3.101  10.022 -0.6376  0.8577  0.6535
 2197SOL    HW218225   2.102   2.962  10.082 -3.3287  0.1628 -0.2623
 2198SOL     OW18226   1.438   3.788   6.558 -0.1703  0.3806 -0.3670
 2198SOL    HW118227   1.473   3.710   6.601  1.2843  1.0087 -0.4341
 2198SOL    HW218228   1.352   3.801   6.600 -1.3536  0.6052 -2.8944
 2199SOL     OW18229   1.037   4.112   8.849  0.0841  0.4695 -0.2949
 2199SOL    HW118230   1.001   4.056   8.919 -0.2710 -0.3263 -1.1204
 2199SOL    HW218231   1.107   4.150   8.902 -0.3854 -0.6540  1.1440
 2200SOL     OW18232   4.096   2.646  10.786 -0.0433 -0.5175  0.4892
 2200SOL    HW118233   4.135   2.714  10.842 -0.3040  0.1555 -0.1400
 2200SOL    HW218234   4.176   2.598  10.765  0.2001  0.1937 -0.2455
 2201SOL     OW18235   1.818   0.994   6.404 -0.1145  0.1017 -0.0239
 2201SOL    HW118236   1.815   1.082   6.441 -0.2014  0.3282 -0.5726
 2201SOL    HW218237   1.875   1.014   6.329  1.6389 -1.3160  0.9175
 2202SOL     OW18238   1.732   2.477   2.017 -0.0178  0.5404  0.1516
 2202SOL    HW118239   1.692   2.408   1.964  0.7869 -1.3249  1.9680
 2202SOL    HW218240   1.683   2.464   2.098  0.4572  0.4894  0.4349
 2203SOL     OW18241   2.031   1.622   4.885  0.0069  0.1104 -0.1195
 2203SOL    HW118242   2.096   1.616   4.815  1.1886 -1.2002  1.0803
 2203SOL    HW218243   2.029   1.529   4.909 -0.4866  0.1177 -0.1363
 2204SOL     OW18244   2.803   2.813   4.985 -0.0781 -0.2524 -0.4858
 2204SOL    HW118245   2.808   2.778   4.896 -0.6796  0.1848 -0.6898
 2204SOL    HW218246   2.817   2.729   5.028 -0.9444 -0.5327 -0.7608
 2205SOL     OW18247   0.355   3.001   5.100  0.1372 -0.0419 -0.5038
 2205SOL    HW118248   0.416   3.065   5.062  0.9791  1.4970  3.3617
 2205SOL    HW218249   0.415   2.946   5.151  1.4083  1.4194 -0.3841
 2206SOL     OW18250   3.050   0.355   7.714  0.0776  0.1809 -0.2022
 2206SOL    HW118251   3.088   0.272   7.743  3.2046  1.3060 -1.0710
 2206SOL    HW218252   2.965   0.354   7.760 -0.5143 -1.9683 -1.3482
 2207SOL     OW18253   3.423   1.603   9.579 -0.0433 -0.9871 -0.0702
 2207SOL    HW118254   3.383   1.612   9.666  1.0095  0.5014  0.2703
 2207SOL    HW218255   3.459   1.692   9.574 -0.4537 -0.8441 -0.3971
 2208SOL     OW18256   2.928   0.180  14.855 -0.3299 -0.0309 -0.1860
 2208SOL    HW118257   2.968   0.130  14.784 -0.7849  0.1029 -0.5329
 2208SOL    HW218258   2.971   0.126  14.921 -2.9787 -1.6715  0.2030
 2209SOL     OW18259   2.640   4.710   4.673 -0.2069  0.3993 -0.0441
 2209SOL    HW118260   2.556   4.688   4.714 -0.0995  0.4680  0.2153
 2209SOL    HW218261   2.636   4.648   4.601 -0.6220 -0.7203  0.9536
 2210SOL     OW18262   0.957   2.819   4.013  0.5430 -0.2077  0.0331
 2210SOL    HW118263   0.942   2.783   3.926  1.4930 -1.1331  0.2468
 2210SOL    HW218264   1.024   2.885   3.995 -1.1454  1.9369  1.6602
 2211SOL     OW18265   1.116   3.296   4.577 -0.6829 -0.0926  0.3231
 2211SOL    HW118266   1.082   3.307   4.666  3.3260 -2.0067  2.0952
 2211SOL    HW218267   1.135   3.386   4.553  1.5025 -1.0557 -1.5425
 2212SOL     OW18268   2.583   0.748   1.441  0.2666  0.1376  0.0399
 2212SOL    HW118269   2.598   0.820   1.379  2.0998  0.3169  0.7074
 2212SOL    HW218270   2.668   0.705   1.439  0.2313 -0.0062  1.7029
 2213SOL     OW18271   4.327   1.770   1.415  0.4574  0.7691  0.1415
 2213SOL    HW118272   4.339   1.675   1.408  1.8413  0.9076  0.7676
 2213SOL    HW218273   4.415   1.794   1.385  0.4142 -0.6639 -1.1612
 2214SOL     OW18274   2.077   3.922   4.351  0.2358  0.7893  0.3339
 2214SOL    HW118275   2.005   3.933   4.414 -1.6393  1.7322 -1.9754
 2214SOL    HW218276   2.148   3.896   4.410  2.2874 -2.1229 -3.4279
 2215SOL     OW18277   3.621   2.318  17.037 -0.2283  1.2525 -0.2310
 2215SOL    HW118278   3.649   2.228  17.053 -0.4360  1.0923 -0.7631
 2215SOL    HW218279   3.560   2.318  16.963  0.6075  1.6369 -0.9249
 2216SOL     OW18280   0.617   0.499   7.125 -0.3896  0.5099  0.4106
 2216SOL    HW118281   0.534   0.453   7.112 -0.8642  1.5780 -0.3628
 2216SOL    HW218282   0.594   0.592   7.133 -0.1617  0.8568 -2.9643
 2217SOL     OW18283   4.619   1.428   8.469  0.4044 -0.2191 -0.7276
 2217SOL    HW118284   4.580   1.383   8.544  1.2038  0.2827 -0.0138
 2217SOL    HW218285   4.704   1.459   8.500  1.2607 -3.1121 -0.2253
 2218SOL     OW18286   2.353   0.337   3.273 -0.1438 -0.3458  0.1006
 2218SOL    HW118287   2.444   0.365   3.288 -0.1576 -1.6142  2.4475
 2218SOL    HW218288   2.351   0.383   3.189  0.8111  0.4138  0.4874
 2219SOL     OW18289   1.343   3.588   2.855  0.7171  0.3773 -0.2911
 2219SOL    HW118290   1.376   3.534   2.927 -1.1061 -1.3698 -0.7731
 2219SOL    HW218291   1.315   3.665   2.905  0.6686  1.0987 -1.4451
 2220SOL     OW18292   1.626   0.360   3.112 -0.3018 -0.5898 -0.4389
 2220SOL    HW118293   1.685   0.373   3.186 -1.5230  0.3058  0.3777
 2220SOL    HW218294   1.687   0.323   3.049 -0.2909 -1.9847  0.3786
 2221SOL     OW18295   1.186   4.287  11.191  0.3980 -0.4674 -0.1358
 2221SOL    HW118296   1.228   4.323  11.113  0.5493 -0.4685 -0.0548
 2221SOL    HW218297   1.136   4.212  11.159 -0.4373  0.6646 -1.4643
 2222SOL     OW18298   4.145   1.594   0.657  0.3680 -0.6670 -0.3542
 2222SOL    HW118299   4.085   1.620   0.587 -0.7096  0.4964  0.9972
 2222SOL    HW218300   4.101   1.514   0.687  0.3875 -0.8360 -0.7747
 2223SOL     OW18301   4.122   2.504  16.154 -0.5259 -0.1632 -0.6255
 2223SOL    HW118302   4.176   2.573  16.194 -1.3690 -0.6505  1.3229
 2223SOL    HW218303   4.038   2.549  16.151 -0.2010  0.5374  0.8361
 2224SOL     OW18304   4.513   0.662   3.218  0.2326 -0.2619 -0.4274
 2224SOL    HW118305   4.593   0.708   3.243 -1.2181  1.2191  1.3799
 2224SOL    HW218306   4.542   0.654   3.127  1.2340 -1.5236 -0.0095
 2225SOL     OW18307   0.685   2.280  14.742 -0.9401  0.8326  0.4993
 2225SOL    HW118308   0.694   2.255  14.650 -3.6626  1.6142  0.0179
 2225SOL    HW218309   0.618   2.222  14.778 -0.5288 -0.8848 -1.5177
 2226SOL     OW18310   0.912   4.538   4.083  0.1711 -0.0095 -0.3767
 2226SOL    HW118311   0.955   4.595   4.146  1.3263 -0.2237 -0.9632
 2226SOL    HW218312   0.842   4.505   4.139  1.5314 -1.2918  0.5744
 2227SOL     OW18313   2.496   0.942  17.424 -0.8550 -0.8770 -0.0229
 2227SOL    HW118314   2.567   1.004  17.407 -0.6568 -1.1129 -0.0498
 2227SOL    HW218315   2.468   0.943  17.333  0.7062  0.4303 -0.4919
 2228SOL     OW18316   1.019   1.082   1.364 -0.3566  0.4106 -0.6898
 2228SOL    HW118317   1.041   1.125   1.281  0.0883 -1.8177 -1.7391
 2228SOL    HW218318   1.076   1.007   1.346  1.2163  1.5200 -0.3622
 2229SOL     OW18319   4.721   2.907  15.222 -0.1589  0.1205  0.2125
 2229SOL    HW118320   0.036   2.832  15.201  0.0289 -0.3306  2.2921
 2229SOL    HW218321   4.740   2.913  15.316  1.0147  0.4264 -0.0442
 2230SOL     OW18322   1.015   4.623  14.274  0.1559 -0.8345 -0.1450
 2230SOL    HW118323   1.103   4.642  14.241 -0.1713  1.4423  0.2806
 2230SOL    HW218324   0.973   4.696  14.229 -1.9336 -0.5664  2.2608
 2231SOL     OW18325   4.382   3.878   6.482 -0.3912  0.4246 -0.0022
 2231SOL    HW118326   4.465   3.922   6.501  0.2613 -1.8784  2.3885
 2231SOL    HW218327   4.361   3.830   6.562 -1.3715  0.5168 -0.1981
 2232SOL     OW18328   3.425   3.706   2.947  0.3816 -0.0348  0.3589
 2232SOL    HW118329   3.492   3.709   2.878 -0.0651 -1.5804 -0.1256
 2232SOL    HW218330   3.407   3.614   2.963 -1.4207 -0.4661 -4.2253
 2233SOL     OW18331   2.857   2.379   2.368  0.6043 -0.0790 -0.0218
 2233SOL    HW118332   2.826   2.422   2.288 -2.5254  0.7287  1.6394
 2233SOL    HW218333   2.791   2.309   2.374 -0.0902  0.6214  0.4683
 2234SOL     OW18334   0.594   3.191   7.490 -0.0846  0.3521 -0.2792
 2234SOL    HW118335   0.612   3.143   7.571 -1.3023  0.9805  0.3678
 2234SOL    HW218336   0.500   3.175   7.483 -0.1325  0.5113 -0.0261
 2235SOL     OW18337   4.161   4.326   5.512 -0.6006  0.3358  0.1247
 2235SOL    HW118338   4.178   4.248   5.565 -0.1085 -0.4211 -1.1338
 2235SOL    HW218339   4.248   4.342   5.475  0.0711 -0.1238  1.4993
 2236SOL     OW18340   0.378   2.583   3.292  0.0983 -0.0918 -0.7071
 2236SOL    HW118341   0.451   2.536   3.332 -0.6449  1.2913  2.2836
 2236SOL    HW218342   0.346   2.510   3.239  0.1703 -1.4212  1.0769
 2237SOL     OW18343   4.407   0.827   0.779  0.5922 -0.4842  0.8223
 2237SOL    HW118344   4.350   0.788   0.845  2.1105 -0.7075  1.9940
 2237SOL    HW218345   4.362   0.799   0.699 -1.6906  1.2947  1.4838
 2238SOL     OW18346   4.145   2.318  16.343 -0.1909 -0.0619  0.4414
 2238SOL    HW118347   4.238   2.321  16.363 -0.1659 -0.8033  0.4324
 2238SOL    HW218348   4.146   2.363  16.258 -0.6001  0.4168  0.6887
 2239SOL     OW18349   1.374   0.061   5.805  0.0599  0.6360 -0.7969
 2239SOL    HW118350   1.349   0.014   5.725 -1.8277 -0.1077  0.2235
 2239SOL    HW218351   1.465   0.034   5.800 -0.1813  0.0473 -2.0210
 2240SOL     OW18352   2.504   0.292   7.605  0.2855 -0.2487  0.3872
 2240SOL    HW118353   2.593   0.259   7.619 -0.3433 -1.7265  0.8836
 2240SOL    HW218354   2.512   0.318   7.513  0.7584 -4.6934 -0.8180
 2241SOL     OW18355   4.437   0.013  14.065  0.0828  0.1508 -0.0443
 2241SOL    HW118356   4.490   0.001  13.986  0.2111 -0.6321  0.1536
 2241SOL    HW218357   4.505   0.008  14.133 -0.7600  0.8386  0.8530
 2242SOL     OW18358   2.128   0.925  14.323 -0.1933 -0.4993 -0.5368
 2242SOL    HW118359   2.169   0.860  14.265 -2.5895 -1.1539 -1.5044
 2242SOL    HW218360   2.073   0.969  14.258 -0.4348 -1.8240 -1.2217
 2243SOL     OW18361   0.614   1.032   6.432  0.0829  0.3824  0.2028
 2243SOL    HW118362   0.545   0.994   6.486 -1.5651  2.2058 -0.5969
 2243SOL    HW218363   0.597   1.125   6.450 -1.0352  0.2054  0.1044
 2244SOL     OW18364   3.682   4.368  17.145 -0.1190  0.3394 -0.4587
 2244SOL    HW118365   3.606   4.332  17.192  0.8330 -1.5283 -0.3349
 2244SOL    HW218366   3.651   4.430  17.080  0.4925 -2.0915 -3.0738
 2245SOL     OW18367   2.914   2.040  14.349  0.5690  0.2606  0.1459
 2245SOL    HW118368   2.835   2.001  14.386 -0.6591  0.0494 -2.6946
 2245SOL    HW218369   2.951   1.959  14.313  0.8888  0.0027  1.0690
 2246SOL     OW18370   2.283   4.204  13.714  0.0471  0.3710  0.8666
 2246SOL    HW118371   2.235   4.184  13.795  0.6953  1.4922  1.5367
 2246SOL    HW218372   2.225   4.167  13.648  0.9357 -0.7479  0.7299
 2247SOL     OW18373   1.838   2.696   3.452 -0.4969 -0.2248  0.3117
 2247SOL    HW118374   1.746   2.717   3.471 -0.3794 -0.2089  0.8638
 2247SOL    HW218375   1.879   2.783   3.455 -1.3503  0.1442  1.1823
 2248SOL     OW18376   3.946   3.441   6.634 -0.2292  0.7120  0.0559
 2248SOL    HW118377   3.906   3.493   6.565  0.6374  2.2683  0.7094
 2248SOL    HW218378   3.888   3.464   6.707  0.4608  0.5981  0.6464
 2249SOL     OW18379   4.173   1.326   4.790  0.2363  0.0286 -0.4171
 2249SOL    HW118380   4.087   1.328   4.747 -0.0531  1.0849  0.2212
 2249SOL    HW218381   4.143   1.354   4.876 -0.8326 -0.7232 -0.5408
 2250SOL     OW18382   1.534   4.155   8.868  0.3782 -0.0081  0.2863
 2250SOL    HW118383   1.561   4.245   8.884 -1.2577  0.3960  0.7906
 2250SOL    HW218384   1.509   4.134   8.958  1.2358 -0.4812  0.4177
 2251SOL     OW18385   0.765   2.753   0.783 -0.2926  0.0319 -0.6752
 2251SOL    HW118386   0.705   2.814   0.825  0.0131 -0.5157  0.5623
 2251SOL    HW218387   0.751   2.674   0.836 -1.8702  1.7980  1.5295
 2252SOL     OW18388   0.573   2.660  10.596  0.3491 -0.4801  0.3893
 2252SOL    HW118389   0.640   2.605  10.555 -0.3124 -2.0542  1.4248
 2252SOL    HW218390   0.602   2.750  10.580  0.9525 -0.6317  0.6111
 2253SOL     OW18391   0.207   4.482   4.226 -0.5822 -0.0799 -0.7017
 2253SOL    HW118392   0.125   4.479   4.177 -0.9086 -2.1771 -0.0410
 2253SOL    HW218393   0.213   4.394   4.264 -0.1218  0.2460 -0.0184
 2254SOL     OW18394   0.513   2.485   2.522 -0.0238  0.7658  0.2717
 2254SOL    HW118395   0.494   2.441   2.438  0.7061 -1.1414  1.0989
 2254SOL    HW218396   0.462   2.431   2.582 -1.4633  1.6007 -0.2131
 2255SOL     OW18397   4.522   2.854   1.296 -0.5608 -0.2020 -0.2758
 2255SOL    HW118398   4.513   2.850   1.201 -1.6904 -0.7751 -0.1436
 2255SOL    HW218399   4.444   2.812   1.332 -0.8442  0.6038  0.0434
 2256SOL     OW18400   1.964   2.621  10.699 -0.3676 -0.1082  0.2823
 2256SOL    HW118401   1.877   2.585  10.719 -0.1627 -0.6756  0.1666
 2256SOL    HW218402   2.005   2.603  10.783  0.5480 -1.3318 -0.4196
 2257SOL     OW18403   3.426   0.238   7.251  0.3185 -0.2790  0.5474
 2257SOL    HW118404   3.442   0.257   7.158  3.9589  1.0274  1.4090
 2257SOL    HW218405   3.455   0.322   7.288 -0.7952  0.8495 -1.1295
 2258SOL     OW18406   0.316   0.135   2.598 -0.1641 -0.0884 -0.2000
 2258SOL    HW118407   0.272   0.192   2.535 -1.4561 -2.1709 -1.1704
 2258SOL    HW218408   0.242   0.113   2.654  0.5487  0.1649  0.8463
 2259SOL     OW18409   1.561   3.526  14.823 -0.3483 -0.4897  0.3282
 2259SOL    HW118410   1.540   3.522  14.730 -0.3877 -1.9673  0.3964
 2259SOL    HW218411   1.657   3.521  14.814 -0.2777 -0.9988  1.3960
 2260SOL     OW18412   3.262   2.215   7.393 -0.0320  0.1436 -0.6015
 2260SOL    HW118413   3.296   2.252   7.474 -1.5714  0.4983 -0.1163
 2260SOL    HW218414   3.208   2.288   7.362  1.4163  0.8557 -1.4286
 2261SOL     OW18415   3.319   0.073   5.080 -0.5895  0.3797  0.1302
 2261SOL    HW118416   3.231   0.037   5.088  0.2011 -1.0400  2.3422
 2261SOL    HW218417   3.332   0.134   5.153 -2.5995  0.0571  0.7603
 2262SOL     OW18418   4.702   4.095   9.693 -0.6014  0.6750  0.0563
 2262SOL    HW118419   4.733   4.132   9.611  1.8363 -0.1327  0.6091
 2262SOL    HW218420   4.609   4.110   9.682 -0.5451 -0.9270 -2.6003
 2263SOL     OW18421   4.244   4.697   5.191  0.0867 -0.1369 -0.1049
 2263SOL    HW118422   4.332   4.676   5.224 -0.6579 -0.4572  1.6800
 2263SOL    HW218423   4.261   4.681   5.098  2.2104 -0.7567  0.3908
 2264SOL     OW18424   0.913   0.527   9.308 -0.6247 -0.2191 -0.3427
 2264SOL    HW118425   0.928   0.472   9.231 -0.8744  1.7413 -1.7961
 2264SOL    HW218426   0.948   0.609   9.274  0.1557 -0.1542  0.6190
 2265SOL     OW18427   3.838   2.646  17.279  0.4489  0.3260  0.2722
 2265SOL    HW118428   3.765   2.597  17.240 -0.1702 -0.1030  1.9752
 2265SOL    HW218429   3.908   2.629  17.216  0.3692 -0.9332  0.5199
 2266SOL     OW18430   0.971   0.359   8.731  0.4418 -0.1855  0.1809
 2266SOL    HW118431   0.942   0.450   8.743  0.3653 -0.2720  0.6449
 2266SOL    HW218432   0.909   0.310   8.784 -0.3620 -0.7843 -1.3063
 2267SOL     OW18433   0.082   1.021   2.906  0.2474  0.0714 -0.7095
 2267SOL    HW118434   0.026   1.016   2.983  2.5266 -1.9548  0.8101
 2267SOL    HW218435   0.038   1.088   2.853 -0.3469  0.2175 -0.0279
 2268SOL     OW18436   1.607   0.713   4.689 -0.0907  0.6436  0.3539
 2268SOL    HW118437   1.589   0.789   4.634 -0.2329  1.4400  1.4962
 2268SOL    HW218438   1.526   0.662   4.682 -0.3133  0.7106  2.6375
 2269SOL     OW18439   2.261   3.421   4.421  0.8097 -0.0189  0.1799
 2269SOL    HW118440   2.312   3.435   4.341  1.0737 -0.9547  0.1793
 2269SOL    HW218441   2.181   3.383   4.384  0.5309  0.1507  0.6136
 2270SOL     OW18442   3.835   1.623  12.625  0.2308 -0.5386  0.3916
 2270SOL    HW118443   3.842   1.716  12.607  1.1456 -0.0605  3.2827
 2270SOL    HW218444   3.830   1.584  12.537 -0.1163 -0.5049  0.3972
 2271SOL     OW18445   1.372   3.700   9.219 -0.1156  0.6226  0.3859
 2271SOL    HW118446   1.433   3.692   9.293 -3.0421  0.1453  2.7125
 2271SOL    HW218447   1.406   3.641   9.151  0.1420  0.3446  0.7529
 2272SOL     OW18448   2.011   0.004   8.360 -0.5973  0.7756  0.6753
 2272SOL    HW118449   1.967   4.716   8.280 -0.8393  2.2415  0.2797
 2272SOL    HW218450   1.967   4.698   8.431  0.4123 -1.2004 -0.0275
 2273SOL     OW18451   1.216   3.755   2.011  0.0379  0.1642 -0.1906
 2273SOL    HW118452   1.170   3.671   2.001  2.3486 -0.9339 -1.6163
 2273SOL    HW218453   1.299   3.710   2.027 -0.0881  0.6512  1.7333
 2274SOL     OW18454   2.653   3.520  10.753 -0.6876 -0.1804 -0.0197
 2274SOL    HW118455   2.565   3.494  10.725 -0.2049 -1.7718 -0.0198
 2274SOL    HW218456   2.637   3.515  10.847 -2.2964  2.0035 -0.1662
 2275SOL     OW18457   3.312   3.421   2.936  0.0535 -0.6033  0.1236
 2275SOL    HW118458   3.256   3.392   2.864 -0.8537  2.4242 -0.4041
 2275SOL    HW218459   3.380   3.354   2.931 -1.3241 -2.0351  0.5239
 2276SOL     OW18460   2.884   0.789   3.426 -0.1631  0.6397  0.4675
 2276SOL    HW118461   2.862   0.787   3.332  0.0401  1.4756  0.4000
 2276SOL    HW218462   2.877   0.882   3.447  0.5645  0.4946  1.3474
 2277SOL     OW18463   4.685   3.749   8.043 -0.1398 -0.3225 -0.4124
 2277SOL    HW118464   4.637   3.821   8.083  1.2263 -0.6161  1.7841
 2277SOL    HW218465   0.033   3.757   8.079 -0.4995 -0.3727  0.4894
 2278SOL     OW18466   0.935   1.130  15.911  0.1481  0.9662  0.5260
 2278SOL    HW118467   0.975   1.067  15.971  0.7121  0.5079 -0.3150
 2278SOL    HW218468   0.850   1.131  15.953 -0.6101  1.0074 -0.9998
 2279SOL     OW18469   0.381   1.638  11.992 -0.1386  0.1667 -0.4247
 2279SOL    HW118470   0.327   1.716  11.999  0.8781  0.7999  0.4018
 2279SOL    HW218471   0.334   1.587  11.926 -1.1605 -0.9042  1.1013
 2280SOL     OW18472   3.007   4.492   2.798  0.1261  0.1046 -0.1649
 2280SOL    HW118473   2.928   4.501   2.745 -0.4076  1.5724  0.8669
 2280SOL    HW218474   2.962   4.469   2.879  0.8138 -1.3192 -0.1947
 2281SOL     OW18475   0.940   4.318   5.875 -0.0210  0.1757 -0.1928
 2281SOL    HW118476   0.898   4.403   5.866  1.3108  0.6849 -1.5375
 2281SOL    HW218477   1.031   4.339   5.893 -0.1037  1.5714 -1.4276
 2282SOL     OW18478   3.734   2.387   6.628  0.1398 -0.0215  0.3882
 2282SOL    HW118479   3.748   2.464   6.573 -0.6365 -0.1466  0.0081
 2282SOL    HW218480   3.753   2.423   6.714 -2.7117 -0.0007  1.0137
 2283SOL     OW18481   0.920   4.275   1.614  0.3716 -0.3348  0.0972
 2283SOL    HW118482   0.862   4.240   1.546 -0.4797  1.6129 -0.1912
 2283SOL    HW218483   0.865   4.256   1.690 -1.1623 -0.0742 -0.9373
 2284SOL     OW18484   3.420   0.674   2.836 -0.2862  0.2899  0.5112
 2284SOL    HW118485   3.513   0.695   2.846  0.2069 -1.7265  0.1361
 2284SOL    HW218486   3.409   0.706   2.747 -1.4044  0.2690  0.6416
 2285SOL     OW18487   1.862   3.863   3.903  0.8939  0.1399 -0.3531
 2285SOL    HW118488   1.835   3.900   3.986  0.6135 -0.3827 -0.2149
 2285SOL    HW218489   1.939   3.812   3.927 -0.6599 -0.9340  2.2512
 2286SOL     OW18490   2.164   4.435  13.598  0.4664 -0.4384 -0.7284
 2286SOL    HW118491   2.177   4.436  13.503  1.7260  0.3634 -0.5485
 2286SOL    HW218492   2.204   4.355  13.630 -3.3082 -1.6437  0.9040
 2287SOL     OW18493   0.961   3.676  12.946  0.1960  0.4167 -0.4191
 2287SOL    HW118494   0.942   3.741  12.877 -2.8473  0.9566  0.9473
 2287SOL    HW218495   0.972   3.735  13.021 -0.5849  0.3008 -0.2119
 2288SOL     OW18496   0.663   4.689   6.884 -0.5860  0.1419 -0.5944
 2288SOL    HW118497   0.618   0.025   6.849 -0.2948  0.5913  0.0107
 2288SOL    HW218498   0.674   4.718   6.975  2.5866  2.1745 -1.6453
 2289SOL     OW18499   1.705   0.236   9.333 -0.1625 -0.0052 -0.5476
 2289SOL    HW118500   1.713   0.329   9.311  0.9691  0.1056  0.3025
 2289SOL    HW218501   1.610   0.226   9.325 -0.3195  1.7392 -0.8217
 2290SOL     OW18502   3.606   1.753   1.515  0.1866  0.2157  0.4414
 2290SOL    HW118503   3.688   1.801   1.514  0.4617 -0.2253  1.4483
 2290SOL    HW218504   3.553   1.797   1.448 -0.4454  0.9032  1.3954
 2291SOL     OW18505   2.045   1.719   6.180 -0.0379 -0.0711  0.1976
 2291SOL    HW118506   1.954   1.697   6.200  0.1363  2.1002  3.4096
 2291SOL    HW218507   2.039   1.698   6.087  0.5483  1.2687 -0.1342
 2292SOL     OW18508   0.258   1.006   1.638 -0.1855  0.0135  0.5517
 2292SOL    HW118509   0.345   0.979   1.609  1.2736  2.0659  2.9651
 2292SOL    HW218510   0.256   1.100   1.625  1.9836 -0.5730 -4.0619
 2293SOL     OW18511   1.511   3.954   6.363 -0.3239 -0.3925 -0.2090
 2293SOL    HW118512   1.481   4.041   6.392  1.8839  0.1321  0.5818
 2293SOL    HW218513   1.471   3.902   6.433  0.8100  0.2493  0.9298
 2294SOL     OW18514   4.678   3.813   4.437  0.5790 -0.0623 -0.0478
 2294SOL    HW118515   0.022   3.801   4.396  0.0226  1.7217 -1.7138
 2294SOL    HW218516   4.688   3.894   4.487  2.2233  1.9165 -3.5696
 2295SOL     OW18517   0.589   3.226   8.675  0.4440  0.3277  0.2139
 2295SOL    HW118518   0.557   3.141   8.703 -0.6674  0.9117  0.7184
 2295SOL    HW218519   0.578   3.224   8.580  0.2080  0.9370  0.2283
 2296SOL     OW18520   2.601   3.922   3.331  0.2030  0.0524 -0.4099
 2296SOL    HW118521   2.665   3.946   3.399  0.6543  0.2166 -0.8986
 2296SOL    HW218522   2.553   4.004   3.337 -0.7307 -0.5026 -0.3064
 2297SOL     OW18523   2.452   2.330  16.702 -0.3388 -0.3603 -0.4378
 2297SOL    HW118524   2.392   2.255  16.705 -1.0728  0.2892  1.2156
 2297SOL    HW218525   2.523   2.298  16.757 -1.7768 -0.3508  1.4181
 2298SOL     OW18526   2.896   4.487   0.602 -0.0858 -0.3618 -0.5323
 2298SOL    HW118527   2.934   4.565   0.642  2.7023 -1.4597 -1.0632
 2298SOL    HW218528   2.924   4.421   0.665 -1.0971 -2.3978 -2.2054
 2299SOL     OW18529   0.842   1.988   5.852 -0.0712  0.1859  0.0353
 2299SOL    HW118530   0.909   1.929   5.886  0.4028  1.2905  1.0185
 2299SOL    HW218531   0.800   2.016   5.934  0.8115 -1.3417  1.0010
 2300SOL     OW18532   1.256   4.049   5.948  0.1839  0.0842  0.1652
 2300SOL    HW118533   1.215   4.118   6.001  2.5671  0.7708  1.1153
 2300SOL    HW218534   1.342   4.091   5.942  0.8373 -1.3849 -0.6944
 2301SOL     OW18535   3.880   4.689   8.040  0.1632 -0.2633  0.5212
 2301SOL    HW118536   3.927   0.030   8.025  0.3451 -0.7716 -1.6578
 2301SOL    HW218537   3.843   4.672   7.954 -2.8113 -0.3957  1.8328
 2302SOL     OW18538   4.688   2.273   9.327 -0.2302 -0.0462 -0.8878
 2302SOL    HW118539   4.594   2.285   9.332 -0.1850  0.7214 -1.9086
 2302SOL    HW218540   4.709   2.278   9.420 -1.9517 -0.5505 -0.4900
 2303SOL     OW18541   2.267   4.679   2.823 -0.3496  0.7057 -0.2124
 2303SOL    HW118542   2.208   4.626   2.770  0.6685 -1.9927  1.3425
 2303SOL    HW218543   2.221   0.021   2.807 -0.8301  0.5760  0.4766
 2304SOL     OW18544   1.433   0.032  11.840  0.0512  0.1880  0.4480
 2304SOL    HW118545   1.396   4.700  11.790 -0.0764  0.7464 -0.2746
 2304SOL    HW218546   1.351   0.071  11.871 -1.2566 -1.4568 -0.9243
 2305SOL     OW18547   4.252   2.660   3.584  0.4835 -0.1040  0.0879
 2305SOL    HW118548   4.272   2.573   3.619  0.3148  0.3553  1.3312
 2305SOL    HW218549   4.289   2.643   3.498  0.1159 -3.2624  0.5396
 2306SOL     OW18550   3.313   2.169   2.043  0.1823 -0.1614  0.6084
 2306SOL    HW118551   3.305   2.182   2.138 -1.5032 -1.3096  0.6392
 2306SOL    HW218552   3.373   2.095   2.034 -1.7804 -1.6172 -0.6002
 2307SOL     OW18553   4.725   4.422   4.107 -0.2002  0.6359 -0.1003
 2307SOL    HW118554   4.730   4.466   4.022  1.4342  2.1490  0.7784
 2307SOL    HW218555   4.679   4.489   4.157 -0.2467  0.1393  0.5149
 2308SOL     OW18556   3.007   1.928   2.010 -0.3577  0.0948  0.3625
 2308SOL    HW118557   2.928   1.940   1.958 -2.1326 -1.0639  2.8273
 2308SOL    HW218558   3.002   2.013   2.054  2.3159  0.2706  0.3116
 2309SOL     OW18559   1.040   4.131   8.382  0.5032 -0.1192  0.2473
 2309SOL    HW118560   1.071   4.109   8.469  0.7778  1.3695  0.5312
 2309SOL    HW218561   1.117   4.159   8.332 -0.5443  0.1467 -1.2400
 2310SOL     OW18562   0.170   2.281   6.969 -0.7479  0.6930  0.3697
 2310SOL    HW118563   0.182   2.218   6.898  1.9551  1.6508  0.0193
 2310SOL    HW218564   0.085   2.313   6.939  0.6725  1.2286 -3.0007
 2311SOL     OW18565   2.633   1.543  12.240 -0.3281 -0.1359 -0.1760
 2311SOL    HW118566   2.591   1.458  12.244  1.7818 -1.0472  2.4423
 2311SOL    HW218567   2.564   1.594  12.283 -0.5601  0.0877 -0.8131
 2312SOL     OW18568   0.887   2.039   7.491  0.5546  0.1975 -0.5983
 2312SOL    HW118569   0.932   2.123   7.496  1.5468 -0.4573  1.2792
 2312SOL    HW218570   0.904   2.000   7.577  1.2958  0.1831 -0.7557
 2313SOL     OW18571   3.228   0.903  16.216  0.3506  0.4414  0.5911
 2313SOL    HW118572   3.226   0.968  16.287  0.7893 -0.4478  1.4168
 2313SOL    HW218573   3.290   0.839  16.251 -0.9687 -1.6639 -0.9412
 2314SOL     OW18574   1.042   2.371  16.439 -0.0268  0.5006 -0.1380
 2314SOL    HW118575   1.050   2.465  16.451 -2.0800  0.4152  1.7856
 2314SOL    HW218576   0.956   2.374  16.398  0.4392 -1.8230 -1.3102
 2315SOL     OW18577   0.930   1.745   8.269  0.0893  0.4336  0.1869
 2315SOL    HW118578   0.841   1.781   8.274  0.3240  0.8985  0.9045
 2315SOL    HW218579   0.952   1.723   8.359  0.5114  2.5796  0.6147
 2316SOL     OW18580   4.344   2.608   5.650 -0.4069  0.3945  0.2658
 2316SOL    HW118581   4.404   2.537   5.673 -1.8567 -0.8363  0.2334
 2316SOL    HW218582   4.298   2.584   5.570 -1.1865  0.3160  0.7369
 2317SOL     OW18583   1.173   0.476  15.671  0.2993  0.0445 -0.2963
 2317SOL    HW118584   1.148   0.441  15.585 -0.5365  0.4524 -0.2152
 2317SOL    HW218585   1.130   0.558  15.648 -1.9027 -1.0793 -0.2004
 2318SOL     OW18586   0.847   3.692   6.050 -0.1270  0.2740  0.3884
 2318SOL    HW118587   0.848   3.723   6.140  4.6047  0.8404  0.1455
 2318SOL    HW218588   0.936   3.658   6.043 -0.5072 -0.3948 -1.2435
 2319SOL     OW18589   1.818   0.661  12.228 -0.2660  0.3412 -0.2678
 2319SOL    HW118590   1.882   0.661  12.157  0.8921  1.1226  0.7688
 2319SOL    HW218591   1.860   0.607  12.295 -0.4722 -1.1920 -1.3846
 2320SOL     OW18592   3.522   2.559  10.884 -0.6667 -0.5953 -0.0379
 2320SOL    HW118593   3.544   2.517  10.968 -2.4211  1.2074  1.3101
 2320SOL    HW218594   3.512   2.495  10.813  0.3426 -1.9437  1.0335
 2321SOL     OW18595   3.247   3.191   7.808  0.1055 -0.0426 -0.3870
 2321SOL    HW118596   3.332   3.149   7.824 -0.2886 -0.1749  1.3825
 2321SOL    HW218597   3.190   3.116   7.820 -1.9023  1.4206 -0.7734
 2322SOL     OW18598   3.196   1.709   7.863  0.1469  0.5471 -0.1235
 2322SOL    HW118599   3.214   1.753   7.946 -3.3970 -0.7358  1.3128
 2322SOL    HW218600   3.265   1.642   7.853 -0.3680  0.0178 -0.1349
 2323SOL     OW18601   3.956   2.254   8.366  0.1920  0.9670 -0.0958
 2323SOL    HW118602   4.003   2.170   8.359  0.1649  0.9229  0.2637
 2323SOL    HW218603   3.924   2.260   8.276  4.5761  2.5866 -1.5602
 2324SOL     OW18604   4.145   0.265   6.744  0.5104 -0.0438  0.2561
 2324SOL    HW118605   4.114   0.270   6.834 -0.6497 -1.8886 -0.0461
 2324SOL    HW218606   4.063   0.254   6.696 -0.6605 -0.4326  2.3591
 2325SOL     OW18607   2.121   3.434   3.933  0.5863  0.7557 -0.3936
 2325SOL    HW118608   2.122   3.339   3.939 -0.8534  0.8000  0.6469
 2325SOL    HW218609   2.121   3.446   3.838 -1.2573  0.2659 -0.4585
 2326SOL     OW18610   1.810   1.200   7.557  0.3425  0.1887 -0.2352
 2326SOL    HW118611   1.905   1.183   7.554  0.2823  0.1427 -2.3813
 2326SOL    HW218612   1.808   1.225   7.649 -2.8858  3.8617 -1.2834
 2327SOL     OW18613   0.035   0.346   7.609 -0.1139  0.0553 -0.7577
 2327SOL    HW118614   0.086   0.420   7.641  1.7897 -1.0994 -1.1262
 2327SOL    HW218615   0.112   0.290   7.601 -0.5005 -0.5453 -0.2815
 2328SOL     OW18616   4.135   1.231  15.143  0.1211  0.3682 -0.3220
 2328SOL    HW118617   4.111   1.142  15.165 -2.3794  0.8870 -0.9954
 2328SOL    HW218618   4.227   1.218  15.117 -0.3581  0.2574 -1.9296
 2329SOL     OW18619   3.353   3.118   9.305 -0.0724 -0.8793  0.0127
 2329SOL    HW118620   3.388   3.029   9.300  0.3003 -0.6329 -1.9533
 2329SOL    HW218621   3.298   3.121   9.227  1.4682 -0.6569 -1.0684
 2330SOL     OW18622   4.049   0.829   8.085 -0.3138  0.3146 -0.5913
 2330SOL    HW118623   4.005   0.833   8.000 -0.9234 -0.0291 -0.2898
 2330SOL    HW218624   4.139   0.803   8.066  0.6267  1.8826  1.6473
 2331SOL     OW18625   0.643   0.380   8.803 -0.4889  0.4574  0.3682
 2331SOL    HW118626   0.645   0.474   8.825  0.3082  0.7447 -0.9369
 2331SOL    HW218627   0.709   0.349   8.864 -0.5961 -1.4374 -0.4874
 2332SOL     OW18628   0.144   1.478   3.679  0.5469 -0.3747  0.1017
 2332SOL    HW118629   0.137   1.394   3.634  0.3993 -1.2179  1.6838
 2332SOL    HW218630   0.166   1.536   3.606  2.7886 -0.6275  0.5867
 2333SOL     OW18631   0.226   1.513  13.854 -0.4232 -0.3537 -0.0438
 2333SOL    HW118632   0.255   1.470  13.773  2.2466  0.7902  0.3079
 2333SOL    HW218633   0.144   1.467  13.876 -0.3140 -0.5140  0.0305
 2334SOL     OW18634   2.119   1.716  14.485 -0.0613  0.6229  0.2039
 2334SOL    HW118635   2.115   1.704  14.390 -4.7777  1.3512  0.3251
 2334SOL    HW218636   2.204   1.760  14.478  0.7711 -1.1098 -0.5999
 2335SOL     OW18637   0.637   0.402   5.436  0.3232 -0.2178  0.4458
 2335SOL    HW118638   0.555   0.360   5.462 -1.4235  3.5177  0.8995
 2335SOL    HW218639   0.664   0.464   5.503  0.3925 -1.2475  1.3595
 2336SOL     OW18640   2.677   2.430   9.989  0.7432 -0.7189 -0.3220
 2336SOL    HW118641   2.666   2.339   9.961 -3.4508 -0.5930  0.9257
 2336SOL    HW218642   2.743   2.421  10.058  2.2511 -3.2581 -2.0968
 2337SOL     OW18643   2.641   2.066   6.532  0.3480  0.2723 -0.3745
 2337SOL    HW118644   2.588   2.126   6.584  1.9178  1.2326  0.1279
 2337SOL    HW218645   2.732   2.092   6.547 -0.2764  1.4052  1.4208
 2338SOL     OW18646   3.617   0.692  12.472  0.0658 -0.1692  0.2346
 2338SOL    HW118647   3.551   0.759  12.491  2.2716  1.6582  1.4583
 2338SOL    HW218648   3.576   0.608  12.489 -1.6562  0.8876  1.3149
 2339SOL     OW18649   4.340   2.968   9.585  0.1210  0.1137  0.0866
 2339SOL    HW118650   4.341   3.064   9.583 -1.1102  0.0951 -1.1316
 2339SOL    HW218651   4.412   2.960   9.648  0.8266  0.1985 -0.7077
 2340SOL     OW18652   3.967   2.366   7.626  0.2476  0.3875 -0.4706
 2340SOL    HW118653   4.009   2.382   7.542  1.2071 -0.1835 -0.0942
 2340SOL    HW218654   3.948   2.272   7.616 -1.0456  0.7195 -1.0496
 2341SOL     OW18655   2.216   4.048   5.415  0.1341  0.3733  0.4698
 2341SOL    HW118656   2.192   3.963   5.450  1.0729  0.4434  1.2895
 2341SOL    HW218657   2.144   4.106   5.440 -0.3266 -1.3007  2.9852
 2342SOL     OW18658   3.692   1.708  14.128  0.1546  0.3444 -0.2013
 2342SOL    HW118659   3.769   1.690  14.075  1.4117  1.5605  1.2250
 2342SOL    HW218660   3.637   1.634  14.103  0.1520  0.1039  0.5032
 2343SOL     OW18661   0.683   0.434   8.214  0.3770  0.4272  0.1219
 2343SOL    HW118662   0.717   0.369   8.153  1.7125  2.6228 -1.4889
 2343SOL    HW218663   0.764   0.475   8.245  0.9540  0.0818 -0.9296
 2344SOL     OW18664   3.102   0.576   4.910  0.2970 -0.0372  0.1450
 2344SOL    HW118665   3.112   0.483   4.932  1.6921 -0.0458 -0.5624
 2344SOL    HW218666   3.187   0.596   4.871  0.2438 -0.7577 -0.3417
 2345SOL     OW18667   0.855   4.177   9.959  0.1534 -0.3793  0.2298
 2345SOL    HW118668   0.825   4.200   9.870  1.6163 -1.2835 -0.4919
 2345SOL    HW218669   0.839   4.266   9.989  0.4064  0.7548 -2.9950
 2346SOL     OW18670   1.339   0.127  13.727  0.5685 -0.2201 -0.0621
 2346SOL    HW118671   1.286   0.187  13.675  2.7873  2.0716  0.3358
 2346SOL    HW218672   1.267   0.088  13.775  1.2537 -1.3432  0.0486
 2347SOL     OW18673   3.643   1.400   4.334 -0.3061  0.0858  0.3026
 2347SOL    HW118674   3.688   1.333   4.283 -1.6596 -1.1885  0.7574
 2347SOL    HW218675   3.651   1.480   4.281 -1.8424  1.3752  1.9983
 2348SOL     OW18676   1.313   2.123   6.690 -0.6280 -0.1052  0.4166
 2348SOL    HW118677   1.248   2.076   6.639  0.7774 -0.8895 -0.6537
 2348SOL    HW218678   1.345   2.188   6.627 -0.4743 -0.3607  0.2303
 2349SOL     OW18679   0.431   2.717   5.175 -0.1392 -0.5294  0.0874
 2349SOL    HW118680   0.491   2.653   5.137 -1.6079 -1.1375 -1.2009
 2349SOL    HW218681   0.403   2.662   5.249  2.9638 -2.2034  0.0035
 2350SOL     OW18682   1.414   3.988   1.138 -0.3668  0.4937 -0.3990
 2350SOL    HW118683   1.370   4.053   1.083  1.4771  0.0493 -2.4343
 2350SOL    HW218684   1.466   3.940   1.073  0.5745  1.0073 -0.0346
 2351SOL     OW18685   3.167   4.527  11.759 -0.3743  0.1638 -0.0173
 2351SOL    HW118686   3.158   4.617  11.730  1.1769  0.3799  0.1574
 2351SOL    HW218687   3.255   4.513  11.725  0.4249  1.2026  1.6104
 2352SOL     OW18688   3.084   3.222   1.675 -0.3017  0.2213  0.9379
 2352SOL    HW118689   3.009   3.180   1.718  0.4113  0.4619  2.4115
 2352SOL    HW218690   3.093   3.160   1.603  0.2804  1.5891 -0.1658
 2353SOL     OW18691   0.221   1.501   9.058 -0.0567  0.1714  0.0362
 2353SOL    HW118692   0.200   1.576   9.114  0.6512 -1.3917  2.3742
 2353SOL    HW218693   0.314   1.518   9.044 -0.6958  4.4042  0.8908
 2354SOL     OW18694   2.829   3.151   2.094 -0.2920 -0.4183 -0.3746
 2354SOL    HW118695   2.906   3.098   2.073  0.9903  1.2472  0.1564
 2354SOL    HW218696   2.778   3.105   2.160 -2.3957  2.8754  0.2813
 2355SOL     OW18697   1.579   0.573   8.245 -0.0538  0.3594  0.1552
 2355SOL    HW118698   1.663   0.593   8.284 -1.4758  0.1828  3.2930
 2355SOL    HW218699   1.520   0.639   8.282 -1.8538 -0.5622 -1.0295
 2356SOL     OW18700   2.138   2.229   7.964 -0.4567  0.1457 -0.0902
 2356SOL    HW118701   2.161   2.303   7.908 -0.2780 -0.4681 -0.8327
 2356SOL    HW218702   2.124   2.152   7.909 -1.3589  1.6920 -2.0168
 2357SOL     OW18703   3.578   2.693   6.084  0.3304  0.2060  0.5362
 2357SOL    HW118704   3.571   2.789   6.091 -2.2421 -0.0388  1.1680
 2357SOL    HW218705   3.555   2.668   6.173  0.0329  0.6526  0.5875
 2358SOL     OW18706   2.182   0.701   8.862  0.2463  0.4276  0.4518
 2358SOL    HW118707   2.096   0.672   8.830  0.9871 -2.1238  0.7879
 2358SOL    HW218708   2.168   0.710   8.956 -1.1671 -1.3816  0.4207
 2359SOL     OW18709   0.392   0.464  12.468 -0.1949 -0.1266 -0.2407
 2359SOL    HW118710   0.428   0.381  12.438  0.4027 -0.2372  0.7573
 2359SOL    HW218711   0.452   0.494  12.537 -2.0066  1.9410  0.4319
 2360SOL     OW18712   2.052   1.743   1.385 -0.8400 -0.4071 -0.3455
 2360SOL    HW118713   2.143   1.772   1.389 -1.0856  0.1825  0.8335
 2360SOL    HW218714   2.047   1.687   1.308  1.2935 -0.0548 -0.7239
 2361SOL     OW18715   4.735   0.368   8.870 -0.3800  0.1086 -0.0241
 2361SOL    HW118716   4.684   0.441   8.905  0.1391  0.6326 -0.3684
 2361SOL    HW218717   4.725   0.294   8.929 -1.6573 -1.2565 -1.9594
 2362SOL     OW18718   0.588   2.051   9.705  0.1987 -0.6377  0.3109
 2362SOL    HW118719   0.643   2.127   9.726 -2.4786  1.7046 -1.1673
 2362SOL    HW218720   0.602   2.007   9.789  0.3161  0.9682  1.1328
 2363SOL     OW18721   2.360   3.875  16.242  0.1613  0.2005 -0.7356
 2363SOL    HW118722   2.414   3.944  16.206  0.5161 -0.0309 -0.6415
 2363SOL    HW218723   2.390   3.873  16.333  0.3846  1.5572 -0.7889
 2364SOL     OW18724   0.973   0.389   7.675  0.1289 -0.0994  0.0833
 2364SOL    HW118725   0.935   0.475   7.657 -1.0752 -0.3787  1.2205
 2364SOL    HW218726   1.065   0.410   7.662  0.4795 -2.8592 -1.8112
 2365SOL     OW18727   2.775   4.372   5.385  0.2319 -0.0398 -0.1188
 2365SOL    HW118728   2.692   4.324   5.384  0.3889 -0.3119 -0.1055
 2365SOL    HW218729   2.811   4.347   5.470  0.0494 -0.2021 -0.0881
 2366SOL     OW18730   2.124   4.215  13.952 -0.0416 -0.3743 -0.1446
 2366SOL    HW118731   2.138   4.199  14.045 -0.0382  0.2684 -0.0412
 2366SOL    HW218732   2.041   4.262  13.954  1.0695  1.4089  3.2381
 2367SOL     OW18733   1.029   3.299  15.231 -0.4574 -0.4307 -0.4314
 2367SOL    HW118734   1.103   3.358  15.245  0.3551 -1.5392 -0.0409
 2367SOL    HW218735   1.033   3.272  15.139 -0.9273 -2.8089  0.2529
 2368SOL     OW18736   4.448   0.513  14.484  0.2851  0.2665  0.3814
 2368SOL    HW118737   4.521   0.554  14.438  0.9093 -0.6791  0.5368
 2368SOL    HW218738   4.382   0.491  14.418 -1.0646 -0.7124  2.0487
 2369SOL     OW18739   2.841   1.661  17.593  0.3437  0.0264 -0.1668
 2369SOL    HW118740   2.815   1.717  17.520  1.8217 -0.2628 -0.9122
 2369SOL    HW218741   2.798   1.706  17.666 -1.2764  1.1665 -1.8304
 2370SOL     OW18742   1.760   0.090   8.719 -0.2633  0.1159  0.3217
 2370SOL    HW118743   1.667   0.109   8.727 -0.2987  0.2947 -0.4824
 2370SOL    HW218744   1.787   0.104   8.810 -1.0837 -1.3725  0.7948
 2371SOL     OW18745   0.344   1.060   6.260 -0.0557 -0.3063  0.0663
 2371SOL    HW118746   0.281   1.032   6.326 -1.7254 -0.8260 -1.7495
 2371SOL    HW218747   0.323   1.149   6.233 -1.2626 -0.9651 -1.1886
 2372SOL     OW18748   4.322   1.911   0.091 -0.5242  0.0071  0.4667
 2372SOL    HW118749   4.328   1.985   0.030  2.6423  1.0496  2.0386
 2372SOL    HW218750   4.390   1.928   0.156  0.6233 -1.1168 -0.4307
 2373SOL     OW18751   0.649   2.902   6.555 -0.0999 -0.1792  0.1218
 2373SOL    HW118752   0.595   2.847   6.499 -1.3445  1.2338 -0.0842
 2373SOL    HW218753   0.619   2.889   6.645  0.3726  0.8372  0.4312
 2374SOL     OW18754   0.842   1.783   6.231  1.1159 -0.2607  0.3431
 2374SOL    HW118755   0.814   1.711   6.173  0.6257 -0.8068  1.2551
 2374SOL    HW218756   0.812   1.768   6.321 -0.9230 -0.7683 -0.4060
 2375SOL     OW18757   2.580   1.371   8.534  0.2402 -0.3007  0.0446
 2375SOL    HW118758   2.673   1.392   8.544  0.3651 -1.2016  0.8459
 2375SOL    HW218759   2.532   1.423   8.598  0.8281  1.2772 -0.8135
 2376SOL     OW18760   2.850   3.071   5.891 -0.1058 -0.0039 -0.8034
 2376SOL    HW118761   2.864   3.053   5.983  1.8458 -1.2819 -1.3447
 2376SOL    HW218762   2.930   3.034   5.852 -0.1524 -0.7942 -0.1360
 2377SOL     OW18763   4.290   4.617   8.700  0.6149  0.1456  0.4671
 2377SOL    HW118764   4.307   4.704   8.738  0.6309 -0.2844  1.4532
 2377SOL    HW218765   4.212   4.636   8.647  1.2299 -0.9633 -0.8250
 2378SOL     OW18766   2.299   3.215   1.649 -0.2510  0.2372 -0.1119
 2378SOL    HW118767   2.317   3.239   1.740  0.5991 -1.0989  0.0818
 2378SOL    HW218768   2.207   3.189   1.650  0.9315 -3.9132  1.5154
 2379SOL     OW18769   0.067   4.646  14.416  0.4521  0.0701 -0.5094
 2379SOL    HW118770   0.149   4.640  14.465  0.2620  0.1466 -0.1766
 2379SOL    HW218771   0.015   4.640  14.496  1.4414 -3.4825 -0.1585
 2380SOL     OW18772   0.409   2.007   1.780 -0.1447 -0.4274  0.1551
 2380SOL    HW118773   0.431   1.927   1.828  4.5502  0.4919 -0.4358
 2380SOL    HW218774   0.321   2.029   1.810  0.0653  0.6306 -0.0071
 2381SOL     OW18775   0.880   2.722   6.020 -0.3656  0.0074  0.3151
 2381SOL    HW118776   0.935   2.691   5.949 -2.0640 -0.9794 -0.5897
 2381SOL    HW218777   0.795   2.687   5.993 -0.5792  0.4662  0.3956
 2382SOL     OW18778   1.054   0.511   9.994 -0.1893  0.3032  0.0542
 2382SOL    HW118779   1.143   0.545   9.999 -1.1520  2.8239  0.1957
 2382SOL    HW218780   1.051   0.463   9.911  1.0608  0.8362 -0.2938
 2383SOL     OW18781   3.649   2.528   3.260 -0.7898  0.1379  0.0225
 2383SOL    HW118782   3.640   2.623   3.264 -1.4665  0.1048 -0.8424
 2383SOL    HW218783   3.584   2.488   3.317  0.8339 -0.5366  1.4099
 2384SOL     OW18784   3.328   2.965   4.760 -0.0589 -0.5030  0.1217
 2384SOL    HW118785   3.258   2.927   4.814 -0.5665 -3.0832 -2.3462
 2384SOL    HW218786   3.369   2.888   4.721  1.2898 -0.3343  1.2458
 2385SOL     OW18787   4.684   0.698   6.489  0.5543  0.5911 -0.0132
 2385SOL    HW118788   4.631   0.627   6.526  1.5390  0.5342  1.2707
 2385SOL    HW218789   0.030   0.658   6.487  0.6079  0.7293 -0.4582
 2386SOL     OW18790   0.239   1.356  11.541  0.3057  0.2676 -0.2843
 2386SOL    HW118791   0.240   1.396  11.628 -2.0180 -1.4636  0.5370
 2386SOL    HW218792   0.177   1.415  11.498 -2.0948  1.4492  4.8094
 2387SOL     OW18793   2.828   1.964   8.403 -0.2046  0.0164  0.1877
 2387SOL    HW118794   2.772   1.894   8.436 -1.3905 -1.1766 -4.3512
 2387SOL    HW218795   2.913   1.922   8.395  0.0983  0.5854  0.4194
 2388SOL     OW18796   3.026   0.983   0.101  0.2986  0.1555  0.5338
 2388SOL    HW118797   3.058   0.914   0.159 -2.7410 -0.3213  1.6627
 2388SOL    HW218798   2.930   0.974   0.102  0.2674  0.6224  1.5932
 2389SOL     OW18799   3.000   2.522  10.177 -0.1853  0.2207 -0.8082
 2389SOL    HW118800   2.957   2.574  10.109 -0.7917 -0.9814 -1.3364
 2389SOL    HW218801   2.949   2.446  10.206 -1.8309  0.8855 -1.9548
 2390SOL     OW18802   3.645   1.991  12.419 -0.4809  0.6125  0.1855
 2390SOL    HW118803   3.657   2.074  12.464 -0.3996  1.1985 -0.9159
 2390SOL    HW218804   3.734   1.957  12.419 -1.0413 -0.8816 -1.6316
 2391SOL     OW18805   4.381   0.808   5.744 -0.4924  0.1865  0.2259
 2391SOL    HW118806   4.409   0.845   5.661 -2.2338  2.7268  0.7660
 2391SOL    HW218807   4.442   0.842   5.810  3.0206  1.1364 -3.5736
 2392SOL     OW18808   4.132   1.363   6.856 -0.5933  0.1021 -0.3734
 2392SOL    HW118809   4.078   1.437   6.883  0.1364  1.2681 -2.1187
 2392SOL    HW218810   4.093   1.361   6.768 -0.8037 -0.3499 -0.2687
 2393SOL     OW18811   4.727   2.782  14.955  0.3013  0.3370 -0.4821
 2393SOL    HW118812   4.704   2.845  15.023  2.7910 -1.1498  1.7607
 2393SOL    HW218813   0.031   2.718  15.011  0.7435  1.0232 -0.0509
 2394SOL     OW18814   0.891   2.614   2.539  0.4130  0.0285 -0.2641
 2394SOL    HW118815   0.820   2.636   2.479 -0.0585  0.8736  0.6045
 2394SOL    HW218816   0.909   2.705   2.563 -3.4982  0.6330  0.3241
 2395SOL     OW18817   4.279   2.054  17.444 -0.8245  0.0524  0.3856
 2395SOL    HW118818   4.228   2.083  17.520 -1.3048 -0.2590  0.1809
 2395SOL    HW218819   4.352   2.115  17.454  0.6974 -1.4384 -1.7146
 2396SOL     OW18820   3.661   1.920   2.178 -0.3233 -0.1020  0.4846
 2396SOL    HW118821   3.633   1.911   2.087 -0.6271 -0.9509  0.6597
 2396SOL    HW218822   3.653   2.015   2.192 -0.2549 -0.2437  1.4402
 2397SOL     OW18823   0.409   4.116   4.157  0.5294  0.4038  0.3443
 2397SOL    HW118824   0.448   4.200   4.133  0.1026  0.0988 -1.3713
 2397SOL    HW218825   0.491   4.067   4.169  0.6833  0.2739 -1.2734
 2398SOL     OW18826   4.318   0.545  16.950 -0.0677  0.2004 -0.0230
 2398SOL    HW118827   4.267   0.515  16.875  1.3138 -1.2628 -0.3670
 2398SOL    HW218828   4.342   0.637  16.938 -1.4481  0.2251 -2.4983
 2399SOL     OW18829   3.196   2.968   9.681 -0.4419 -0.2921  0.2680
 2399SOL    HW118830   3.172   2.972   9.588 -0.2284  0.8793  0.2697
 2399SOL    HW218831   3.211   3.058   9.707  1.9290 -0.7437  0.4996
 2400SOL     OW18832   1.776   1.047   2.175 -0.8255 -0.3327  0.3676
 2400SOL    HW118833   1.793   1.071   2.084 -0.3079  0.4344  0.6698
 2400SOL    HW218834   1.854   1.083   2.218 -1.2867  0.1072  0.8245
 2401SOL     OW18835   2.189   3.566   5.434 -0.2202  0.3817 -0.5524
 2401SOL    HW118836   2.123   3.502   5.406  0.7404  0.5880 -3.3943
 2401SOL    HW218837   2.247   3.508   5.483 -0.4943 -0.8067 -1.6326
 2402SOL     OW18838   1.916   3.785  17.259 -0.3195 -0.4704 -0.1515
 2402SOL    HW118839   1.848   3.843  17.225 -0.0733 -2.3099 -3.9136
 2402SOL    HW218840   1.981   3.846  17.292 -0.5787 -0.0279 -0.4602
 2403SOL     OW18841   4.621   1.495   6.803 -0.1485  0.2849 -0.0798
 2403SOL    HW118842   4.529   1.472   6.789  0.2853 -0.1170 -2.1645
 2403SOL    HW218843   4.646   1.547   6.726  0.8311 -1.0346 -0.6530
 2404SOL     OW18844   0.929   3.902   9.018  0.0136  0.0528  0.0882
 2404SOL    HW118845   1.005   3.844   9.029  1.7318  2.5413  1.2454
 2404SOL    HW218846   0.914   3.942   9.103  1.8507  0.5661  0.1583
 2405SOL     OW18847   1.757   0.896   5.245 -0.6749  0.4970  0.6666
 2405SOL    HW118848   1.738   0.865   5.156  3.2108  0.4468 -0.1231
 2405SOL    HW218849   1.820   0.832   5.277  1.3611  0.5281 -3.2514
 2406SOL     OW18850   3.178   3.445   9.671  0.0052 -0.3539 -0.4588
 2406SOL    HW118851   3.117   3.504   9.714  1.5789  1.0484 -0.1721
 2406SOL    HW218852   3.265   3.457   9.710 -0.9704  0.2543  1.5464
 2407SOL     OW18853   1.910   0.393  11.080  0.2097 -0.0372 -0.3170
 2407SOL    HW118854   1.938   0.325  11.142 -0.4493  0.8445  0.9385
 2407SOL    HW218855   1.952   0.475  11.105 -1.3340  1.0015 -1.1551
 2408SOL     OW18856   1.279   4.233  13.061 -0.1750 -0.4499 -0.4749
 2408SOL    HW118857   1.287   4.161  12.998  0.7997 -1.6076  0.9682
 2408SOL    HW218858   1.369   4.265  13.068  0.1859 -1.5863  0.0689
 2409SOL     OW18859   1.449   3.468   9.031  0.2211  0.2566 -0.1919
 2409SOL    HW118860   1.521   3.490   9.090 -1.1668  0.3398  1.4678
 2409SOL    HW218861   1.504   3.446   8.955  0.5793 -1.7590  0.6405
 2410SOL     OW18862   0.953   3.229   7.129 -0.6479  0.6331  0.4646
 2410SOL    HW118863   0.928   3.320   7.147  0.2313  1.3634 -2.0355
 2410SOL    HW218864   1.028   3.226   7.188  0.2850  1.2120 -0.7196
 2411SOL     OW18865   0.193   0.167   3.994 -0.2603 -0.0469 -0.1330
 2411SOL    HW118866   0.177   0.144   3.903  2.0069  0.4618 -0.6673
 2411SOL    HW218867   0.233   0.085   4.021 -1.1253 -0.1635  0.7960
 2412SOL     OW18868   0.457   2.953   7.894  0.2222 -0.0631  0.2570
 2412SOL    HW118869   0.511   2.954   7.973 -2.4642 -2.8978  2.1507
 2412SOL    HW218870   0.419   3.040   7.909  1.0014  0.3976 -0.4515
 2413SOL     OW18871   2.338   3.838   2.554  0.1020 -0.2923 -0.3737
 2413SOL    HW118872   2.409   3.887   2.513 -2.1893  1.7530 -1.9025
 2413SOL    HW218873   2.383   3.774   2.609  0.5463  0.0534 -0.3348
 2414SOL     OW18874   2.113   2.037   3.657  0.5570 -0.1529 -0.0952
 2414SOL    HW118875   2.073   2.086   3.585  0.2800  0.1060  0.2356
 2414SOL    HW218876   2.083   2.077   3.739  0.2340 -2.6410  1.0128
 2415SOL     OW18877   4.412   2.847  13.421 -0.7658  0.2594 -0.7698
 2415SOL    HW118878   4.454   2.781  13.475 -0.9139  0.6069 -0.2374
 2415SOL    HW218879   4.323   2.813  13.418 -1.7340  2.7195 -0.0553
 2416SOL     OW18880   2.244   3.019   4.039 -0.0406  0.0246 -0.4651
 2416SOL    HW118881   2.194   2.975   4.108  0.6944 -0.8109 -0.4573
 2416SOL    HW218882   2.167   3.055   3.995  0.0298  1.9269  0.9993
 2417SOL     OW18883   2.440   2.157   7.757  0.6433 -0.6116 -0.4040
 2417SOL    HW118884   2.533   2.140   7.775  0.3806  1.0649  2.5575
 2417SOL    HW218885   2.411   2.155   7.848 -1.4128  0.2532 -1.0457
 2418SOL     OW18886   3.149   2.769   4.401 -0.1299  0.4217  0.0200
 2418SOL    HW118887   3.086   2.841   4.394 -1.1968 -0.5228 -0.1109
 2418SOL    HW218888   3.233   2.814   4.411 -0.5385  0.9213  1.1697
 2419SOL     OW18889   0.613   0.558   2.417  0.1397 -0.6014 -0.0578
 2419SOL    HW118890   0.571   0.535   2.335  0.3384 -1.1282 -0.0134
 2419SOL    HW218891   0.617   0.653   2.409  1.7376 -0.6789 -0.2363
 2420SOL     OW18892   1.667   4.545   4.992  0.4895 -0.4508 -0.5720
 2420SOL    HW118893   1.574   4.569   5.000  0.9568  1.6874 -1.7064
 2420SOL    HW218894   1.652   4.504   4.907 -0.1552 -0.4558 -0.4613
 2421SOL     OW18895   3.146   2.691   6.669  0.2195  0.2235  0.1652
 2421SOL    HW118896   3.174   2.600   6.660  1.2224  0.5194  0.3202
 2421SOL    HW218897   3.225   2.743   6.655 -0.1260  0.9002  0.7471
 2422SOL     OW18898   4.386   3.837   7.751  0.2382  0.3475  0.3492
 2422SOL    HW118899   4.306   3.890   7.744  2.1575  3.4853  2.1618
 2422SOL    HW218900   4.353   3.790   7.828 -2.0428 -0.5010 -1.1430
 2423SOL     OW18901   1.219   0.455   4.736 -0.3060 -0.0217 -0.4955
 2423SOL    HW118902   1.214   0.363   4.707 -0.5415  0.1477 -0.9910
 2423SOL    HW218903   1.277   0.495   4.671  0.7645  1.3222  1.3044
 2424SOL     OW18904   4.244   0.589   6.700  0.2124  0.1588  0.4987
 2424SOL    HW118905   4.271   0.651   6.632 -0.4227  0.7983  0.8251
 2424SOL    HW218906   4.171   0.549   6.653  1.1667 -1.6112  0.5156
 2425SOL     OW18907   0.038   1.654  16.725  0.2092  0.3514 -0.1402
 2425SOL    HW118908   4.727   1.726  16.761 -0.1066 -1.4474  2.9520
 2425SOL    HW218909   0.118   1.657  16.778  0.6610 -1.4297 -0.6951
 2426SOL     OW18910   0.257   3.807   2.287 -0.3546 -0.5541 -0.4630
 2426SOL    HW118911   0.193   3.838   2.351  1.6980 -0.1638  1.3976
 2426SOL    HW218912   0.247   3.716   2.312  2.0877 -0.3140  1.3996
 2427SOL     OW18913   3.950   1.959   7.130 -0.2263 -0.0973 -0.5053
 2427SOL    HW118914   3.932   1.938   7.038  1.6591 -2.9657 -0.2231
 2427SOL    HW218915   3.908   1.883   7.169  1.9915  0.1602  2.3317
 2428SOL     OW18916   2.122   0.935   5.045  0.5712 -0.2151 -0.4342
 2428SOL    HW118917   2.213   0.930   5.018  1.1776  1.4993  1.2582
 2428SOL    HW218918   2.088   0.846   5.036 -1.1888  0.4470 -0.4012
 2429SOL     OW18919   0.196   4.668  17.388 -0.0760  0.5568 -0.1951
 2429SOL    HW118920   0.207   4.683  17.294  0.7176 -1.4474 -0.4094
 2429SOL    HW218921   0.211   4.574  17.388 -0.1826  0.5370  0.6604
 2430SOL     OW18922   4.376   0.972   2.363 -0.3853 -0.5572  0.2711
 2430SOL    HW118923   4.467   0.941   2.356 -1.0503 -1.4254 -4.1346
 2430SOL    HW218924   4.332   0.910   2.306  0.7636 -2.1564  1.1206
 2431SOL     OW18925   4.205   3.902   0.033 -0.0843  0.2236  0.0023
 2431SOL    HW118926   4.257   3.876  17.719  0.4126  0.9101  0.1062
 2431SOL    HW218927   4.273   3.901   0.100 -0.4135  0.3851  0.3419
 2432SOL     OW18928   1.729   4.565  13.933  0.5612 -0.0475 -0.4198
 2432SOL    HW118929   1.679   4.636  13.892  0.9205 -1.2853 -3.0134
 2432SOL    HW218930   1.692   4.486  13.894 -3.4033  0.9561  1.3321
 2433SOL     OW18931   4.119   1.694  12.322 -0.1697  0.3440 -0.0249
 2433SOL    HW118932   4.098   1.607  12.356  1.2775  0.3412  0.8812
 2433SOL    HW218933   4.188   1.672  12.259 -2.4926 -1.6901 -1.8216
 2434SOL     OW18934   3.551   1.450   0.951  0.5310  0.1992 -0.5438
 2434SOL    HW118935   3.573   1.499   0.872 -0.3832  0.9033 -0.3669
 2434SOL    HW218936   3.589   1.502   1.022  0.1504  1.9170 -1.5985
 2435SOL     OW18937   0.228   1.702   9.297 -0.0264  0.0844  0.2830
 2435SOL    HW118938   0.263   1.789   9.278  0.3172 -0.4629 -1.6656
 2435SOL    HW218939   0.302   1.654   9.334 -0.2685 -1.1956 -0.8842
 2436SOL     OW18940   1.280   0.017   6.159 -0.0336  0.2038 -0.1390
 2436SOL    HW118941   1.302   0.110   6.164 -0.1532  0.2281 -0.0631
 2436SOL    HW218942   1.209   0.016   6.224 -0.0230 -0.4115 -0.1397
 2437SOL     OW18943   4.714   3.598   4.611 -0.5229 -0.3361  0.0474
 2437SOL    HW118944   4.708   3.670   4.548  0.8728 -0.0289  0.2632
 2437SOL    HW218945   0.025   3.533   4.565 -2.7633 -1.6356 -0.6372
 2438SOL     OW18946   3.715   1.665  15.611  0.0146  0.0456  0.3925
 2438SOL    HW118947   3.645   1.615  15.569  0.4549 -1.5956  1.6545
 2438SOL    HW218948   3.665   1.691  15.689 -0.5162  3.9467 -1.2538
 2439SOL     OW18949   0.904   2.168   1.122  0.1912 -1.1190  0.3011
 2439SOL    HW118950   0.940   2.180   1.210 -1.1366 -1.5623  0.9079
 2439SOL    HW218951   0.908   2.261   1.099 -0.5243 -0.9767  0.7525
 2440SOL     OW18952   1.008   1.276  16.826  0.3780  0.0989  0.4690
 2440SOL    HW118953   1.031   1.187  16.799  0.7590  0.0439  0.9807
 2440SOL    HW218954   0.937   1.252  16.885  1.1229 -0.0989  1.2790
 2441SOL     OW18955   0.422   1.966  12.422 -0.1413  0.0468  0.2263
 2441SOL    HW118956   0.430   1.990  12.329 -0.5078  0.6548  0.3540
 2441SOL    HW218957   0.433   1.871  12.427  0.1266  0.0342 -0.5611
 2442SOL     OW18958   0.203   2.579   8.183 -0.2367 -0.4684  0.3719
 2442SOL    HW118959   0.118   2.566   8.140 -0.8333  0.6650  1.1961
 2442SOL    HW218960   0.189   2.586   8.277 -0.6932 -1.9866  0.4127
 2443SOL     OW18961   0.306   0.206   1.945  0.1801 -0.2378 -0.5456
 2443SOL    HW118962   0.291   0.251   1.862  2.6938  0.7805 -0.4417
 2443SOL    HW218963   0.366   0.133   1.929 -0.3081 -1.0359  1.2756
 2444SOL     OW18964   0.937   3.115  12.730  0.1746 -0.4451  1.0898
 2444SOL    HW118965   1.014   3.153  12.688 -0.3002 -0.4020  0.2565
 2444SOL    HW218966   0.869   3.090  12.668 -0.1323  0.0834  1.2093
 2445SOL     OW18967   3.418   0.476  12.563 -0.2459 -0.0398  0.0862
 2445SOL    HW118968   3.487   0.410  12.569 -1.5296 -1.2558  1.5384
 2445SOL    HW218969   3.387   0.472  12.473 -0.3190  1.2182  0.0473
 2446SOL     OW18970   0.981   2.849   3.256 -0.9917  0.6897 -0.7433
 2446SOL    HW118971   1.038   2.925   3.247 -0.4611  0.1461 -1.9503
 2446SOL    HW218972   0.896   2.893   3.262 -0.5250  1.4975 -0.1573
 2447SOL     OW18973   1.580   3.453   6.936  0.0988  0.4687 -0.0325
 2447SOL    HW118974   1.634   3.374   6.937 -0.7500 -0.1343 -1.1353
 2447SOL    HW218975   1.533   3.435   7.018 -2.4874 -0.6105 -1.7410
 2448SOL     OW18976   4.280   3.570   5.059  0.4481 -0.2411  0.2996
 2448SOL    HW118977   4.276   3.649   5.005 -0.7108 -1.3453 -1.2160
 2448SOL    HW218978   4.277   3.618   5.142  1.0534  0.5451 -0.1345
 2449SOL     OW18979   4.177   1.032   3.651  0.3599  0.1140 -0.4862
 2449SOL    HW118980   4.117   1.102   3.623 -0.3127 -0.3514 -0.2252
 2449SOL    HW218981   4.146   0.950   3.613 -0.9677  0.1069  0.5737
 2450SOL     OW18982   2.042   2.898   3.397 -0.5674  0.5362  0.6251
 2450SOL    HW118983   2.127   2.943   3.400  0.0342 -0.4746 -1.3027
 2450SOL    HW218984   2.074   2.822   3.349  1.1775  0.3192  2.1273
 2451SOL     OW18985   1.695   3.092   2.646  0.4966 -0.2413 -0.5071
 2451SOL    HW118986   1.775   3.136   2.618  0.4800 -0.3869 -0.7798
 2451SOL    HW218987   1.638   3.167   2.662 -0.4735 -1.5620  2.2432
 2452SOL     OW18988   0.583   3.121   6.872 -0.8725  0.2948 -0.6615
 2452SOL    HW118989   0.678   3.127   6.884 -1.1163  2.1607  0.4838
 2452SOL    HW218990   0.571   3.206   6.828  1.1411  2.2444  2.5294
 2453SOL     OW18991   2.588   3.468   5.667  0.1972  0.6144 -0.1389
 2453SOL    HW118992   2.651   3.401   5.693 -0.0395  0.5150  0.1770
 2453SOL    HW218993   2.627   3.540   5.717 -0.2566  1.0381 -0.4039
 2454SOL     OW18994   0.486   4.461   6.621  0.3522  0.0123  0.1428
 2454SOL    HW118995   0.439   4.389   6.663 -1.3256 -0.2310 -2.1633
 2454SOL    HW218996   0.575   4.429   6.637  0.2410  0.4496  1.6068
 2455SOL     OW18997   1.328   1.801   5.921  0.4146  0.0668  0.0590
 2455SOL    HW118998   1.379   1.874   5.885 -1.4377  1.2698 -0.1120
 2455SOL    HW218999   1.338   1.727   5.860  1.1880  1.0582 -1.0229
 2456SOL     OW19000   3.923   4.372   5.378  0.3745 -0.3381 -0.2827
 2456SOL    HW119001   3.981   4.327   5.440  0.6682 -1.8244 -1.6413
 2456SOL    HW219002   3.977   4.450   5.368 -2.7679  1.7588 -0.8013
 2457SOL     OW19003   3.312   2.916   8.909  0.4659 -0.8786 -0.0939
 2457SOL    HW119004   3.246   2.857   8.945  0.3696 -0.8888 -0.2863
 2457SOL    HW219005   3.290   2.989   8.966 -2.9398 -2.4128  0.5387
 2458SOL     OW19006   4.549   1.889   9.137 -0.4049 -0.1954  0.5778
 2458SOL    HW119007   4.529   1.980   9.160  0.2993  0.1942 -0.3296
 2458SOL    HW219008   4.584   1.856   9.220  1.7923 -1.4962 -0.8672
 2459SOL     OW19009   2.606   4.470   7.286 -0.4947  0.4440  0.1822
 2459SOL    HW119010   2.522   4.500   7.251 -0.8741 -0.2828  0.4819
 2459SOL    HW219011   2.585   4.429   7.370 -1.7363 -1.0766 -0.8645
 2460SOL     OW19012   2.736   2.466   5.716 -0.2205  0.3105  0.1277
 2460SOL    HW119013   2.827   2.463   5.746 -0.0035  0.3028 -0.5442
 2460SOL    HW219014   2.696   2.466   5.803 -2.4656  1.7288 -0.8946
 2461SOL     OW19015   0.397   4.310  13.516  0.4267 -0.2814  0.1807
 2461SOL    HW119016   0.388   4.278  13.427  1.8256  1.3615 -0.5543
 2461SOL    HW219017   0.348   4.392  13.506  3.9299  1.2575 -4.2165
 2462SOL     OW19018   4.047   0.240   8.495 -0.3277 -0.0674  0.0794
 2462SOL    HW119019   4.023   0.215   8.584  1.3254 -0.5459  0.3933
 2462SOL    HW219020   3.970   0.202   8.452 -0.3992 -0.0261  0.1707
 2463SOL     OW19021   1.895   3.445   9.399  0.6111  0.1174 -0.3258
 2463SOL    HW119022   1.831   3.390   9.444  0.9805 -0.3730 -0.3971
 2463SOL    HW219023   1.965   3.462   9.462  0.8247  1.2459 -0.8614
 2464SOL     OW19024   2.256   4.311   1.198  0.5656 -0.0315 -0.0115
 2464SOL    HW119025   2.303   4.256   1.261  1.3464 -0.1868 -0.7370
 2464SOL    HW219026   2.307   4.285   1.121  0.5172 -1.7896  0.5291
 2465SOL     OW19027   1.232   3.534   4.529 -0.1244  0.5504 -0.0324
 2465SOL    HW119028   1.315   3.495   4.502 -0.6834  0.3711 -1.4702
 2465SOL    HW219029   1.250   3.628   4.529 -1.2754  0.7777  2.1205
 2466SOL     OW19030   1.151   0.990  12.121 -0.0503 -0.4317 -0.2583
 2466SOL    HW119031   1.236   0.958  12.089 -0.1612 -1.2869  0.2720
 2466SOL    HW219032   1.132   0.909  12.169  0.2080  0.1442  0.8187
 2467SOL     OW19033   3.631   2.513  11.165  0.3478  0.1558  0.1283
 2467SOL    HW119034   3.704   2.573  11.151 -0.2783  0.6607 -0.9537
 2467SOL    HW219035   3.668   2.430  11.197 -1.3590 -0.5157  0.3468
 2468SOL     OW19036   3.989   1.124   8.725  0.0584 -0.0327 -0.0620
 2468SOL    HW119037   3.895   1.121   8.742  0.0998 -0.5150  0.0838
 2468SOL    HW219038   4.006   1.046   8.778  1.0089 -1.3573 -2.3420
 2469SOL     OW19039   0.772   0.166   1.736  0.1475 -0.2794  0.6770
 2469SOL    HW119040   0.720   0.102   1.784 -0.0408 -0.2878  0.4638
 2469SOL    HW219041   0.804   0.112   1.664  2.0962 -0.4361  1.6543
 2470SOL     OW19042   3.979   2.891   9.503 -0.3569 -0.3838  0.1979
 2470SOL    HW119043   3.927   2.828   9.552 -2.4902  1.7460  0.6354
 2470SOL    HW219044   3.923   2.968   9.501 -0.0821 -0.2284 -2.0316
 2471SOL     OW19045   2.627   2.126   4.401 -0.4639  0.3851 -0.0056
 2471SOL    HW119046   2.615   2.083   4.485 -1.9582  1.5358  0.3553
 2471SOL    HW219047   2.543   2.162   4.372 -1.6908 -3.8211 -1.6950
 2472SOL     OW19048   1.334   4.379   1.372 -0.1972  0.0049  0.5371
 2472SOL    HW119049   1.375   4.405   1.289 -1.1155 -1.0766 -0.2611
 2472SOL    HW219050   1.310   4.289   1.350 -0.7941  0.4078 -0.4929
 2473SOL     OW19051   2.126   3.175   3.285 -0.2308 -0.4205 -0.2455
 2473SOL    HW119052   2.160   3.100   3.333  0.2737  0.4390  0.7440
 2473SOL    HW219053   2.195   3.190   3.220  0.6066 -0.4536  0.6551
 2474SOL     OW19054   1.685   0.358  11.798  0.3324 -0.0871  0.2147
 2474SOL    HW119055   1.629   0.345  11.875  1.0196  1.5279  1.0034
 2474SOL    HW219056   1.724   0.271  11.787  0.8576  0.0737  0.7792
 2475SOL     OW19057   4.543   2.094   6.704  0.0801 -0.0518  0.2466
 2475SOL    HW119058   4.455   2.105   6.667  0.1675  1.1485  0.3858
 2475SOL    HW219059   4.581   2.044   6.632  1.3984  1.3831 -0.0342
 2476SOL     OW19060   3.861   2.950   6.244 -0.1054  0.1780  0.4949
 2476SOL    HW119061   3.788   2.948   6.182  0.8718  3.2345 -0.7940
 2476SOL    HW219062   3.925   2.898   6.196  1.8797  2.3399  0.8047
 2477SOL     OW19063   1.921   2.359   6.229  0.0770  0.2894 -0.3987
 2477SOL    HW119064   1.885   2.315   6.306  0.1949 -0.2555 -0.6489
 2477SOL    HW219065   1.898   2.442   6.269  1.5526 -0.1162  1.3221
 2478SOL     OW19066   1.996   0.582   1.497 -0.0594 -0.1101  0.2311
 2478SOL    HW119067   1.945   0.662   1.484 -0.0914 -0.2720 -0.6181
 2478SOL    HW219068   2.081   0.611   1.463  0.9250  0.4130  3.1072
 2479SOL     OW19069   0.005   4.023  16.540  0.2366  0.6987 -0.0945
 2479SOL    HW119070   4.685   4.072  16.486 -1.6189  0.1732  1.5249
 2479SOL    HW219071   0.040   3.959  16.477 -0.1478 -0.9930  1.3956
 2480SOL     OW19072   0.624   4.573   1.642  0.2401 -0.0840 -0.1614
 2480SOL    HW119073   0.661   4.530   1.719 -1.8057 -0.5851  0.5348
 2480SOL    HW219074   0.534   4.581   1.673 -0.2240 -2.0825 -0.9807
 2481SOL     OW19075   3.557   2.377   7.182 -0.1115 -0.1090  0.3260
 2481SOL    HW119076   3.568   2.457   7.233 -0.4661 -0.0445  0.3010
 2481SOL    HW219077   3.594   2.309   7.237 -0.5163 -2.6668 -2.5733
 2482SOL     OW19078   3.465   2.828   2.447 -0.1761  0.7249 -0.1306
 2482SOL    HW119079   3.415   2.882   2.386  0.0536  1.3684  0.2513
 2482SOL    HW219080   3.395   2.776   2.487 -1.6222  1.6941 -1.4123
 2483SOL     OW19081   1.059   0.014   4.758 -0.3790 -0.3471 -0.8483
 2483SOL    HW119082   1.009   0.096   4.759 -0.4270 -0.3783  0.1547
 2483SOL    HW219083   1.027   4.705   4.683 -0.5420 -1.7976  0.1713
 2484SOL     OW19084   2.673   3.749  14.414  0.5207 -0.4767 -0.8666
 2484SOL    HW119085   2.697   3.838  14.437 -1.1482 -0.6423  1.4499
 2484SOL    HW219086   2.752   3.713  14.454 -0.0354 -0.5398  0.1735
 2485SOL     OW19087   3.922   2.193  13.419 -0.3240 -0.2223 -0.2388
 2485SOL    HW119088   3.927   2.099  13.437  2.6472 -0.5222 -2.7204
 2485SOL    HW219089   3.886   2.218  13.504 -0.2111 -1.7595  0.2748
 2486SOL     OW19090   3.279   3.638   6.406 -0.5996  0.8092 -0.0432
 2486SOL    HW119091   3.197   3.632   6.454  0.0717  1.7027  1.2131
 2486SOL    HW219092   3.264   3.603   6.318 -1.0211 -1.2988  0.8569
 2487SOL     OW19093   2.051   2.713   2.155  0.1990 -0.0119 -0.2359
 2487SOL    HW119094   2.079   2.765   2.080  0.2593 -0.0228 -0.2213
 2487SOL    HW219095   2.006   2.778   2.208  1.0532  0.3213  0.0838
 2488SOL     OW19096   2.888   1.489   1.450 -0.0025  0.3704  0.4470
 2488SOL    HW119097   2.836   1.422   1.494  0.1283  2.5765  3.9924
 2488SOL    HW219098   2.828   1.486   1.376 -0.1245  0.7220  0.5323
 2489SOL     OW19099   0.983   3.807   4.405 -0.2672  0.8170  0.7447
 2489SOL    HW119100   0.913   3.788   4.468 -1.4733  1.7176 -0.3134
 2489SOL    HW219101   1.054   3.769   4.457  0.4786 -0.3723 -1.1557
 2490SOL     OW19102   3.587   4.714  15.345  0.0987  0.2543 -0.3529
 2490SOL    HW119103   3.501   0.011  15.327 -0.1486 -0.5631 -0.8969
 2490SOL    HW219104   3.629   4.720  15.260  0.6989 -0.6619 -0.1179
 2491SOL     OW19105   0.240   2.965   5.880  0.1696  0.5469  0.3508
 2491SOL    HW119106   0.250   3.010   5.964 -0.1168 -1.2139  1.3339
 2491SOL    HW219107   0.296   2.887   5.886  2.5777  2.2273 -0.2180
 2492SOL     OW19108   2.752   0.819   3.148 -0.5304  0.3120 -0.5671
 2492SOL    HW119109   2.723   0.738   3.106  0.2601  0.1901 -0.8788
 2492SOL    HW219110   2.845   0.797   3.150 -0.8739 -1.1583 -0.3967
 2493SOL     OW19111   0.281   2.763  12.413  0.1523  0.2870  0.5035
 2493SOL    HW119112   0.221   2.836  12.396  0.9176  0.9049  0.4850
 2493SOL    HW219113   0.291   2.732  12.323 -1.4461 -0.0347  0.4375
 2494SOL     OW19114   2.087   0.744   7.466 -0.3603  0.0515 -0.1289
 2494SOL    HW119115   2.174   0.769   7.496 -0.9937  0.9389  0.9545
 2494SOL    HW219116   2.111   0.688   7.392 -0.1368 -0.3796  0.2717
 2495SOL     OW19117   0.623   3.578   3.046  0.5995 -0.0542 -0.0422
 2495SOL    HW119118   0.635   3.518   2.972  3.1711  1.2082 -0.6442
 2495SOL    HW219119   0.647   3.513   3.112  1.1863 -1.1806 -1.3585
 2496SOL     OW19120   2.921   1.718   1.597  0.3278  0.3839 -0.2352
 2496SOL    HW119121   2.926   1.657   1.523  0.0319  1.3551 -1.0538
 2496SOL    HW219122   3.010   1.751   1.601  0.5535 -0.2841  0.2473
 2497SOL     OW19123   4.273   2.902   4.042 -0.0744  0.0377 -0.0692
 2497SOL    HW119124   4.293   2.964   4.112 -0.6368 -0.1702  0.2689
 2497SOL    HW219125   4.256   2.965   3.972  3.7400  2.9085  1.5595
 2498SOL     OW19126   0.069   4.007   2.129  0.8435  0.3436  0.2888
 2498SOL    HW119127   0.056   4.088   2.179 -0.9967 -1.0955  2.1810
 2498SOL    HW219128   0.139   3.966   2.179  0.9140  0.1583  0.0374
 2499SOL     OW19129   2.719   1.052   1.741 -0.3092  0.1041 -0.0415
 2499SOL    HW119130   2.625   1.035   1.735 -0.1043 -0.6811 -0.9513
 2499SOL    HW219131   2.745   0.976   1.690 -1.0817 -0.6704  0.7109
 2500SOL     OW19132   2.862   2.475  13.515 -0.0410  0.1079  0.8616
 2500SOL    HW119133   2.805   2.552  13.509 -1.0820 -0.6055  1.3805
 2500SOL    HW219134   2.941   2.519  13.545  0.9838 -0.8191 -0.4863
 2501SOL     OW19135   0.551   1.243   1.253  0.3975  0.0492 -0.3177
 2501SOL    HW119136   0.459   1.268   1.267  0.2330 -0.6388 -0.1541
 2501SOL    HW219137   0.596   1.326   1.265  1.0178 -0.7138  2.5998
 2502SOL     OW19138   1.643   2.984   6.923 -0.6825  0.0700  0.3069
 2502SOL    HW119139   1.655   2.967   7.017 -0.7696 -1.3236  0.0643
 2502SOL    HW219140   1.680   2.903   6.888 -2.0501  0.1370 -1.2706
 2503SOL     OW19141   1.559   3.929  12.929  0.2272  0.1180 -0.2266
 2503SOL    HW119142   1.603   3.846  12.951 -2.4410 -1.3244 -0.2923
 2503SOL    HW219143   1.626   3.996  12.943  0.7187 -0.4666  0.2697
 2504SOL     OW19144   3.443   2.453   1.642 -0.1769 -1.4719 -0.3827
 2504SOL    HW119145   3.392   2.443   1.561 -0.8193 -1.6094  0.0382
 2504SOL    HW219146   3.533   2.451   1.609 -0.3878 -2.0129 -0.9331
 2505SOL     OW19147   3.459   4.505   7.702 -0.3049  0.0500 -0.7313
 2505SOL    HW119148   3.486   4.592   7.672  1.8784 -0.3621  0.0118
 2505SOL    HW219149   3.408   4.476   7.627  0.9374 -2.6439 -0.5083
 2506SOL     OW19150   3.674   2.476  16.758 -0.6001  0.0642 -0.1779
 2506SOL    HW119151   3.693   2.519  16.675  0.0624 -0.7830 -0.4629
 2506SOL    HW219152   3.642   2.543  16.818  1.1279  0.3083  0.4757
 2507SOL     OW19153   3.987   0.222   5.193 -0.2051 -0.1388  0.4466
 2507SOL    HW119154   3.934   0.152   5.230 -0.9583 -0.2901 -0.9130
 2507SOL    HW219155   3.924   0.293   5.181 -1.3083 -1.0558  0.7631
 2508SOL     OW19156   3.100   1.492   1.299 -0.1298 -0.4411  0.3430
 2508SOL    HW119157   3.173   1.475   1.358 -1.5079 -1.4412  1.7460
 2508SOL    HW219158   3.029   1.480   1.362  0.6129  1.0125  1.4685
 2509SOL     OW19159   2.267   3.328   5.810 -0.6334 -0.4984  0.1235
 2509SOL    HW119160   2.340   3.283   5.850 -0.3916 -1.2991 -1.2025
 2509SOL    HW219161   2.305   3.342   5.723  0.0919  1.2253  0.7065
 2510SOL     OW19162   2.752   2.024   5.562 -0.3428  0.3997 -0.0198
 2510SOL    HW119163   2.801   2.104   5.544 -0.4360 -0.1035 -2.5874
 2510SOL    HW219164   2.823   1.962   5.579  0.1808  1.5903  2.0605
 2511SOL     OW19165   2.349   2.097   2.626 -0.3990  0.0997  0.5033
 2511SOL    HW119166   2.440   2.067   2.626 -0.6713 -0.7435 -2.0866
 2511SOL    HW219167   2.344   2.170   2.687  0.1675 -1.2175  2.1154
 2512SOL     OW19168   4.253   4.072  15.966  0.7833 -0.4467 -0.7984
 2512SOL    HW119169   4.235   4.149  15.913  0.0017 -0.1261 -0.0867
 2512SOL    HW219170   4.336   4.092  16.009 -0.6426  0.2253  1.7069
 2513SOL     OW19171   3.319   3.186   9.805  0.1242  0.4903 -0.6134
 2513SOL    HW119172   3.237   3.234   9.817  0.0103  0.6175 -1.8980
 2513SOL    HW219173   3.371   3.252   9.851  0.4482  0.7176 -1.2942
 2514SOL     OW19174   2.837   3.566   4.766  0.3251 -0.0133 -0.4340
 2514SOL    HW119175   2.863   3.479   4.737 -0.0435  0.1549 -1.2802
 2514SOL    HW219176   2.742   3.570   4.755  0.3075  1.1517  0.1080
 2515SOL     OW19177   1.053   0.268   5.043  0.5600  0.6267  0.1858
 2515SOL    HW119178   1.119   0.204   5.018  2.3298  2.5753 -0.2087
 2515SOL    HW219179   1.076   0.288   5.134  1.5264  1.2094 -0.1889
 2516SOL     OW19180   2.359   0.862  11.357 -0.4773  0.1875 -0.4387
 2516SOL    HW119181   2.310   0.870  11.439  0.8960 -0.7726  0.4836
 2516SOL    HW219182   2.447   0.836  11.383 -0.6394 -1.7023 -1.8004
 2517SOL     OW19183   3.565   3.187   5.105 -0.2450  0.3388 -0.1676
 2517SOL    HW119184   3.547   3.273   5.066  3.3464 -0.3085 -3.2808
 2517SOL    HW219185   3.563   3.209   5.198 -0.5082  3.1485 -0.8185
 2518SOL     OW19186   0.340   4.478   7.985  0.4696 -0.4071  0.1306
 2518SOL    HW119187   0.431   4.449   7.998  0.8212  1.2113  1.2963
 2518SOL    HW219188   0.358   4.516   7.899  2.4650 -0.4335  0.5423
 2519SOL     OW19189   1.274   0.572  12.422 -0.7415 -0.2953  0.1347
 2519SOL    HW119190   1.360   0.566  12.379  0.2746 -2.3564  2.4881
 2519SOL    HW219191   1.254   0.481  12.444 -0.3075 -0.5253 -0.4039
 2520SOL     OW19192   2.034   1.898   5.004 -0.2000 -0.0360  0.2165
 2520SOL    HW119193   2.023   1.814   4.959 -2.0000 -0.7761  2.0471
 2520SOL    HW219194   1.982   1.960   4.953 -0.7057  0.5237  1.4227
 2521SOL     OW19195   3.943   3.937  10.010  0.4370 -0.1943  0.5962
 2521SOL    HW119196   3.872   3.876   9.989 -0.8727  1.5770 -0.0826
 2521SOL    HW219197   3.924   3.959  10.101  0.8968 -0.0448  0.6577
 2522SOL     OW19198   2.851   0.689  12.036 -0.3251 -0.2526  0.3778
 2522SOL    HW119199   2.847   0.773  11.990  0.0163  0.2938  1.3358
 2522SOL    HW219200   2.824   0.711  12.125 -0.1026 -0.5272  0.5138
 2523SOL     OW19201   1.791   3.815   4.219  0.1352  0.0249 -0.3296
 2523SOL    HW119202   1.858   3.746   4.224 -1.2010 -1.2055  0.6958
 2523SOL    HW219203   1.711   3.770   4.246 -0.0476  0.3808 -0.2853
 2524SOL     OW19204   1.728   3.460   5.395  0.4606 -0.1441 -0.4595
 2524SOL    HW119205   1.664   3.518   5.436  1.3213  0.2119  0.3609
 2524SOL    HW219206   1.701   3.381   5.442  2.2482  0.5764  1.7658
 2525SOL     OW19207   0.930   0.788  16.467  0.3553 -0.2785  0.3072
 2525SOL    HW119208   0.920   0.883  16.474  0.9958 -0.0007 -2.6253
 2525SOL    HW219209   1.020   0.779  16.434  1.3672  0.2351  2.9039
 2526SOL     OW19210   4.372   0.838  16.958  0.2009 -0.6683  0.5599
 2526SOL    HW119211   4.378   0.834  17.053 -0.4506 -0.0777  0.6259
 2526SOL    HW219212   4.446   0.890  16.928 -0.5374  0.9017  1.4494
 2527SOL     OW19213   2.656   4.658   9.265  0.4548 -0.1323  0.2686
 2527SOL    HW119214   2.662   4.720   9.338 -0.5367  2.5501 -1.9518
 2527SOL    HW219215   2.635   4.723   9.199 -1.6351 -0.3153  0.7454
 2528SOL     OW19216   2.408   3.054  16.757  0.1662  0.1830  0.2050
 2528SOL    HW119217   2.485   3.005  16.785 -0.1879 -0.1235  0.6429
 2528SOL    HW219218   2.417   3.057  16.662  2.0931  2.2370  0.4362
 2529SOL     OW19219   2.422   1.236  15.112 -0.5883  0.2264  0.6443
 2529SOL    HW119220   2.468   1.319  15.103 -0.1114  0.1425  2.1582
 2529SOL    HW219221   2.458   1.206  15.196 -0.7559  2.9480  1.6896
 2530SOL     OW19222   4.110   0.181   2.372  0.2539 -0.4880  0.1741
 2530SOL    HW119223   4.076   0.097   2.405 -0.7684 -0.0406  0.2506
 2530SOL    HW219224   4.037   0.227   2.332 -0.2715 -1.3154  0.1679
 2531SOL     OW19225   4.715   3.376   5.094 -0.0607 -0.0239 -0.3380
 2531SOL    HW119226   0.012   3.436   5.158 -2.7974  0.5727  0.7055
 2531SOL    HW219227   4.675   3.431   5.027 -0.8010 -1.0337 -0.7232
 2532SOL     OW19228   2.410   0.764   8.025 -0.2848 -0.3516 -0.1344
 2532SOL    HW119229   2.375   0.760   7.936 -1.3396  0.3561  0.2421
 2532SOL    HW219230   2.502   0.787   8.011 -0.5289 -0.0580 -1.2873
 2533SOL     OW19231   3.909   1.475   0.190  0.4564  0.0103 -0.0089
 2533SOL    HW119232   3.855   1.397   0.174 -0.4906  0.7435 -0.3743
 2533SOL    HW219233   3.883   1.535   0.121 -1.6648  1.2636  1.8543
 2534SOL     OW19234   0.956   1.175  12.193  0.4177 -0.3168  0.6560
 2534SOL    HW119235   1.013   1.102  12.169  0.2365  0.0375 -0.9101
 2534SOL    HW219236   0.969   1.221  12.109 -0.2154  0.6905  1.1149
 2535SOL     OW19237   2.148   2.110   4.324 -0.2666  0.0471 -0.5882
 2535SOL    HW119238   2.136   2.028   4.277 -1.3329 -1.3249  2.0784
 2535SOL    HW219239   2.079   2.168   4.291  0.2271 -1.5613 -4.4693
 2536SOL     OW19240   1.485   2.137   1.259  0.5225  0.7901  0.1241
 2536SOL    HW119241   1.542   2.121   1.335  1.0517  0.5489 -0.3229
 2536SOL    HW219242   1.545   2.183   1.200 -0.8982 -0.2400 -2.1167
 2537SOL     OW19243   2.941   1.320   8.827 -0.0295 -0.6956 -0.3318
 2537SOL    HW119244   2.885   1.288   8.897 -0.1750 -0.3398 -0.2855
 2537SOL    HW219245   3.022   1.276   8.849  0.3539 -1.2370 -2.8014
 2538SOL     OW19246   2.881   3.574   7.018  0.2612  0.1464  0.8017
 2538SOL    HW119247   2.843   3.502   7.068  0.5679 -0.0966  0.6847
 2538SOL    HW219248   2.905   3.534   6.934 -1.2155  1.5050 -0.2594
 2539SOL     OW19249   0.048   1.301   8.996 -0.2708  0.3944  0.3106
 2539SOL    HW119250   0.004   1.291   9.081 -0.7198  0.5241  0.0940
 2539SOL    HW219251   0.125   1.354   9.017  0.4250 -0.2096 -0.7557
 2540SOL     OW19252   3.192   0.373   5.454 -0.2922  0.1847 -0.1687
 2540SOL    HW119253   3.152   0.364   5.541 -0.5066 -0.6765 -0.3586
 2540SOL    HW219254   3.213   0.466   5.461  1.1755 -0.1867  0.3617
 2541SOL     OW19255   3.736   1.636   7.847  0.9844 -0.7055 -0.3949
 2541SOL    HW119256   3.693   1.551   7.850 -1.2589  0.4564  0.3536
 2541SOL    HW219257   3.716   1.661   7.937 -0.4144 -2.3768 -0.2301
 2542SOL     OW19258   0.576   1.033  10.911 -0.1008  0.4484  0.0273
 2542SOL    HW119259   0.537   1.087  10.842 -1.2585 -0.6916 -0.2054
 2542SOL    HW219260   0.659   1.080  10.907  0.0179  0.3156  0.8057
 2543SOL     OW19261   2.493   2.103   9.228 -0.2366  0.4312 -0.2464
 2543SOL    HW119262   2.408   2.061   9.240  0.8554 -1.7003  0.1882
 2543SOL    HW219263   2.484   2.124   9.136  0.4313 -0.5301 -0.5306
 2544SOL     OW19264   1.287   1.467   1.153 -0.4377 -0.2528  0.5483
 2544SOL    HW119265   1.239   1.495   1.075  0.3699  3.4004  1.3786
 2544SOL    HW219266   1.217   1.445   1.214 -0.8399  0.7993  0.4536
 2545SOL     OW19267   1.038   4.605   7.024  0.4076 -0.5629 -0.6738
 2545SOL    HW119268   0.980   4.681   7.033  1.3057  0.1391 -0.7246
 2545SOL    HW219269   1.087   4.603   7.106  1.2064  1.0613 -1.0969
 2546SOL     OW19270   4.458   0.721  14.700 -0.0102 -0.2347  0.2775
 2546SOL    HW119271   4.465   0.656  14.630  1.5627 -0.9751  1.0948
 2546SOL    HW219272   4.407   0.673  14.766 -1.7010  2.1321  0.6550
 2547SOL     OW19273   1.861   2.312  12.400  0.0937 -0.3307 -0.2936
 2547SOL    HW119274   1.771   2.319  12.369  0.5543  0.1649 -1.5484
 2547SOL    HW219275   1.847   2.267  12.483  1.2236 -0.2140 -0.0389
 2548SOL     OW19276   2.544   0.094   6.239  0.2385 -0.2511 -0.0151
 2548SOL    HW119277   2.636   0.081   6.216  0.3469 -2.0162  1.3350
 2548SOL    HW219278   2.522   0.001   6.249  0.1580 -0.1466  0.7820
 2549SOL     OW19279   3.675   4.645   2.782  0.1180  0.0935 -0.5227
 2549SOL    HW119280   3.716   4.594   2.711  0.6936  2.5593 -1.9866
 2549SOL    HW219281   3.581   4.641   2.767  0.0780 -0.6268 -0.0648
 2550SOL     OW19282   2.877   0.918  12.945  0.2120  0.5547  0.4178
 2550SOL    HW119283   2.869   0.851  12.877 -0.4301  1.6871 -0.6257
 2550SOL    HW219284   2.795   0.966  12.936 -0.1535  0.1159  1.3559
 2551SOL     OW19285   0.784   4.090   5.813 -0.6463  0.0940  0.1480
 2551SOL    HW119286   0.752   4.085   5.723 -1.3012  0.2140  0.3701
 2551SOL    HW219287   0.833   4.172   5.817  1.7448 -1.3888  0.9484
 2552SOL     OW19288   1.013   2.292   5.216  0.2475  0.7928 -0.9357
 2552SOL    HW119289   0.980   2.375   5.182 -2.1876 -0.0338 -0.5747
 2552SOL    HW219290   0.933   2.255   5.253  0.1852  1.5310 -0.3147
 2553SOL     OW19291   0.532   1.801  16.725  0.6307 -0.1211  0.4526
 2553SOL    HW119292   0.625   1.781  16.712  0.6301  0.5040 -0.4723
 2553SOL    HW219293   0.501   1.807  16.635 -3.3785  0.6080  1.8800
 2554SOL     OW19294   0.729   1.331   2.912  0.5839 -0.2452 -0.2431
 2554SOL    HW119295   0.799   1.365   2.968  1.5857  1.2273 -2.3995
 2554SOL    HW219296   0.737   1.239   2.936  0.6857 -0.6864 -1.9669
 2555SOL     OW19297   3.498   1.398  13.813  0.0583 -0.8684  0.7227
 2555SOL    HW119298   3.458   1.435  13.734  0.1893 -0.5318  0.8113
 2555SOL    HW219299   3.439   1.323  13.819 -1.3632  0.3371  1.7356
 2556SOL     OW19300   0.041   3.367   8.756  0.1482 -0.3779  0.3073
 2556SOL    HW119301   0.072   3.289   8.710 -0.2201  0.0673 -0.6942
 2556SOL    HW219302   4.707   3.335   8.805 -0.4262  1.7088  0.7448
 2557SOL     OW19303   3.783   1.148   9.168 -0.6703  0.1360 -0.0763
 2557SOL    HW119304   3.768   1.232   9.125  0.5561 -1.4037 -3.4746
 2557SOL    HW219305   3.693   1.125   9.191 -0.4912  1.6295  2.1377
 2558SOL     OW19306   0.927   3.291   3.735  0.0697 -0.3045  0.6406
 2558SOL    HW119307   1.010   3.254   3.705 -0.5938 -0.7624 -0.6440
 2558SOL    HW219308   0.913   3.225   3.802  0.5287  0.0371  1.0760
 2559SOL     OW19309   3.628   4.177   3.559  0.3141 -0.2369 -0.0578
 2559SOL    HW119310   3.639   4.084   3.539 -2.9656 -0.7266  0.5055
 2559SOL    HW219311   3.714   4.215   3.541  0.2303 -0.6056 -1.1925
 2560SOL     OW19312   2.967   3.458   6.770 -0.3953 -0.1345 -0.1629
 2560SOL    HW119313   3.018   3.518   6.716 -0.6777  0.0942 -0.1741
 2560SOL    HW219314   3.002   3.378   6.731 -0.9908 -0.2797 -0.4013
 2561SOL     OW19315   2.564   0.297   1.231 -0.8475 -0.4981  0.1110
 2561SOL    HW119316   2.539   0.256   1.148 -0.7319  0.7520 -0.5418
 2561SOL    HW219317   2.634   0.237   1.258 -1.5778 -0.9068  1.1069
 2562SOL     OW19318   0.519   3.987   6.726  0.2898  0.4095 -0.0946
 2562SOL    HW119319   0.558   4.066   6.763 -2.7996  0.5280  2.8945
 2562SOL    HW219320   0.489   4.026   6.645 -0.7043  2.7111  1.3883
 2563SOL     OW19321   1.389   3.792   2.419  0.5979 -0.4194 -0.8528
 2563SOL    HW119322   1.300   3.814   2.446  1.1897  2.0757 -0.9575
 2563SOL    HW219323   1.432   3.790   2.504 -0.0102  1.6720 -0.5031
 2564SOL     OW19324   3.101   4.267   3.550 -0.3590 -0.2216 -0.0052
 2564SOL    HW119325   3.183   4.274   3.502 -1.3326  2.8482 -1.2094
 2564SOL    HW219326   3.043   4.336   3.519  0.9339 -0.0332 -1.9451
 2565SOL     OW19327   0.272   0.530   5.351  0.8628  0.1784 -0.1383
 2565SOL    HW119328   0.306   0.572   5.272  0.8975  1.3666  0.5169
 2565SOL    HW219329   0.185   0.503   5.321  0.9196 -0.5459  0.3482
 2566SOL     OW19330   2.256   1.072   0.093 -0.2494  0.4305  0.5153
 2566SOL    HW119331   2.253   0.994   0.038  2.4402  0.0088  0.9525
 2566SOL    HW219332   2.295   1.140   0.038  1.3354 -1.3419 -0.5720
 2567SOL     OW19333   1.288   4.449   3.152  0.1422 -0.2925  0.1014
 2567SOL    HW119334   1.335   4.479   3.074  0.8159  1.5259  1.1971
 2567SOL    HW219335   1.348   4.478   3.220 -0.2238  0.2760  0.1908
 2568SOL     OW19336   0.830   2.654   5.537 -0.3301  0.2754 -0.3976
 2568SOL    HW119337   0.803   2.640   5.447 -2.9950  0.0452  0.4291
 2568SOL    HW219338   0.914   2.609   5.540 -1.2211 -1.2991  1.4618
 2569SOL     OW19339   2.169   1.484   7.344  0.4604  0.2623  0.0078
 2569SOL    HW119340   2.083   1.499   7.305 -0.1942 -1.0142  0.9242
 2569SOL    HW219341   2.158   1.491   7.439  1.7730 -1.0646  0.2674
 2570SOL     OW19342   1.549   0.722   7.435 -0.1802 -0.3394 -0.0392
 2570SOL    HW119343   1.639   0.720   7.401 -0.1138  0.9544  0.0539
 2570SOL    HW219344   1.563   0.761   7.521  1.9455 -0.7408 -0.1942
 2571SOL     OW19345   2.105   1.338   8.735 -0.0613  0.1356  0.2089
 2571SOL    HW119346   2.188   1.293   8.722 -0.0635  0.7798 -1.9459
 2571SOL    HW219347   2.046   1.266   8.710  0.5821 -0.0625 -0.7168
 2572SOL     OW19348   0.738   0.637   1.976 -0.2479  0.1331  0.4066
 2572SOL    HW119349   0.781   0.557   1.945 -2.3722 -0.4169 -1.0878
 2572SOL    HW219350   0.659   0.612   2.024 -2.0193  0.3542 -2.3746
 2573SOL     OW19351   4.042   1.889   4.304  0.0989  0.6263 -0.1973
 2573SOL    HW119352   4.096   1.818   4.268 -2.3281 -1.6031  0.5522
 2573SOL    HW219353   4.085   1.885   4.390 -0.6049  1.5472  0.1991
 2574SOL     OW19354   2.790   1.379  13.979  0.4013  0.5553 -0.2239
 2574SOL    HW119355   2.880   1.358  13.953  0.3517  0.4606 -0.3225
 2574SOL    HW219356   2.780   1.333  14.063  1.1641 -0.5836 -0.7538
 2575SOL     OW19357   4.086   3.512   3.588 -0.5267 -0.3395  0.4005
 2575SOL    HW119358   4.014   3.503   3.650  0.0954  2.8232  1.5660
 2575SOL    HW219359   4.161   3.473   3.632 -1.9808 -1.6136  1.7670
 2576SOL     OW19360   3.761   3.594   5.736  0.2483 -0.4374 -0.1002
 2576SOL    HW119361   3.764   3.686   5.709  0.6348 -0.1982  0.7298
 2576SOL    HW219362   3.853   3.574   5.757  0.7930  2.4998  0.3700
 2577SOL     OW19363   0.859   1.216  15.663 -0.5515  0.0528  0.1914
 2577SOL    HW119364   0.899   1.207  15.749 -0.5540  0.3422  0.2241
 2577SOL    HW219365   0.766   1.229  15.679 -0.2470 -0.5899  2.4993
 2578SOL     OW19366   1.557   2.671   7.363  1.0339 -0.5492  0.4730
 2578SOL    HW119367   1.561   2.700   7.272 -0.8114  1.8013  1.1426
 2578SOL    HW219368   1.468   2.637   7.371  2.0879 -3.3076  0.6245
 2579SOL     OW19369   4.740   1.334   1.021  0.2338 -0.4401  0.7799
 2579SOL    HW119370   0.055   1.392   1.071 -3.4864  2.1427  1.9339
 2579SOL    HW219371   0.050   1.268   0.974 -0.3408  0.2967 -0.8912
 2580SOL     OW19372   1.822   0.603   7.871 -0.1578  0.1069 -0.1451
 2580SOL    HW119373   1.759   0.657   7.822  0.5889  0.5220 -0.6658
 2580SOL    HW219374   1.876   0.577   7.796 -1.7576  1.1216 -1.6716
 2581SOL     OW19375   1.444   2.698   5.487 -0.0882  0.0737 -0.2594
 2581SOL    HW119376   1.381   2.755   5.530  0.2143 -0.3461  0.7361
 2581SOL    HW219377   1.474   2.760   5.420 -1.6087 -0.5137 -1.4834
 2582SOL     OW19378   0.041   2.529   8.544 -0.2821 -0.1949 -0.7354
 2582SOL    HW119379   4.697   2.555   8.581 -1.5343 -1.2750 -2.8434
 2582SOL    HW219380   0.021   2.480   8.464  0.1369  0.4010 -1.2103
 2583SOL     OW19381   3.851   4.502   9.257 -0.2423  0.1418  0.3586
 2583SOL    HW119382   3.827   4.593   9.241 -0.3436  0.0483 -0.0340
 2583SOL    HW219383   3.818   4.458   9.179  0.4644 -0.3060  0.3076
 2584SOL     OW19384   0.385   3.974   7.902 -0.1047  0.1051  0.4438
 2584SOL    HW119385   0.410   4.052   7.952 -1.1224 -0.5887  2.0431
 2584SOL    HW219386   0.468   3.926   7.912 -0.1701  0.6209  3.4629
 2585SOL     OW19387   0.609   1.050   6.846  0.0209  0.5565  0.2993
 2585SOL    HW119388   0.551   1.104   6.900 -1.4500  0.7608 -1.4981
 2585SOL    HW219389   0.692   1.071   6.891 -0.2839 -1.0542  1.6076
 2586SOL     OW19390   2.519   0.516  10.052  0.3926 -0.1442 -0.2396
 2586SOL    HW119391   2.487   0.451   9.989  0.6178 -0.5268  0.0378
 2586SOL    HW219392   2.613   0.499  10.048  0.4819  0.4069 -0.4888
 2587SOL     OW19393   3.711   3.431  11.827  0.3061  0.0331  0.1846
 2587SOL    HW119394   3.692   3.486  11.751  1.1210  0.6670  0.4351
 2587SOL    HW219395   3.788   3.382  11.800  0.9468  1.3311 -0.3732
 2588SOL     OW19396   0.008   2.466   4.765  0.1252  0.4575  0.1850
 2588SOL    HW119397   4.739   2.458   4.860 -1.5092  0.6906  0.0237
 2588SOL    HW219398   0.021   2.375   4.737  0.5173  0.6485 -0.2457
 2589SOL     OW19399   3.333   3.934   6.288  0.4140  0.7221 -0.0881
 2589SOL    HW119400   3.413   3.970   6.249 -0.0845 -0.2532 -2.0256
 2589SOL    HW219401   3.338   3.848   6.246  0.0376  0.3507  0.6269
 2590SOL     OW19402   1.670   0.263  12.097 -0.3013  0.4114  0.1257
 2590SOL    HW119403   1.704   0.173  12.096 -2.6778 -0.4682  0.1788
 2590SOL    HW219404   1.733   0.304  12.157  0.1683  2.1019 -1.5249
 2591SOL     OW19405   0.347   3.903   5.101 -0.8894 -0.1148  0.5421
 2591SOL    HW119406   0.281   3.862   5.045  0.7492  0.4585 -1.8615
 2591SOL    HW219407   0.400   3.830   5.131 -0.6959 -1.3052 -2.7352
 2592SOL     OW19408   3.097   4.140   6.576 -0.4661  0.6881  0.0350
 2592SOL    HW119409   3.153   4.197   6.629  0.6566 -0.1748 -0.2204
 2592SOL    HW219410   3.119   4.169   6.488 -0.2732 -2.2013 -0.8633
 2593SOL     OW19411   4.573   4.407   4.846 -0.2130  0.0818  0.1819
 2593SOL    HW119412   4.533   4.365   4.771  1.2468 -1.0712  0.0396
 2593SOL    HW219413   4.665   4.379   4.841  0.1644  1.2399  0.4324
 2594SOL     OW19414   4.544   1.808   3.856  0.2547  0.4332 -0.1427
 2594SOL    HW119415   4.572   1.717   3.851 -0.0781  0.3201  0.1151
 2594SOL    HW219416   4.568   1.842   3.769 -1.1113  0.8871 -0.3514
 2595SOL     OW19417   1.501   1.454  12.270  0.1208 -0.2463  0.5085
 2595SOL    HW119418   1.575   1.461  12.209  0.7727  1.9750  1.5695
 2595SOL    HW219419   1.444   1.391  12.226 -0.2175  1.5735 -1.6977
 2596SOL     OW19420   2.078   2.455  12.370 -0.0728  0.2329  0.2723
 2596SOL    HW119421   2.033   2.538  12.356 -0.0531 -0.0212 -1.3040
 2596SOL    HW219422   2.006   2.393  12.382 -0.9911  1.5730  1.7686
 2597SOL     OW19423   0.285   3.358   6.623 -0.2168 -0.2327  0.0326
 2597SOL    HW119424   0.209   3.326   6.671  1.2541  0.0458  2.5523
 2597SOL    HW219425   0.299   3.437   6.675  0.3323 -0.9145  0.9151
 2598SOL     OW19426   3.405   3.623   5.709  0.0284  0.2246  0.2143
 2598SOL    HW119427   3.384   3.684   5.638  0.7877  0.6383  0.3468
 2598SOL    HW219428   3.418   3.692   5.774 -0.4424  0.2154  0.3190
 2599SOL     OW19429   0.573   1.646  14.503 -0.5784  0.0863 -0.2360
 2599SOL    HW119430   0.559   1.630  14.596 -2.2223  1.4797 -0.2352
 2599SOL    HW219431   0.636   1.577  14.483 -1.3342 -0.4933 -0.5838
 2600SOL     OW19432   0.206   0.105   5.162 -0.1645  0.4655  0.9089
 2600SOL    HW119433   0.282   0.153   5.197 -0.5123  2.0672 -0.5195
 2600SOL    HW219434   0.182   0.143   5.078  0.5773 -0.0130  0.4784
 2601SOL     OW19435   0.545   0.062   8.972 -0.2725  0.2344 -0.2402
 2601SOL    HW119436   0.553   0.130   9.039 -1.5407 -0.9228  1.1048
 2601SOL    HW219437   0.592   0.092   8.895 -0.4909 -0.8349 -0.7954
 2602SOL     OW19438   3.804   2.942  10.088 -0.0330  0.4287 -0.1632
 2602SOL    HW119439   3.712   2.969  10.079  0.5568  2.4927 -0.0914
 2602SOL    HW219440   3.838   2.985  10.009  0.9093  1.1826  0.6635
 2603SOL     OW19441   3.655   4.141  15.981 -0.1200  0.7162 -0.4196
 2603SOL    HW119442   3.747   4.160  15.997  0.2814 -2.1899  0.6175
 2603SOL    HW219443   3.650   4.055  16.022  0.4455  0.2037 -1.4517
 2604SOL     OW19444   3.086   1.675   8.819  0.8796 -0.2456 -0.0226
 2604SOL    HW119445   3.134   1.624   8.754  1.3296 -2.2471  1.8799
 2604SOL    HW219446   3.113   1.765   8.798 -2.3906  0.5308 -0.8853
 2605SOL     OW19447   2.793   3.843   3.576 -0.1934  0.0179 -0.1923
 2605SOL    HW119448   2.830   3.930   3.560  1.3426 -0.3208  1.4262
 2605SOL    HW219449   2.709   3.868   3.614 -0.2297  2.1344 -1.6651
 2606SOL     OW19450   3.242   3.853  11.527 -0.4812 -0.1767  0.2099
 2606SOL    HW119451   3.242   3.949  11.517  0.4293 -0.2114 -0.1280
 2606SOL    HW219452   3.155   3.842  11.564  0.2259 -2.6071  1.0856
 2607SOL     OW19453   3.015   0.302  16.645 -0.2421 -0.5523  0.2517
 2607SOL    HW119454   3.104   0.293  16.678  0.2328 -0.2446 -0.9182
 2607SOL    HW219455   2.963   0.239  16.695 -0.3446 -1.9944 -1.6318
 2608SOL     OW19456   3.360   0.805   3.559 -0.1929 -0.2574 -0.5139
 2608SOL    HW119457   3.297   0.851   3.503  0.1304  0.1686 -0.5219
 2608SOL    HW219458   3.438   0.855   3.535 -0.7948  2.2402  2.7967
 2609SOL     OW19459   2.627   1.417   3.310 -0.1254  0.2400 -0.6763
 2609SOL    HW119460   2.704   1.437   3.363  0.8075  0.6598 -2.1814
 2609SOL    HW219461   2.579   1.497   3.289 -1.1232  0.7830  3.7028
 2610SOL     OW19462   4.740   3.168   5.258 -0.0001 -0.0471  0.2221
 2610SOL    HW119463   0.017   3.249   5.212  1.0458 -1.3028 -1.5627
 2610SOL    HW219464   4.653   3.150   5.221  1.2382 -1.1495 -2.1442
 2611SOL     OW19465   4.393   1.422   4.691 -0.3159 -0.1678  0.3557
 2611SOL    HW119466   4.373   1.487   4.623  0.4366  1.5870  1.8322
 2611SOL    HW219467   4.307   1.387   4.713 -0.1285 -1.7582 -1.4490
 2612SOL     OW19468   1.250   1.761  16.098 -0.4830 -0.3785 -1.0327
 2612SOL    HW119469   1.185   1.693  16.116  1.5566 -1.7743  1.1902
 2612SOL    HW219470   1.326   1.719  16.139 -0.0692 -1.0504 -2.4835
 2613SOL     OW19471   0.782   4.671   6.584  0.1399  0.0712 -0.3346
 2613SOL    HW119472   0.829   4.691   6.665 -1.5797  1.3324  0.3428
 2613SOL    HW219473   0.760   0.018   6.552 -0.5413 -0.0894 -0.3061
 2614SOL     OW19474   3.270   4.081   4.973 -0.2533 -0.2578  0.1249
 2614SOL    HW119475   3.309   4.074   4.886 -0.8950 -0.4451 -0.1497
 2614SOL    HW219476   3.179   4.090   4.943 -0.1471  1.3602  0.2676
 2615SOL     OW19477   2.944   4.708   4.356 -0.1911  0.0531 -0.0317
 2615SOL    HW119478   2.926   0.061   4.350 -0.5059 -0.2016 -3.2250
 2615SOL    HW219479   2.965   4.692   4.264  0.2711  0.1061  0.0644
 2616SOL     OW19480   0.142   4.240   7.434  0.0445  0.0352  0.7186
 2616SOL    HW119481   0.097   4.240   7.350 -0.4572  0.5295  0.9847
 2616SOL    HW219482   0.129   4.149   7.459 -0.1892 -0.2497 -0.4688
 2617SOL     OW19483   2.328   2.821  11.738 -0.3243  0.0405  0.5828
 2617SOL    HW119484   2.242   2.810  11.779 -0.7485  0.3667 -0.2310
 2617SOL    HW219485   2.316   2.910  11.705 -1.2892 -0.5559 -0.6482
 2618SOL     OW19486   2.692   1.447   5.619  0.3282  0.0153 -0.0672
 2618SOL    HW119487   2.617   1.417   5.669  0.6565 -1.0248 -0.2071
 2618SOL    HW219488   2.766   1.399   5.657  0.8939 -0.5574 -1.9053
 2619SOL     OW19489   1.191   0.721   7.540 -0.5523  0.2370 -0.0677
 2619SOL    HW119490   1.226   0.682   7.620  0.3018  1.4090  0.1402
 2619SOL    HW219491   1.101   0.690   7.544 -0.3462 -0.2263  0.9346
 2620SOL     OW19492   4.104   1.480   5.479  0.1111  0.1847  0.3241
 2620SOL    HW119493   4.065   1.446   5.399 -0.0113 -2.9082  1.7159
 2620SOL    HW219494   4.175   1.418   5.493  1.0326  0.7576 -1.8717
 2621SOL     OW19495   1.332   0.309   3.135 -0.1761 -0.3331 -0.4468
 2621SOL    HW119496   1.420   0.332   3.105 -0.2152  1.5525  0.8707
 2621SOL    HW219497   1.293   0.396   3.137 -0.7930 -0.5763 -1.7674
 2622SOL     OW19498   1.677   0.870  16.600  0.4398 -0.5114 -0.5080
 2622SOL    HW119499   1.588   0.904  16.612  0.7885  0.1355  0.2296
 2622SOL    HW219500   1.652   0.784  16.565  0.7131 -0.3037 -1.2235
 2623SOL     OW19501   3.502   4.454   6.665 -0.2550  0.6704 -0.2195
 2623SOL    HW119502   3.432   4.460   6.600  0.8581  1.3354 -1.3596
 2623SOL    HW219503   3.495   4.361   6.684 -1.6128  0.8567  0.2136
 2624SOL     OW19504   0.562   3.574   4.634  0.4446 -0.0009 -0.4259
 2624SOL    HW119505   0.553   3.528   4.550 -0.5882  0.6746 -0.6802
 2624SOL    HW219506   0.578   3.497   4.689 -0.5000  1.4616  1.8961
 2625SOL     OW19507   1.336   0.152  16.076 -0.1071  0.0239  0.2542
 2625SOL    HW119508   1.427   0.125  16.081  0.1271  0.6352 -0.6670
 2625SOL    HW219509   1.338   0.238  16.118  1.8632  1.3646 -2.5799
 2626SOL     OW19510   4.708   0.306  16.092 -0.1262 -0.1927  0.1693
 2626SOL    HW119511   0.011   0.286  16.010 -0.8331  0.9532 -0.4902
 2626SOL    HW219512   4.620   0.275  16.071 -0.9799  0.6374  2.4792
 2627SOL     OW19513   1.053   1.868   3.011 -0.6380  0.3742  0.0508
 2627SOL    HW119514   1.026   1.807   2.943 -0.9105 -1.3795  1.7261
 2627SOL    HW219515   1.058   1.814   3.089 -0.9128 -0.5069 -0.5449
 2628SOL     OW19516   0.453   3.437   7.773 -0.1184 -0.4111  0.3450
 2628SOL    HW119517   0.536   3.436   7.726 -0.4794 -2.0636 -0.2714
 2628SOL    HW219518   0.471   3.432   7.867  1.6562  0.7241  0.0575
 2629SOL     OW19519   2.300   4.428   7.548 -0.0960  0.3175  0.1054
 2629SOL    HW119520   2.312   4.420   7.454 -0.9711 -2.0452  0.1857
 2629SOL    HW219521   2.247   4.349   7.558  3.9320 -2.7685 -2.9861
 2630SOL     OW19522   3.208   1.729   1.999  0.3929  0.5751  0.4597
 2630SOL    HW119523   3.157   1.808   1.984  0.9507  0.9228  0.4004
 2630SOL    HW219524   3.266   1.728   1.923 -1.4687  2.8795 -1.0221
 2631SOL     OW19525   0.739   0.318   5.736  0.3563 -0.1440 -0.4438
 2631SOL    HW119526   0.651   0.285   5.755 -0.0422 -0.3459 -2.6086
 2631SOL    HW219527   0.731   0.409   5.767 -1.6791 -0.7671  0.8470
 2632SOL     OW19528   4.055   3.902   4.939 -0.1470 -0.0505  0.1259
 2632SOL    HW119529   4.022   3.837   5.001  0.6476 -0.3068  0.2782
 2632SOL    HW219530   4.037   3.988   4.977 -1.0133 -0.3344  0.3701
 2633SOL     OW19531   2.329   3.756   6.525  0.5280 -0.5113  0.2014
 2633SOL    HW119532   2.310   3.844   6.491 -1.0315 -0.5544  0.9527
 2633SOL    HW219533   2.387   3.793   6.592 -0.6691  0.4119  0.7265
 2634SOL     OW19534   1.707   3.621  13.632  0.1735 -0.3358 -0.8671
 2634SOL    HW119535   1.759   3.654  13.706 -2.7111  0.0747  0.9741
 2634SOL    HW219536   1.761   3.548  13.600 -0.5607 -1.4786  0.4871
 2635SOL     OW19537   0.143   4.196   6.652 -0.0166 -0.1154 -0.3756
 2635SOL    HW119538   0.219   4.234   6.696  0.9011 -2.0006 -0.3426
 2635SOL    HW219539   0.101   4.280   6.634 -0.3210  0.1262  1.4681
 2636SOL     OW19540   4.013   0.897   6.290  0.2935 -0.1885  0.5252
 2636SOL    HW119541   3.927   0.881   6.252 -0.6477 -0.7910  2.9004
 2636SOL    HW219542   4.054   0.811   6.299  0.6807  0.1191  1.6896
 2637SOL     OW19543   1.495   3.829  14.352  0.0147 -0.7326  0.2942
 2637SOL    HW119544   1.544   3.880  14.288  1.5056 -2.2464  0.2328
 2637SOL    HW219545   1.489   3.746  14.304 -1.1834 -2.0005  2.5949
 2638SOL     OW19546   0.985   2.869   2.455  0.3228 -0.3881  0.3006
 2638SOL    HW119547   1.038   2.927   2.400 -2.0148  0.0163 -1.5511
 2638SOL    HW219548   0.958   2.807   2.387 -1.3353  1.5867 -0.8456
 2639SOL     OW19549   1.851   3.804   2.800 -0.5877  0.4988  0.3599
 2639SOL    HW119550   1.780   3.857   2.835 -0.2629  1.3895 -0.3280
 2639SOL    HW219551   1.921   3.865   2.777 -1.2751  0.2195 -2.4654
 2640SOL     OW19552   1.827   3.043   6.240 -0.3230 -0.2947 -1.1274
 2640SOL    HW119553   1.732   3.047   6.252 -0.2497  1.9417 -1.3328
 2640SOL    HW219554   1.854   3.072   6.327  1.2243 -0.8326 -1.4370
 2641SOL     OW19555   4.543   4.233   9.240  0.3931  0.2348  0.6695
 2641SOL    HW119556   4.626   4.185   9.237  1.1393  1.5945 -0.5154
 2641SOL    HW219557   4.558   4.328   9.247  2.5674  0.0294 -1.2269
 2642SOL     OW19558   3.717   1.485   6.779 -1.0614  0.2608 -0.3431
 2642SOL    HW119559   3.753   1.466   6.692  1.6320 -1.2165  1.0859
 2642SOL    HW219560   3.800   1.506   6.822 -0.8332  1.8418 -1.5594
 2643SOL     OW19561   1.602   0.867   5.473  0.2824  0.0763 -0.5012
 2643SOL    HW119562   1.512   0.897   5.484  0.1173 -0.5044 -0.2687
 2643SOL    HW219563   1.638   0.902   5.392 -1.0111  0.7835 -0.7708
 2644SOL     OW19564   1.843   4.137   2.977  0.1157 -0.0841 -0.8106
 2644SOL    HW119565   1.841   4.078   3.052 -0.3749  2.4799  1.1709
 2644SOL    HW219566   1.894   4.084   2.915  1.6408  0.9810 -0.4855
 2645SOL     OW19567   2.131   0.572   7.089  0.0876  0.3071 -0.1672
 2645SOL    HW119568   2.151   0.665   7.104 -0.6485  0.6426 -1.2469
 2645SOL    HW219569   2.136   0.574   6.993 -1.7273  2.0902 -0.2286
 2646SOL     OW19570   3.065   1.940   5.599 -0.6831 -0.0433 -0.3189
 2646SOL    HW119571   3.030   1.853   5.621  2.1634 -1.0354  0.3973
 2646SOL    HW219572   3.097   1.963   5.687 -1.5415 -1.1563  0.2849
 2647SOL     OW19573   2.889   3.849  11.550  0.4473 -0.0255  0.0657
 2647SOL    HW119574   2.926   3.903  11.480 -0.6422  1.3993  0.6047
 2647SOL    HW219575   2.890   3.907  11.626  0.0668  1.2984 -0.9524
 2648SOL     OW19576   0.064   3.786  15.458  0.2139  0.3163  0.0225
 2648SOL    HW119577   0.083   3.862  15.513 -0.9971  0.4637  0.2310
 2648SOL    HW219578   4.713   3.806  15.441  0.0457  0.7438  1.4381
 2649SOL     OW19579   3.612   0.162  17.648  0.1294  0.0664  0.2419
 2649SOL    HW119580   3.678   0.187  17.584 -0.7439  1.5006 -0.1060
 2649SOL    HW219581   3.635   0.220  17.721 -1.2770 -0.0601  0.7990
 2650SOL     OW19582   0.223   1.609   4.209  0.0203  0.8602 -0.3877
 2650SOL    HW119583   0.220   1.514   4.199  2.3078  0.7680 -0.1551
 2650SOL    HW219584   0.309   1.624   4.247  0.1953 -0.8159 -0.1242
 2651SOL     OW19585   2.205   1.920   8.029  0.4574  0.5454  0.9802
 2651SOL    HW119586   2.124   1.874   8.052  0.2067  0.8594  0.7294
 2651SOL    HW219587   2.219   1.874   7.946 -4.5400 -2.1758  1.6604
 2652SOL     OW19588   1.310   2.909   0.581  0.2808  0.7844 -0.4843
 2652SOL    HW119589   1.274   2.965   0.651 -2.0317 -0.3294 -0.7547
 2652SOL    HW219590   1.398   2.944   0.591  0.1456  0.5121  1.7622
 2653SOL     OW19591   2.112   4.321   2.822  0.3788 -0.4346 -0.1978
 2653SOL    HW119592   2.147   4.310   2.733  1.9163  1.3098  0.1856
 2653SOL    HW219593   2.087   4.410   2.799  3.8453  0.3858 -0.7795
 2654SOL     OW19594   0.229   3.165   5.413 -0.0825  0.6299  0.2700
 2654SOL    HW119595   0.153   3.160   5.355 -1.1686  0.4933  1.7056
 2654SOL    HW219596   0.183   3.126   5.488  1.2196 -1.8811 -0.2647
 2655SOL     OW19597   3.924   0.301   4.449 -0.4797  0.1878  0.0376
 2655SOL    HW119598   3.909   0.249   4.527 -0.0915  3.4424  2.2733
 2655SOL    HW219599   3.974   0.373   4.488 -0.2210  2.0838 -3.7019
 2656SOL     OW19600   3.655   1.287  12.363 -0.1823 -0.1717  0.2891
 2656SOL    HW119601   3.683   1.195  12.361 -2.6993 -0.9857  2.4372
 2656SOL    HW219602   3.603   1.290  12.444 -1.4432  2.0840 -0.6307
 2657SOL     OW19603   3.868   1.819   2.331 -0.2386 -0.4689  0.2124
 2657SOL    HW119604   3.840   1.876   2.402 -1.1442  2.2917 -2.3555
 2657SOL    HW219605   3.796   1.849   2.275 -1.0304 -2.8104 -0.0298
 2658SOL     OW19606   2.337   0.095   4.412  0.4662  0.4143  0.5691
 2658SOL    HW119607   2.368   0.122   4.326  0.0444  1.8451  0.8675
 2658SOL    HW219608   2.256   0.050   4.388 -0.3470  2.2326 -0.0983
 2659SOL     OW19609   4.481   4.273   6.138 -0.0753  0.2799  0.5971
 2659SOL    HW119610   4.396   4.235   6.162 -0.2608 -0.9724 -2.0401
 2659SOL    HW219611   4.530   4.275   6.220 -0.3548  0.3601  0.7646
 2660SOL     OW19612   1.926   1.893  12.054 -0.6675 -0.4712  0.3345
 2660SOL    HW119613   1.895   1.961  11.995 -3.7819 -0.6548  1.7250
 2660SOL    HW219614   1.891   1.811  12.019  0.6587 -0.5730 -0.7595
 2661SOL     OW19615   2.455   1.022  10.846 -0.3370 -0.0038  0.1130
 2661SOL    HW119616   2.428   0.984  10.762  3.3453  1.1049 -1.5306
 2661SOL    HW219617   2.489   0.953  10.903 -2.5389 -0.3313  1.0592
 2662SOL     OW19618   1.538   2.829   1.826  0.7560  0.1880 -0.2690
 2662SOL    HW119619   1.578   2.846   1.911 -1.7839 -3.1989  1.5939
 2662SOL    HW219620   1.602   2.770   1.787  0.8981  0.2479 -0.1235
 2663SOL     OW19621   3.277   3.131   8.264 -0.1530 -0.6793 -0.2408
 2663SOL    HW119622   3.318   3.045   8.274  1.1986  0.1712  1.4126
 2663SOL    HW219623   3.197   3.115   8.214 -0.7184  2.4197 -0.3382
 2664SOL     OW19624   0.325   2.197   0.538 -0.0603 -0.1505  0.0802
 2664SOL    HW119625   0.244   2.164   0.576 -0.8046  0.9629 -0.5376
 2664SOL    HW219626   0.298   2.239   0.457 -0.2935  0.7545  0.6303
 2665SOL     OW19627   3.046   3.167   7.132  0.2518  0.5096 -0.2127
 2665SOL    HW119628   3.067   3.240   7.191  0.4363 -0.0805  0.4473
 2665SOL    HW219629   3.130   3.122   7.132  1.1124  2.1060  0.7800
 2666SOL     OW19630   0.076   3.420  12.641 -0.3334  1.0222 -0.6235
 2666SOL    HW119631   0.124   3.449  12.564 -2.1944 -1.8306 -2.8249
 2666SOL    HW219632   0.030   3.342  12.611 -2.1575  1.3504  1.3054
 2667SOL     OW19633   1.106   2.691  11.991  0.0241 -0.2369  0.2278
 2667SOL    HW119634   1.042   2.688  12.062 -0.8151 -0.7905 -0.5448
 2667SOL    HW219635   1.118   2.783  11.970  0.1071 -0.4758 -0.8006
 2668SOL     OW19636   4.198   3.624   7.169  0.1178 -0.6341  0.5369
 2668SOL    HW119637   4.141   3.604   7.243  0.0420 -0.0569  0.6302
 2668SOL    HW219638   4.283   3.591   7.198 -0.6213 -1.9726  1.1931
 2669SOL     OW19639   1.602   3.724   5.530  0.5500  0.0270  0.0970
 2669SOL    HW119640   1.545   3.799   5.549 -0.3409 -0.9575  1.2839
 2669SOL    HW219641   1.675   3.772   5.491 -0.9579  0.8160 -1.7536
 2670SOL     OW19642   3.540   1.692   3.294  0.0004  0.4452  0.3578
 2670SOL    HW119643   3.490   1.661   3.219  0.2740 -1.2442  0.8844
 2670SOL    HW219644   3.461   1.730   3.332 -0.1986 -0.9399  1.3324
 2671SOL     OW19645   2.382   3.403   5.532 -0.3619  0.1231 -0.3630
 2671SOL    HW119646   2.453   3.439   5.585 -0.5444 -0.3144  0.1748
 2671SOL    HW219647   2.428   3.333   5.485  0.9836  1.3246 -0.8209
 2672SOL     OW19648   0.893   3.668   5.533  0.0177  0.7099 -0.1970
 2672SOL    HW119649   0.913   3.674   5.626  0.5370 -1.3410 -0.1561
 2672SOL    HW219650   0.839   3.746   5.525 -0.6630  0.5205  2.7335
 2673SOL     OW19651   1.647   4.508  13.255  0.1358  1.0502  0.1758
 2673SOL    HW119652   1.609   4.451  13.188 -2.0066 -0.2169  2.4953
 2673SOL    HW219653   1.590   4.585  13.265  0.0316  1.3895 -2.9488
 2674SOL     OW19654   2.623   2.370   3.256 -0.1060  0.2497  0.2658
 2674SOL    HW119655   2.618   2.459   3.290  0.1914  0.1600  0.5313
 2674SOL    HW219656   2.583   2.387   3.170 -2.0975 -1.4827  0.8254
 2675SOL     OW19657   1.855   2.807  11.495 -0.2047  1.0280  0.2774
 2675SOL    HW119658   1.826   2.743  11.430 -0.9609  1.6034  0.0496
 2675SOL    HW219659   1.799   2.793  11.572  2.2603  1.3022  2.1141
 2676SOL     OW19660   3.695   2.808   9.214 -0.3833 -0.1237 -0.2270
 2676SOL    HW119661   3.752   2.750   9.265  0.6916  0.6415 -0.5497
 2676SOL    HW219662   3.753   2.883   9.204 -0.7363  0.2133  0.2793
 2677SOL     OW19663   2.625   4.129   3.869  0.1282 -0.5495  0.6221
 2677SOL    HW119664   2.598   4.063   3.805  0.5903 -0.2504  0.1113
 2677SOL    HW219665   2.568   4.203   3.849 -1.8331 -1.7325  1.9278
 2678SOL     OW19666   3.264   0.256  16.750  0.1701 -0.7020  0.6157
 2678SOL    HW119667   3.350   0.229  16.720  0.0768  2.0644 -2.1191
 2678SOL    HW219668   3.281   0.338  16.797  1.0340 -0.0444 -0.8565
 2679SOL     OW19669   1.865   0.443   2.061  0.4573 -0.1578 -0.6211
 2679SOL    HW119670   1.843   0.517   2.117 -0.8999 -1.0017 -0.0492
 2679SOL    HW219671   1.917   0.487   1.994  0.8806  1.9155  1.0474
 2680SOL     OW19672   3.245   3.353   8.399  0.4492 -0.4707 -0.2431
 2680SOL    HW119673   3.184   3.401   8.343 -0.5073 -2.1129 -0.5953
 2680SOL    HW219674   3.247   3.274   8.345 -1.8858 -0.2867 -0.5920
 2681SOL     OW19675   4.642   4.109   3.952 -0.2359 -0.2893 -0.0309
 2681SOL    HW119676   4.737   4.123   3.961  0.1463 -2.0368 -1.1882
 2681SOL    HW219677   4.637   4.190   3.901 -1.1819 -1.5521 -1.9435
 2682SOL     OW19678   3.894   2.953  16.756  0.0628  0.6198  0.0134
 2682SOL    HW119679   3.846   2.940  16.838 -0.3644 -1.2718 -0.5569
 2682SOL    HW219680   3.894   3.048  16.749 -0.0630  0.6629  0.5785
 2683SOL     OW19681   1.995   3.073   2.976 -0.5381  0.2434 -0.3271
 2683SOL    HW119682   1.899   3.071   2.975 -0.5395 -0.5207  0.9334
 2683SOL    HW219683   2.004   3.162   2.941 -0.3514  0.3238 -0.0773
 2684SOL     OW19684   2.200   0.363   4.226 -0.1837  0.0452  0.3403
 2684SOL    HW119685   2.199   0.394   4.316  1.9601 -1.0496  0.7541
 2684SOL    HW219686   2.130   0.300   4.211  1.2487 -1.7616  1.1632
 2685SOL     OW19687   4.717   2.568  12.424  0.0187 -0.0783 -1.0913
 2685SOL    HW119688   0.001   2.536  12.337  1.8073 -1.6234 -0.0265
 2685SOL    HW219689   4.696   2.495  12.482 -0.3075  0.3130 -0.7267
 2686SOL     OW19690   4.184   3.387  12.118  0.3347 -0.3350 -0.2720
 2686SOL    HW119691   4.226   3.472  12.116  0.8045 -0.5337  1.4720
 2686SOL    HW219692   4.233   3.335  12.054  1.6869  1.7965 -0.9405
 2687SOL     OW19693   0.717   2.548   1.325  0.0666  0.9026 -0.3694
 2687SOL    HW119694   0.685   2.458   1.312 -0.2324  0.6945  1.7750
 2687SOL    HW219695   0.687   2.596   1.247 -0.4168  0.8595 -0.2120
 2688SOL     OW19696   3.835   1.539   7.495  0.5721  0.4675 -0.3602
 2688SOL    HW119697   3.912   1.486   7.478  1.3314  1.1454  0.9078
 2688SOL    HW219698   3.844   1.566   7.587 -0.0427  0.0973 -0.1971
 2689SOL     OW19699   2.411   2.444   7.063 -0.1869  0.6347 -0.3322
 2689SOL    HW119700   2.485   2.497   7.091 -0.5608  1.6416 -1.2632
 2689SOL    HW219701   2.448   2.356   7.064  0.3724  0.8377 -3.8281
 2690SOL     OW19702   1.366   2.722   4.976 -0.5818  0.1744 -0.0611
 2690SOL    HW119703   1.459   2.724   4.953 -0.6177  0.7167 -0.1468
 2690SOL    HW219704   1.341   2.643   4.928 -1.3004 -0.0808  0.7253
 2691SOL     OW19705   1.282   2.062  10.548 -0.2293 -0.5634  0.1609
 2691SOL    HW119706   1.324   1.977  10.534  0.4132 -0.4366  1.3834
 2691SOL    HW219707   1.206   2.048  10.604  0.4105 -3.2961  0.3611
 2692SOL     OW19708   2.410   3.735  16.718 -0.2063  0.4377  0.4460
 2692SOL    HW119709   2.460   3.701  16.792 -1.0157 -2.8408 -0.5285
 2692SOL    HW219710   2.429   3.829  16.722 -0.8102  0.5579  0.4140
 2693SOL     OW19711   1.719   2.634   0.814  0.1589  0.6296  0.1021
 2693SOL    HW119712   1.763   2.664   0.894  0.8385 -1.4752  0.5218
 2693SOL    HW219713   1.762   2.676   0.739  1.0168 -0.9024 -0.2561
 2694SOL     OW19714   4.711   4.165   8.369  0.7653 -0.4753 -0.2058
 2694SOL    HW119715   0.012   4.223   8.432  0.0088  1.3475 -1.3986
 2694SOL    HW219716   4.733   4.076   8.398 -1.6158 -0.6804  0.9901
 2695SOL     OW19717   0.704   4.111   5.564 -0.5864 -0.0193  0.0714
 2695SOL    HW119718   0.690   4.206   5.565 -1.5013 -0.1713  2.3773
 2695SOL    HW219719   0.628   4.075   5.518  0.2778 -0.1404 -1.2545
 2696SOL     OW19720   3.008   3.461   2.422  0.2685  0.2240 -0.3606
 2696SOL    HW119721   3.006   3.459   2.327 -1.5789  1.9402 -0.3454
 2696SOL    HW219722   2.915   3.482   2.427  0.0539 -0.9520  0.6439
 2697SOL     OW19723   4.213   0.840   7.685 -0.1596  0.3553  0.0459
 2697SOL    HW119724   4.290   0.897   7.691 -0.3888  0.8610 -2.0784
 2697SOL    HW219725   4.146   0.894   7.728 -0.6873  0.7130 -1.2373
 2698SOL     OW19726   3.952   0.681   2.889  0.3090 -0.3651 -0.1162
 2698SOL    HW119727   3.988   0.725   2.966  0.9459 -1.6217  0.3169
 2698SOL    HW219728   4.037   0.646   2.863  1.7107  0.6621  3.0387
 2699SOL     OW19729   0.117   4.737   2.729  0.3776  0.5397  0.0468
 2699SOL    HW119730   0.104   4.697   2.816  1.9627 -1.3825 -0.5862
 2699SOL    HW219731   0.049   4.701   2.672 -1.9934 -0.5969  3.5859
 2700SOL     OW19732   2.091   3.719   3.966 -0.3097 -0.2396  0.4793
 2700SOL    HW119733   2.097   3.628   3.937 -1.9387  0.3220 -1.6819
 2700SOL    HW219734   2.175   3.757   3.939  0.0928 -1.0205  0.6180
 2701SOL     OW19735   3.750   2.871   7.969  0.7184  0.0016  0.0422
 2701SOL    HW119736   3.789   2.952   8.003 -0.5047  1.0659 -1.0544
 2701SOL    HW219737   3.814   2.801   7.982 -0.9256 -1.4270  0.2871
 2702SOL     OW19738   1.412   0.312   4.371  0.0621  0.1312 -0.1928
 2702SOL    HW119739   1.343   0.375   4.350  0.7250  1.0267  0.2956
 2702SOL    HW219740   1.431   0.273   4.286 -0.1256 -1.1451  0.3530
 2703SOL     OW19741   0.834   4.192   7.982 -0.0219 -0.3160 -0.1052
 2703SOL    HW119742   0.928   4.204   7.996  0.0731 -0.7751 -0.3215
 2703SOL    HW219743   0.799   4.278   8.003  0.8403 -0.9080  3.8400
 2704SOL     OW19744   4.495   0.893   7.751  0.3871  0.1764  0.0578
 2704SOL    HW119745   4.521   0.874   7.841  1.1530 -1.0455 -0.4090
 2704SOL    HW219746   4.457   0.980   7.743  0.3583  0.1176 -0.4646
 2705SOL     OW19747   1.017   4.020   4.018  0.1546 -0.7101 -0.9398
 2705SOL    HW119748   1.106   4.028   3.984  0.7288 -2.0203  0.2635
 2705SOL    HW219749   1.013   3.930   4.049 -1.6215  0.0545  1.0593
 2706SOL     OW19750   3.501   1.018   2.768  0.1644 -0.3325 -0.0840
 2706SOL    HW119751   3.594   1.037   2.754 -0.3271  1.7098 -0.6507
 2706SOL    HW219752   3.463   0.980   2.689 -2.0179  0.5109  0.5594
 2707SOL     OW19753   4.501   2.798   7.087 -0.2360 -0.2100 -0.2172
 2707SOL    HW119754   4.589   2.762   7.086  0.4617  1.5120 -1.0999
 2707SOL    HW219755   4.515   2.893   7.094  2.1094 -0.6693  1.1564
 2708SOL     OW19756   4.437   4.204   7.565  0.4344  0.3392 -0.1352
 2708SOL    HW119757   4.496   4.207   7.640  0.7964 -0.5721 -0.3702
 2708SOL    HW219758   4.492   4.159   7.500  0.0345 -0.3440 -0.0019
 2709SOL     OW19759   2.907   1.431   5.394 -0.5147 -0.0415 -0.0229
 2709SOL    HW119760   2.812   1.423   5.400 -0.5299  1.2004  1.3738
 2709SOL    HW219761   2.921   1.439   5.299 -2.7227 -1.8646 -0.4937
 2710SOL     OW19762   2.647   1.912   3.083 -0.2634  0.1589  0.1823
 2710SOL    HW119763   2.663   1.950   3.170  1.6862 -0.5531  0.1363
 2710SOL    HW219764   2.561   1.882   3.113 -1.1571 -0.2578 -2.7882
 2711SOL     OW19765   1.574   2.367   7.172 -0.0172 -0.6883  0.3350
 2711SOL    HW119766   1.614   2.356   7.259 -0.3119 -0.2761  0.5196
 2711SOL    HW219767   1.490   2.408   7.191 -0.0224  0.5252 -2.3826
 2712SOL     OW19768   1.597   3.079  16.311  0.4196  0.1820  0.0686
 2712SOL    HW119769   1.545   3.138  16.257 -0.4799 -0.1049  0.6288
 2712SOL    HW219770   1.527   3.019  16.335  0.4827 -0.7937 -2.1485
 2713SOL     OW19771   3.449   1.317  12.567  0.1081  0.1807  0.1491
 2713SOL    HW119772   3.398   1.378  12.514 -0.3675 -1.4743 -1.2819
 2713SOL    HW219773   3.392   1.306  12.643  0.7683 -1.4808  0.4076
 2714SOL     OW19774   4.184   4.531   0.699  0.0223 -1.2230  0.1885
 2714SOL    HW119775   4.247   4.500   0.634 -0.1579  0.7054 -0.9165
 2714SOL    HW219776   4.125   4.579   0.640  1.9017  3.0708  1.7924
 2715SOL     OW19777   0.545   2.884  11.366 -0.3473 -0.1357 -0.6696
 2715SOL    HW119778   0.468   2.922  11.323 -1.0024  0.3494  0.9429
 2715SOL    HW219779   0.511   2.882  11.456  1.1920  0.2724 -0.0913
 2716SOL     OW19780   3.227   4.123  11.479 -0.1686 -0.0444  0.6940
 2716SOL    HW119781   3.311   4.147  11.439  0.0239 -0.3327  0.9273
 2716SOL    HW219782   3.195   4.202  11.522  2.0521  0.8868  0.6305
 2717SOL     OW19783   4.061   2.816   2.241 -0.5786  0.1146 -0.4942
 2717SOL    HW119784   3.998   2.806   2.169 -1.5697 -0.3005  0.4488
 2717SOL    HW219785   4.078   2.726   2.267 -1.6774  0.5860  1.7933
 2718SOL     OW19786   0.682   2.512   3.369 -0.2039  0.0491  0.1535
 2718SOL    HW119787   0.714   2.457   3.441 -0.6182 -0.0744  0.2426
 2718SOL    HW219788   0.758   2.488   3.315 -0.3574  0.2443 -0.1506
 2719SOL     OW19789   0.470   3.769   8.137 -0.3415  0.3962 -0.2677
 2719SOL    HW119790   0.493   3.737   8.050 -2.9764  1.1784 -1.2420
 2719SOL    HW219791   0.535   3.838   8.155  1.2687 -1.2193  0.0713
 2720SOL     OW19792   1.700   3.913  17.136  0.5942 -0.0677  0.2196
 2720SOL    HW119793   1.722   4.001  17.164  3.1769 -0.6285 -0.0185
 2720SOL    HW219794   1.627   3.937  17.079  0.1300 -1.7851  0.0699
 2721SOL     OW19795   0.908   2.988   1.845  0.3005  0.2507  0.0558
 2721SOL    HW119796   0.954   2.930   1.785 -0.6653 -1.0177  0.5459
 2721SOL    HW219797   0.824   2.942   1.851 -0.5262  2.0324  2.1305
 2722SOL     OW19798   0.101   2.751   7.450 -0.4182 -0.3158  0.5262
 2722SOL    HW119799   0.040   2.696   7.500  1.7119 -1.7422  1.5519
 2722SOL    HW219800   0.185   2.742   7.493  1.0269 -0.2232 -2.2899
 2723SOL     OW19801   3.052   0.356  12.585  0.1020 -1.0127 -0.2024
 2723SOL    HW119802   3.118   0.287  12.583  1.2411  0.0840 -0.6374
 2723SOL    HW219803   3.098   0.415  12.644 -1.9353  1.9373 -1.5354
 2724SOL     OW19804   3.768   3.763   8.870  0.2947 -0.0126 -0.4472
 2724SOL    HW119805   3.762   3.830   8.802 -0.6448 -0.6940 -1.0466
 2724SOL    HW219806   3.687   3.713   8.857  0.0260  0.2061  0.4272
 2725SOL     OW19807   1.548   1.125   1.697  0.5939 -0.2319 -0.5277
 2725SOL    HW119808   1.615   1.140   1.631  1.2977  0.3678  0.3102
 2725SOL    HW219809   1.563   1.194   1.763 -1.5849 -0.4281  0.1817
 2726SOL     OW19810   4.646   4.213   7.773  0.3052  0.4934  0.2793
 2726SOL    HW119811   4.695   4.149   7.721  1.7669  0.1147  2.1259
 2726SOL    HW219812   4.685   4.202   7.860  0.7112 -1.7538 -0.1740
 2727SOL     OW19813   0.787   2.650   0.004 -0.4900  0.1978  0.1664
 2727SOL    HW119814   0.797   2.583  17.697  0.1829  0.8719 -0.3974
 2727SOL    HW219815   0.880   2.673   0.002  0.0163 -1.8877 -0.2692
 2728SOL     OW19816   3.538   0.321   4.745 -0.3481 -0.3998 -0.1012
 2728SOL    HW119817   3.458   0.286   4.706 -0.1197 -1.4578  0.3593
 2728SOL    HW219818   3.518   0.308   4.838  1.1493  0.0433  0.2950
 2729SOL     OW19819   0.402   4.460   0.274  0.1662 -0.3085 -0.8309
 2729SOL    HW119820   0.313   4.427   0.284  0.3655 -1.0066 -1.3639
 2729SOL    HW219821   0.388   4.530   0.210 -2.5836  0.5529  0.7647
 2730SOL     OW19822   3.528   2.768  13.878 -0.0559 -0.0595 -0.3406
 2730SOL    HW119823   3.483   2.712  13.942  2.0973 -2.4945 -0.9543
 2730SOL    HW219824   3.612   2.722  13.877 -1.8986 -3.4741  0.4604
 2731SOL     OW19825   2.045   2.311   2.377 -0.4481  0.1865  0.3615
 2731SOL    HW119826   2.043   2.334   2.470 -0.4888  0.7015  0.2313
 2731SOL    HW219827   2.135   2.280   2.369 -0.5277  0.0256  0.0938
 2732SOL     OW19828   2.769   2.080   3.591  0.4154 -0.0327  0.4401
 2732SOL    HW119829   2.750   2.073   3.497 -1.2111  0.4128  0.7362
 2732SOL    HW219830   2.691   2.111   3.636  2.2679  2.4692  1.8767
 2733SOL     OW19831   1.007   2.655   3.443  0.3153  0.3065 -0.3693
 2733SOL    HW119832   0.993   2.728   3.382 -0.1456 -0.2141 -0.8921
 2733SOL    HW219833   0.941   2.670   3.511 -0.3093  0.6580 -1.0490
 2734SOL     OW19834   0.026   1.720   8.376 -0.0090 -0.1980  0.7311
 2734SOL    HW119835   0.059   1.636   8.345 -1.2251  0.3396 -2.0596
 2734SOL    HW219836   0.099   1.780   8.360 -0.4743 -0.2988 -1.7236
 2735SOL     OW19837   2.884   4.514  16.710  0.0624 -0.3936  0.2284
 2735SOL    HW119838   2.880   4.494  16.804 -1.9030 -1.5215 -0.0997
 2735SOL    HW219839   2.900   4.423  16.684 -0.6717  0.0382 -1.7628
 2736SOL     OW19840   0.903   1.293   1.462 -0.4047  0.0232  0.0820
 2736SOL    HW119841   0.876   1.307   1.553 -1.6658  1.4310 -0.5082
 2736SOL    HW219842   0.939   1.206   1.449 -1.6374 -0.4538 -0.0993
 2737SOL     OW19843   4.052   3.100   2.813 -0.4706 -0.0445 -0.1210
 2737SOL    HW119844   4.031   3.193   2.802 -0.9995 -0.5624 -3.4963
 2737SOL    HW219845   4.067   3.096   2.907 -1.5410  1.5051  0.1205
 2738SOL     OW19846   1.490   3.602   1.985  0.0247  0.1719  0.4930
 2738SOL    HW119847   1.492   3.510   2.013 -1.0886 -0.5820 -1.8113
 2738SOL    HW219848   1.556   3.653   2.031 -0.4782  1.8627 -0.6436
 2739SOL     OW19849   2.340   2.206   6.532  0.0068 -0.2649  0.1174
 2739SOL    HW119850   2.423   2.253   6.517  0.0837 -0.2571  0.5687
 2739SOL    HW219851   2.270   2.254   6.488  1.4016 -0.2867 -2.1222
 2740SOL     OW19852   3.377   2.536   4.997  0.1931 -0.2763  0.7232
 2740SOL    HW119853   3.340   2.536   5.086  0.0485  2.0257  0.6605
 2740SOL    HW219854   3.451   2.594   5.015  0.7774 -0.3826 -1.3322
 2741SOL     OW19855   3.849   1.109   7.070  0.6678  0.2372 -0.0955
 2741SOL    HW119856   3.860   1.018   7.044  1.6338 -0.0457  1.3080
 2741SOL    HW219857   3.779   1.133   7.009  0.4637  0.9923  0.4418
 2742SOL     OW19858   3.566   4.299  12.113  0.5140  0.4042 -0.0136
 2742SOL    HW119859   3.644   4.261  12.072 -0.3607 -2.3402  0.8909
 2742SOL    HW219860   3.609   4.381  12.136  0.0215  0.4272  0.8495
 2743SOL     OW19861   3.178   0.222  16.216 -0.1431  0.0956 -0.6869
 2743SOL    HW119862   3.227   0.250  16.139  0.0961  0.9680 -0.2223
 2743SOL    HW219863   3.098   0.274  16.225 -0.8941 -0.9179 -1.5029
 2744SOL     OW19864   4.237   2.381   5.457 -0.0935  0.5304 -0.3312
 2744SOL    HW119865   4.188   2.391   5.539 -1.7123 -0.7874 -1.1104
 2744SOL    HW219866   4.178   2.336   5.395 -1.1098 -0.3602  1.2794
 2745SOL     OW19867   0.859   4.399   4.601 -0.1314 -0.1983  0.0609
 2745SOL    HW119868   0.822   4.377   4.515 -0.2715  0.1182  0.0398
 2745SOL    HW219869   0.910   4.475   4.575 -1.0462  0.2419 -0.4330
 2746SOL     OW19870   3.424   2.280   3.241  0.4371  0.5726  0.0480
 2746SOL    HW119871   3.345   2.300   3.191  0.0031 -1.9325 -0.2692
 2746SOL    HW219872   3.431   2.352   3.303  0.4659  0.2508  0.4190
 2747SOL     OW19873   0.164   4.018   7.241 -0.4856  0.1969 -0.2667
 2747SOL    HW119874   0.145   3.948   7.180 -0.9608 -0.3716  0.5341
 2747SOL    HW219875   0.098   4.081   7.212 -2.2671 -1.5287  0.0788
 2748SOL     OW19876   2.486   2.971   4.736 -0.2696 -0.1300  0.2505
 2748SOL    HW119877   2.540   3.049   4.749 -1.1263  0.3360  0.9967
 2748SOL    HW219878   2.421   2.981   4.805  2.8429 -0.8108  3.2706
 2749SOL     OW19879   3.581   2.805   0.260 -0.0484  0.2499  0.3303
 2749SOL    HW119880   3.608   2.766   0.177  0.4872  1.0911  0.1091
 2749SOL    HW219881   3.487   2.788   0.257 -0.1249  0.3343  2.0088
 2750SOL     OW19882   0.707   2.634   4.722  0.3671  0.2128 -0.3822
 2750SOL    HW119883   0.728   2.545   4.752  1.6900 -0.0922 -2.2176
 2750SOL    HW219884   0.775   2.658   4.660 -0.0357  2.3577  0.0083
 2751SOL     OW19885   0.622   2.766   9.095  0.1544 -1.1683  0.4222
 2751SOL    HW119886   0.598   2.831   9.162  0.4881 -0.5126 -0.0980
 2751SOL    HW219887   0.628   2.694   9.158  0.6151 -0.0475  1.6560
 2752SOL     OW19888   0.717   1.480   1.273 -0.2980 -0.0321  0.1993
 2752SOL    HW119889   0.749   1.562   1.311 -0.5104  0.1098  0.0705
 2752SOL    HW219890   0.760   1.413   1.326  0.4582  0.3982  0.1412
 2753SOL     OW19891   1.382   2.994  15.771 -0.6253 -0.5058 -0.1253
 2753SOL    HW119892   1.382   2.976  15.677 -1.1106 -0.6813 -0.0918
 2753SOL    HW219893   1.374   3.090  15.774 -0.5969 -0.4560 -1.6456
 2754SOL     OW19894   2.278   3.596  13.741 -0.4760 -0.1549  0.0228
 2754SOL    HW119895   2.307   3.638  13.661 -1.0052  2.4091  1.1940
 2754SOL    HW219896   2.356   3.543  13.757 -0.7485 -0.1975  1.2698
 2755SOL     OW19897   3.347   3.764   8.726 -0.3404  0.1080 -0.3189
 2755SOL    HW119898   3.371   3.825   8.796 -1.8211  0.6300 -0.2759
 2755SOL    HW219899   3.372   3.822   8.654  0.4430 -0.9277 -0.8771
 2756SOL     OW19900   2.455   3.120   5.513  0.0318 -0.1561  0.3680
 2756SOL    HW119901   2.518   3.136   5.582 -0.7524 -2.0730  1.5070
 2756SOL    HW219902   2.512   3.080   5.447 -0.5224 -0.2837 -0.0390
 2757SOL     OW19903   0.785   0.536  13.385 -0.3802  0.2506 -0.0026
 2757SOL    HW119904   0.694   0.510  13.400  0.2470 -0.6778  2.2508
 2757SOL    HW219905   0.810   0.582  13.465 -2.7768  3.2608 -0.9608
 2758SOL     OW19906   2.862   0.353   2.251  0.1039  0.0200 -0.1356
 2758SOL    HW119907   2.791   0.416   2.265  0.0959 -0.4855  2.1696
 2758SOL    HW219908   2.929   0.420   2.244  3.3340 -3.5330 -3.3172
 2759SOL     OW19909   1.453   4.186   8.595  0.3341  0.0074  0.0858
 2759SOL    HW119910   1.476   4.195   8.687  0.7838 -0.9607  0.0746
 2759SOL    HW219911   1.526   4.228   8.549 -0.1784 -4.2499 -4.6874
 2760SOL     OW19912   3.763   4.333  15.236 -0.1990 -0.5251 -0.0325
 2760SOL    HW119913   3.676   4.321  15.198 -0.1607 -3.0418  0.7052
 2760SOL    HW219914   3.770   4.286  15.319 -0.3567 -1.5189 -0.5904
 2761SOL     OW19915   0.508   2.623   7.718  0.6162 -0.1060  0.3777
 2761SOL    HW119916   0.491   2.609   7.811  2.6634  1.4070  0.9650
 2761SOL    HW219917   0.503   2.531   7.691 -1.9993 -0.7734  3.1390
 2762SOL     OW19918   0.743   1.578   3.111  0.1590 -0.8920 -0.1699
 2762SOL    HW119919   0.757   1.508   3.174  0.9363  0.6298  1.3400
 2762SOL    HW219920   0.811   1.564   3.045 -0.2064  0.0352 -0.7547
 2763SOL     OW19921   3.674   4.327   5.474 -0.0681  0.4656 -0.9829
 2763SOL    HW119922   3.661   4.257   5.538 -1.5155  0.6032 -1.1388
 2763SOL    HW219923   3.769   4.319   5.461  0.1310  1.8875 -0.2913
 2764SOL     OW19924   4.149   1.618   2.593 -0.4523 -0.1415  0.8330
 2764SOL    HW119925   4.196   1.662   2.522 -0.6394  0.4138  1.0548
 2764SOL    HW219926   4.078   1.569   2.551 -1.0300  0.0873  1.5591
 2765SOL     OW19927   0.863   1.669   7.130  0.4506  0.5391  0.0846
 2765SOL    HW119928   0.859   1.621   7.213 -2.0780  2.4148  1.0800
 2765SOL    HW219929   0.879   1.755   7.168  1.7306  0.9480 -1.3867
 2766SOL     OW19930   2.594   0.205   5.930 -0.0616  0.3079  0.2676
 2766SOL    HW119931   2.588   0.300   5.935 -2.2300  0.1932 -0.4071
 2766SOL    HW219932   2.534   0.170   5.996  0.6030 -0.2802  0.5585
 2767SOL     OW19933   2.713   0.873   6.209 -0.0834  0.5838 -0.0503
 2767SOL    HW119934   2.684   0.863   6.299  0.7755 -1.1944  0.0318
 2767SOL    HW219935   2.711   0.968   6.201  0.4347  0.5767 -0.2697
 2768SOL     OW19936   1.916   2.686   7.851 -0.8067 -0.1902 -0.0345
 2768SOL    HW119937   1.948   2.643   7.930 -1.1532 -0.3906 -0.0032
 2768SOL    HW219938   1.941   2.626   7.781 -3.3120 -0.7309 -0.4731
 2769SOL     OW19939   0.474   0.729  13.417  0.0944 -0.1227  0.2084
 2769SOL    HW119940   0.534   0.784  13.367  1.0867 -3.3598 -2.1544
 2769SOL    HW219941   0.520   0.713  13.499 -1.8025 -0.7329  1.1568
 2770SOL     OW19942   0.490   3.161   5.437 -0.3277 -0.5916 -0.7147
 2770SOL    HW119943   0.503   3.127   5.526  0.2343  1.0807 -0.1455
 2770SOL    HW219944   0.395   3.147   5.432 -0.4583  0.3951 -1.1272
 2771SOL     OW19945   0.196   1.671   0.468  0.3549  0.2860  0.2733
 2771SOL    HW119946   0.205   1.581   0.438  0.6298  0.1706  0.7093
 2771SOL    HW219947   0.253   1.714   0.404  2.6535 -2.1457  0.7198
 2772SOL     OW19948   1.451   1.517   4.912 -0.3703 -0.1187 -0.5574
 2772SOL    HW119949   1.480   1.434   4.951 -2.7329 -1.9004 -2.6078
 2772SOL    HW219950   1.361   1.528   4.942  0.3396  1.5134  0.9981
 2773SOL     OW19951   4.570   1.712   7.231 -0.3033 -0.3914 -0.4329
 2773SOL    HW119952   4.650   1.675   7.268  0.3645 -0.2223 -1.7053
 2773SOL    HW219953   4.586   1.805   7.250  1.2493 -0.5782 -0.8142
 2774SOL     OW19954   4.212   1.254   1.539 -0.4787 -0.0614  0.2971
 2774SOL    HW119955   4.187   1.327   1.594 -0.9939 -1.0149  1.3335
 2774SOL    HW219956   4.148   1.267   1.469 -0.2272  0.4649  0.1692
 2775SOL     OW19957   2.885   0.469   5.342  0.1088 -0.1490 -0.0861
 2775SOL    HW119958   2.897   0.382   5.306 -0.1424 -0.1055 -0.2683
 2775SOL    HW219959   2.923   0.445   5.427 -2.3891 -1.1792  0.7289
 2776SOL     OW19960   2.817   1.328  15.591  0.1518 -0.1585  0.5240
 2776SOL    HW119961   2.754   1.265  15.555 -0.2166  0.5247 -0.0104
 2776SOL    HW219962   2.781   1.408  15.555  1.4849  0.4880  0.6252
 2777SOL     OW19963   4.595   2.477   3.534 -0.5381 -0.2538  0.2611
 2777SOL    HW119964   4.689   2.463   3.542 -0.0408  1.8238 -2.1222
 2777SOL    HW219965   4.604   2.570   3.513  0.4462 -0.4418 -0.1715
 2778SOL     OW19966   3.759   1.526   1.582 -0.6832 -0.0841 -0.2065
 2778SOL    HW119967   3.799   1.544   1.497 -1.7743  1.3950 -0.4169
 2778SOL    HW219968   3.695   1.596   1.576  0.7558  0.9402 -3.8314
 2779SOL     OW19969   3.035   4.104   4.836  0.3774  0.1133  0.0438
 2779SOL    HW119970   2.970   4.046   4.874 -0.8056  1.6211  0.3157
 2779SOL    HW219971   2.990   4.185   4.862 -0.9226 -0.3350 -0.8370
 2780SOL     OW19972   1.224   1.360   6.543 -0.3822 -0.1760  0.4676
 2780SOL    HW119973   1.187   1.306   6.474  0.3765  0.9701 -0.8350
 2780SOL    HW219974   1.148   1.374   6.600 -0.6247  0.8591 -0.1006
 2781SOL     OW19975   0.393   1.880   5.655 -0.0057  0.0615 -0.2769
 2781SOL    HW119976   0.390   1.787   5.679  2.1978 -0.8129 -3.3422
 2781SOL    HW219977   0.392   1.886   5.560 -0.4924  1.4781 -0.1755
 2782SOL     OW19978   2.529   2.406  13.444  0.0602 -0.2437  0.2229
 2782SOL    HW119979   2.596   2.421  13.377 -0.9662 -1.6896 -1.1104
 2782SOL    HW219980   2.541   2.312  13.449  0.9102 -0.2073 -1.0589
 2783SOL     OW19981   1.386   3.808   6.019 -0.2578 -0.6045 -0.6196
 2783SOL    HW119982   1.338   3.869   5.963  2.6637  1.7417 -0.6160
 2783SOL    HW219983   1.397   3.852   6.103 -0.9728 -0.6434 -0.5077
 2784SOL     OW19984   3.836   0.550   7.854  0.1603  0.5146 -0.3030
 2784SOL    HW119985   3.795   0.478   7.902 -0.5927  0.5182 -0.9395
 2784SOL    HW219986   3.849   0.503   7.772 -0.3528  0.6330 -0.4513
 2785SOL     OW19987   4.038   3.482   2.084 -0.4896 -0.2381  0.2066
 2785SOL    HW119988   3.944   3.472   2.069 -0.6190  1.3110 -0.0068
 2785SOL    HW219989   4.066   3.522   2.002 -0.4923  0.5088  0.5685
 2786SOL     OW19990   0.523   2.568   6.594  0.4885 -0.1307  0.8119
 2786SOL    HW119991   0.514   2.647   6.542 -0.9861 -0.1513  1.0502
 2786SOL    HW219992   0.485   2.590   6.679 -0.3318  0.2161  0.3428
 2787SOL     OW19993   0.582   0.622   6.492 -0.0707 -0.1361  0.2080
 2787SOL    HW119994   0.658   0.569   6.466 -0.4782 -1.0500  0.8994
 2787SOL    HW219995   0.563   0.577   6.574  1.5113 -2.2948 -0.5999
 2788SOL     OW19996   3.083   1.552   6.282  0.2359 -0.0904  0.0767
 2788SOL    HW119997   3.005   1.585   6.326 -0.1184  0.1827 -0.7436
 2788SOL    HW219998   3.110   1.487   6.347  2.7163  3.3503  2.4450
 2789SOL     OW19999   2.389   1.656  17.206 -0.5953 -0.0522 -0.0741
 2789SOL    HW120000   2.437   1.637  17.125  0.6609  2.9144 -0.0312
 2789SOL    HW220001   2.324   1.718  17.173  1.5225  1.2945 -1.7425
 2790SOL     OW20002   0.848   1.840   5.540 -0.1400  0.0292  0.1756
 2790SOL    HW120003   0.929   1.819   5.586 -0.3273 -0.3080  0.3588
 2790SOL    HW220004   0.791   1.763   5.549 -1.3023  0.7950 -0.5969
 2791SOL     OW20005   4.643   0.603   4.160  0.0965 -0.1451  0.5871
 2791SOL    HW120006   4.552   0.633   4.161 -0.4068 -1.6457 -0.2590
 2791SOL    HW220007   4.679   0.643   4.081 -0.4746  1.2824  1.0541
 2792SOL     OW20008   4.642   0.359   5.732 -0.7042  0.1621  0.1964
 2792SOL    HW120009   4.605   0.309   5.660  1.1720 -0.8653 -0.0641
 2792SOL    HW220010   4.654   0.298   5.805  0.4442 -3.0113 -2.6219
 2793SOL     OW20011   3.532   1.963  11.792 -0.1368 -0.3059 -0.3746
 2793SOL    HW120012   3.531   1.933  11.701 -2.7417  1.2052 -0.8446
 2793SOL    HW220013   3.624   1.980  11.811 -0.1762  0.0489 -0.5001
 2794SOL     OW20014   3.600   4.526   3.227 -0.1338 -0.6312 -1.0254
 2794SOL    HW120015   3.512   4.529   3.191 -0.4624 -0.3260 -0.1865
 2794SOL    HW220016   3.630   4.617   3.225  2.3232 -1.4058  0.2623
 2795SOL     OW20017   1.688   0.415   3.920  0.0393  0.3177 -0.0140
 2795SOL    HW120018   1.592   0.414   3.924  0.0817 -0.3627  0.8265
 2795SOL    HW220019   1.702   0.461   3.838  0.7971  0.8487  0.4134
 2796SOL     OW20020   2.803   2.666   2.364 -0.0765 -0.0624 -0.0456
 2796SOL    HW120021   2.842   2.580   2.379  0.7962  0.1417 -1.2137
 2796SOL    HW220022   2.714   2.636   2.347 -0.2595  0.5061 -0.0894
 2797SOL     OW20023   0.279   2.492   7.908 -0.4713 -0.4641  0.2570
 2797SOL    HW120024   0.265   2.584   7.884  0.2269 -0.4469 -0.0801
 2797SOL    HW220025   0.327   2.495   7.990  0.7182  2.0011 -0.5387
 2798SOL     OW20026   1.798   3.123   5.873  0.0451 -0.2681  0.9581
 2798SOL    HW120027   1.774   3.214   5.855  2.9651  0.4939  0.8702
 2798SOL    HW220028   1.874   3.131   5.931 -0.0017 -0.2893  1.0214
 2799SOL     OW20029   3.393   1.506   3.127  0.9950 -0.3449 -0.0313
 2799SOL    HW120030   3.382   1.588   3.080  0.0035  0.1295  1.0318
 2799SOL    HW220031   3.365   1.446   3.058  0.0461  0.4534 -0.3397
 2800SOL     OW20032   4.044   1.261   3.555 -0.1850 -0.0050  0.2939
 2800SOL    HW120033   4.000   1.346   3.551  0.6066  0.3390 -1.3177
 2800SOL    HW220034   4.011   1.242   3.467  3.0028  0.6508 -1.0427
 2801SOL     OW20035   2.241   4.255   9.978 -0.1797  0.3900 -0.4643
 2801SOL    HW120036   2.208   4.165   9.971  0.9772 -0.1180  0.7295
 2801SOL    HW220037   2.221   4.298   9.895 -0.6731 -0.3666 -0.7400
 2802SOL     OW20038   1.590   4.450   4.373 -0.4055 -0.3488 -0.0516
 2802SOL    HW120039   1.589   4.543   4.354  0.6281  0.1425  2.2523
 2802SOL    HW220040   1.517   4.431   4.432  0.3549 -0.8874  0.7387
 2803SOL     OW20041   0.505   1.557   1.615 -0.5548  0.5419 -0.8228
 2803SOL    HW120042   0.417   1.545   1.649  0.3102 -1.5436  0.7203
 2803SOL    HW220043   0.551   1.473   1.616  0.5840  1.1794  0.3605
 2804SOL     OW20044   3.017   2.250   3.925  0.2419  0.0203  0.1761
 2804SOL    HW120045   2.932   2.245   3.969 -0.3822  0.5850 -0.9467
 2804SOL    HW220046   3.068   2.293   3.994  3.3423 -0.6089 -1.7563
 2805SOL     OW20047   1.046   2.508   4.424 -0.1516  0.3253 -0.2809
 2805SOL    HW120048   1.065   2.593   4.465  1.0289 -0.1635  0.1922
 2805SOL    HW220049   0.951   2.506   4.413 -0.2442  0.7764  0.4123
 2806SOL     OW20050   2.061   2.614   6.983  0.3057  0.1790  0.5305
 2806SOL    HW120051   2.066   2.591   6.890  2.5307 -1.5901  1.0850
 2806SOL    HW220052   2.151   2.636   7.005  0.7103 -0.6849 -0.2614
 2807SOL     OW20053   1.108   3.204   7.377 -1.0165  0.2873  0.0611
 2807SOL    HW120054   1.187   3.200   7.431 -0.3286 -2.2301 -1.1380
 2807SOL    HW220055   1.113   3.127   7.321  3.2292 -0.2325  1.1578
 2808SOL     OW20056   4.568   1.376   8.029 -0.4693 -0.4149 -0.6378
 2808SOL    HW120057   4.495   1.426   7.993 -0.9269 -0.4015  0.3113
 2808SOL    HW220058   4.642   1.417   7.983 -0.1473  0.5097  0.7146
 2809SOL     OW20059   4.341   3.614   2.088 -0.1935  0.3661  0.0721
 2809SOL    HW120060   4.408   3.568   2.138 -0.9249  1.8890  2.4417
 2809SOL    HW220061   4.365   3.574   2.004 -0.9175  1.6171 -0.7245
 2810SOL     OW20062   4.124   4.459   3.175 -0.4663  0.8513 -0.1615
 2810SOL    HW120063   4.065   4.502   3.237  1.9767 -1.0933  3.5097
 2810SOL    HW220064   4.100   4.367   3.179  0.2285  0.7674  1.7644
 2811SOL     OW20065   3.908   3.218   3.614  0.5558 -0.2097  0.6750
 2811SOL    HW120066   3.896   3.298   3.666  0.9458 -0.2340  0.8014
 2811SOL    HW220067   3.858   3.157   3.668 -0.6509 -1.8568 -2.3392
 2812SOL     OW20068   3.960   3.623   0.489  0.0652  0.0485 -0.7318
 2812SOL    HW120069   3.878   3.654   0.451 -1.3337 -0.2828  2.0327
 2812SOL    HW220070   3.957   3.637   0.584  0.0760  1.5188 -0.9434
 2813SOL     OW20071   3.103   4.492  14.076 -0.8392 -0.1826  0.3876
 2813SOL    HW120072   3.078   4.584  14.089 -0.1238  0.3502 -2.0294
 2813SOL    HW220073   3.189   4.512  14.040 -1.7724  0.9026 -1.2463
 2814SOL     OW20074   4.725   4.366   0.844  0.2218  0.8754  0.0973
 2814SOL    HW120075   0.010   4.447   0.800  1.4506  0.1087 -0.5818
 2814SOL    HW220076   4.631   4.380   0.845  0.0952  0.0392 -1.7261
 2815SOL     OW20077   4.092   4.143   3.141  0.3017  0.5903 -0.4087
 2815SOL    HW120078   4.030   4.192   3.086 -0.6734  0.6126  0.7164
 2815SOL    HW220079   4.067   4.051   3.143  0.7829  0.4993  1.1291
 2816SOL     OW20080   4.615   4.646  12.416 -0.2554 -0.0953  0.0110
 2816SOL    HW120081   4.636   4.636  12.324 -1.0346  0.5883 -0.2425
 2816SOL    HW220082   4.686   4.705  12.441 -1.1537  0.4919  1.2116
 2817SOL     OW20083   2.532   0.106  17.374  0.8588  0.3145  0.5841
 2817SOL    HW120084   2.446   0.106  17.416  1.3015  0.2228  1.4885
 2817SOL    HW220085   2.601   0.079  17.434 -0.4848 -0.0321  1.9433
 2818SOL     OW20086   4.164   2.022   0.474  0.9573 -0.1553 -0.0413
 2818SOL    HW120087   4.169   1.957   0.545 -1.2533  1.0232  1.2051
 2818SOL    HW220088   4.122   1.964   0.410  2.1881 -2.7136  1.4797
 2819SOL     OW20089   2.059   2.894   4.233 -0.4881 -0.0820  0.3521
 2819SOL    HW120090   2.112   2.838   4.290 -0.0319  0.2661  0.2689
 2819SOL    HW220091   1.994   2.830   4.204 -0.5335 -0.6526  1.7249
 2820SOL     OW20092   3.846   0.690  12.612 -0.0249  0.2726  0.3992
 2820SOL    HW120093   3.805   0.619  12.661 -2.0104  0.0276 -1.6301
 2820SOL    HW220094   3.763   0.717  12.572  0.2590 -0.8403 -0.9478
 2821SOL     OW20095   0.830   1.178  10.879 -0.4747  0.1397  0.2060
 2821SOL    HW120096   0.848   1.244  10.812 -0.5894 -0.0367 -0.0016
 2821SOL    HW220097   0.903   1.171  10.941  1.2094  1.8209 -1.5799
 2822SOL     OW20098   2.408   2.766   5.961 -0.2345  0.2180  0.2820
 2822SOL    HW120099   2.393   2.842   6.017  0.4965  0.3846  0.2563
 2822SOL    HW220100   2.333   2.710   5.980 -0.0660 -0.4472 -1.0244
 2823SOL     OW20101   3.495   4.356   7.068 -0.5314 -0.0924  0.4649
 2823SOL    HW120102   3.404   4.333   7.050  0.0919 -1.3197 -1.1872
 2823SOL    HW220103   3.509   4.426   7.005 -1.0137 -0.2913  0.1365
 2824SOL     OW20104   2.095   1.930   3.027  0.2833  0.9041  0.1814
 2824SOL    HW120105   2.029   1.901   3.089  1.3552 -2.0240 -0.0479
 2824SOL    HW220106   2.148   1.850   3.024 -0.4970  0.3927  0.1545
 2825SOL     OW20107   0.264   0.671  10.163 -0.5832  0.0074 -0.6330
 2825SOL    HW120108   0.304   0.586  10.181 -0.1057  0.5040  0.6750
 2825SOL    HW220109   0.343   0.725  10.170 -1.0131  0.6307 -0.5446
 2826SOL     OW20110   1.238   0.603   3.724  0.4559  0.0466 -0.6212
 2826SOL    HW120111   1.182   0.543   3.674  0.3715 -0.1440 -0.3020
 2826SOL    HW220112   1.181   0.678   3.711  2.1061  0.7456 -3.8823
 2827SOL     OW20113   4.439   1.048   2.935 -0.4378 -0.7834  0.1065
 2827SOL    HW120114   4.440   1.138   2.969  0.6240 -1.0510  0.8117
 2827SOL    HW220115   4.349   1.021   2.951 -1.5694  2.9248  0.0013
 2828SOL     OW20116   0.277   1.885   8.392 -0.2589  0.4551 -0.6528
 2828SOL    HW120117   0.317   1.799   8.383 -0.2934  0.4097 -0.3757
 2828SOL    HW220118   0.349   1.942   8.364 -0.7418  1.2231 -0.3467
 2829SOL     OW20119   4.033   1.435   8.262 -0.5221 -0.1394 -1.1329
 2829SOL    HW120120   3.941   1.436   8.289 -0.2979 -0.7278 -0.3490
 2829SOL    HW220121   4.035   1.500   8.192  0.1511 -0.6660 -1.6106
 2830SOL     OW20122   3.502   3.794   7.352  0.1196 -0.0026 -0.6083
 2830SOL    HW120123   3.589   3.758   7.371  0.7287  2.5516  1.3937
 2830SOL    HW220124   3.472   3.727   7.291  1.0214 -1.4185  0.4873
 2831SOL     OW20125   0.707   1.409  14.506 -0.7734 -0.0483  0.3692
 2831SOL    HW120126   0.685   1.395  14.598  0.7170  2.7046  1.1644
 2831SOL    HW220127   0.782   1.352  14.488  0.1935  1.5832 -0.7366
 2832SOL     OW20128   1.205   1.299  16.063  0.5142  0.0240 -0.5115
 2832SOL    HW120129   1.113   1.314  16.042  0.2140  2.2499  2.2630
 2832SOL    HW220130   1.220   1.272  15.973 -0.0791 -0.4769 -0.4582
 2833SOL     OW20131   3.220   0.163  12.553  0.0619 -0.6042  0.0603
 2833SOL    HW120132   3.315   0.166  12.546  0.0853  0.4919  0.9236
 2833SOL    HW220133   3.192   0.132  12.466 -2.0784  1.5040 -0.0124
 2834SOL     OW20134   4.489   0.533   5.390  0.0894  0.2427 -0.2359
 2834SOL    HW120135   4.524   0.446   5.369 -0.8618 -0.1504 -0.2055
 2834SOL    HW220136   4.546   0.560   5.462  0.3859 -2.3993  0.5413
 2835SOL     OW20137   1.176   0.560   2.327  0.0734 -0.5012  0.1962
 2835SOL    HW120138   1.264   0.581   2.296 -0.5928 -1.0448 -2.0960
 2835SOL    HW220139   1.169   0.611   2.407  0.2840 -0.1659 -0.0006
 2836SOL     OW20140   1.400   0.049   3.304  0.3034 -0.4005  0.7039
 2836SOL    HW120141   1.411   0.144   3.308 -0.0719 -0.2441 -2.0368
 2836SOL    HW220142   1.317   0.044   3.257  1.0719 -0.3368 -0.6360
 2837SOL     OW20143   1.567   1.364   8.781 -0.0710 -0.0321  0.4180
 2837SOL    HW120144   1.487   1.414   8.794  0.3905  0.1957  2.4455
 2837SOL    HW220145   1.541   1.311   8.706 -0.7837  0.6885  0.1591
 2838SOL     OW20146   3.346   1.190   6.082 -0.1360  0.0410  0.0758
 2838SOL    HW120147   3.276   1.245   6.049  0.6203  0.3628 -0.9795
 2838SOL    HW220148   3.406   1.231   6.144  0.9787 -2.3211  0.5844
 2839SOL     OW20149   2.093   0.970   5.493 -0.0817 -0.0500  0.2012
 2839SOL    HW120150   2.053   1.039   5.442 -1.0726 -0.7843 -0.0166
 2839SOL    HW220151   2.181   1.003   5.475 -0.4507  1.1331  0.5760
 2840SOL     OW20152   3.658   2.191   2.237 -0.5317  0.1611  0.9781
 2840SOL    HW120153   3.588   2.206   2.300 -1.4439 -1.1224  0.2589
 2840SOL    HW220154   3.699   2.277   2.253 -1.5129  1.2278 -2.2672
 2841SOL     OW20155   3.875   1.284   4.737 -0.7546 -0.1013 -0.6984
 2841SOL    HW120156   3.909   1.248   4.655 -1.6159 -0.9557 -0.6794
 2841SOL    HW220157   3.811   1.220   4.769  2.9988 -2.2848  2.4286
 2842SOL     OW20158   0.930   1.486   4.324 -0.9373 -0.1981  0.5135
 2842SOL    HW120159   0.941   1.549   4.396  1.8813 -1.1177  0.9043
 2842SOL    HW220160   0.945   1.404   4.371  0.5273  0.2434  0.8249
 2843SOL     OW20161   3.220   2.814   4.954  0.3421  0.0008 -0.5945
 2843SOL    HW120162   3.158   2.817   5.027  0.8780 -1.5733 -0.0780
 2843SOL    HW220163   3.196   2.729   4.915  0.7488 -0.2464 -0.3085
 2844SOL     OW20164   0.893   2.236   2.026 -0.0205  0.5566  0.6296
 2844SOL    HW120165   0.832   2.205   2.093 -1.2396 -0.6671 -1.0455
 2844SOL    HW220166   0.860   2.326   2.021 -0.7458  0.3535  1.7763
 2845SOL     OW20167   3.510   4.005  17.216 -0.4348 -0.3922 -0.4246
 2845SOL    HW120168   3.502   4.100  17.221  2.2301 -0.3033  2.8287
 2845SOL    HW220169   3.472   3.983  17.131  3.3985 -2.0342 -1.7192
 2846SOL     OW20170   1.736   1.884  13.889  0.2390 -0.2618 -0.1253
 2846SOL    HW120171   1.674   1.948  13.924 -0.5281  0.5744 -3.0978
 2846SOL    HW220172   1.693   1.870  13.805 -0.3462  0.1496  0.1026
 2847SOL     OW20173   0.461   2.037   5.862 -0.0814 -0.0146 -0.4609
 2847SOL    HW120174   0.441   1.976   5.791  0.0035 -1.1161  0.4684
 2847SOL    HW220175   0.461   2.123   5.819  1.4516 -0.3780 -1.2127
 2848SOL     OW20176   2.776   0.803   4.597 -0.3102  0.3336  0.2014
 2848SOL    HW120177   2.737   0.757   4.523  0.3548 -0.8404  0.5815
 2848SOL    HW220178   2.783   0.733   4.661  0.0277  0.1126 -0.0803
 2849SOL     OW20179   0.901   1.777   2.765 -0.0466  0.0989 -0.1370
 2849SOL    HW120180   0.870   1.702   2.714  0.7527  0.6796 -1.4759
 2849SOL    HW220181   0.866   1.853   2.719 -2.2695 -0.9751 -0.2147
 2850SOL     OW20182   0.859   1.407  12.696 -0.4684 -0.2233  0.0478
 2850SOL    HW120183   0.789   1.467  12.669  0.2052  0.7895  0.5580
 2850SOL    HW220184   0.888   1.368  12.613  0.6663  0.8534 -0.0592
 2851SOL     OW20185   2.628   2.703   7.831  0.1747 -0.2616 -0.5275
 2851SOL    HW120186   2.614   2.733   7.741 -1.0479 -0.1149 -0.2878
 2851SOL    HW220187   2.541   2.720   7.868  0.9143  0.7733  0.7124
 2852SOL     OW20188   4.648   1.566  13.929 -0.1302 -0.2262 -0.2403
 2852SOL    HW120189   4.604   1.490  13.966 -2.3549  0.0937 -2.2088
 2852SOL    HW220190   4.634   1.554  13.835 -1.0644 -1.2816  0.0261
 2853SOL     OW20191   3.022   2.771   8.092 -0.2529 -0.4592  0.4622
 2853SOL    HW120192   3.085   2.701   8.107 -0.0378 -0.1150  1.1957
 2853SOL    HW220193   2.948   2.752   8.150 -0.4683 -0.2677  0.2501
 2854SOL     OW20194   0.910   2.453   3.271 -0.3864 -0.5032 -0.4521
 2854SOL    HW120195   0.946   2.501   3.345  0.8265 -4.1075  1.2628
 2854SOL    HW220196   0.986   2.422   3.222 -0.3469  2.6705 -2.4533
 2855SOL     OW20197   0.689   1.967   2.016 -0.4184  0.9398 -0.8146
 2855SOL    HW120198   0.710   1.909   1.943 -1.8424 -1.9458  1.0596
 2855SOL    HW220199   0.629   1.911   2.066  1.9679 -0.5764  0.3501
 2856SOL     OW20200   1.215   4.332   2.859 -0.4673  0.0046 -0.6592
 2856SOL    HW120201   1.256   4.410   2.896 -2.2332 -0.4056  2.1776
 2856SOL    HW220202   1.177   4.374   2.781  0.4263 -1.6559 -1.9907
 2857SOL     OW20203   4.467   3.636  15.277  0.3222  0.7582  0.2647
 2857SOL    HW120204   4.543   3.629  15.220  0.8614 -0.2648  1.1094
 2857SOL    HW220205   4.487   3.708  15.336  0.7380  0.6805  0.2171
 2858SOL     OW20206   3.172   2.889   3.232  0.7059  0.3747 -0.4907
 2858SOL    HW120207   3.258   2.874   3.194  1.1749  0.9523  0.3350
 2858SOL    HW220208   3.198   2.853   3.317 -0.9519  1.1098  0.3303
 2859SOL     OW20209   3.227   1.696   7.496 -0.0988 -0.0936  0.4237
 2859SOL    HW120210   3.258   1.774   7.451  3.0312  0.8481  4.2845
 2859SOL    HW220211   3.141   1.730   7.520  0.1940 -1.2919  3.1850
 2860SOL     OW20212   3.103   1.307  13.328 -0.8066 -0.4212 -0.0350
 2860SOL    HW120213   3.046   1.265  13.264 -1.1788 -0.0759  0.0669
 2860SOL    HW220214   3.182   1.261  13.298  0.8423  1.3712  1.5189
 2861SOL     OW20215   4.233   3.051   2.193  0.5497  0.0126  0.5778
 2861SOL    HW120216   4.195   2.985   2.252 -2.1325 -0.3739 -1.5548
 2861SOL    HW220217   4.156   3.077   2.142 -1.5918  0.7718  4.2347
 2862SOL     OW20218   3.849   1.353  14.100  0.3007  0.1204 -0.0163
 2862SOL    HW120219   3.927   1.346  14.045 -1.3844 -0.1429 -2.3511
 2862SOL    HW220220   3.869   1.419  14.166  0.7759  2.3797 -2.4347
 2863SOL     OW20221   1.676   0.442  12.522  0.1610  0.3172 -0.1925
 2863SOL    HW120222   1.716   0.387  12.590  1.4261  1.2980 -0.1472
 2863SOL    HW220223   1.744   0.509  12.519  0.1001  0.3732 -0.3249
 2864SOL     OW20224   0.062   3.035   0.992 -0.0653  0.5255  0.6188
 2864SOL    HW120225   0.017   2.951   1.005  1.1135 -0.1893 -0.0135
 2864SOL    HW220226   0.010   3.090   0.933 -1.3838 -0.1460  1.1572
 2865SOL     OW20227   1.173   0.169   9.791 -0.1612  0.3406 -0.0701
 2865SOL    HW120228   1.247   0.166   9.852 -0.5874  0.8610  0.4744
 2865SOL    HW220229   1.232   0.153   9.717  1.1178  0.5303  0.9045
 2866SOL     OW20230   0.482   4.385  15.416  0.2049  0.0157 -0.7555
 2866SOL    HW120231   0.576   4.366  15.411  0.1693 -0.1827 -0.6720
 2866SOL    HW220232   0.491   4.467  15.368 -0.0424  0.9994  0.8718
 2867SOL     OW20233   2.386   2.089  11.201 -0.1709 -0.4264 -0.2274
 2867SOL    HW120234   2.429   2.051  11.277 -0.6399 -1.6126 -0.5517
 2867SOL    HW220235   2.457   2.129  11.151  1.8982 -0.0903  3.0104
 2868SOL     OW20236   1.234   3.601  16.178  0.0261  0.0701  0.8161
 2868SOL    HW120237   1.264   3.690  16.197 -1.0318  0.0808  2.3482
 2868SOL    HW220238   1.318   3.554  16.186 -0.4112 -0.9594 -0.6271
 2869SOL     OW20239   2.064   2.816   5.482 -0.6905  0.1748  1.1806
 2869SOL    HW120240   2.122   2.892   5.474 -0.6005  0.0503  0.6289
 2869SOL    HW220241   2.031   2.826   5.571  2.1166  3.5980  1.8272
 2870SOL     OW20242   0.534   1.537   0.593  0.2106  0.1994  0.2429
 2870SOL    HW120243   0.450   1.492   0.609  1.1047 -1.1271  1.1836
 2870SOL    HW220244   0.550   1.494   0.509  0.3463 -0.0909  0.4188
 2871SOL     OW20245   3.921   4.704   3.667 -0.4405 -0.2050 -0.5481
 2871SOL    HW120246   3.839   4.702   3.716  0.8828 -2.7446  1.5941
 2871SOL    HW220247   3.947   0.055   3.664  1.5523 -0.7705 -0.6433
 2872SOL     OW20248   3.224   3.206   1.908  0.3857 -0.4271 -0.4141
 2872SOL    HW120249   3.307   3.207   1.860  1.0125  3.3821  0.7320
 2872SOL    HW220250   3.161   3.224   1.839  2.2912 -1.8472 -2.5331
 2873SOL     OW20251   3.209   0.516  17.092  0.0106 -0.3233  0.1420
 2873SOL    HW120252   3.134   0.471  17.131  0.0763 -1.3528 -0.9388
 2873SOL    HW220253   3.200   0.486  17.002  1.4238 -3.2812  0.9814
 2874SOL     OW20254   4.165   0.610   1.902 -0.1328 -0.0780 -0.4787
 2874SOL    HW120255   4.099   0.654   1.957  0.8246 -1.1935  1.5328
 2874SOL    HW220256   4.190   0.542   1.964 -1.1146 -0.7616 -0.8256
 2875SOL     OW20257   3.527   2.538   6.315  0.7109  0.8520 -0.4057
 2875SOL    HW120258   3.433   2.523   6.320  1.1326 -1.9842 -1.1613
 2875SOL    HW220259   3.555   2.485   6.390 -0.0651  1.2224  0.1423
 2876SOL     OW20260   4.518   1.596   1.637  0.3261 -0.2522  0.4049
 2876SOL    HW120261   4.464   1.556   1.568  0.2604 -2.3390  1.6640
 2876SOL    HW220262   4.598   1.630   1.597  0.3315 -1.5175 -0.6863
 2877SOL     OW20263   2.806   0.479   6.008  0.0724 -0.4299  0.0433
 2877SOL    HW120264   2.819   0.523   6.092 -0.4502  2.0141 -1.1594
 2877SOL    HW220265   2.745   0.534   5.958 -1.5101 -1.5178  0.7740
 2878SOL     OW20266   0.327   2.499   4.462 -0.0306  0.0194  0.6642
 2878SOL    HW120267   0.379   2.547   4.397 -0.8907  2.1018  1.5287
 2878SOL    HW220268   0.374   2.516   4.543  1.4359  1.7612 -0.5607
 2879SOL     OW20269   0.803   2.984  12.512  0.0326 -0.3301  0.0830
 2879SOL    HW120270   0.875   3.032  12.472  0.0074  2.1774  3.1516
 2879SOL    HW220271   0.731   2.988  12.448 -0.4636  1.2180  0.7414
 2880SOL     OW20272   3.560   4.536   6.029  0.6031 -0.3150  0.0879
 2880SOL    HW120273   3.564   4.554   5.935 -0.2256 -1.2269 -0.1305
 2880SOL    HW220274   3.649   4.550   6.062  1.1342 -0.4113 -1.3271
 2881SOL     OW20275   1.088   3.068   2.286  0.4452  0.1750  0.3866
 2881SOL    HW120276   1.113   3.145   2.234  0.6420  0.0137  0.2446
 2881SOL    HW220277   1.168   3.019   2.268  0.3274  0.0689  0.1486
 2882SOL     OW20278   2.964   4.332   4.613  0.2415  0.0731  0.3419
 2882SOL    HW120279   2.936   4.349   4.703  0.8886 -0.0682  0.5671
 2882SOL    HW220280   2.898   4.268   4.585  0.2881  0.5844 -0.9220
 2883SOL     OW20281   4.569   3.779   3.196  0.2698 -0.0938  0.1880
 2883SOL    HW120282   4.598   3.786   3.287 -1.3120  0.0195  0.6783
 2883SOL    HW220283   4.644   3.736   3.155  0.5241 -0.9707  1.5780
 2884SOL     OW20284   3.494   1.796  17.269  0.3315 -0.0503  0.7165
 2884SOL    HW120285   3.418   1.762  17.317  0.0563 -0.1932  0.1822
 2884SOL    HW220286   3.506   1.871  17.327 -3.7670  0.4223  0.9860
 2885SOL     OW20287   0.772   0.205   2.865 -0.6311  0.3726  0.0874
 2885SOL    HW120288   0.721   0.125   2.855  0.4383 -0.5072  1.8190
 2885SOL    HW220289   0.727   0.257   2.797  0.4355  0.9260 -0.1938
 2886SOL     OW20290   0.122   3.848   4.668  0.4130  0.1877  0.5184
 2886SOL    HW120291   0.212   3.819   4.650 -0.0616 -0.7698 -0.3159
 2886SOL    HW220292   0.075   3.765   4.679  0.4001  0.2726  1.1169
 2887SOL     OW20293   4.383   1.244  12.117  0.9004 -0.2999  0.1318
 2887SOL    HW120294   4.420   1.313  12.062  2.6874 -1.8773 -0.6494
 2887SOL    HW220295   4.410   1.281  12.201 -0.2313  2.1165 -0.5828
 2888SOL     OW20296   3.781   0.253   9.330  0.0073  0.5047  0.4522
 2888SOL    HW120297   3.730   0.293   9.401 -0.6663 -0.8593  0.7450
 2888SOL    HW220298   3.861   0.304   9.315  1.1510 -0.7712  2.2703
 2889SOL     OW20299   0.210   2.351  17.194 -0.2132  0.0260  0.6300
 2889SOL    HW120300   0.225   2.263  17.159  1.1603 -0.1532  1.6812
 2889SOL    HW220301   0.297   2.391  17.192 -0.4656  0.3393 -3.7664
 2890SOL     OW20302   2.644   2.560  10.706 -0.4102 -0.2832  0.0900
 2890SOL    HW120303   2.712   2.541  10.771 -1.3178  0.7016  1.3288
 2890SOL    HW220304   2.645   2.656  10.703 -0.4774 -0.2974 -0.3266
 2891SOL     OW20305   0.957   0.999   2.389 -0.4500  0.1220  0.1076
 2891SOL    HW120306   0.942   1.029   2.299 -1.6987 -0.1590  0.2266
 2891SOL    HW220307   1.052   1.013   2.393  0.1709 -4.5902  2.0032
 2892SOL     OW20308   0.269   0.287   4.385  0.6172 -0.0561  0.0716
 2892SOL    HW120309   0.359   0.298   4.355  0.2051  2.3151 -0.3481
 2892SOL    HW220310   0.289   0.244   4.467 -0.9495 -0.3628  0.3058
 2893SOL     OW20311   0.042   1.334   3.915 -0.0976 -0.2692  0.0858
 2893SOL    HW120312   4.697   1.311   3.879 -0.0082 -3.6948  2.0724
 2893SOL    HW220313   0.080   1.393   3.850  0.7059  0.9111  1.6338
 2894SOL     OW20314   0.374   2.799   8.262 -0.2653  0.7380 -0.2130
 2894SOL    HW120315   0.433   2.778   8.334  0.3170 -3.5407 -1.9225
 2894SOL    HW220316   0.366   2.715   8.216  1.1909  0.1011  0.7081
 2895SOL     OW20317   2.734   2.190  12.280 -0.0831 -0.1126 -0.3189
 2895SOL    HW120318   2.794   2.189  12.355  0.8634  3.1825 -1.0531
 2895SOL    HW220319   2.735   2.094  12.272 -1.2765 -0.0523 -1.1393
 2896SOL     OW20320   4.679   2.671   5.541  0.1434  0.0739 -0.0610
 2896SOL    HW120321   0.020   2.712   5.570  1.8564 -2.8027 -0.8735
 2896SOL    HW220322   4.629   2.670   5.623 -0.2107 -1.2638 -0.3009
 2897SOL     OW20323   2.882   0.800   8.043  0.6602 -0.5200  0.3856
 2897SOL    HW120324   2.930   0.720   8.022  1.2451 -0.5361  1.7920
 2897SOL    HW220325   2.952   0.855   8.078  0.3777  0.0913  0.0026
 2898SOL     OW20326   2.532   1.664   2.833 -0.0383 -0.1926  0.4979
 2898SOL    HW120327   2.486   1.584   2.807  0.5465  0.5980 -3.0307
 2898SOL    HW220328   2.568   1.695   2.750 -1.2414 -1.5117 -0.5145
 2899SOL     OW20329   0.276   1.353   4.809  0.5413  0.4027 -0.0292
 2899SOL    HW120330   0.275   1.269   4.762 -1.6089  0.8780 -0.8574
 2899SOL    HW220331   0.367   1.380   4.801  0.3885  1.2324  1.0488
 2900SOL     OW20332   1.820   0.758   3.437 -0.1535 -0.0429 -0.4676
 2900SOL    HW120333   1.869   0.713   3.506 -1.1494 -0.4401 -0.0123
 2900SOL    HW220334   1.825   0.849   3.467 -1.4508 -0.6864  1.6988
 2901SOL     OW20335   3.967   1.970  17.090  0.4669  0.1590  0.2745
 2901SOL    HW120336   4.059   1.981  17.114 -0.5544  1.5885  3.5525
 2901SOL    HW220337   3.955   2.048  17.035 -1.0393 -0.4366 -0.2443
 2902SOL     OW20338   2.616   1.187  15.471 -0.5160 -0.3911  0.1719
 2902SOL    HW120339   2.617   1.133  15.392 -0.5786 -0.5417  0.2734
 2902SOL    HW220340   2.546   1.248  15.448  0.4134  0.3994 -0.5834
 2903SOL     OW20341   2.154   4.195   4.345  0.2146  0.2800  0.1362
 2903SOL    HW120342   2.151   4.099   4.338  3.1820  0.2067 -0.1404
 2903SOL    HW220343   2.164   4.211   4.439  0.9578 -1.4244  0.3519
 2904SOL     OW20344   1.515   2.592  10.321  0.2525  0.0723 -0.2980
 2904SOL    HW120345   1.604   2.625  10.313 -1.2194  3.9023 -1.0006
 2904SOL    HW220346   1.498   2.532  10.249  0.5089 -0.8715  0.4204
 2905SOL     OW20347   2.378   3.112  17.407 -0.0124  0.2435  0.0349
 2905SOL    HW120348   2.418   3.198  17.411 -0.4375  0.4253  0.3992
 2905SOL    HW220349   2.395   3.085  17.317  2.4180  1.4180  0.1583
 2906SOL     OW20350   0.680   3.146   4.539  0.0825 -0.0227  0.2373
 2906SOL    HW120351   0.746   3.099   4.590 -1.0436 -0.2285  1.5117
 2906SOL    HW220352   0.654   3.219   4.595  1.9616  0.9147 -0.1082
 2907SOL     OW20353   4.066   0.307   3.794  0.1958 -1.0896  0.4183
 2907SOL    HW120354   4.144   0.271   3.837 -0.1355 -0.8722  1.2128
 2907SOL    HW220355   4.086   0.400   3.797 -0.1879 -0.9629 -1.0760
 2908SOL     OW20356   0.739   1.556  10.839 -0.6826 -0.7178  0.5657
 2908SOL    HW120357   0.713   1.573  10.930  1.1104  2.2051  0.5481
 2908SOL    HW220358   0.825   1.517  10.853 -0.4670  0.2797  1.9498
 2909SOL     OW20359   2.618   0.183   7.868  0.6515 -0.3668  0.3159
 2909SOL    HW120360   2.620   0.101   7.819 -0.5377 -1.0787  1.4671
 2909SOL    HW220361   2.552   0.163   7.934  0.5886 -1.9816 -0.2407
 2910SOL     OW20362   1.459   1.932   9.379  0.2367 -0.0188 -0.0784
 2910SOL    HW120363   1.414   2.017   9.380 -0.2616 -0.2665 -1.2509
 2910SOL    HW220364   1.427   1.912   9.467 -2.0546  1.6574 -0.5114
 2911SOL     OW20365   1.239   1.401  14.751  0.8635 -0.0599 -0.3437
 2911SOL    HW120366   1.254   1.493  14.774 -0.3976  0.5040 -1.7720
 2911SOL    HW220367   1.149   1.414  14.721  1.0922 -0.2252 -1.1011
 2912SOL     OW20368   3.948   1.896  12.729  0.0467 -0.5801  0.0640
 2912SOL    HW120369   4.017   1.923  12.669 -0.4819 -0.1134 -0.3223
 2912SOL    HW220370   4.001   1.847  12.793  0.7259 -0.1957 -0.2054
 2913SOL     OW20371   3.714   4.476   4.424 -1.1409  0.0486 -0.0523
 2913SOL    HW120372   3.679   4.553   4.468 -1.7846 -1.0819  1.4006
 2913SOL    HW220373   3.808   4.492   4.418 -1.2012  0.2463 -0.4384
 2914SOL     OW20374   4.356   2.792   4.823  0.4747  0.6464  0.7594
 2914SOL    HW120375   4.261   2.788   4.833  0.1943  2.2285 -1.2204
 2914SOL    HW220376   4.378   2.883   4.839  0.3579  0.7058  0.5865
 2915SOL     OW20377   0.647   3.853   3.080 -0.5001 -0.3206  0.1862
 2915SOL    HW120378   0.638   3.860   3.175 -0.0268  1.1321  0.1182
 2915SOL    HW220379   0.647   3.757   3.074  1.3422 -0.3239  0.3661
 2916SOL     OW20380   2.161   4.541   6.621  0.4169 -0.4629  0.0983
 2916SOL    HW120381   2.152   4.538   6.716 -2.0438 -1.0694 -0.1561
 2916SOL    HW220382   2.214   4.620   6.611  0.3008  0.2275  5.4651
 2917SOL     OW20383   3.408   3.482  11.517 -0.3939  0.1453  0.0644
 2917SOL    HW120384   3.408   3.551  11.451  0.6662 -2.4173 -2.5965
 2917SOL    HW220385   3.411   3.400  11.469  2.0640 -0.2226  0.8769
 2918SOL     OW20386   4.429   4.687  13.749  0.5035  0.5478  0.4028
 2918SOL    HW120387   4.378   4.681  13.668 -0.8688  1.5023  1.1947
 2918SOL    HW220388   4.403   0.034  13.776  0.4085  0.3048  1.1038
 2919SOL     OW20389   1.315   0.924   9.909  0.0416  0.3258 -0.2800
 2919SOL    HW120390   1.327   0.867   9.833 -0.5699 -2.6153  1.8095
 2919SOL    HW220391   1.257   0.994   9.880  1.7440  0.8045 -2.4964
 2920SOL     OW20392   3.283   4.529  10.685 -0.5016  0.1269  0.1141
 2920SOL    HW120393   3.276   4.584  10.607 -1.4678 -3.0506 -2.0513
 2920SOL    HW220394   3.189   4.510  10.692 -0.3216 -1.3195 -1.3921
 2921SOL     OW20395   3.591   1.272   4.592 -0.8166 -0.0446 -1.1787
 2921SOL    HW120396   3.642   1.251   4.514 -1.6724 -0.0441 -1.7381
 2921SOL    HW220397   3.535   1.335   4.548 -0.9397  0.5678 -0.1490
 2922SOL     OW20398   3.799   4.181   8.558 -0.0573  0.1567  0.3814
 2922SOL    HW120399   3.740   4.151   8.490  0.0218 -2.4787  1.4918
 2922SOL    HW220400   3.878   4.203   8.508  1.6984  0.0275  3.0547
 2923SOL     OW20401   2.937   3.596   2.776  0.2186  0.1808  0.6680
 2923SOL    HW120402   2.975   3.684   2.775 -0.0437  0.3179  2.8305
 2923SOL    HW220403   2.975   3.546   2.703 -0.6374 -0.0495  0.3771
 2924SOL     OW20404   0.862   3.510  10.660 -0.3165 -0.5286  0.3982
 2924SOL    HW120405   0.799   3.537  10.594 -1.0395 -0.8295  0.9650
 2924SOL    HW220406   0.813   3.433  10.691  0.0872 -0.4679  1.2003
 2925SOL     OW20407   2.378   3.976  13.429  0.0921  0.2012  0.2902
 2925SOL    HW120408   2.374   4.001  13.337  2.1367 -0.5795 -0.0039
 2925SOL    HW220409   2.457   3.923  13.419  0.1323 -0.1939  2.7696
 2926SOL     OW20410   4.574   3.898  15.405  0.6943 -0.3062 -0.3293
 2926SOL    HW120411   4.535   3.903  15.493  1.2708  0.3988 -0.1173
 2926SOL    HW220412   4.525   3.966  15.358 -1.1834 -0.4811  1.3604
 2927SOL     OW20413   2.395   0.545  11.578  0.0772 -0.2225  0.0345
 2927SOL    HW120414   2.355   0.590  11.652  3.7237  1.1271  1.1883
 2927SOL    HW220415   2.453   0.617  11.551  0.2823 -0.4168 -0.0444
 2928SOL     OW20416   2.835   3.294  16.421  0.7469 -0.2488  0.2330
 2928SOL    HW120417   2.861   3.376  16.463 -1.3142 -0.8931  2.7362
 2928SOL    HW220418   2.812   3.237  16.494  0.8699  0.6005  0.9344
 2929SOL     OW20419   0.040   0.346   6.188 -0.9062  0.1965 -0.2398
 2929SOL    HW120420   0.041   0.292   6.268  1.8398  1.1362  0.3924
 2929SOL    HW220421   0.074   0.284   6.123 -1.2730  0.3272 -0.5520
 2930SOL     OW20422   1.508   3.249   3.619 -0.2511 -0.3638 -0.1228
 2930SOL    HW120423   1.424   3.275   3.582  0.1220  0.4274 -0.4282
 2930SOL    HW220424   1.568   3.230   3.547 -0.1643 -2.8998  0.6150
 2931SOL     OW20425   3.050   1.256   8.429 -0.0609 -0.4201  0.0096
 2931SOL    HW120426   2.985   1.187   8.418 -1.5923  0.3844  3.9126
 2931SOL    HW220427   3.000   1.336   8.414 -0.5137 -0.5164  0.9902
 2932SOL     OW20428   2.727   1.289   1.574  0.3285  0.4951  0.0731
 2932SOL    HW120429   2.675   1.247   1.505  1.3287  0.7650 -0.8554
 2932SOL    HW220430   2.750   1.220   1.635 -1.1005  0.7225  0.8657
 2933SOL     OW20431   1.260   1.547   1.581 -0.7913 -0.4042  0.1307
 2933SOL    HW120432   1.289   1.455   1.585  1.7452  0.2724 -2.6818
 2933SOL    HW220433   1.310   1.578   1.506 -0.5798 -1.6873 -0.2583
 2934SOL     OW20434   1.017   2.117   8.561 -0.2373 -0.0813 -0.6856
 2934SOL    HW120435   1.084   2.154   8.618 -0.8055 -2.5165  1.5821
 2934SOL    HW220436   0.985   2.185   8.503 -0.9611  1.2900  1.3025
 2935SOL     OW20437   2.791   2.679   7.496 -0.8150 -0.4283  0.3843
 2935SOL    HW120438   2.703   2.715   7.506 -1.2798 -0.9912 -1.7066
 2935SOL    HW220439   2.832   2.718   7.573  1.7732 -1.0090 -0.7236
 2936SOL     OW20440   4.102   0.880  17.191  0.0854 -0.7610 -0.5344
 2936SOL    HW120441   4.087   0.970  17.164 -0.5098 -0.7387 -0.1292
 2936SOL    HW220442   4.022   0.872  17.243  0.2600 -0.4349 -0.2126
 2937SOL     OW20443   2.493   1.997   5.389  0.3561 -0.0628 -0.3316
 2937SOL    HW120444   2.523   2.083   5.359 -0.5411  0.4923  0.3976
 2937SOL    HW220445   2.546   1.994   5.468  1.6130  0.8376 -1.1200
 2938SOL     OW20446   1.404   1.410   5.478 -0.0112 -0.1561 -0.2035
 2938SOL    HW120447   1.455   1.450   5.407  1.0469 -0.6832  0.2634
 2938SOL    HW220448   1.458   1.428   5.554  0.0265 -1.5496  0.0955
 2939SOL     OW20449   3.568   3.381   3.389  0.1555 -0.0293  0.3809
 2939SOL    HW120450   3.481   3.387   3.350  0.5607 -1.2263 -0.7142
 2939SOL    HW220451   3.631   3.383   3.317 -1.4178  1.9001 -0.9718
 2940SOL     OW20452   2.281   3.989  14.097  0.4076  0.6617  0.0808
 2940SOL    HW120453   2.244   3.912  14.140  0.7967  0.0431 -0.6799
 2940SOL    HW220454   2.230   4.067  14.119 -0.0869  0.1790  0.6208
 2941SOL     OW20455   3.580   0.383   3.802 -0.3209 -0.3972  0.2125
 2941SOL    HW120456   3.631   0.311   3.764 -0.3675  1.1721 -2.7828
 2941SOL    HW220457   3.488   0.359   3.790 -1.1311  3.0883 -0.5735
 2942SOL     OW20458   0.182   0.797  16.811  0.0028  1.0589 -0.0631
 2942SOL    HW120459   0.246   0.734  16.844  0.0768  1.7230  1.0609
 2942SOL    HW220460   0.125   0.802  16.888 -0.1690  0.9981 -0.1876
 2943SOL     OW20461   3.270   3.828   6.741 -0.0386  0.0449  0.0464
 2943SOL    HW120462   3.187   3.860   6.776 -1.2371 -2.0203 -0.8977
 2943SOL    HW220463   3.313   3.792   6.818 -0.2621  0.1459  0.2176
 2944SOL     OW20464   2.049   4.657   5.947  0.4748  0.0223  0.3115
 2944SOL    HW120465   1.991   4.722   5.908  0.2585  0.2954  1.0875
 2944SOL    HW220466   2.094   4.631   5.866 -0.3495  2.0555 -0.7858
 2945SOL     OW20467   3.182   2.768   9.873 -0.3084 -0.1642 -0.1898
 2945SOL    HW120468   3.153   2.816   9.796  0.2835 -1.1652 -1.0333
 2945SOL    HW220469   3.231   2.837   9.917 -0.8091 -2.0855  3.3873
 2946SOL     OW20470   1.576   3.715   6.249  0.7324  0.2230  0.4945
 2946SOL    HW120471   1.547   3.638   6.298 -0.9350  0.2720 -0.4108
 2946SOL    HW220472   1.553   3.788   6.306  2.5737 -0.2935  1.8797
 2947SOL     OW20473   1.365   1.390   3.937 -0.1455 -0.4697 -0.4313
 2947SOL    HW120474   1.454   1.356   3.939 -0.0876 -0.3871 -1.2293
 2947SOL    HW220475   1.327   1.353   4.016 -1.6033  4.2620  1.0737
 2948SOL     OW20476   4.702   0.987   8.211  0.1379  0.3563 -0.6226
 2948SOL    HW120477   4.686   1.079   8.233 -0.7135  0.0634 -0.0163
 2948SOL    HW220478   4.632   0.969   8.149  0.6470  0.9543 -1.3616
 2949SOL     OW20479   2.267   2.881   8.581  0.0550  0.1991  0.1991
 2949SOL    HW120480   2.352   2.870   8.540 -0.3396  1.0549 -0.8522
 2949SOL    HW220481   2.210   2.830   8.523 -0.3369  2.2983 -1.2708
 2950SOL     OW20482   1.993   1.648   1.139  0.4291 -0.1227 -0.3812
 2950SOL    HW120483   1.904   1.617   1.157 -0.0011  2.7865  2.5634
 2950SOL    HW220484   2.031   1.565   1.110 -3.3638 -1.5122 -1.4853
 2951SOL     OW20485   0.841   1.582   4.056 -0.0719  0.6126  0.2987
 2951SOL    HW120486   0.845   1.498   4.100 -0.0413  0.3914 -0.1321
 2951SOL    HW220487   0.897   1.570   3.979  0.2431 -4.0351  1.2496
 2952SOL     OW20488   4.089   2.185   5.226  0.4772  0.2481  0.6686
 2952SOL    HW120489   4.004   2.161   5.261  1.0955 -1.4155  1.0508
 2952SOL    HW220490   4.086   2.121   5.155  2.1742  2.5786 -1.5034
 2953SOL     OW20491   1.514   4.438   5.330  0.2305 -0.4999 -0.4970
 2953SOL    HW120492   1.502   4.533   5.330  1.6365 -0.3162 -2.4860
 2953SOL    HW220493   1.429   4.397   5.345 -1.2184  3.4065  1.9278
 2954SOL     OW20494   4.246   2.583   2.255 -0.3545 -0.2395  0.4154
 2954SOL    HW120495   4.337   2.584   2.283 -0.4086  2.1326  0.5142
 2954SOL    HW220496   4.257   2.583   2.160 -1.0513  1.2317  0.3414
 2955SOL     OW20497   2.355   1.288  13.374  0.1003 -0.0333  0.2449
 2955SOL    HW120498   2.268   1.327  13.372  0.4774  0.7761 -0.1395
 2955SOL    HW220499   2.391   1.303  13.461 -0.2894 -1.1825  0.6103
 2956SOL     OW20500   3.455   0.085  15.903  0.3037 -0.0959  0.2431
 2956SOL    HW120501   3.391   0.154  15.884  0.1459  0.2795  2.1887
 2956SOL    HW220502   3.424   0.065  15.991 -0.1217 -2.0975 -0.3603
 2957SOL     OW20503   4.300   2.060   2.041 -0.3931  0.3690  0.1618
 2957SOL    HW120504   4.228   2.122   2.041 -2.1381 -1.6575  1.0927
 2957SOL    HW220505   4.296   2.049   2.136  1.7641 -0.7706  0.1173
 2958SOL     OW20506   0.216   1.114  10.574  0.1920  0.3195 -0.1985
 2958SOL    HW120507   0.220   1.202  10.536  3.9486  0.2455 -0.0167
 2958SOL    HW220508   0.121   1.107  10.571  0.3375 -1.0991 -1.6562
 2959SOL     OW20509   2.745   2.448  13.258 -0.4074  0.0698 -0.4780
 2959SOL    HW120510   2.751   2.531  13.211  0.6824 -0.0004 -0.4691
 2959SOL    HW220511   2.801   2.480  13.328  0.9145 -0.9433 -1.0750
 2960SOL     OW20512   4.165   4.399   6.515  0.0856 -0.1560 -0.2344
 2960SOL    HW120513   4.072   4.380   6.501 -0.4706  1.5283  1.2084
 2960SOL    HW220514   4.177   4.478   6.463  1.4520 -1.2283 -1.5616
 2961SOL     OW20515   4.492   1.924   0.642 -0.8393 -0.0867 -0.5055
 2961SOL    HW120516   4.511   1.978   0.565  2.0681  1.7723  1.4953
 2961SOL    HW220517   4.581   1.894   0.661  0.0803  1.5979 -2.0912
 2962SOL     OW20518   3.042   2.802  12.334 -0.6546  0.9109  0.7123
 2962SOL    HW120519   3.126   2.785  12.376 -1.4568 -0.9705  1.5331
 2962SOL    HW220520   3.019   2.719  12.293  0.2854 -0.5716  3.1908
 2963SOL     OW20521   4.442   1.157   8.887  0.0486  0.7976 -0.2926
 2963SOL    HW120522   4.483   1.190   8.807 -0.3260 -0.0415 -0.8310
 2963SOL    HW220523   4.400   1.076   8.858  1.9937 -0.7571  1.2530
 2964SOL     OW20524   1.675   1.114   7.867  0.1021 -0.2246 -0.2798
 2964SOL    HW120525   1.743   1.158   7.917 -1.7032  2.3456 -0.0970
 2964SOL    HW220526   1.655   1.186   7.807 -0.7134  1.4037  1.9406
 2965SOL     OW20527   3.557   1.716  15.802  0.2103  0.0280 -0.1561
 2965SOL    HW120528   3.560   1.713  15.898 -0.1989  0.9049 -0.1148
 2965SOL    HW220529   3.466   1.695  15.783  0.0231 -0.4856  1.3314
 2966SOL     OW20530   3.466   0.657   6.202 -0.4172 -0.0790  0.0473
 2966SOL    HW120531   3.373   0.640   6.189 -0.0742 -2.0656  0.1531
 2966SOL    HW220532   3.501   0.582   6.154 -2.9984 -1.9118  1.0571
 2967SOL     OW20533   2.451   1.111  16.432  0.0650  0.0068 -0.1548
 2967SOL    HW120534   2.444   1.029  16.384  0.0712 -0.7550  1.1297
 2967SOL    HW220535   2.363   1.118  16.467  0.0228 -1.7915  0.1115
 2968SOL     OW20536   3.245   0.340   2.924  0.3995  0.0352 -0.0418
 2968SOL    HW120537   3.269   0.252   2.954 -0.4892 -0.9493 -2.2744
 2968SOL    HW220538   3.305   0.336   2.850 -1.1529 -0.0446 -1.3069
 2969SOL     OW20539   2.632   0.891   8.904  0.0716  0.1030  0.0446
 2969SOL    HW120540   2.568   0.825   8.876 -1.7489  1.0287  2.0087
 2969SOL    HW220541   2.616   0.885   8.998 -0.9805 -0.2529 -0.1504
 2970SOL     OW20542   4.647   4.343   9.889  0.0256  0.6496  0.2506
 2970SOL    HW120543   4.597   4.355   9.808 -2.0120  1.2905  1.6248
 2970SOL    HW220544   4.683   4.254   9.891  0.4292  0.8642  2.7666
 2971SOL     OW20545   1.226   2.040   2.902  0.4541  0.2921 -0.1758
 2971SOL    HW120546   1.285   2.019   2.974 -0.2484  0.7422  0.5318
 2971SOL    HW220547   1.152   1.986   2.931 -0.1935  0.5429 -1.3167
 2972SOL     OW20548   2.131   1.789  16.706  0.4102 -0.8447 -0.1487
 2972SOL    HW120549   2.163   1.879  16.694 -1.3246 -0.4045 -1.3739
 2972SOL    HW220550   2.175   1.748  16.631 -0.5682 -0.5494 -0.8790
 2973SOL     OW20551   4.194   1.029   5.637  0.2214 -0.7583 -0.0084
 2973SOL    HW120552   4.108   1.016   5.676  0.2873  0.7438  0.6104
 2973SOL    HW220553   4.203   0.949   5.585 -1.0683 -1.2126  0.4701
 2974SOL     OW20554   1.602   3.770   7.334 -0.0794 -0.6561  0.2042
 2974SOL    HW120555   1.566   3.707   7.397  2.4208 -2.1791  0.1174
 2974SOL    HW220556   1.677   3.714   7.315 -0.6817 -1.4256  0.0907
 2975SOL     OW20557   3.835   1.673   8.453  0.0544 -0.2739  0.0611
 2975SOL    HW120558   3.825   1.606   8.520  1.0345 -0.2698  0.2075
 2975SOL    HW220559   3.862   1.619   8.378 -0.2589 -1.9813  1.1818
 2976SOL     OW20560   2.160   1.490   5.290 -0.8636  0.4497  0.2579
 2976SOL    HW120561   2.238   1.492   5.345  0.6305  1.1495 -1.8702
 2976SOL    HW220562   2.198   1.453   5.210  2.6338 -1.6283  2.8650
 2977SOL     OW20563   1.808   0.740   6.505  0.4992 -0.2739 -0.2897
 2977SOL    HW120564   1.751   0.679   6.458 -1.8950  0.0175  2.2156
 2977SOL    HW220565   1.799   0.823   6.458  0.5910  0.1454  0.4228
 2978SOL     OW20566   0.315   4.459  14.227 -1.1275 -0.0954 -0.1237
 2978SOL    HW120567   0.393   4.478  14.174 -0.8342  0.4700  0.5134
 2978SOL    HW220568   0.323   4.364  14.229 -1.9406 -0.1876 -1.3787
 2979SOL     OW20569   2.785   3.721   6.655 -0.2265 -0.3031 -0.7578
 2979SOL    HW120570   2.720   3.734   6.724  1.0277 -0.7703  0.4997
 2979SOL    HW220571   2.742   3.660   6.595  1.2583 -1.8433 -0.2430
 2980SOL     OW20572   4.344   1.515   7.925  0.0773 -0.1828 -0.2669
 2980SOL    HW120573   4.360   1.581   7.857 -0.1425  0.0704 -0.0728
 2980SOL    HW220574   4.256   1.485   7.902  1.2967 -2.3525 -2.1252
 2981SOL     OW20575   1.627   2.789   4.937 -0.0869 -0.1702  0.0299
 2981SOL    HW120576   1.671   2.711   4.904 -1.6464 -2.1903  2.6792
 2981SOL    HW220577   1.674   2.812   5.017  0.1547  0.4958 -0.3054
 2982SOL     OW20578   0.214   4.644  17.114 -0.1638  0.3110 -0.0515
 2982SOL    HW120579   0.299   4.681  17.090  0.6381 -0.7145  1.2154
 2982SOL    HW220580   0.173   4.728  17.136  0.6693  0.5520  0.5927
 2983SOL     OW20581   3.884   4.673   6.574  0.0218  0.2820  0.4938
 2983SOL    HW120582   3.808   4.705   6.526  0.5792 -0.2389 -0.7401
 2983SOL    HW220583   3.945   4.658   6.502 -1.5397  0.0637 -0.7900
 2984SOL     OW20584   0.141   2.483  12.191  0.4665 -0.3869 -0.0118
 2984SOL    HW120585   0.122   2.409  12.133  1.7302 -0.5538 -0.2174
 2984SOL    HW220586   0.235   2.465  12.193  0.9076  1.8417 -0.4821
 2985SOL     OW20587   1.731   3.716   3.703  0.1680  0.0365 -0.9130
 2985SOL    HW120588   1.781   3.772   3.762 -0.2631 -0.4773 -0.0705
 2985SOL    HW220589   1.657   3.700   3.760  0.8249 -0.2176 -0.1353
 2986SOL     OW20590   2.875   3.411   3.710 -0.0138 -0.2915 -0.0722
 2986SOL    HW120591   2.781   3.394   3.700  0.1365 -0.9631 -0.3118
 2986SOL    HW220592   2.896   3.453   3.626  0.5362 -1.8126 -0.6968
 2987SOL     OW20593   1.507   3.492   7.749 -0.0333 -0.4585 -0.2047
 2987SOL    HW120594   1.505   3.543   7.830 -1.7697  2.1387 -1.8347
 2987SOL    HW220595   1.418   3.491   7.712  1.1628 -0.7037 -3.1048
 2988SOL     OW20596   4.090   2.338   7.358 -0.0137  0.6281 -0.4248
 2988SOL    HW120597   4.067   2.246   7.351  0.9991  0.4799 -1.7302
 2988SOL    HW220598   4.117   2.357   7.268  0.1112  0.4878 -0.4172
 2989SOL     OW20599   2.395   0.632   1.700  0.0075  0.4410 -0.1009
 2989SOL    HW120600   2.480   0.598   1.728 -0.4421 -0.6890 -0.1261
 2989SOL    HW220601   2.355   0.552   1.665 -2.9373  1.9515 -0.2088
 2990SOL     OW20602   0.945   0.412  10.226 -0.5501  0.3580  0.6041
 2990SOL    HW120603   0.982   0.406  10.138 -2.6018 -0.5577 -0.1864
 2990SOL    HW220604   0.950   0.318  10.245 -0.1174  0.0275 -1.1588
 2991SOL     OW20605   1.798   2.727   5.936  0.0586 -0.2424  0.2042
 2991SOL    HW120606   1.893   2.728   5.923 -0.6027 -1.3944 -5.0181
 2991SOL    HW220607   1.781   2.636   5.959  1.7474 -0.4508  0.6402
 2992SOL     OW20608   3.774   4.694  15.128  0.1581 -0.1194 -0.0029
 2992SOL    HW120609   3.739   0.029  15.081  0.4692 -1.7179 -2.7990
 2992SOL    HW220610   3.785   4.633  15.054  0.1657  0.6796 -0.6566
 2993SOL     OW20611   3.990   4.251   8.888 -0.0066  0.3889  0.0050
 2993SOL    HW120612   3.938   4.232   8.965 -2.9754 -0.1714 -2.1386
 2993SOL    HW220613   3.998   4.161   8.855 -1.7003  0.0395  0.5897
 2994SOL     OW20614   1.016   3.425   3.359 -0.7633 -0.4069 -0.0806
 2994SOL    HW120615   1.090   3.485   3.364 -2.3769  1.5389  0.4282
 2994SOL    HW220616   1.016   3.418   3.454 -0.4313 -1.4929 -0.1576
 2995SOL     OW20617   2.855   2.197   5.838 -0.0633  0.4401  0.7614
 2995SOL    HW120618   2.907   2.275   5.817 -1.4139  0.7661 -1.3080
 2995SOL    HW220619   2.771   2.240   5.852  0.1074  1.3550 -1.1537
 2996SOL     OW20620   1.436   1.329   6.713  0.1259  0.0379  0.7009
 2996SOL    HW120621   1.440   1.234   6.705  2.6443 -0.0191  2.8364
 2996SOL    HW220622   1.365   1.352   6.652 -0.0054 -0.5580  0.6267
 2997SOL     OW20623   1.370   1.764  10.229  0.2244 -0.2460 -0.2283
 2997SOL    HW120624   1.296   1.741  10.284  1.1127  0.0491  1.0936
 2997SOL    HW220625   1.408   1.845  10.263 -0.1912 -0.3635  0.4942
 2998SOL     OW20626   4.102   1.334   1.981 -0.2468  0.0082 -0.6875
 2998SOL    HW120627   4.110   1.382   1.899  1.3712  0.6443 -0.1610
 2998SOL    HW220628   4.148   1.398   2.035  1.1757 -1.7951  0.2467
 2999SOL     OW20629   1.996   0.239   4.000  0.1205 -0.2573  0.4853
 2999SOL    HW120630   2.026   0.249   3.909 -3.4783 -0.1810 -0.6872
 2999SOL    HW220631   1.922   0.179   3.989  0.3044 -0.4892  0.5198
 3000SOL     OW20632   0.455   0.338   6.142  0.0671 -0.0858 -0.5032
 3000SOL    HW120633   0.399   0.366   6.215 -2.6180 -1.7679 -1.9123
 3000SOL    HW220634   0.517   0.274   6.176  0.0201 -0.3853 -0.9895
 3001SOL     OW20635   1.502   0.172   3.914 -0.3493 -0.1753  0.6879
 3001SOL    HW120636   1.533   0.149   4.002 -0.3516  0.2017  0.7867
 3001SOL    HW220637   1.471   0.087   3.883 -0.6182  0.6308 -1.2314
 3002SOL     OW20638   0.788   4.610   6.116 -0.1070  0.1203 -0.2422
 3002SOL    HW120639   0.758   4.699   6.096  1.1115  0.6857  0.4140
 3002SOL    HW220640   0.739   4.548   6.062 -0.0398  0.6454 -0.9182
 3003SOL     OW20641   2.710   3.487  13.472  0.4608 -0.0459  0.0576
 3003SOL    HW120642   2.762   3.567  13.476 -0.5661  0.7186 -1.8426
 3003SOL    HW220643   2.776   3.430  13.431  1.1123  0.6160  0.1936
 3004SOL     OW20644   0.930   0.040   7.315  0.2470 -0.1588 -0.4962
 3004SOL    HW120645   0.999   0.107   7.314 -0.8080  0.9238  0.7219
 3004SOL    HW220646   0.902   0.043   7.406 -0.3681 -2.8913 -0.5898
 3005SOL     OW20647   4.251   1.326   2.315  0.0075  0.5193 -0.1649
 3005SOL    HW120648   4.247   1.402   2.258  2.3708  0.5449 -0.2985
 3005SOL    HW220649   4.316   1.267   2.276  1.8671  1.7177  1.1494
 3006SOL     OW20650   0.626   1.663  11.562  0.2848  0.0229  0.2129
 3006SOL    HW120651   0.584   1.590  11.607  2.1688 -0.2191  1.5992
 3006SOL    HW220652   0.661   1.701  11.642  1.2892  0.7639 -0.5620
 3007SOL     OW20653   1.650   4.592  11.902 -0.3297 -0.0751  0.1670
 3007SOL    HW120654   1.601   4.672  11.882 -0.9731 -0.3182  0.7808
 3007SOL    HW220655   1.648   4.558  11.812  0.7473  0.2847  0.0069
 3008SOL     OW20656   0.147   0.896   1.350  0.1295  0.2085  0.4239
 3008SOL    HW120657   0.164   0.904   1.444 -0.4894  1.1911  0.4487
 3008SOL    HW220658   0.052   0.907   1.345 -0.1420 -1.5162  1.8772
 3009SOL     OW20659   3.496   2.156   9.967  0.4757 -0.4539  0.4938
 3009SOL    HW120660   3.558   2.133   9.897  0.1460  1.1999 -0.3480
 3009SOL    HW220661   3.518   2.091  10.033 -3.5846 -0.6145  1.6749
 3010SOL     OW20662   2.726   3.982  10.135  0.4678 -0.6321 -0.0339
 3010SOL    HW120663   2.653   3.931  10.098  1.6082 -1.0511 -1.7037
 3010SOL    HW220664   2.748   3.923  10.206 -1.4364  0.7970  1.7572
 3011SOL     OW20665   2.861   0.218   5.874  0.2368  0.1523  0.6961
 3011SOL    HW120666   2.858   0.299   5.924 -1.7077 -0.6085  1.8154
 3011SOL    HW220667   2.769   0.191   5.879  0.1433  0.4637  0.6506
 3012SOL     OW20668   2.363   0.622   8.247 -0.8705  0.1185 -0.0223
 3012SOL    HW120669   2.440   0.566   8.248 -0.7127  0.3181 -0.8729
 3012SOL    HW220670   2.386   0.684   8.178 -0.3338  0.4226  0.4394
 3013SOL     OW20671   0.217   0.998   5.549  0.0529  0.3724  0.0014
 3013SOL    HW120672   0.173   0.918   5.576  0.0653  0.5346  0.5070
 3013SOL    HW220673   0.256   1.029   5.631 -1.9210 -1.5517  1.6716
 3014SOL     OW20674   0.074   4.520   9.608  0.0362 -0.2186 -0.6796
 3014SOL    HW120675   0.150   4.529   9.550  0.6031  1.5779  0.3010
 3014SOL    HW220676   0.068   4.425   9.613  2.9452 -0.3608  0.8296
 3015SOL     OW20677   2.430   3.861   9.845  0.2266 -0.3301 -0.0017
 3015SOL    HW120678   2.482   3.782   9.864  1.1734  0.8108  2.1807
 3015SOL    HW220679   2.469   3.931   9.897  1.3620 -0.5740 -0.5236
 3016SOL     OW20680   2.659   1.564   6.681  0.0502  0.6760  0.7884
 3016SOL    HW120681   2.670   1.645   6.631 -0.4942  1.2901  1.6506
 3016SOL    HW220682   2.752   1.542   6.688 -0.0597 -0.5735 -1.9040
 3017SOL     OW20683   1.799   3.919   5.408 -0.3684 -0.2338 -0.1008
 3017SOL    HW120684   1.799   3.864   5.330  0.5976 -1.3200  0.6616
 3017SOL    HW220685   1.801   4.011   5.381  1.1974 -0.5493 -1.0272
 3018SOL     OW20686   1.824   3.169  13.342 -0.5028 -0.6545 -0.3760
 3018SOL    HW120687   1.813   3.263  13.325  1.6912 -0.1999  0.6486
 3018SOL    HW220688   1.838   3.138  13.252 -1.0869 -1.4251 -0.2034
 3019SOL     OW20689   3.408   0.516  14.012  0.3876  0.0008  0.0513
 3019SOL    HW120690   3.329   0.565  14.033  0.4214  0.1404 -0.1376
 3019SOL    HW220691   3.398   0.511  13.917 -0.4146 -0.5890  0.1655
 3020SOL     OW20692   0.913   4.574   2.472 -0.7075 -0.6454 -0.1913
 3020SOL    HW120693   0.862   4.647   2.507  0.0585 -0.7936  1.2075
 3020SOL    HW220694   0.887   4.581   2.380  0.7177 -0.8016 -0.6012
 3021SOL     OW20695   3.349   4.559   3.960 -0.1370 -0.2270  0.0267
 3021SOL    HW120696   3.411   4.493   3.991 -0.5580 -0.5478  0.1929
 3021SOL    HW220697   3.270   4.505   3.955 -0.7273  0.5133  1.5842
 3022SOL     OW20698   4.475   0.361   1.560 -0.0326  0.2020  0.4088
 3022SOL    HW120699   4.397   0.320   1.599  0.3735 -1.0882 -0.1367
 3022SOL    HW220700   4.521   0.372   1.643 -0.1538 -0.9684  0.6319
 3023SOL     OW20701   0.483   0.745   8.404 -0.8841  0.2605  0.1220
 3023SOL    HW120702   0.469   0.707   8.317 -1.7485 -0.4835  0.5825
 3023SOL    HW220703   0.549   0.812   8.386 -1.6710  0.8799 -0.4530
 3024SOL     OW20704   0.477   2.511   8.262 -0.1776 -0.0853  0.1312
 3024SOL    HW120705   0.533   2.495   8.338 -0.9821 -1.4402  0.4368
 3024SOL    HW220706   0.389   2.487   8.291 -0.3655  1.0650  0.5199
 3025SOL     OW20707   4.692   2.355   5.077  0.2239 -0.0205 -0.8482
 3025SOL    HW120708   0.021   2.394   5.130 -0.3811 -0.6279  0.4199
 3025SOL    HW220709   4.713   2.262   5.075  1.7554  0.3226 -0.7799
 3026SOL     OW20710   1.053   0.544   8.099  0.1331  0.0929 -0.4358
 3026SOL    HW120711   1.149   0.550   8.102  0.1263 -0.2389  0.6501
 3026SOL    HW220712   1.022   0.517   8.186  2.4021  4.2560  1.6800
 3027SOL     OW20713   4.695   1.927   7.526 -0.1750  0.5644  0.1877
 3027SOL    HW120714   4.692   2.005   7.471  0.3476 -0.0256 -0.6763
 3027SOL    HW220715   0.042   1.926   7.564 -0.1641  3.1540  0.2603
 3028SOL     OW20716   1.902   2.352  11.352  0.4519  0.4052  0.3342
 3028SOL    HW120717   1.939   2.367  11.439 -0.6959  2.4236  0.4690
 3028SOL    HW220718   1.814   2.320  11.374  0.7228 -0.8965 -0.4911
 3029SOL     OW20719   4.374   2.019   7.420  0.0490  0.6132  0.6525
 3029SOL    HW120720   4.383   1.939   7.472  0.8582  0.9411  1.0051
 3029SOL    HW220721   4.393   2.083   7.488  0.1489 -1.8498  2.9563
 3030SOL     OW20722   3.732   4.493  14.523 -0.4631  0.4016 -0.2801
 3030SOL    HW120723   3.745   4.400  14.503 -0.8934  0.9807 -3.2875
 3030SOL    HW220724   3.658   4.512  14.465 -0.4022  2.0849  0.1922
 3031SOL     OW20725   2.188   3.262   6.238  0.5386  0.2360  0.3317
 3031SOL    HW120726   2.213   3.352   6.220  3.7326 -0.6414  0.3444
 3031SOL    HW220727   2.169   3.273   6.331 -0.0879 -0.4344  0.2843
 3032SOL     OW20728   1.081   4.247   7.996 -0.2463  0.5991 -0.6004
 3032SOL    HW120729   1.085   4.282   8.085 -2.6875 -1.4182  0.2901
 3032SOL    HW220730   1.167   4.267   7.959  0.6539 -4.1106 -1.0233
 3033SOL     OW20731   3.924   3.643   5.081 -0.1117 -0.2362  0.0710
 3033SOL    HW120732   3.890   3.720   5.125 -0.7498  0.3616 -1.4700
 3033SOL    HW220733   3.859   3.577   5.105  1.7301 -1.8184  0.6703
 3034SOL     OW20734   1.968   2.525   2.807 -0.2615  0.3330  0.1152
 3034SOL    HW120735   2.005   2.611   2.823  0.4917  0.0493 -0.1329
 3034SOL    HW220736   1.943   2.486   2.891  0.5028  2.8101  1.4681
 3035SOL     OW20737   4.164   3.091   6.743  0.3010  0.7111  0.0436
 3035SOL    HW120738   4.231   3.158   6.752 -0.9766  1.7179  1.9759
 3035SOL    HW220739   4.208   3.011   6.714  0.1736 -0.1579  2.2608
 3036SOL     OW20740   2.491   3.258   7.993  0.3615  0.7280  0.5661
 3036SOL    HW120741   2.495   3.237   8.086  0.5194 -0.5330  0.2717
 3036SOL    HW220742   2.563   3.321   7.987  1.7118 -0.7454  1.3207
 3037SOL     OW20743   4.119   0.447   4.585 -0.2316  0.0413 -0.2356
 3037SOL    HW120744   4.181   0.381   4.553 -0.2400 -0.7201  1.3083
 3037SOL    HW220745   4.174   0.524   4.570 -1.0328  0.6587 -0.0219
 3038SOL     OW20746   3.554   0.005   7.541  0.4184 -0.2829 -0.1764
 3038SOL    HW120747   3.640   4.737   7.500  0.3475 -1.4834 -0.0688
 3038SOL    HW220748   3.580   0.067   7.609  0.7384  0.3024 -0.8307
 3039SOL     OW20749   1.647   2.451   3.192 -0.3389 -0.3358  0.2139
 3039SOL    HW120750   1.606   2.370   3.221 -0.2388 -1.4729 -2.8485
 3039SOL    HW220751   1.580   2.485   3.132 -0.0678 -0.4150 -0.1320
 3040SOL     OW20752   1.758   2.124   3.782  0.1926  0.4086 -0.3975
 3040SOL    HW120753   1.751   2.176   3.702 -2.6067 -0.1410 -0.5092
 3040SOL    HW220754   1.668   2.119   3.816  0.2992 -0.0429 -0.1716
 3041SOL     OW20755   4.483   0.952   8.069 -0.5072  0.1333 -0.0313
 3041SOL    HW120756   4.428   0.876   8.050  0.5102 -0.8633  0.9661
 3041SOL    HW220757   4.421   1.021   8.047 -0.0196  0.6366  0.1940
 3042SOL     OW20758   1.330   1.832   2.033  0.0139  0.0610 -0.6354
 3042SOL    HW120759   1.250   1.844   1.981 -1.6527 -0.6752  1.7481
 3042SOL    HW220760   1.332   1.915   2.080  1.9645 -0.3867  0.0744
 3043SOL     OW20761   3.777   3.523   6.254  0.6354  1.2859 -0.2062
 3043SOL    HW120762   3.811   3.590   6.312  0.1218  1.9602 -0.6829
 3043SOL    HW220763   3.851   3.483   6.207  0.1312 -1.2884  1.1819
 3044SOL     OW20764   1.330   3.181   8.430 -0.3166  0.9347  0.0180
 3044SOL    HW120765   1.363   3.222   8.350  0.8133 -0.5987 -0.2996
 3044SOL    HW220766   1.341   3.090   8.404 -2.8951 -0.4310  3.6768
 3045SOL     OW20767   3.947   0.904   2.612  0.2165 -0.0741 -0.6764
 3045SOL    HW120768   4.040   0.924   2.605  0.5105 -1.7128 -1.4401
 3045SOL    HW220769   3.940   0.873   2.702 -0.3080  2.2578  0.1086
 3046SOL     OW20770   1.462   2.898   5.297  0.1805 -0.3825  0.4142
 3046SOL    HW120771   1.441   2.990   5.281 -0.9934 -0.4370  1.7182
 3046SOL    HW220772   1.544   2.887   5.248 -1.7899  3.0158 -3.7253
 3047SOL     OW20773   4.631   1.362   2.340  0.2876  0.7552 -0.9104
 3047SOL    HW120774   4.562   1.321   2.289 -0.4582  0.5196  0.2776
 3047SOL    HW220775   4.583   1.367   2.423  0.5147  0.5731 -0.7673
 3048SOL     OW20776   2.939   1.951   6.479 -0.0864 -0.4563  0.9158
 3048SOL    HW120777   3.018   1.977   6.430 -1.1240 -1.7224 -1.4218
 3048SOL    HW220778   2.881   1.914   6.413 -0.1673  2.6506 -0.7770
 3049SOL     OW20779   1.375   2.827  15.980 -0.3523  0.0222  0.2576
 3049SOL    HW120780   1.302   2.890  15.985  1.0904  1.6277  0.9851
 3049SOL    HW220781   1.423   2.876  15.913 -1.2535 -0.2344 -0.5799
 3050SOL     OW20782   2.667   1.050   5.116  0.0136 -0.1289 -0.2946
 3050SOL    HW120783   2.635   1.097   5.039 -0.9173 -1.5166 -0.7500
 3050SOL    HW220784   2.757   1.022   5.098 -0.1012 -0.1845 -0.7822
 3051SOL     OW20785   2.860   2.106  15.995 -0.4156  0.9232  0.2898
 3051SOL    HW120786   2.765   2.099  15.987 -0.3123 -0.9773  0.7340
 3051SOL    HW220787   2.878   2.164  15.921  0.3718  0.1260 -0.1445
 3052SOL     OW20788   3.474   2.541  14.021  0.0147 -0.3897 -0.0363
 3052SOL    HW120789   3.443   2.554  14.110  1.7091  1.0228  0.3505
 3052SOL    HW220790   3.512   2.453  14.023  0.6207 -0.1329 -0.1240
 3053SOL     OW20791   3.357   1.569   8.319  0.5736  0.4301  0.4571
 3053SOL    HW120792   3.276   1.518   8.311  1.7922 -1.7162  1.5618
 3053SOL    HW220793   3.421   1.503   8.293 -1.5855 -0.9845 -1.2654
 3054SOL     OW20794   0.789   3.453   8.279  0.3246 -0.0719  0.0441
 3054SOL    HW120795   0.872   3.413   8.305  0.8497  0.6596 -0.5161
 3054SOL    HW220796   0.823   3.531   8.234 -1.6646  1.2163  0.7752
 3055SOL     OW20797   1.304   0.617   9.996  0.0041  0.3900  0.2520
 3055SOL    HW120798   1.332   0.699  10.037  1.6495 -1.7701  3.4779
 3055SOL    HW220799   1.374   0.604   9.932 -0.9836  1.6271 -1.0826
 3056SOL     OW20800   0.400   3.694   5.957  0.1639  0.6082 -0.2334
 3056SOL    HW120801   0.429   3.776   5.916 -1.8527  0.1446 -2.5900
 3056SOL    HW220802   0.306   3.693   5.938  0.0400  0.7178  0.3807
 3057SOL     OW20803   3.573   0.729   3.168 -1.0361  0.2332 -0.0582
 3057SOL    HW120804   3.592   0.799   3.106 -0.0552  1.1883  1.3235
 3057SOL    HW220805   3.563   0.649   3.116 -0.8014  0.2927 -0.1958
 3058SOL     OW20806   4.531   1.741   5.409 -0.2718  0.1510 -0.9986
 3058SOL    HW120807   4.449   1.728   5.455  0.0297 -1.2322 -0.8660
 3058SOL    HW220808   4.574   1.813   5.455  1.3560 -0.2145 -1.9120
 3059SOL     OW20809   2.859   1.574   2.476  0.6776 -0.1978 -0.0495
 3059SOL    HW120810   2.802   1.644   2.508  1.0278 -0.8438  1.9232
 3059SOL    HW220811   2.937   1.622   2.449 -0.7422  0.7962 -2.4171
 3060SOL     OW20812   4.357   2.527   8.900  0.2031 -0.4006  0.2719
 3060SOL    HW120813   4.327   2.437   8.885  0.8927 -1.0625  2.8991
 3060SOL    HW220814   4.451   2.522   8.915  0.6476  1.7693 -1.7782
 3061SOL     OW20815   0.962   0.877  13.904 -0.1814  0.1527  0.6909
 3061SOL    HW120816   1.045   0.829  13.907 -0.0705  0.3467  0.7049
 3061SOL    HW220817   0.915   0.799  13.873 -0.1086  0.0947  0.7283
 3062SOL     OW20818   1.638   2.230   4.146  0.0862 -0.3078  0.1016
 3062SOL    HW120819   1.563   2.243   4.203 -2.0801 -1.1550 -2.5636
 3062SOL    HW220820   1.594   2.211   4.063  1.1507  2.6306 -1.1227
 3063SOL     OW20821   3.142   3.262   0.884 -0.1460  0.2184 -0.7219
 3063SOL    HW120822   3.184   3.213   0.954 -1.5013 -0.5261 -0.4278
 3063SOL    HW220823   3.210   3.310   0.837 -0.0711  0.0557 -0.7800
 3064SOL     OW20824   2.892   4.675   6.393  0.2809  0.5030  0.5670
 3064SOL    HW120825   2.901   0.010   6.336 -0.2328  1.1581  1.3587
 3064SOL    HW220826   2.815   4.640   6.347  1.5942  1.6041 -2.4873
 3065SOL     OW20827   2.937   0.492   4.412  0.2848 -0.3975  0.2245
 3065SOL    HW120828   2.980   0.477   4.496 -0.8526 -0.8840  0.7190
 3065SOL    HW220829   3.005   0.516   4.349  0.8492 -0.8835  0.6651
 3066SOL     OW20830   1.812   3.027   9.593 -0.0097  0.3552 -0.5113
 3066SOL    HW120831   1.905   3.046   9.604 -0.2148  1.3301 -0.4406
 3066SOL    HW220832   1.799   2.960   9.659  0.8440 -0.3258 -1.0377
 3067SOL     OW20833   3.608   2.147   6.217 -0.3558  0.1933 -0.2578
 3067SOL    HW120834   3.662   2.122   6.143 -0.1090  1.1013 -0.3750
 3067SOL    HW220835   3.595   2.239   6.193  2.3067  1.2146  2.2768
 3068SOL     OW20836   2.112   3.311  12.046 -0.2096  0.3926  0.6588
 3068SOL    HW120837   2.167   3.301  12.124 -0.9403  0.4006  1.1672
 3068SOL    HW220838   2.070   3.226  12.045  1.4869 -0.4658  1.6133
 3069SOL     OW20839   3.862   1.715  17.112  0.5833  0.0025 -0.6914
 3069SOL    HW120840   3.920   1.659  17.164 -0.6181 -1.0225 -0.4544
 3069SOL    HW220841   3.915   1.795  17.106 -1.0721  1.1834  0.2373
 3070SOL     OW20842   1.435   2.499   8.890 -0.5030  0.0754  0.4344
 3070SOL    HW120843   1.476   2.424   8.846  0.8574  0.1291  1.5878
 3070SOL    HW220844   1.502   2.539   8.946 -0.1440 -0.2820  0.2635
 3071SOL     OW20845   4.598   1.297  14.850  0.6643 -0.7050 -0.5536
 3071SOL    HW120846   4.539   1.223  14.859  1.4531 -1.3578 -0.7301
 3071SOL    HW220847   4.540   1.373  14.842 -0.4103 -1.6676 -1.7604
 3072SOL     OW20848   3.383   4.730   8.204 -0.1429  0.1991  0.1574
 3072SOL    HW120849   3.382   4.684   8.288 -3.0703 -1.9459 -1.0510
 3072SOL    HW220850   3.346   4.654   8.158  0.9079 -0.3362  0.2008
 3073SOL     OW20851   3.764   3.358  14.484  0.4487 -0.0329 -0.0864
 3073SOL    HW120852   3.857   3.367  14.504  0.2956  2.7333 -0.7259
 3073SOL    HW220853   3.776   3.353  14.389 -0.1346  3.0628 -0.3250
 3074SOL     OW20854   0.859   0.765  14.675 -1.0015 -0.1032 -0.0696
 3074SOL    HW120855   0.918   0.834  14.645  1.1434 -2.0633 -0.3464
 3074SOL    HW220856   0.808   0.732  14.601 -0.1902  1.7842 -1.4618
 3075SOL     OW20857   3.495   3.537   6.874  0.5948 -0.2353  0.2908
 3075SOL    HW120858   3.426   3.591   6.913 -0.4199 -0.2492 -1.5372
 3075SOL    HW220859   3.448   3.520   6.793  0.1328 -1.8502  0.9103
 3076SOL     OW20860   1.516   0.503  12.308 -0.8888  0.3656  0.4510
 3076SOL    HW120861   1.499   0.413  12.282 -2.0573  1.8357 -4.0038
 3076SOL    HW220862   1.593   0.487  12.362 -2.4464 -0.6092  2.3598
 3077SOL     OW20863   2.483   2.859   2.192  0.1459 -0.1974 -0.0076
 3077SOL    HW120864   2.408   2.817   2.235  1.2207  0.3743  2.4267
 3077SOL    HW220865   2.510   2.933   2.246  1.6254  0.0201 -1.0578
 3078SOL     OW20866   4.298   2.049   3.842 -0.3022  0.3381 -0.5115
 3078SOL    HW120867   4.373   2.023   3.788 -0.6356 -2.1338  0.2424
 3078SOL    HW220868   4.289   1.972   3.898 -0.4947  0.9640  0.3207
 3079SOL     OW20869   1.569   1.696  13.718  0.0688  0.4585 -0.3615
 3079SOL    HW120870   1.545   1.785  13.695  0.1083  0.1882 -1.4228
 3079SOL    HW220871   1.539   1.690  13.809 -0.9236 -1.2106 -0.8197
 3080SOL     OW20872   3.382   0.703   5.807  0.1408 -0.0468  0.3571
 3080SOL    HW120873   3.450   0.742   5.752  1.1766  0.2193  1.7965
 3080SOL    HW220874   3.409   0.611   5.806 -0.6967 -0.3236  2.7104
 3081SOL     OW20875   0.332   4.409   6.015  0.2286  0.8111 -0.3656
 3081SOL    HW120876   0.356   4.329   6.062 -2.6827  1.1953  1.7558
 3081SOL    HW220877   0.366   4.392   5.928  0.1368  0.2702 -0.2924
 3082SOL     OW20878   3.504   2.739   1.748 -0.1570  0.0043  0.5182
 3082SOL    HW120879   3.433   2.680   1.722 -0.1682  0.2714 -0.0524
 3082SOL    HW220880   3.581   2.688   1.772  0.2421  0.5330  0.3467
 3083SOL     OW20881   3.549   0.358   6.214 -0.3544  0.0336  0.1022
 3083SOL    HW120882   3.553   0.294   6.143 -1.7568  0.5431 -0.4332
 3083SOL    HW220883   3.460   0.344   6.245  0.1377 -2.1554  0.4960
 3084SOL     OW20884   1.453   0.078   9.273  0.0336 -0.5531 -0.3501
 3084SOL    HW120885   1.497   0.036   9.347 -1.8045 -1.2021  0.3685
 3084SOL    HW220886   1.360   0.065   9.292 -0.3410  3.0119  0.3602
 3085SOL     OW20887   1.249   2.318   9.146 -0.2522 -0.7294  0.4867
 3085SOL    HW120888   1.188   2.369   9.199 -0.9582  0.0207 -1.0369
 3085SOL    HW220889   1.192   2.244   9.122 -0.4845 -0.8325  1.3313
 3086SOL     OW20890   3.268   1.051   2.449 -0.2316  0.0692 -0.0498
 3086SOL    HW120891   3.293   1.143   2.457  0.0527  0.1397 -1.6734
 3086SOL    HW220892   3.174   1.058   2.465 -0.6362 -0.9216 -1.9996
 3087SOL     OW20893   0.253   0.927   3.408  0.1125 -0.3748  0.4680
 3087SOL    HW120894   0.265   0.869   3.484  1.0767  1.1560  1.4806
 3087SOL    HW220895   0.345   0.943   3.384  0.6659 -0.5811  2.4177
 3088SOL     OW20896   3.571   0.377   6.530 -0.2822  0.5685 -0.2725
 3088SOL    HW120897   3.500   0.347   6.474 -0.0565  2.3260 -1.5038
 3088SOL    HW220898   3.615   0.434   6.467  2.8894 -0.8325  0.6676
 3089SOL     OW20899   0.354   1.149   2.847  0.1958  0.0843  0.4240
 3089SOL    HW120900   0.311   1.167   2.764  1.3782  0.4054 -0.1042
 3089SOL    HW220901   0.341   1.054   2.856  2.2026 -0.2128  0.1668
 3090SOL     OW20902   1.103   0.001   0.539  0.1841  0.1863  0.5376
 3090SOL    HW120903   1.184   4.702   0.572 -0.8677  0.2047  3.1467
 3090SOL    HW220904   1.066   4.664   0.497 -2.3506  1.4031  0.5305
 3091SOL     OW20905   2.093   0.391  11.765  0.1875 -0.1342  0.1673
 3091SOL    HW120906   2.070   0.337  11.840  1.6339  0.2792  0.9059
 3091SOL    HW220907   2.014   0.443  11.751 -0.2737 -0.5566  1.2422
 3092SOL     OW20908   1.504   1.050   6.189  0.5123 -0.3495 -0.3612
 3092SOL    HW120909   1.559   1.120   6.224 -1.6051  1.0840  0.1216
 3092SOL    HW220910   1.436   1.055   6.256  1.6465 -0.4555  0.7957
 3093SOL     OW20911   3.338   2.153   5.730 -0.0708 -0.0710  0.1123
 3093SOL    HW120912   3.255   2.111   5.753  0.9894 -2.7632 -1.0213
 3093SOL    HW220913   3.394   2.079   5.753 -0.6698 -0.1011  1.5123
 3094SOL     OW20914   3.004   2.711   5.941  0.5955  0.5570 -0.0437
 3094SOL    HW120915   3.088   2.723   5.985 -0.8109 -1.8593  3.2696
 3094SOL    HW220916   2.941   2.732   6.009 -0.1611 -0.6419 -0.3896
 3095SOL     OW20917   3.064   0.066   1.718 -0.3371  0.1281  0.6481
 3095SOL    HW120918   3.020   0.007   1.779  0.6027 -0.8118  0.4117
 3095SOL    HW220919   3.140   0.093   1.770 -0.2634 -0.2821  0.7540
 3096SOL     OW20920   1.139   3.877   5.332 -1.0514 -0.4764 -0.4355
 3096SOL    HW120921   1.064   3.927   5.362  0.0293  1.2563 -0.5919
 3096SOL    HW220922   1.160   3.917   5.247 -0.9770  2.0810  0.8075
 3097SOL     OW20923   3.899   0.961   1.976  0.0814 -0.7208  0.0786
 3097SOL    HW120924   3.969   1.001   2.028 -0.4308 -0.3253  0.4712
 3097SOL    HW220925   3.916   1.005   1.892  1.5615  1.6885  1.6497
 3098SOL     OW20926   3.220   2.772   6.113 -0.2451 -0.3156 -0.2384
 3098SOL    HW120927   3.280   2.740   6.046 -1.0790  0.5230 -1.3747
 3098SOL    HW220928   3.212   2.699   6.175 -0.9602  0.1575  0.2110
 3099SOL     OW20929   2.951   2.258   3.657 -0.1352  0.6143  0.7223
 3099SOL    HW120930   2.975   2.252   3.749 -0.1389  0.2502  0.7001
 3099SOL    HW220931   2.887   2.187   3.645  1.2867 -0.3266 -1.2817
 3100SOL     OW20932   0.252   2.445   8.699 -0.0951 -0.1564 -0.1661
 3100SOL    HW120933   0.302   2.430   8.618  0.6120  1.0781  0.0485
 3100SOL    HW220934   0.167   2.465   8.659  0.1360 -1.0301 -1.1072
 3101SOL     OW20935   2.151   0.922   8.685 -0.6117  0.1277  0.4004
 3101SOL    HW120936   2.180   0.855   8.623  0.5285  0.4073  0.6357
 3101SOL    HW220937   2.170   0.876   8.767  0.1033 -1.6553 -0.7587
 3102SOL     OW20938   1.411   3.901   8.116 -0.6953  0.3462 -0.4757
 3102SOL    HW120939   1.419   3.971   8.182 -1.4826  1.7983 -1.9124
 3102SOL    HW220940   1.477   3.835   8.138 -0.1078  0.5544 -1.5679
 3103SOL     OW20941   4.537   1.292   3.731 -0.3201  0.1935  0.0642
 3103SOL    HW120942   4.449   1.294   3.693 -0.3369  1.4531  0.1627
 3103SOL    HW220943   4.519   1.244   3.812  0.4494 -2.9455 -1.6371
 3104SOL     OW20944   3.295   3.199  13.101 -0.2580  0.2687  0.5899
 3104SOL    HW120945   3.233   3.259  13.142  0.6740  1.9934 -0.4954
 3104SOL    HW220946   3.344   3.267  13.054  2.3946 -1.2417  1.1573
 3105SOL     OW20947   3.764   0.794  17.028  0.5713  0.1759 -0.3971
 3105SOL    HW120948   3.827   0.723  17.036  1.4248  1.0953  1.1052
 3105SOL    HW220949   3.819   0.839  16.963  2.2037 -0.8382  0.2829
 3106SOL     OW20950   4.503   2.891  13.100 -0.5702 -0.8417  0.5902
 3106SOL    HW120951   4.514   2.931  13.186  1.5146  0.0750 -0.0938
 3106SOL    HW220952   4.459   2.809  13.125  1.1853 -1.9888 -0.0538
 3107SOL     OW20953   2.466   0.469   6.676  0.4622 -0.0099 -0.2014
 3107SOL    HW120954   2.527   0.427   6.615  0.0432  1.0750 -1.3726
 3107SOL    HW220955   2.526   0.509   6.739 -1.2176  1.1733  0.6520
 3108SOL     OW20956   1.543   1.317  12.689 -0.4147 -0.0911  0.3541
 3108SOL    HW120957   1.462   1.271  12.713 -0.1829 -0.3174  0.6854
 3108SOL    HW220958   1.611   1.251  12.683  0.1159  0.5519 -0.8146
 3109SOL     OW20959   0.551   4.542   2.385  0.1581  0.3393  0.5859
 3109SOL    HW120960   0.524   4.586   2.466  0.8258  1.8826 -0.0279
 3109SOL    HW220961   0.632   4.590   2.365  1.0070 -0.7971  1.3156
 3110SOL     OW20962   4.267   4.631   7.720  0.9571 -1.0089 -0.1644
 3110SOL    HW120963   4.173   4.620   7.735  0.7384 -0.3100 -1.0885
 3110SOL    HW220964   4.292   4.543   7.691 -1.4388 -2.1021  1.0825
 3111SOL     OW20965   3.538   1.851  12.636 -0.2899 -0.1696 -0.1830
 3111SOL    HW120966   3.544   1.904  12.556 -1.7221  2.2463  1.3110
 3111SOL    HW220967   3.604   1.898  12.687 -0.1656  0.8755 -1.2961
 3112SOL     OW20968   3.868   2.662  11.091 -0.1552 -0.2079 -0.2325
 3112SOL    HW120969   3.899   2.670  11.182  0.2010  0.2667 -0.3929
 3112SOL    HW220970   3.860   2.753  11.060 -0.4455  0.5505  2.0657
 3113SOL     OW20971   1.465   4.706   9.025  0.3323  1.1306  0.9623
 3113SOL    HW120972   1.466   0.000   9.114 -0.4876  1.0013  1.0291
 3113SOL    HW220973   1.520   0.030   8.981 -0.3373  0.6628 -0.5844
 3114SOL     OW20974   1.532   4.310   1.540 -0.4670 -0.2705  0.4546
 3114SOL    HW120975   1.476   4.323   1.463 -0.8105  0.3145  0.8051
 3114SOL    HW220976   1.510   4.218   1.545  2.8251 -0.9349  2.6123
 3115SOL     OW20977   1.384   3.027   8.068 -0.2140  0.1948  0.0550
 3115SOL    HW120978   1.465   3.017   8.118 -0.6208 -1.4869  0.3609
 3115SOL    HW220979   1.416   3.037   7.978 -0.2479  1.2936  0.1545
 3116SOL     OW20980   4.448   4.612  16.947 -0.3412 -0.1222 -0.1256
 3116SOL    HW120981   4.477   4.544  17.008  0.4306  0.4223  0.1082
 3116SOL    HW220982   4.437   4.691  16.999 -1.6604 -0.8963  0.7756
 3117SOL     OW20983   0.961   4.454  10.959 -0.3845  0.3597  0.5256
 3117SOL    HW120984   0.953   4.524  10.894  0.8410 -0.0201 -0.0201
 3117SOL    HW220985   1.015   4.390  10.913 -0.6649 -0.3537  1.1892
 3118SOL     OW20986   0.520   3.188   9.196  0.5232  0.1506 -0.3707
 3118SOL    HW120987   0.607   3.187   9.158 -0.0335 -3.3711 -1.4878
 3118SOL    HW220988   0.515   3.099   9.230 -3.8979  0.8492  0.8511
 3119SOL     OW20989   2.553   0.663  16.532  0.0877 -0.2179 -0.3041
 3119SOL    HW120990   2.605   0.630  16.458 -1.6586 -2.1524 -0.6861
 3119SOL    HW220991   2.476   0.607  16.517 -0.0321  0.5758 -2.6905
 3120SOL     OW20992   0.803   1.328   2.317 -0.5273 -0.2347 -0.2551
 3120SOL    HW120993   0.795   1.294   2.406  0.6110  2.5403  0.9159
 3120SOL    HW220994   0.898   1.339   2.317 -0.7849  2.0210 -0.3023
 3121SOL     OW20995   2.235   1.637   4.156  0.6259 -0.3431 -0.0570
 3121SOL    HW120996   2.175   1.705   4.185 -0.8838 -1.0289 -1.5477
 3121SOL    HW220997   2.177   1.565   4.130  3.6135 -2.7655  0.0495
 3122SOL     OW20998   0.745   2.246   9.422  0.3397 -0.2919 -0.1610
 3122SOL    HW120999   0.737   2.299   9.501  0.7537 -0.2411 -0.1539
 3122SOL    HW221000   0.689   2.292   9.358  2.5215  0.6092 -1.4359
 3123SOL     OW21001   1.250   0.025   2.020 -0.5297 -0.4618  0.0636
 3123SOL    HW121002   1.237   0.044   1.926  0.4045  1.3157  0.2915
 3123SOL    HW221003   1.314   0.089   2.052 -1.5408 -0.0114  1.1654
 3124SOL     OW21004   2.789   0.288   1.994 -0.2110  0.0828  0.2378
 3124SOL    HW121005   2.816   0.299   2.085 -0.6932  1.0593  0.2679
 3124SOL    HW221006   2.799   0.195   1.977  2.8014  0.7133 -1.3177
 3125SOL     OW21007   1.387   1.215   5.101 -0.2667 -0.5722 -0.4950
 3125SOL    HW121008   1.390   1.153   5.028 -0.5909  0.9849 -1.8111
 3125SOL    HW221009   1.479   1.242   5.103 -0.0312 -1.2529 -1.9188
 3126SOL     OW21010   0.020   1.668   6.560  0.5242 -0.1605  0.1379
 3126SOL    HW121011   4.673   1.655   6.525  0.2854 -1.2649  1.1521
 3126SOL    HW221012   0.054   1.724   6.490  0.3890  1.0283  1.0166
 3127SOL     OW21013   0.845   1.678  10.173 -0.8102  0.4375  0.5388
 3127SOL    HW121014   0.798   1.635  10.102 -0.0009  1.8699 -0.8754
 3127SOL    HW221015   0.930   1.633  10.167 -0.5642  0.7972  1.3398
 3128SOL     OW21016   0.661   0.626   9.346  0.3740 -0.0603  0.3292
 3128SOL    HW121017   0.743   0.577   9.345 -0.7196 -1.8938  0.6283
 3128SOL    HW221018   0.669   0.685   9.272 -0.3504 -2.3635 -1.5673
 3129SOL     OW21019   2.356   3.955  11.932  0.4234 -0.4741  0.0816
 3129SOL    HW121020   2.316   3.916  11.855 -0.2702  1.3781 -0.4768
 3129SOL    HW221021   2.289   3.919  11.990 -0.7041  1.6142  0.0615
 3130SOL     OW21022   3.668   2.230   7.677 -0.0108 -0.7199 -0.1769
 3130SOL    HW121023   3.602   2.195   7.617  1.0873 -5.6431  1.4351
 3130SOL    HW221024   3.616   2.260   7.752  0.3743 -1.1684  0.2761
 3131SOL     OW21025   3.524   3.185   1.421 -0.2937  0.4449  0.1759
 3131SOL    HW121026   3.458   3.193   1.351 -0.7824 -1.5600  0.4174
 3131SOL    HW221027   3.494   3.106   1.466  1.6886  0.1030  0.8939
 3132SOL     OW21028   3.132   3.668   9.039  0.2802 -0.9434 -0.4087
 3132SOL    HW121029   3.176   3.606   9.097  1.9570  1.2869  0.6905
 3132SOL    HW221030   3.055   3.690   9.090  0.9571  0.3141  0.0781
 3133SOL     OW21031   0.610   1.771  12.155 -0.7675 -0.3719 -0.9582
 3133SOL    HW121032   0.527   1.733  12.127 -1.7318 -0.0000  1.3843
 3133SOL    HW221033   0.587   1.782  12.247  0.7400  0.3695 -0.6590
 3134SOL     OW21034   4.649   1.329  11.495  0.2151 -0.8270 -0.0581
 3134SOL    HW121035   4.625   1.333  11.587 -2.3998  2.4223 -0.8739
 3134SOL    HW221036   4.702   1.408  11.480 -0.1446 -0.4381  0.7301
 3135SOL     OW21037   2.693   0.651  16.303  0.0988 -0.3646 -0.3932
 3135SOL    HW121038   2.735   0.737  16.308 -0.9657  0.2585 -2.1406
 3135SOL    HW221039   2.708   0.628  16.211  2.1626  0.2404 -0.2223
 3136SOL     OW21040   1.344   2.094   2.092  0.5103 -0.0713 -0.3259
 3136SOL    HW121041   1.417   2.142   2.053 -0.2109  0.1609 -1.3861
 3136SOL    HW221042   1.266   2.145   2.071  0.5881  0.1320 -0.1141
 3137SOL     OW21043   2.669   0.503  17.067 -0.0814  0.2152  0.0654
 3137SOL    HW121044   2.593   0.538  17.021  0.3828 -0.6921 -1.3749
 3137SOL    HW221045   2.728   0.571  17.035  0.3089 -0.9456 -1.6823
 3138SOL     OW21046   1.798   2.638  14.787 -0.0435  0.3041  0.1629
 3138SOL    HW121047   1.842   2.678  14.711  2.0472  1.6962  2.1126
 3138SOL    HW221048   1.705   2.651  14.765 -0.2931 -2.1879 -0.2129
 3139SOL     OW21049   3.361   1.282   7.548  0.3622 -0.5644 -0.5045
 3139SOL    HW121050   3.376   1.349   7.481 -1.2846  0.2282 -0.0873
 3139SOL    HW221051   3.329   1.343   7.615 -2.4479 -2.5650 -0.0525
 3140SOL     OW21052   0.014   2.556   6.233  0.2391  0.0241 -0.5801
 3140SOL    HW121053   4.705   2.577   6.154  0.7259  1.0357 -0.6178
 3140SOL    HW221054   0.107   2.565   6.212  0.4869 -0.2751  0.3989
 3141SOL     OW21055   4.017   1.759   3.376  0.3105 -0.5893  0.1285
 3141SOL    HW121056   3.934   1.793   3.343  0.8787 -0.1410 -0.8610
 3141SOL    HW221057   4.052   1.845   3.398 -1.3935  0.0608  0.2791
 3142SOL     OW21058   2.667   1.152   6.271  0.2337  0.9108 -0.2934
 3142SOL    HW121059   2.658   1.158   6.366 -2.4436 -2.8131 -0.3049
 3142SOL    HW221060   2.590   1.095   6.262 -0.2043  1.4845 -0.1702
 3143SOL     OW21061   2.361   4.346  14.025 -0.2085  0.0199 -0.8714
 3143SOL    HW121062   2.330   4.370  13.938 -0.2283  1.3455 -0.4910
 3143SOL    HW221063   2.279   4.324  14.068  0.5466 -1.5607 -0.1930
 3144SOL     OW21064   1.986   0.301   1.204  0.3166 -0.0660  0.1292
 3144SOL    HW121065   2.028   0.250   1.272 -0.0652 -2.1797 -1.2304
 3144SOL    HW221066   1.997   0.243   1.128  2.2529  0.0175  0.3289
 3145SOL     OW21067   0.297   4.002   0.252  0.5054  0.1042  0.2573
 3145SOL    HW121068   0.392   4.009   0.258  0.4731 -0.8368  2.0327
 3145SOL    HW221069   0.278   3.935   0.187  2.4087 -0.9278  0.7678
 3146SOL     OW21070   1.752   1.048   5.575  0.0274 -0.2691 -0.4996
 3146SOL    HW121071   1.695   1.117   5.539 -2.2444 -4.4239 -4.8216
 3146SOL    HW221072   1.708   0.970   5.542  0.5266 -0.5584 -0.4660
 3147SOL     OW21073   0.904   4.740   9.034 -0.3215 -0.3131  0.1712
 3147SOL    HW121074   0.887   4.660   8.984 -2.7469  0.0842  0.3822
 3147SOL    HW221075   0.963   4.698   9.097  2.0194  2.3568 -0.2409
 3148SOL     OW21076   4.682   2.588   7.617  0.2584  0.5783  0.0284
 3148SOL    HW121077   4.587   2.599   7.618  0.5850  3.2936  0.1151
 3148SOL    HW221078   4.685   2.550   7.705  0.3715  0.0169 -0.2214
 3149SOL     OW21079   3.123   0.394   4.606  0.4440  0.2424  0.2559
 3149SOL    HW121080   3.199   0.451   4.593  1.0098 -1.1531 -2.7040
 3149SOL    HW221081   3.162   0.306   4.609  1.5802  0.7688  0.9306
 3150SOL     OW21082   4.682   4.410   6.713 -0.2434  0.0968 -0.3084
 3150SOL    HW121083   4.605   4.459   6.742  0.1669  0.6935 -0.2351
 3150SOL    HW221084   4.640   4.332   6.677 -1.4370 -0.2029  1.6972
 3151SOL     OW21085   0.469   4.509   4.616 -0.5227 -0.4170 -0.6349
 3151SOL    HW121086   0.399   4.528   4.679  1.1599  0.8376  0.8407
 3151SOL    HW221087   0.457   4.570   4.543  2.6367 -0.9212 -1.5359
 3152SOL     OW21088   4.029   2.469   9.352  0.6593  0.0737  0.5974
 3152SOL    HW121089   4.017   2.435   9.263 -2.9132 -0.6302  1.3366
 3152SOL    HW221090   4.122   2.474   9.372  0.7661 -0.2879  0.2032
 3153SOL     OW21091   0.881   4.022   7.276  0.5376  0.5570  0.4789
 3153SOL    HW121092   0.869   3.967   7.353  0.6249 -0.2902 -0.1108
 3153SOL    HW221093   0.924   4.095   7.321  0.7570  1.4499 -1.1727
 3154SOL     OW21094   0.331   2.319   5.124 -0.8995 -0.0840  0.3594
 3154SOL    HW121095   0.280   2.400   5.125 -0.9837 -0.0956 -1.6121
 3154SOL    HW221096   0.286   2.264   5.187  1.3467 -2.5973 -0.2339
 3155SOL     OW21097   0.964   4.062   3.508  0.5002 -0.1845 -0.0560
 3155SOL    HW121098   1.047   4.043   3.552 -0.0220 -1.3455  0.4521
 3155SOL    HW221099   0.974   4.031   3.418 -2.1381  2.2979 -1.2083
 3156SOL     OW21100   2.920   2.452  11.563  0.0343 -0.1989  0.2660
 3156SOL    HW121101   3.009   2.435  11.531  0.7728 -1.1314  2.7543
 3156SOL    HW221102   2.933   2.535  11.608  0.0627 -0.1427  0.1544
 3157SOL     OW21103   1.280   4.572   9.579  0.0474  0.0711  0.2610
 3157SOL    HW121104   1.310   4.661   9.597  1.2157 -0.9617  3.2878
 3157SOL    HW221105   1.229   4.547   9.655 -1.3733 -1.1725 -1.0995
 3158SOL     OW21106   2.955   1.462   4.435 -0.0482  0.4076 -0.2872
 3158SOL    HW121107   2.872   1.441   4.477  0.7769  1.7432  1.9836
 3158SOL    HW221108   2.923   1.536   4.383  0.1845  0.3906 -0.4531
 3159SOL     OW21109   2.388   4.462   2.250  0.4651  0.1055 -0.0232
 3159SOL    HW121110   2.416   4.548   2.219 -1.4987  0.4250 -0.8879
 3159SOL    HW221111   2.466   4.425   2.292  1.1359  1.5231 -0.0310
 3160SOL     OW21112   0.089   2.578  15.541  0.1639 -0.7596 -0.2279
 3160SOL    HW121113   0.133   2.493  15.532  1.0444 -0.3002 -0.2685
 3160SOL    HW221114   0.152   2.633  15.493  0.3473 -0.8306 -0.0675
 3161SOL     OW21115   0.872   2.372   8.884  0.4268  0.2361 -0.7760
 3161SOL    HW121116   0.879   2.372   8.979 -0.3901 -0.4153 -0.7111
 3161SOL    HW221117   0.959   2.403   8.861  0.7547  1.1183  1.6818
 3162SOL     OW21118   3.778   2.609   1.668  0.0157 -0.4715 -0.0937
 3162SOL    HW121119   3.783   2.704   1.668  2.5228 -0.6121 -0.7879
 3162SOL    HW221120   3.757   2.583   1.579  1.1820  2.5934 -1.2626
 3163SOL     OW21121   4.145   2.006   9.262 -0.4808  0.1549 -0.0493
 3163SOL    HW121122   4.086   2.078   9.240 -2.4649 -0.3265  3.6984
 3163SOL    HW221123   4.083   1.935   9.247 -1.0527  0.4797  0.7766
 3164SOL     OW21124   2.509   3.962   3.707  0.3220  0.1781  0.0852
 3164SOL    HW121125   2.522   3.869   3.688 -2.4509 -0.3776  1.0324
 3164SOL    HW221126   2.437   3.947   3.768  1.0625 -2.7316  0.2669
 3165SOL     OW21127   2.160   2.347  13.415 -0.0213 -0.2766 -0.0451
 3165SOL    HW121128   2.179   2.299  13.335  0.6753  0.2112 -0.1736
 3165SOL    HW221129   2.204   2.431  13.402 -1.3292  0.3507 -0.4615
 3166SOL     OW21130   3.652   4.302  14.717  0.0740 -0.4181  0.4590
 3166SOL    HW121131   3.591   4.269  14.652 -0.6844  0.1130  0.8938
 3166SOL    HW221132   3.659   4.395  14.696 -0.7972 -0.4750 -0.0778
 3167SOL     OW21133   0.680   0.876   4.205 -0.7148  0.1765 -0.0071
 3167SOL    HW121134   0.646   0.823   4.277 -2.7486 -0.2663 -1.2757
 3167SOL    HW221135   0.695   0.954   4.258 -1.1409 -0.3318  0.8541
 3168SOL     OW21136   4.074   0.134   4.617 -0.0787  0.7035 -0.4615
 3168SOL    HW121137   4.163   0.117   4.648 -0.3486 -2.8096 -1.6011
 3168SOL    HW221138   4.023   0.142   4.698 -0.1550  0.0509 -0.4451
 3169SOL     OW21139   0.016   1.957  14.152  0.2593  0.1221 -0.5547
 3169SOL    HW121140   4.688   1.911  14.105  1.8695 -1.6115 -1.2243
 3169SOL    HW221141   0.087   1.935  14.092  0.8349 -2.5651  1.1000
 3170SOL     OW21142   1.577   0.428   4.575 -0.2132 -0.7803  0.2382
 3170SOL    HW121143   1.636   0.476   4.517 -0.6187 -0.0221  0.4559
 3170SOL    HW221144   1.526   0.366   4.522  0.2938 -0.7593 -0.2614
 3171SOL     OW21145   0.698   1.576   5.669  0.4351  0.1009  0.4035
 3171SOL    HW121146   0.616   1.528   5.675  0.5543 -0.6931 -3.8900
 3171SOL    HW221147   0.689   1.607   5.578  0.4757 -0.5265  0.1873
 3172SOL     OW21148   1.648   2.672   2.753  0.4211 -0.4502 -0.4151
 3172SOL    HW121149   1.564   2.627   2.754 -0.2410  0.8305  0.0258
 3172SOL    HW221150   1.684   2.617   2.823 -1.5222 -1.3365 -0.1187
 3173SOL     OW21151   4.302   2.677   5.994  0.3219  0.1354  0.1241
 3173SOL    HW121152   4.306   2.769   6.019 -2.1058  0.1231  0.6146
 3173SOL    HW221153   4.313   2.640   6.082  3.2749 -1.7446 -1.0181
 3174SOL     OW21154   0.974   4.344   2.287  0.0158 -0.8101  0.1111
 3174SOL    HW121155   0.990   4.399   2.364 -1.5532 -0.5573  0.2647
 3174SOL    HW221156   1.026   4.267   2.306  3.1982  1.4207  0.4800
 3175SOL     OW21157   2.033   2.576  10.964 -0.1406  0.3705 -0.1726
 3175SOL    HW121158   1.972   2.644  10.992  1.9332  1.6340  1.2629
 3175SOL    HW221159   1.980   2.504  10.999  1.0247 -0.2576  0.3081
 3176SOL     OW21160   3.420   4.008   6.986 -0.5734  0.6818 -0.7765
 3176SOL    HW121161   3.429   4.035   7.077 -1.7966  2.3218 -1.1510
 3176SOL    HW221162   3.326   4.005   6.968 -1.0650  0.2456  1.8693
 3177SOL     OW21163   0.709   1.150   8.850  0.2339  0.1588 -0.8272
 3177SOL    HW121164   0.619   1.180   8.860  1.6245  3.9153  0.1892
 3177SOL    HW221165   0.717   1.168   8.756  2.1652  2.7626 -0.1488
 3178SOL     OW21166   1.415   2.348  13.566 -0.4051 -0.2206  0.2700
 3178SOL    HW121167   1.373   2.265  13.589 -4.1556  1.9523  1.2543
 3178SOL    HW221168   1.347   2.389  13.513 -0.2955 -1.2636 -0.6590
 3179SOL     OW21169   0.854   2.490   7.622 -0.2630  0.1041 -0.2739
 3179SOL    HW121170   0.819   2.415   7.575 -1.8048  0.6832 -0.0717
 3179SOL    HW221171   0.802   2.484   7.702  0.0754 -2.0485 -0.2262
 3180SOL     OW21172   1.163   2.333  13.391  0.3769  0.2790  0.3434
 3180SOL    HW121173   1.104   2.408  13.396 -0.2930 -0.2349  0.1989
 3180SOL    HW221174   1.118   2.256  13.426 -0.8710  0.5351 -0.6818
 3181SOL     OW21175   1.828   0.260   5.445 -0.4655 -0.7364 -0.7005
 3181SOL    HW121176   1.794   0.171   5.448  0.3254 -1.0708 -1.5674
 3181SOL    HW221177   1.772   0.308   5.506 -1.3938 -1.6254 -0.8638
 3182SOL     OW21178   2.389   4.122   6.788  0.7427 -0.4096 -0.1648
 3182SOL    HW121179   2.402   4.210   6.824 -0.0892 -0.4537  0.2453
 3182SOL    HW221180   2.294   4.105   6.788  0.8240 -0.7513 -3.1371
 3183SOL     OW21181   0.817   4.516   6.375 -0.0712  0.3414 -0.3056
 3183SOL    HW121182   0.805   4.584   6.441  1.6055 -0.7765  1.1815
 3183SOL    HW221183   0.799   4.564   6.295 -0.1085 -0.4583 -0.7806
 3184SOL     OW21184   0.636   0.098   5.954  0.5922 -0.1464  0.2633
 3184SOL    HW121185   0.718   0.141   5.929  0.0996 -0.4163 -1.7634
 3184SOL    HW221186   0.606   0.075   5.866  0.3779  2.2152 -0.2822
 3185SOL     OW21187   0.499   3.810   7.077  0.2153  0.8820 -0.2691
 3185SOL    HW121188   0.594   3.811   7.092  0.0856 -0.7427  0.6365
 3185SOL    HW221189   0.470   3.897   7.101 -0.9942 -0.3184  2.6044
 3186SOL     OW21190   3.139   2.947   7.838 -0.2896 -0.4586 -0.6988
 3186SOL    HW121191   3.193   2.911   7.768  0.2795  0.0532 -0.5214
 3186SOL    HW221192   3.139   2.864   7.886  1.7518 -0.3766 -0.5260
 3187SOL     OW21193   0.001   2.295  12.526  0.0374 -0.3129  0.1856
 3187SOL    HW121194   4.694   2.261  12.601  0.0574  0.1823  0.4277
 3187SOL    HW221195   0.087   2.255  12.535  1.5756  3.3580  1.7610
 3188SOL     OW21196   4.269   0.781   2.194  0.0915  0.2848 -0.5530
 3188SOL    HW121197   4.278   0.716   2.264 -0.6736  0.9001  0.1146
 3188SOL    HW221198   4.187   0.750   2.155  1.5005 -2.3910 -1.4049
 3189SOL     OW21199   0.492   1.659   4.290 -0.7770 -0.5903  0.0143
 3189SOL    HW121200   0.479   1.727   4.357  0.0216  1.9173 -2.3354
 3189SOL    HW221201   0.547   1.694   4.220  0.5144 -1.2931  0.7021
 3190SOL     OW21202   2.891   2.239   5.405 -0.5670  0.3438 -0.4938
 3190SOL    HW121203   2.931   2.246   5.319 -0.8049  2.0423 -0.4672
 3190SOL    HW221204   2.960   2.203   5.460  0.2263  1.7496 -0.5735
 3191SOL     OW21205   3.098   3.881  12.929 -0.0868  0.0559 -0.5639
 3191SOL    HW121206   3.040   3.814  12.894  0.2847 -0.6165  0.1086
 3191SOL    HW221207   3.163   3.876  12.859 -0.3056 -0.9826 -0.6953
 3192SOL     OW21208   1.854   1.169  17.484 -0.7102 -0.8299 -0.8828
 3192SOL    HW121209   1.939   1.129  17.472  0.5110  1.7109 -0.7880
 3192SOL    HW221210   1.884   1.250  17.525 -0.7181 -2.4260  2.2184
 3193SOL     OW21211   1.545   3.467  16.332 -0.1329  0.2963  0.3259
 3193SOL    HW121212   1.537   3.536  16.398 -1.4154  1.0064 -0.5653
 3193SOL    HW221213   1.617   3.424  16.377  1.3600 -0.5043 -2.8179
 3194SOL     OW21214   3.121   4.404   5.595  0.3284  0.4668  0.4220
 3194SOL    HW121215   3.197   4.397   5.538  0.4945 -1.9883  0.9535
 3194SOL    HW221216   3.159   4.411   5.682  0.0013  0.9414  0.5263
 3195SOL     OW21217   0.738   1.001   2.547  0.0587  0.8775 -0.2064
 3195SOL    HW121218   0.762   0.959   2.630  1.3999  3.1517  0.5529
 3195SOL    HW221219   0.822   0.989   2.502  0.0043 -2.1601  0.4953
 3196SOL     OW21220   0.628   0.622   3.811  0.2632 -0.5131 -0.2388
 3196SOL    HW121221   0.658   0.587   3.727 -0.7082  0.9895 -1.2118
 3196SOL    HW221222   0.563   0.555   3.830 -1.2242  1.9423  3.3703
 3197SOL     OW21223   2.381   2.231   4.294 -0.1588 -0.4947  0.5430
 3197SOL    HW121224   2.305   2.178   4.318 -0.3083 -1.2295 -1.5684
 3197SOL    HW221225   2.347   2.320   4.304  0.3364 -0.1086 -1.2018
 3198SOL     OW21226   3.072   2.240   4.436 -0.1408  0.4493 -0.6139
 3198SOL    HW121227   3.005   2.209   4.375  0.9516 -2.5388 -0.3086
 3198SOL    HW221228   3.066   2.335   4.431 -1.4796  0.3204 -1.3912
 3199SOL     OW21229   3.012   3.842   6.828 -0.8231 -0.3148 -0.5881
 3199SOL    HW121230   2.927   3.814   6.794 -0.7474  1.4635 -2.2852
 3199SOL    HW221231   3.006   3.810   6.918  2.2967 -0.2993 -0.3647
 3200SOL     OW21232   4.587   1.892   3.591 -0.0573  0.1230  0.4626
 3200SOL    HW121233   4.671   1.850   3.610 -0.1058  0.8064  2.1110
 3200SOL    HW221234   4.607   1.978   3.554  0.0109 -0.0178  0.1732
 3201SOL     OW21235   4.674   3.589  12.801  0.2453  0.1338 -0.3327
 3201SOL    HW121236   4.725   3.524  12.753  2.5432  1.0014  0.9202
 3201SOL    HW221237   4.646   3.536  12.876 -0.3604  0.4330 -0.3479
 3202SOL     OW21238   1.954   3.988  10.682  0.0862 -0.1629 -0.1320
 3202SOL    HW121239   2.016   4.060  10.682  0.7391 -0.7182 -1.4575
 3202SOL    HW221240   1.900   4.005  10.759 -1.7353 -2.4616 -0.8978
 3203SOL     OW21241   4.647   1.851  14.388  0.3601 -0.1355 -0.0246
 3203SOL    HW121242   4.695   1.855  14.306  1.7079  0.8972  0.8045
 3203SOL    HW221243   4.710   1.876  14.456  0.2218  1.7587 -0.6034
 3204SOL     OW21244   4.050   4.548  11.258  0.1974 -0.0297  0.1055
 3204SOL    HW121245   4.060   4.642  11.274 -2.0033 -0.0459  1.6419
 3204SOL    HW221246   4.138   4.522  11.231 -0.1027 -0.3546 -0.5479
 3205SOL     OW21247   4.729   3.753   1.896 -0.1794 -0.0639 -0.0750
 3205SOL    HW121248   4.647   3.801   1.883 -0.0315  0.4475  0.8686
 3205SOL    HW221249   4.703   3.679   1.950 -4.1165  1.2303 -0.2150
 3206SOL     OW21250   4.125   1.082  16.947 -0.4278  0.6945  0.5936
 3206SOL    HW121251   4.148   0.989  16.943 -0.6192  0.6744  0.0073
 3206SOL    HW221252   4.034   1.086  16.918  0.1945 -1.5558 -1.6998
 3207SOL     OW21253   2.860   4.103   9.845 -0.4873  0.0699 -0.4347
 3207SOL    HW121254   2.795   4.172   9.862  0.0720  0.8080 -1.3080
 3207SOL    HW221255   2.803   4.026   9.840 -1.1669  0.5006  0.5805
 3208SOL     OW21256   3.549   4.146   3.206  0.3210  0.4867  0.3943
 3208SOL    HW121257   3.545   4.072   3.146 -1.0056  0.1987  0.8483
 3208SOL    HW221258   3.643   4.142   3.227  0.4367 -0.9028 -0.3442
 3209SOL     OW21259   1.437   2.280  10.490  0.2879 -0.0126  0.1140
 3209SOL    HW121260   1.438   2.328  10.572 -1.6473  1.8648 -0.9534
 3209SOL    HW221261   1.396   2.196  10.512 -2.4397  1.1688 -0.3842
 3210SOL     OW21262   4.006   3.613   7.926 -0.1020 -0.0343 -0.3811
 3210SOL    HW121263   3.924   3.655   7.952 -0.8859 -1.0240 -1.2598
 3210SOL    HW221264   4.004   3.618   7.830 -0.3378 -1.9588 -0.4624
 3211SOL     OW21265   0.867   3.728   8.169  0.0100  0.4468  0.0950
 3211SOL    HW121266   0.923   3.693   8.101 -1.2644 -1.9402  0.2882
 3211SOL    HW221267   0.936   3.751   8.231  0.4978  0.1996 -0.3533
 3212SOL     OW21268   3.792   2.431   2.303  0.3942  0.4306 -0.0257
 3212SOL    HW121269   3.772   2.463   2.391 -0.3781  0.1266 -0.0860
 3212SOL    HW221270   3.874   2.478   2.294  1.6560 -1.4206  1.6877
 3213SOL     OW21271   0.094   0.941   0.663 -0.4807  0.2439 -0.1124
 3213SOL    HW121272   0.038   0.965   0.736  1.9070  1.0388  1.4713
 3213SOL    HW221273   0.121   0.849   0.673 -1.6842 -0.5851 -4.4951
 3214SOL     OW21274   4.417   4.463   0.550 -0.4360  0.8096  0.3690
 3214SOL    HW121275   4.392   4.506   0.468  0.7577 -3.3902 -2.1588
 3214SOL    HW221276   4.480   4.527   0.584 -0.5348  0.8904  0.3998
 3215SOL     OW21277   0.762   1.997  15.104 -0.0407  0.3232  0.0572
 3215SOL    HW121278   0.703   1.985  15.030  2.2028 -0.3412 -1.5903
 3215SOL    HW221279   0.806   1.914  15.092  1.0443  1.2228 -2.1521
 3216SOL     OW21280   3.740   4.722   2.377  0.9660 -0.1352 -0.3642
 3216SOL    HW121281   3.813   4.667   2.404 -0.4424 -1.1016  1.4997
 3216SOL    HW221282   3.778   0.067   2.360 -1.3046  0.9199 -0.0864
 3217SOL     OW21283   4.014   4.728   2.126 -0.0378  0.1433 -0.4659
 3217SOL    HW121284   4.095   4.677   2.132  1.3741  2.4443  0.1986
 3217SOL    HW221285   3.995   0.008   2.218  3.2835 -0.9927  0.4738
 3218SOL     OW21286   3.091   3.506  15.372 -0.0815 -0.6327 -0.3780
 3218SOL    HW121287   3.083   3.591  15.330 -1.8073 -0.7045 -0.2212
 3218SOL    HW221288   3.059   3.457  15.297  1.1733  0.4784 -1.6231
 3219SOL     OW21289   2.780   3.264   8.417 -0.0218  0.3718  0.3184
 3219SOL    HW121290   2.765   3.281   8.510  1.5920  1.0138  0.4651
 3219SOL    HW221291   2.824   3.343   8.384 -0.8861  2.0314  3.1391
 3220SOL     OW21292   3.327   0.779   0.444  0.1882 -0.3166 -0.0360
 3220SOL    HW121293   3.300   0.702   0.494  0.1756 -1.2130 -1.4520
 3220SOL    HW221294   3.337   0.837   0.520  1.2527  1.4895 -1.5461
 3221SOL     OW21295   4.197   0.735   3.021 -0.0700  0.0676 -0.2794
 3221SOL    HW121296   4.220   0.825   2.996  0.2079  0.4828  1.5260
 3221SOL    HW221297   4.221   0.686   2.942 -0.3853  0.7998 -0.8339
 3222SOL     OW21298   4.303   3.113   4.330  0.0190  0.1101 -0.1053
 3222SOL    HW121299   4.267   3.198   4.304  0.6809  0.9069  1.6096
 3222SOL    HW221300   4.278   3.111   4.422  2.2098 -0.5942  0.4817
 3223SOL     OW21301   2.323   0.778   3.331 -0.6544  0.6500  0.2222
 3223SOL    HW121302   2.256   0.757   3.266  0.2126  0.9281 -0.7625
 3223SOL    HW221303   2.320   0.874   3.331 -2.7750  0.5830 -2.1507
 3224SOL     OW21304   4.649   0.472  16.735  0.5577  0.4782 -0.0561
 3224SOL    HW121305   4.637   0.567  16.728  3.7427  0.9250  0.2753
 3224SOL    HW221306   4.683   0.462  16.824  0.6526 -2.6127 -0.4270
 3225SOL     OW21307   1.707   3.659   5.766  0.0975 -0.2923 -0.4254
 3225SOL    HW121308   1.670   3.663   5.678 -0.9358  0.6138  0.0460
 3225SOL    HW221309   1.669   3.740   5.801  1.9822  0.9487 -1.2591
 3226SOL     OW21310   0.583   0.648  13.647 -0.4035 -0.0647 -0.0221
 3226SOL    HW121311   0.561   0.562  13.684  0.6275 -0.4147 -0.2281
 3226SOL    HW221312   0.611   0.699  13.723 -0.9197 -0.3563  0.3665
 3227SOL     OW21313   3.686   3.007   4.135  0.6320 -0.3691  0.5931
 3227SOL    HW121314   3.619   3.074   4.144 -0.8338 -1.4738 -1.9616
 3227SOL    HW221315   3.765   3.056   4.115  0.8395  0.0690  2.5056
 3228SOL     OW21316   3.529   4.139   6.168  0.4145 -0.4787  0.3826
 3228SOL    HW121317   3.444   4.169   6.200  0.3488  1.0859 -1.2914
 3228SOL    HW221318   3.588   4.167   6.239 -0.5464 -0.1860  1.0789
 3229SOL     OW21319   3.759   4.694   8.656 -0.2652 -0.1318 -0.0154
 3229SOL    HW121320   3.709   4.673   8.734  0.2779 -1.6700 -0.0738
 3229SOL    HW221321   3.804   4.615   8.625 -0.1442 -0.0922  0.0588
 3230SOL     OW21322   0.324   0.673   0.401  0.2661 -0.1896  0.1578
 3230SOL    HW121323   0.391   0.677   0.469  0.3696  1.6647 -0.0677
 3230SOL    HW221324   0.290   0.589   0.431 -1.0180  0.4092  0.3670
 3231SOL     OW21325   2.765   3.376  10.258 -0.5293 -0.0813 -0.0464
 3231SOL    HW121326   2.768   3.455  10.205 -0.7126  1.3542  2.0988
 3231SOL    HW221327   2.697   3.323  10.216 -0.0587 -1.0282  0.3876
 3232SOL     OW21328   3.276   4.625   9.927  0.5035 -0.2251 -0.6907
 3232SOL    HW121329   3.188   4.632   9.963  0.6773  1.1769 -0.5673
 3232SOL    HW221330   3.253   4.670   9.845 -0.6396  2.7291  1.2719
 3233SOL     OW21331   3.363   0.110   2.720 -0.0251  0.1154 -0.7525
 3233SOL    HW121332   3.290   0.090   2.778  0.1393 -2.1528 -1.3239
 3233SOL    HW221333   3.386   0.029   2.674  1.7666  0.5583 -0.6171
 3234SOL     OW21334   3.553   1.567   5.699  0.0911  0.5874 -0.5626
 3234SOL    HW121335   3.505   1.521   5.769 -0.5368  1.0806 -0.6615
 3234SOL    HW221336   3.625   1.605   5.749  0.0095  0.0930 -0.0681
 3235SOL     OW21337   1.706   0.366  17.589 -0.0614  0.0507 -0.3995
 3235SOL    HW121338   1.621   0.410  17.598  0.6258  1.5646 -1.3582
 3235SOL    HW221339   1.684   0.282  17.629  0.0740 -0.0884 -0.6212
 3236SOL     OW21340   2.558   4.164  14.703  0.2948 -0.3898 -0.3248
 3236SOL    HW121341   2.618   4.212  14.646 -2.2823 -0.1526 -2.8347
 3236SOL    HW221342   2.530   4.234  14.762  1.0385 -0.4290  0.0782
 3237SOL     OW21343   0.746   3.628   4.289  1.1023  0.5921  0.4753
 3237SOL    HW121344   0.798   3.591   4.360  1.8362 -0.5678 -0.6701
 3237SOL    HW221345   0.728   3.550   4.236  0.6749 -0.1122  1.6499
 3238SOL     OW21346   0.677   1.804   3.231 -0.2141 -0.3191 -0.1439
 3238SOL    HW121347   0.639   1.850   3.156 -0.3578  1.4392  0.9913
 3238SOL    HW221348   0.702   1.719   3.197  3.3475  0.7103 -0.0736
 3239SOL     OW21349   4.559   2.586   2.271  0.6002  0.1580  0.4860
 3239SOL    HW121350   4.572   2.652   2.202 -1.6911 -0.9840 -1.0249
 3239SOL    HW221351   4.628   2.596   2.337  0.3768 -0.5893  0.8298
 3240SOL     OW21352   4.260   1.269   2.783 -0.3795 -0.1901 -0.9134
 3240SOL    HW121353   4.242   1.225   2.700 -1.6319  2.4602 -2.0333
 3240SOL    HW221354   4.240   1.359   2.759 -2.3939 -0.4153 -0.0579
 3241SOL     OW21355   1.585   3.511  15.477 -0.3483  0.2736 -0.4291
 3241SOL    HW121356   1.642   3.440  15.505  1.4551  2.0662  0.4363
 3241SOL    HW221357   1.652   3.573  15.447  1.7760 -0.7973  2.1317
 3242SOL     OW21358   1.362   4.131   2.007 -0.0247  0.3253  0.4325
 3242SOL    HW121359   1.277   4.088   2.013 -0.8120  1.7237 -0.7109
 3242SOL    HW221360   1.408   4.078   2.072 -2.4300 -2.0037  0.2413
 3243SOL     OW21361   2.928   0.853  11.436  0.5762  0.2903  0.3728
 3243SOL    HW121362   2.937   0.947  11.419  0.9754 -0.0960 -1.5366
 3243SOL    HW221363   2.953   0.824  11.348  1.8655 -3.5821  2.0133
 3244SOL     OW21364   2.404   0.358   0.236 -0.1313 -0.6057 -0.8621
 3244SOL    HW121365   2.428   0.434   0.181 -3.5607  1.1313  0.0535
 3244SOL    HW221366   2.358   0.318   0.162 -1.0160 -0.3643 -0.4379
 3245SOL     OW21367   1.864   2.215   2.047  0.2347 -0.0565  0.2340
 3245SOL    HW121368   1.916   2.137   2.066  1.0560  0.0639 -1.4828
 3245SOL    HW221369   1.934   2.280   2.042 -0.5860  0.7303 -0.8440
 3246SOL     OW21370   1.492   1.153   8.602 -0.1739  0.0617 -0.4312
 3246SOL    HW121371   1.546   1.077   8.578  0.6013  0.0061  1.4296
 3246SOL    HW221372   1.471   1.194   8.519 -0.6536  1.9583  0.6410
 3247SOL     OW21373   3.734   1.210   8.808 -0.4277  0.3040  0.0298
 3247SOL    HW121374   3.747   1.261   8.888 -0.5024 -0.7545  0.7226
 3247SOL    HW221375   3.639   1.219   8.802 -0.6129 -1.5248  0.0746
 3248SOL     OW21376   1.364   1.298   4.262  0.3482 -0.1910 -0.0180
 3248SOL    HW121377   1.336   1.212   4.231 -1.9828  0.3355  0.5879
 3248SOL    HW221378   1.343   1.301   4.355 -1.4574 -0.7374 -0.4120
 3249SOL     OW21379   2.083   1.394  16.655  0.6918  0.0296  0.2922
 3249SOL    HW121380   2.011   1.438  16.608 -0.5724 -2.2673  0.0906
 3249SOL    HW221381   2.045   1.358  16.735  0.8517 -1.5566 -0.3471
 3250SOL     OW21382   3.125   2.544   1.795 -0.1436 -0.3651 -0.4643
 3250SOL    HW121383   3.158   2.608   1.732 -0.6265  0.6162  0.2696
 3250SOL    HW221384   3.196   2.557   1.858 -1.2441  1.1486  0.4699
 3251SOL     OW21385   3.509   0.870   4.571  0.1536  0.0318 -0.1460
 3251SOL    HW121386   3.601   0.884   4.592  0.4146  0.3581 -1.5454
 3251SOL    HW221387   3.511   0.790   4.519  0.1591 -0.1871  0.1859
 3252SOL     OW21388   1.711   4.323   2.841 -0.2611  0.0119  0.2935
 3252SOL    HW121389   1.764   4.257   2.885  1.5908  1.8424  0.8085
 3252SOL    HW221390   1.631   4.315   2.894 -0.9357 -2.7078 -1.1611
 3253SOL     OW21391   3.711   2.036  11.403  0.1218 -0.0812  0.4559
 3253SOL    HW121392   3.645   1.986  11.451 -0.8806  1.2164  0.4427
 3253SOL    HW221393   3.758   2.070  11.478 -0.6370 -0.0498  0.9212
 3254SOL     OW21394   4.304   0.923   0.133  0.1059 -0.7853 -0.0706
 3254SOL    HW121395   4.316   1.017   0.145 -2.3377 -0.5522  0.4161
 3254SOL    HW221396   4.383   0.881   0.167  0.5539  1.3188  1.4733
 3255SOL     OW21397   4.033   0.257   9.011  0.0943 -0.7558  0.6359
 3255SOL    HW121398   4.106   0.319   9.011 -0.3607 -0.2347  1.6027
 3255SOL    HW221399   4.056   0.190   9.075 -0.8135 -2.7835 -1.1622
 3256SOL     OW21400   4.075   4.662   6.353 -0.0857  0.7452 -1.0365
 3256SOL    HW121401   4.092   4.597   6.285 -0.7782  0.5294 -1.0085
 3256SOL    HW221402   4.161   4.692   6.382 -0.6662  0.2930  1.1808
 3257SOL     OW21403   1.822   2.320  11.905 -0.6042  0.8547 -0.2605
 3257SOL    HW121404   1.823   2.227  11.883 -0.8639  0.2007  2.4878
 3257SOL    HW221405   1.903   2.324  11.957 -1.7158  0.7022  1.4798
 3258SOL     OW21406   3.155   1.563   4.647 -0.5067  0.4666 -0.1522
 3258SOL    HW121407   3.192   1.649   4.631  0.7744  0.2935  1.9425
 3258SOL    HW221408   3.069   1.568   4.604 -0.5230 -0.4996 -0.2378
 3259SOL     OW21409   0.740   4.615   3.041 -0.3183  0.0224 -0.5058
 3259SOL    HW121410   0.813   4.629   3.101 -0.8208  0.6326 -0.0392
 3259SOL    HW221411   0.672   4.682   3.052  0.2190  0.5532 -0.4653
 3260SOL     OW21412   3.340   2.182   1.587  0.3768  0.1087 -0.3194
 3260SOL    HW121413   3.331   2.171   1.492 -0.4762 -2.1650  0.0428
 3260SOL    HW221414   3.397   2.260   1.583  1.0356 -0.3163  0.8887
 3261SOL     OW21415   0.609   3.363   4.793  0.1381  0.1375  0.5736
 3261SOL    HW121416   0.553   3.287   4.809  0.4382  0.1725  1.8159
 3261SOL    HW221417   0.636   3.384   4.883  0.8877 -0.9746  0.6197
 3262SOL     OW21418   1.634   3.777   2.119 -0.1285 -0.1952  0.6509
 3262SOL    HW121419   1.685   3.840   2.069  1.5790 -1.6134  0.5983
 3262SOL    HW221420   1.552   3.824   2.130 -0.5661 -0.8658  0.2388
 3263SOL     OW21421   4.134   2.106   6.193  0.7715 -0.0094  0.1918
 3263SOL    HW121422   4.214   2.088   6.243 -0.7209  0.1613  2.6061
 3263SOL    HW221423   4.141   2.199   6.169 -0.3111  0.7392  2.8316
 3264SOL     OW21424   2.043   0.182   2.780  0.5012 -0.1339  0.3765
 3264SOL    HW121425   2.002   0.104   2.741  0.9687 -0.8540  1.3133
 3264SOL    HW221426   2.047   0.231   2.698  0.9490  1.2082  1.2036
 3265SOL     OW21427   1.138   1.922  13.319  0.9386 -0.0915  0.2091
 3265SOL    HW121428   1.068   1.956  13.263  0.3908 -1.3497  0.1345
 3265SOL    HW221429   1.105   1.836  13.346  2.5169 -1.3643 -1.8756
 3266SOL     OW21430   3.062   0.699   4.162  0.0104 -0.3885  0.3551
 3266SOL    HW121431   2.997   0.736   4.101  1.3701 -0.2541 -1.0319
 3266SOL    HW221432   3.062   0.766   4.230 -2.3169 -0.7678  0.7253
 3267SOL     OW21433   1.386   4.536   9.326  0.5726 -0.3770 -0.5640
 3267SOL    HW121434   1.472   4.554   9.363  1.0749  0.1372 -1.9958
 3267SOL    HW221435   1.319   4.549   9.393  0.1321 -2.6321 -0.5591
 3268SOL     OW21436   2.155   3.441   1.845  0.0359  0.3075 -0.2777
 3268SOL    HW121437   2.122   3.520   1.802 -0.5983  0.2134  0.0282
 3268SOL    HW221438   2.250   3.445   1.844 -0.0827  2.7508 -1.7537
 3269SOL     OW21439   0.221   1.189   3.340  0.2778  0.4968  0.6464
 3269SOL    HW121440   0.190   1.098   3.333  1.2622  0.2917 -1.0596
 3269SOL    HW221441   0.296   1.182   3.399  0.5463  4.1405  0.7035
 3270SOL     OW21442   2.052   2.950   1.288 -0.0170  0.1563 -0.0518
 3270SOL    HW121443   2.025   3.042   1.278 -0.3040  0.2806  1.8077
 3270SOL    HW221444   2.072   2.942   1.381 -0.3836  1.3828  0.1333
 3271SOL     OW21445   2.663   3.769   6.924  0.7994  0.0122 -0.6290
 3271SOL    HW121446   2.652   3.849   6.975 -2.4669 -0.2946 -0.9068
 3271SOL    HW221447   2.735   3.725   6.970 -1.5695 -2.6990  0.4421
 3272SOL     OW21448   0.769   0.389  13.774 -0.3294 -0.3695  0.0279
 3272SOL    HW121449   0.782   0.328  13.701 -0.7374 -0.6530  0.1895
 3272SOL    HW221450   0.748   0.337  13.851 -1.9822  2.4033  1.4443
 3273SOL     OW21451   1.906   2.064  15.284 -0.4811 -0.1684  0.3360
 3273SOL    HW121452   1.933   2.137  15.341  0.2224 -0.2442  0.1011
 3273SOL    HW221453   1.884   2.113  15.205  0.3388  0.6149  0.5998
 3274SOL     OW21454   2.674   3.745   3.860 -0.1817  0.1119 -0.1921
 3274SOL    HW121455   2.755   3.725   3.814  1.7526  0.4510  3.0315
 3274SOL    HW221456   2.698   3.810   3.926  0.4009 -0.5758  0.2782
 3275SOL     OW21457   3.517   2.099   2.822  0.5020 -0.0375 -0.4030
 3275SOL    HW121458   3.462   2.074   2.896  2.2781 -0.2694  0.8382
 3275SOL    HW221459   3.604   2.080   2.856  0.6009  1.5212  0.2154
 3276SOL     OW21460   4.334   4.713   4.146 -0.6359 -0.1641  0.0213
 3276SOL    HW121461   4.313   4.724   4.239  1.4019 -0.6858  0.5369
 3276SOL    HW221462   4.301   0.057   4.117 -2.6716 -1.8036 -2.5289
 3277SOL     OW21463   3.649   2.036   8.618 -0.2126  0.0541  0.4456
 3277SOL    HW121464   3.612   2.122   8.598 -3.2354 -1.2835  0.3731
 3277SOL    HW221465   3.710   2.024   8.545 -2.3020 -1.3037 -1.0630
 3278SOL     OW21466   1.237   3.105   1.505 -0.0754 -0.6362 -0.0924
 3278SOL    HW121467   1.238   3.114   1.600  0.4189  0.2588 -0.1873
 3278SOL    HW221468   1.171   3.036   1.497 -1.2413  0.3450  1.1891
 3279SOL     OW21469   3.264   4.730   3.749  0.5465 -0.4849  0.0030
 3279SOL    HW121470   3.293   4.667   3.814 -1.9941 -1.8770 -0.2099
 3279SOL    HW221471   3.250   0.064   3.806  1.3726  0.4645 -1.0330
 3280SOL     OW21472   2.104   0.067   5.306 -0.2155  0.0857 -0.2998
 3280SOL    HW121473   2.067   4.719   5.307 -0.7069  0.2789 -1.4905
 3280SOL    HW221474   2.045   0.111   5.367 -1.6922  1.7062 -2.8948
 3281SOL     OW21475   1.530   4.072   4.604 -0.5910  0.0984 -0.1168
 3281SOL    HW121476   1.605   4.036   4.558  0.7256 -3.3885  4.7452
 3281SOL    HW221477   1.571   4.120   4.676 -0.2937  0.3266 -0.4396
 3282SOL     OW21478   0.264   2.938   3.227 -0.7121 -0.2396  0.7653
 3282SOL    HW121479   0.213   2.977   3.299 -1.5790  1.4500 -0.7453
 3282SOL    HW221480   0.210   2.866   3.194 -0.4752 -0.0969  0.0766
 3283SOL     OW21481   0.572   3.984   1.613 -0.4587  0.4321 -0.1595
 3283SOL    HW121482   0.530   3.944   1.689  0.3307  0.8687  0.5086
 3283SOL    HW221483   0.578   3.913   1.550 -0.0698 -0.4305  0.8486
 3284SOL     OW21484   0.461   3.269  10.849  0.3136  0.4130  0.4991
 3284SOL    HW121485   0.463   3.174  10.855  1.5610  0.3468 -1.0304
 3284SOL    HW221486   0.379   3.294  10.891  0.6512  3.9651 -0.9191
 3285SOL     OW21487   4.473   4.443   8.883 -0.3426 -0.3448 -0.3454
 3285SOL    HW121488   4.472   4.505   8.810 -1.2764  0.6213  0.4866
 3285SOL    HW221489   4.397   4.386   8.872 -2.7120  2.6919  0.3438
 3286SOL     OW21490   2.141   0.562  11.416 -0.4737  0.1743 -0.6994
 3286SOL    HW121491   2.222   0.536  11.461 -1.2819  0.4072  0.8899
 3286SOL    HW221492   2.110   0.636  11.468 -1.8401 -0.5438 -0.4834
 3287SOL     OW21493   2.170   2.096  14.523 -0.1190  0.3789  0.2460
 3287SOL    HW121494   2.250   2.119  14.476 -0.0433 -1.1846 -0.3847
 3287SOL    HW221495   2.110   2.153  14.475 -3.4550 -1.6424  2.0414
 3288SOL     OW21496   0.190   0.607   1.300 -0.1541 -0.1218  0.5041
 3288SOL    HW121497   0.185   0.694   1.340 -0.8635 -0.1958  0.5780
 3288SOL    HW221498   0.105   0.569   1.322  0.0137  0.9713  3.1297
 3289SOL     OW21499   2.682   1.462   4.529  0.2466 -0.3705 -0.0720
 3289SOL    HW121500   2.655   1.487   4.618 -0.1812  1.0112 -0.5841
 3289SOL    HW221501   2.625   1.525   4.485 -0.6061 -1.3993 -0.4287
 3290SOL     OW21502   1.275   3.419   3.556  0.1571 -0.1567  0.2895
 3290SOL    HW121503   1.287   3.498   3.504 -0.3164  0.0807  0.5373
 3290SOL    HW221504   1.293   3.450   3.645  1.0850  0.0235  0.0410
 3291SOL     OW21505   4.300   1.765   6.654  0.5145  0.2060  0.0273
 3291SOL    HW121506   4.364   1.802   6.593 -0.7075 -0.9260 -1.9562
 3291SOL    HW221507   4.307   1.675   6.621 -0.1959  0.8723 -1.9178
 3292SOL     OW21508   1.398   0.719   4.333 -0.3390 -0.4247 -0.4341
 3292SOL    HW121509   1.326   0.700   4.273  0.1832  2.7427 -2.0449
 3292SOL    HW221510   1.424   0.804   4.298  1.0675 -0.3717  0.7313
 3293SOL     OW21511   3.876   2.088   7.634  0.0704 -0.4517 -0.1649
 3293SOL    HW121512   3.797   2.141   7.646  0.8902  0.6504  0.4480
 3293SOL    HW221513   3.880   2.059   7.725  1.6251  1.7167  0.4825
 3294SOL     OW21514   4.666   1.004   1.492 -0.0340  0.2110 -0.1545
 3294SOL    HW121515   4.587   1.044   1.529 -0.1311 -1.0761  1.0338
 3294SOL    HW221516   4.725   1.078   1.479  2.4332 -1.5474  1.1495
 3295SOL     OW21517   3.747   3.033  14.750  0.4121  0.0209 -0.0751
 3295SOL    HW121518   3.826   3.076  14.781  0.1873 -0.4121  1.1368
 3295SOL    HW221519   3.765   2.939  14.764  2.7943  0.4555 -0.2030
 3296SOL     OW21520   3.853   0.862   5.897 -0.1673  0.1008 -0.1585
 3296SOL    HW121521   3.856   0.852   5.802 -1.0661 -2.7543  0.1299
 3296SOL    HW221522   3.789   0.792   5.910  0.4450 -0.4556 -0.2110
 3297SOL     OW21523   1.408   0.374  14.931 -0.3406  0.1415 -0.1267
 3297SOL    HW121524   1.376   0.414  14.849  0.0344 -0.7141 -0.6956
 3297SOL    HW221525   1.417   0.283  14.902  0.9492  0.1146  0.3736
 3298SOL     OW21526   1.463   0.473   5.886 -0.0049  0.3665  0.6388
 3298SOL    HW121527   1.453   0.478   5.791  0.5006 -0.1425  0.5599
 3298SOL    HW221528   1.436   0.561   5.915 -0.9668  1.0450 -2.2674
 3299SOL     OW21529   2.146   3.623   7.886 -0.5912  0.7763 -0.1213
 3299SOL    HW121530   2.121   3.553   7.947  0.8661  1.8421  1.7111
 3299SOL    HW221531   2.206   3.662   7.950  0.0430 -2.1854  1.1016
 3300SOL     OW21532   0.884   3.817   6.294  0.0420  0.3091  0.3133
 3300SOL    HW121533   0.848   3.885   6.351  0.0358  0.3972  0.2040
 3300SOL    HW221534   0.971   3.811   6.334  1.4156 -0.0960 -2.7191
 3301SOL     OW21535   0.656   3.431  12.869 -0.5950 -0.3671  0.2781
 3301SOL    HW121536   0.583   3.492  12.865 -1.1921 -1.1575 -0.9086
 3301SOL    HW221537   0.636   3.374  12.794 -0.3332 -0.1874  0.0765
 3302SOL     OW21538   3.405   4.216   8.041 -0.2607 -0.1333  0.1694
 3302SOL    HW121539   3.429   4.250   7.955 -0.7575  1.1629  0.5360
 3302SOL    HW221540   3.455   4.136   8.053 -1.0790 -0.6870 -0.0706
 3303SOL     OW21541   0.930   2.297   6.869  0.1011 -0.5576  0.0464
 3303SOL    HW121542   0.984   2.221   6.891 -1.5255 -2.5357 -2.7236
 3303SOL    HW221543   0.938   2.291   6.774 -0.8972  2.7541 -0.2325
 3304SOL     OW21544   4.552   3.506   4.011  0.9802  0.7773  0.0435
 3304SOL    HW121545   4.475   3.453   3.992  1.2067 -0.2089  1.8163
 3304SOL    HW221546   4.535   3.522   4.104  0.1996  0.5161 -0.0513
 3305SOL     OW21547   2.559   4.405  17.381 -0.6356  0.0751 -0.9126
 3305SOL    HW121548   2.518   4.464  17.318 -0.7988 -0.4053 -1.2557
 3305SOL    HW221549   2.544   4.322  17.336  3.1212 -1.3999  0.6463
 3306SOL     OW21550   3.458   2.479   4.755  0.4768  0.2196  0.2313
 3306SOL    HW121551   3.378   2.466   4.705  1.1167 -1.1721 -0.4419
 3306SOL    HW221552   3.421   2.510   4.838  1.2972  1.4022  0.1653
 3307SOL     OW21553   4.604   3.621  16.853 -0.0061 -0.7999 -0.3613
 3307SOL    HW121554   4.526   3.597  16.904 -0.2235  1.6152  0.4556
 3307SOL    HW221555   4.665   3.595  16.921  1.2145  1.7925 -0.4728
 3308SOL     OW21556   4.266   4.651   2.092  0.4741  0.5357  0.1303
 3308SOL    HW121557   4.310   4.581   2.140  1.6360  1.0641 -0.1593
 3308SOL    HW221558   4.332   4.720   2.084 -2.0865  3.0617  0.5619
 3309SOL     OW21559   3.692   0.849   4.297 -0.1657 -0.2359 -0.3617
 3309SOL    HW121560   3.735   0.908   4.359  0.8888  0.5516 -1.8639
 3309SOL    HW221561   3.771   0.796   4.291 -0.0593  0.1886 -2.6057
 3310SOL     OW21562   4.234   1.170   5.867 -0.3367 -0.2875  0.0117
 3310SOL    HW121563   4.206   1.097   5.923 -0.6585  0.1854  0.4616
 3310SOL    HW221564   4.228   1.127   5.782 -2.2159 -0.9734  0.5001
 3311SOL     OW21565   3.899   0.352   2.919  0.0202 -0.5410  0.4541
 3311SOL    HW121566   3.843   0.378   2.992 -1.4273 -0.9073 -0.5243
 3311SOL    HW221567   3.897   0.256   2.913  1.3683 -0.7159  2.9775
 3312SOL     OW21568   1.760   2.374   4.446 -0.1238 -0.1455  0.0172
 3312SOL    HW121569   1.808   2.326   4.513  0.5860 -0.2716 -0.5801
 3312SOL    HW221570   1.815   2.365   4.368  0.2348 -1.7120  0.4518
 3313SOL     OW21571   3.735   2.056   6.796  0.7111 -0.4833 -0.7663
 3313SOL    HW121572   3.707   2.146   6.777  0.4142 -0.6409 -1.0615
 3313SOL    HW221573   3.654   2.017   6.763 -0.6858  1.7462  0.0047
 3314SOL     OW21574   1.948   4.418   2.239  0.4225  0.3618  0.4386
 3314SOL    HW121575   1.875   4.361   2.264  0.8823  0.3149  1.6718
 3314SOL    HW221576   1.908   4.478   2.175 -2.2718 -0.6346  1.1799
 3315SOL     OW21577   2.714   4.567   6.182 -0.2003 -0.0193  0.2309
 3315SOL    HW121578   2.625   4.533   6.172  0.9197 -2.2752 -1.9888
 3315SOL    HW221579   2.755   4.546   6.098 -1.3029 -0.6414 -0.1552
 3316SOL     OW21580   0.958   2.013  11.736  0.3003 -0.6891 -0.2108
 3316SOL    HW121581   1.027   2.071  11.705 -0.6100 -0.4877 -1.8377
 3316SOL    HW221582   0.996   1.981  11.818  0.6666  0.7333  0.1716
 3317SOL     OW21583   1.080   2.963   8.972  0.6477  0.2521  0.3359
 3317SOL    HW121584   1.037   3.030   9.025 -0.0199 -0.0534  0.1929
 3317SOL    HW221585   1.005   2.906   8.950  0.0165  0.7595  1.1713
 3318SOL     OW21586   0.553   4.184   6.993 -0.2107  0.2157 -0.0802
 3318SOL    HW121587   0.495   4.133   7.050  2.0719 -1.0904  1.0874
 3318SOL    HW221588   0.571   4.249   7.062 -2.9781 -0.4404  1.2869
 3319SOL     OW21589   2.797   2.267   8.466  0.2324  0.2146 -0.5718
 3319SOL    HW121590   2.724   2.285   8.525  0.7489 -0.3332  0.2287
 3319SOL    HW221591   2.795   2.173   8.449  0.9918  0.3266 -1.2817
 3320SOL     OW21592   1.266   1.000   4.578 -0.7151 -0.4168  0.0480
 3320SOL    HW121593   1.265   0.908   4.603 -0.8567 -0.7354 -1.1430
 3320SOL    HW221594   1.256   1.001   4.483 -1.6732 -1.1957  0.1409
 3321SOL     OW21595   3.780   1.612   3.577  0.3438 -0.3763  0.0359
 3321SOL    HW121596   3.862   1.564   3.565  0.2615 -0.6805  0.7077
 3321SOL    HW221597   3.816   1.701   3.582 -2.1607  0.7671 -1.9272
 3322SOL     OW21598   0.446   2.211  12.795  0.5428  0.0263 -0.0656
 3322SOL    HW121599   0.443   2.261  12.714  0.3780 -2.2806 -1.4747
 3322SOL    HW221600   0.535   2.200  12.828  0.7307  0.0647 -0.5756
 3323SOL     OW21601   4.154   0.431   3.403  0.5332  0.1463  0.5287
 3323SOL    HW121602   4.143   0.339   3.428  0.9288  0.2261  1.0045
 3323SOL    HW221603   4.246   0.423   3.379  0.1504 -0.5541 -0.6888
 3324SOL     OW21604   2.847   1.481  15.793 -0.5518  0.0395  0.0413
 3324SOL    HW121605   2.780   1.546  15.812 -1.1840 -0.6169  0.0732
 3324SOL    HW221606   2.808   1.422  15.728 -3.5348  3.3628 -1.1765
 3325SOL     OW21607   1.823   0.816   7.460 -0.1019 -0.4433  0.4639
 3325SOL    HW121608   1.826   0.869   7.540 -2.6704  2.0508 -1.0430
 3325SOL    HW221609   1.913   0.786   7.454 -0.3644 -1.4399  1.4239
 3326SOL     OW21610   2.748   4.584   2.603 -0.0422 -0.4735 -0.0891
 3326SOL    HW121611   2.696   4.564   2.681 -2.0363  1.9242 -0.8058
 3326SOL    HW221612   2.674   4.601   2.545  0.9810 -0.2554 -1.3367
 3327SOL     OW21613   3.966   3.127   2.379  0.1450 -0.0077 -0.3875
 3327SOL    HW121614   4.046   3.100   2.424 -1.8393 -2.1189  1.8627
 3327SOL    HW221615   3.908   3.058   2.409 -1.1958  1.2904 -0.0118
 3328SOL     OW21616   1.081   2.550   5.526 -0.2157 -0.3813  0.0955
 3328SOL    HW121617   1.128   2.615   5.473 -1.5854  2.0102  1.7964
 3328SOL    HW221618   1.105   2.472   5.475  1.5004 -0.5131  1.1240
 3329SOL     OW21619   3.805   2.010  11.868 -0.6963 -0.0694  0.2627
 3329SOL    HW121620   3.808   2.100  11.901 -1.1544 -0.9079  2.5847
 3329SOL    HW221621   3.864   1.967  11.930 -0.2833  0.3775  0.1813
 3330SOL     OW21622   4.060   2.317   1.652 -0.3837  0.2211 -0.2216
 3330SOL    HW121623   3.974   2.290   1.685 -1.0323  0.9343 -1.3576
 3330SOL    HW221624   4.118   2.253   1.694 -1.0436 -0.2714 -0.0406
 3331SOL     OW21625   4.465   2.211  10.279 -0.5980  0.1524 -0.0101
 3331SOL    HW121626   4.556   2.235  10.296 -0.1767 -0.0322 -2.0622
 3331SOL    HW221627   4.438   2.190  10.369  0.1386 -2.3103 -0.3878
 3332SOL     OW21628   2.527   2.204  14.616  0.3061  0.3672  0.0478
 3332SOL    HW121629   2.520   2.277  14.555  0.8074 -0.2405 -0.7308
 3332SOL    HW221630   2.458   2.146  14.586 -0.0626  0.3909  0.8361
 3333SOL     OW21631   2.375   3.900   9.228  0.2964 -0.1304  0.7499
 3333SOL    HW121632   2.328   3.833   9.180 -0.4511  0.9970 -0.0839
 3333SOL    HW221633   2.372   3.866   9.318  1.1599 -3.0319 -0.3448
 3334SOL     OW21634   2.137   2.885   0.545  0.0655 -0.0777  0.6279
 3334SOL    HW121635   2.108   2.968   0.507 -0.0132  0.0510  0.9674
 3334SOL    HW221636   2.085   2.834   0.483 -2.1688 -1.1037  3.3865
 3335SOL     OW21637   4.126   2.073   0.892  0.0563 -0.3761 -0.8275
 3335SOL    HW121638   4.149   1.986   0.858 -0.0594 -0.9774  0.6241
 3335SOL    HW221639   4.187   2.128   0.844 -0.1095  2.8584  2.7203
 3336SOL     OW21640   2.717   4.337   9.927 -0.2129  0.0148 -0.4044
 3336SOL    HW121641   2.689   4.322  10.017 -1.0795  0.4447 -0.5922
 3336SOL    HW221642   2.636   4.364   9.883  0.8691  0.7802 -1.9200
 3337SOL     OW21643   2.050   3.496   7.465 -0.0676  0.5752 -0.0582
 3337SOL    HW121644   2.087   3.579   7.494 -0.8819  0.1688  2.1022
 3337SOL    HW221645   1.967   3.525   7.426  0.7183  3.0049  0.0331
 3338SOL     OW21646   4.713   4.586   9.995 -0.3330  0.5121  0.2052
 3338SOL    HW121647   0.065   4.578   9.972 -0.7845 -0.8337 -1.1071
 3338SOL    HW221648   4.683   4.499   9.971 -1.2746  0.4372  1.6760
 3339SOL     OW21649   2.228   3.135   8.444 -0.0844 -0.3932  0.1512
 3339SOL    HW121650   2.310   3.159   8.488 -0.5118  0.9121  0.2332
 3339SOL    HW221651   2.226   3.044   8.473 -0.9330 -1.1446 -2.2923
 3340SOL     OW21652   3.182   1.377  16.276 -0.3180  0.3704  0.1220
 3340SOL    HW121653   3.219   1.445  16.331  0.7289 -0.0510 -0.0608
 3340SOL    HW221654   3.217   1.391  16.188  1.8574  1.4987  1.1664
 3341SOL     OW21655   4.677   3.588   6.775 -0.4727 -0.2651 -0.3252
 3341SOL    HW121656   4.726   3.670   6.762  2.1374 -1.7346  0.4216
 3341SOL    HW221657   4.659   3.579   6.681 -0.2486  0.6269 -0.4595
 3342SOL     OW21658   2.561   3.463   4.349  0.1835 -0.0488 -0.3576
 3342SOL    HW121659   2.589   3.372   4.353 -0.1626 -0.0214  2.8632
 3342SOL    HW221660   2.584   3.490   4.260 -0.4611  0.5228 -0.3510
 3343SOL     OW21661   3.741   2.269  11.265 -0.3875  0.1384  0.3533
 3343SOL    HW121662   3.724   2.188  11.312 -0.5706 -1.5566 -2.6938
 3343SOL    HW221663   3.833   2.262  11.239 -0.8638  1.7371 -1.7851
 3344SOL     OW21664   2.202   4.229   5.809 -0.9585  0.1427  0.5035
 3344SOL    HW121665   2.215   4.149   5.859  0.8061 -1.4454 -2.4840
 3344SOL    HW221666   2.123   4.274   5.841 -0.1455  1.7445  0.2429
 3345SOL     OW21667   2.144   1.521   1.886 -0.0390 -0.1301 -0.4376
 3345SOL    HW121668   2.083   1.471   1.942 -0.2651  0.8280  0.1776
 3345SOL    HW221669   2.094   1.598   1.859  1.1138  0.4504 -0.8673
 3346SOL     OW21670   0.809   4.434   6.984  0.1591  0.3991 -0.3910
 3346SOL    HW121671   0.826   4.426   7.078 -3.2668 -0.6641  0.1355
 3346SOL    HW221672   0.885   4.488   6.962 -0.0157  0.3832 -1.0239
 3347SOL     OW21673   3.955   1.301   7.829 -0.1973 -0.2363  0.1708
 3347SOL    HW121674   3.943   1.391   7.860 -1.4031 -0.6679  0.9647
 3347SOL    HW221675   3.886   1.289   7.764  0.0775 -1.8500  0.1720
 3348SOL     OW21676   2.053   1.266   9.394  0.2266 -0.6023 -0.3910
 3348SOL    HW121677   2.018   1.330   9.333  1.3425  2.8588  2.6410
 3348SOL    HW221678   2.145   1.253   9.372  0.3566 -0.6743  0.1852
 3349SOL     OW21679   1.767   3.702   5.224  0.2342  0.7563  0.2401
 3349SOL    HW121680   1.803   3.626   5.268  0.1527 -0.2614 -1.4367
 3349SOL    HW221681   1.807   3.687   5.138 -0.4932 -0.0029  0.0368
 3350SOL     OW21682   0.259   1.237   2.615 -0.8282  0.2771 -0.2944
 3350SOL    HW121683   0.199   1.210   2.546  1.7893 -0.7578 -2.1871
 3350SOL    HW221684   0.204   1.279   2.680  0.9371  1.3292  0.5323
 3351SOL     OW21685   0.945   3.530   7.480  0.5244 -0.1396 -0.3184
 3351SOL    HW121686   0.999   3.522   7.558 -1.3718  1.5649  1.1555
 3351SOL    HW221687   0.866   3.494   7.520  0.6648  1.2049  1.1593
 3352SOL     OW21688   2.192   4.201  17.745  0.9598  0.3912 -0.3285
 3352SOL    HW121689   2.264   4.261  17.723  0.0504  1.6849  0.2261
 3352SOL    HW221690   2.134   4.210  17.670 -1.0058  0.6677  1.2214
 3353SOL     OW21691   3.501   4.347   2.276  0.4205  0.4140  0.0086
 3353SOL    HW121692   3.564   4.418   2.265 -0.7162  1.2872 -0.8914
 3353SOL    HW221693   3.434   4.381   2.217 -1.6042  0.8608  2.5835
 3354SOL     OW21694   3.008   4.201   7.366  0.3206 -0.1518 -0.0775
 3354SOL    HW121695   3.093   4.167   7.395  0.1467  0.4207  1.0718
 3354SOL    HW221696   2.950   4.185   7.439 -0.5029  0.7653 -0.5304
 3355SOL     OW21697   3.718   2.743   2.481 -0.4898  0.2729 -0.0542
 3355SOL    HW121698   3.626   2.766   2.492  0.0461  1.2832  2.3287
 3355SOL    HW221699   3.716   2.648   2.497 -1.9827  0.3965  0.4961
 3356SOL     OW21700   0.047   1.277   2.778  0.3447  0.0804  0.0830
 3356SOL    HW121701   0.058   1.345   2.845 -0.7022  1.8156 -1.5188
 3356SOL    HW221702   4.711   1.308   2.731 -0.6669  0.0490  1.6996
 3357SOL     OW21703   0.726   1.366  13.317  0.3247  0.0560 -0.0350
 3357SOL    HW121704   0.747   1.278  13.286  1.9833  0.5890 -0.4626
 3357SOL    HW221705   0.806   1.387  13.366 -1.1573 -1.4743  3.0069
 3358SOL     OW21706   2.902   4.594   2.376 -0.1084  0.1726 -0.0540
 3358SOL    HW121707   2.880   4.624   2.464 -3.1781 -2.0760 -0.0716
 3358SOL    HW221708   2.859   4.665   2.327  3.7773  1.7843 -1.1780
 3359SOL     OW21709   2.883   2.138  16.946 -0.3169 -0.4433  0.1615
 3359SOL    HW121710   2.936   2.215  16.927  0.6309 -1.4252 -1.1691
 3359SOL    HW221711   2.931   2.105  17.022  4.8703 -0.0020 -2.8810
 3360SOL     OW21712   0.847   2.531  16.271 -0.0724 -0.4072 -0.6551
 3360SOL    HW121713   0.757   2.538  16.302  0.7363 -1.4730  1.8861
 3360SOL    HW221714   0.883   2.613  16.305  1.4769 -1.0911 -0.5999
 3361SOL     OW21715   1.496   3.818   7.618 -0.3416  0.4212  0.1110
 3361SOL    HW121716   1.559   3.747   7.610 -2.0143 -1.3538  2.4133
 3361SOL    HW221717   1.556   3.892   7.622  0.2295 -0.1268  1.9072
 3362SOL     OW21718   0.599   2.631   1.096  0.1634 -0.0476  0.0891
 3362SOL    HW121719   0.554   2.680   1.027  0.9363  0.1113 -0.3066
 3362SOL    HW221720   0.663   2.584   1.042  1.0103 -0.2184  1.2390
 3363SOL     OW21721   0.727   0.824   7.548  0.3183  0.1280  0.4636
 3363SOL    HW121722   0.759   0.878   7.476 -0.3099 -0.5327 -0.2983
 3363SOL    HW221723   0.807   0.815   7.601 -0.0418 -1.8056  0.6543
 3364SOL     OW21724   1.799   0.215   2.364 -0.6111 -0.0581 -0.2286
 3364SOL    HW121725   1.881   0.169   2.344 -1.5732 -1.0168 -1.9605
 3364SOL    HW221726   1.753   0.150   2.417 -1.5207  0.3108 -0.5608
 3365SOL     OW21727   4.283   4.149   3.424  0.2530 -0.4960  0.1297
 3365SOL    HW121728   4.191   4.168   3.442  0.2617  0.6909 -1.0771
 3365SOL    HW221729   4.315   4.227   3.470  0.4812 -0.3347 -0.2977
 3366SOL     OW21730   0.225   3.451   5.990  0.1410 -0.6078  0.1837
 3366SOL    HW121731   0.283   3.413   5.925 -1.2830 -1.0130 -0.8456
 3366SOL    HW221732   0.154   3.388   6.002 -0.8949  0.0359 -2.7045
 3367SOL     OW21733   3.443   1.287   2.826  0.3488  0.5751 -0.4881
 3367SOL    HW121734   3.497   1.334   2.764  0.5565 -0.1276 -0.8428
 3367SOL    HW221735   3.455   1.199   2.790  1.3525  0.2218  0.7204
 3368SOL     OW21736   0.637   3.268   3.688 -0.1208 -0.5566 -0.0787
 3368SOL    HW121737   0.613   3.247   3.598  1.3205  0.3992 -0.6820
 3368SOL    HW221738   0.717   3.319   3.681 -0.2094 -0.6767 -1.9013
 3369SOL     OW21739   1.376   0.610   4.590  0.2912 -0.1497 -0.2219
 3369SOL    HW121740   1.447   0.546   4.582  0.3831 -0.0390 -0.2857
 3369SOL    HW221741   1.398   0.656   4.509 -0.5349  0.9936  0.2039
 3370SOL     OW21742   1.283   2.578   2.679  0.1451  0.3242  0.3350
 3370SOL    HW121743   1.222   2.517   2.720  1.5720 -1.2723  0.0883
 3370SOL    HW221744   1.268   2.545   2.590  1.0796  0.6137  0.0766
 3371SOL     OW21745   4.116   3.618   2.307  0.1173  0.3007  0.1167
 3371SOL    HW121746   4.086   3.577   2.226 -0.2155 -1.5385  1.1909
 3371SOL    HW221747   4.172   3.687   2.269 -2.4099  2.5945  0.5600
 3372SOL     OW21748   3.312   2.609  13.765  0.2524  0.0664  0.7026
 3372SOL    HW121749   3.352   2.523  13.780 -1.2518 -0.9069 -0.7587
 3372SOL    HW221750   3.388   2.666  13.769  1.4502 -1.3433 -2.3616
 3373SOL     OW21751   2.795   4.618   5.274 -0.4552  0.4692  0.9345
 3373SOL    HW121752   2.816   4.530   5.305  1.6605  0.1672 -1.3770
 3373SOL    HW221753   2.708   4.602   5.239  0.1702  0.7454 -0.7213
 3374SOL     OW21754   4.022   2.026   3.419  0.1498 -0.7290  0.5087
 3374SOL    HW121755   4.061   2.049   3.504  0.8493  2.0107 -0.5443
 3374SOL    HW221756   4.004   2.114   3.386  0.0984 -0.7065  0.5972
 3375SOL     OW21757   4.241   1.143  12.688  0.2404  0.1588 -0.0712
 3375SOL    HW121758   4.241   1.085  12.765 -4.5998  2.1225  1.4230
 3375SOL    HW221759   4.172   1.103  12.635  1.6374  0.8168 -2.3534
 3376SOL     OW21760   2.642   2.352  17.437 -0.1493  0.8019 -0.1279
 3376SOL    HW121761   2.582   2.278  17.424  1.3172 -0.8606  2.4430
 3376SOL    HW221762   2.726   2.306  17.445 -0.3771  0.5586  0.9465
 3377SOL     OW21763   1.724   2.052  12.276  1.0240 -0.1051  0.3468
 3377SOL    HW121764   1.691   1.962  12.273  0.6235  0.0271  0.7921
 3377SOL    HW221765   1.641   2.094  12.300  0.8854  0.3121 -0.8611
 3378SOL     OW21766   0.804   2.922   8.926 -0.1562  0.1736  0.0376
 3378SOL    HW121767   0.775   2.997   8.978  1.6993  0.5331  0.5458
 3378SOL    HW221768   0.721   2.897   8.886  0.2471 -2.2152  0.7000
 3379SOL     OW21769   4.392   0.280   1.928  0.2004  0.1137  0.1794
 3379SOL    HW121770   4.417   0.192   1.957 -1.8519 -0.4384  0.2748
 3379SOL    HW221771   4.437   0.325   2.000  2.0384 -0.7627 -0.4277
 3380SOL     OW21772   2.612   2.821   3.218 -0.2543 -0.2422 -0.0123
 3380SOL    HW121773   2.620   2.779   3.303  1.3016  0.7648  0.3249
 3380SOL    HW221774   2.685   2.776   3.174 -0.3920  0.3332 -0.8294
 3381SOL     OW21775   3.939   1.913  11.286 -0.0571  0.5398 -0.0168
 3381SOL    HW121776   3.850   1.939  11.312 -1.0094 -0.9480 -1.7737
 3381SOL    HW221777   3.921   1.960  11.204 -0.6867 -0.8595 -0.6899
 3382SOL     OW21778   0.672   2.598   5.934  0.2586  0.3129  0.2846
 3382SOL    HW121779   0.620   2.530   5.977  1.0762 -0.0677  0.6699
 3382SOL    HW221780   0.647   2.589   5.842 -0.9638 -0.3027  0.6805
 3383SOL     OW21781   1.331   2.095   2.461  0.3187 -0.0274 -0.5025
 3383SOL    HW121782   1.390   2.027   2.429  1.3884  0.7462 -0.1534
 3383SOL    HW221783   1.274   2.083   2.385 -0.1936  2.7726 -0.5417
 3384SOL     OW21784   4.453   2.502   4.944  0.0403  0.1885 -0.1301
 3384SOL    HW121785   4.369   2.457   4.950 -1.4390  2.8957 -0.5554
 3384SOL    HW221786   4.497   2.458   5.017  2.0465  0.2053 -1.3314
 3385SOL     OW21787   2.189   1.453  10.271 -0.0476 -0.1107  0.2779
 3385SOL    HW121788   2.120   1.417  10.326 -1.0552 -2.4609 -2.5275
 3385SOL    HW221789   2.248   1.378  10.276 -0.7564 -0.6022  1.1468
 3386SOL     OW21790   1.529   0.616   5.366 -1.0889 -0.1133 -0.1865
 3386SOL    HW121791   1.470   0.635   5.292 -1.7523 -0.0171  0.3675
 3386SOL    HW221792   1.500   0.530   5.395 -0.2450 -0.3890 -0.1514
 3387SOL     OW21793   4.381   3.143  13.032  0.2798  0.6503  0.0015
 3387SOL    HW121794   4.413   3.056  13.057 -1.0282 -0.3512 -1.8020
 3387SOL    HW221795   4.420   3.190  13.105 -1.2746 -0.1875  1.3714
 3388SOL     OW21796   0.960   2.990  15.885 -0.4181 -0.4975  0.1069
 3388SOL    HW121797   1.019   2.995  15.961  0.3593 -2.6057 -0.3656
 3388SOL    HW221798   1.017   2.979  15.809  0.6313 -1.8150  1.0977
 3389SOL     OW21799   1.105   1.348   4.112  0.4224 -0.0298 -0.0634
 3389SOL    HW121800   1.165   1.378   4.180 -0.1643  0.6976  0.1398
 3389SOL    HW221801   1.085   1.427   4.062  1.4534  0.3023  0.0534
 3390SOL     OW21802   2.976   0.598  15.922  0.0766  0.4712 -0.1677
 3390SOL    HW121803   2.908   0.654  15.959  0.1197 -0.1472  0.8563
 3390SOL    HW221804   3.038   0.667  15.901  1.4816 -0.7220  0.0888
 3391SOL     OW21805   1.610   3.018   5.548  0.0657 -0.3278  0.3435
 3391SOL    HW121806   1.550   2.964   5.600 -0.5947  0.3488  0.2812
 3391SOL    HW221807   1.562   3.024   5.465 -2.0226 -0.3339  1.5494
 3392SOL     OW21808   4.034   1.864  17.693  0.1506  0.1080 -0.1529
 3392SOL    HW121809   4.076   1.950  17.700  0.2813 -0.2266  2.9822
 3392SOL    HW221810   3.979   1.875  17.615  1.4731 -1.9331 -1.3563
 3393SOL     OW21811   1.936   1.606  10.313 -0.4115 -0.0580  0.2796
 3393SOL    HW121812   2.020   1.571  10.285 -1.0919  0.1950 -2.0207
 3393SOL    HW221813   1.873   1.568  10.252 -0.5051 -0.1713  0.4451
 3394SOL     OW21814   1.713   3.799   7.927 -0.1264  0.3022  0.1448
 3394SOL    HW121815   1.800   3.788   7.889 -0.3218  2.2628 -0.8673
 3394SOL    HW221816   1.705   3.894   7.925  0.6922  0.3584 -0.4631
 3395SOL     OW21817   4.527   0.444   6.251 -0.5585  0.2732  0.5216
 3395SOL    HW121818   4.617   0.413   6.259 -1.1794 -1.2978  1.4809
 3395SOL    HW221819   4.542   0.536   6.228 -2.5095  0.5737  0.4990
 3396SOL     OW21820   3.379   0.763  16.383  0.7008  0.3746 -0.1220
 3396SOL    HW121821   3.457   0.708  16.392  0.1236 -0.5203 -0.4939
 3396SOL    HW221822   3.320   0.730  16.451  0.9932  1.0080  0.4281
 3397SOL     OW21823   2.102   1.149  13.536 -0.2045 -0.5059  0.5750
 3397SOL    HW121824   2.125   1.221  13.477 -1.8451  0.0194  0.5840
 3397SOL    HW221825   2.008   1.138  13.521 -0.4227  1.0158  0.7858
 3398SOL     OW21826   1.882   4.614   2.060  0.1163  0.0154 -0.1591
 3398SOL    HW121827   1.975   4.619   2.040 -0.2622  1.9934 -1.5245
 3398SOL    HW221828   1.843   4.700   2.042 -1.8221 -1.1874 -1.8777
 3399SOL     OW21829   3.124   4.054   6.988  0.1559  0.1111 -0.3703
 3399SOL    HW121830   3.083   4.029   7.071 -0.7563  1.3042 -0.4549
 3399SOL    HW221831   3.076   3.999   6.926  0.4662 -1.6636  0.9736
 3400SOL     OW21832   3.355   4.638  12.157  0.1176 -0.1389  0.7117
 3400SOL    HW121833   3.366   4.570  12.223  0.3671 -2.7268 -1.9853
 3400SOL    HW221834   3.270   4.620  12.116 -0.0641  1.4277  0.3921
 3401SOL     OW21835   1.872   2.689   9.925  0.0040 -0.1579 -0.4857
 3401SOL    HW121836   1.853   2.604   9.884 -0.2472 -1.3375  2.0617
 3401SOL    HW221837   1.802   2.739   9.883 -0.6086  0.2840  1.0491
 3402SOL     OW21838   2.532   1.966  11.404 -0.3279 -0.7157 -0.0764
 3402SOL    HW121839   2.602   1.909  11.372 -2.1060 -2.4337 -0.9277
 3402SOL    HW221840   2.575   2.019  11.471 -2.1699  0.1471  0.4263
 3403SOL     OW21841   0.044   0.551   8.257 -0.4119 -0.4674  0.0433
 3403SOL    HW121842   0.077   0.621   8.202  2.7053 -0.7956  1.5044
 3403SOL    HW221843   0.067   0.588   8.342  0.0092 -0.4058 -0.0993
 3404SOL     OW21844   0.107   2.415   5.572 -0.4536  0.1292  0.0974
 3404SOL    HW121845   0.076   2.505   5.563  1.3419  0.5282 -1.9896
 3404SOL    HW221846   0.187   2.434   5.620  0.1700 -1.2846 -0.3961
 3405SOL     OW21847   1.149   1.590   2.219  0.4879 -0.0795 -0.4006
 3405SOL    HW121848   1.173   1.529   2.289 -1.8057  0.9899  1.3570
 3405SOL    HW221849   1.216   1.574   2.154  2.5634  2.0653  1.1972
 3406SOL     OW21850   4.100   2.779   7.823 -0.0362 -0.5059  0.0429
 3406SOL    HW121851   4.036   2.814   7.761  0.5247 -0.5474 -0.5588
 3406SOL    HW221852   4.183   2.794   7.779 -0.2669 -2.3883 -1.0301
 3407SOL     OW21853   2.581   3.556   9.539  0.0385 -0.4597 -0.2630
 3407SOL    HW121854   2.674   3.557   9.560 -0.1698 -0.0714  0.6516
 3407SOL    HW221855   2.558   3.482   9.595 -0.9685  0.1432  0.1283
 3408SOL     OW21856   3.851   0.920  12.872 -0.6315  0.0659 -0.4990
 3408SOL    HW121857   3.808   0.850  12.920 -1.3633  0.0266 -1.2092
 3408SOL    HW221858   3.785   0.943  12.806  2.2075  1.0163 -2.9998
 3409SOL     OW21859   3.218   2.444   2.225  0.8035 -0.4723 -0.1090
 3409SOL    HW121860   3.206   2.538   2.212  0.3991 -0.8885 -2.7669
 3409SOL    HW221861   3.205   2.409   2.137 -0.9782 -1.8452  0.7077
 3410SOL     OW21862   0.267   1.743   6.817 -0.3662 -0.1883 -0.4569
 3410SOL    HW121863   0.258   1.833   6.846  0.4920  0.1830 -1.3406
 3410SOL    HW221864   0.208   1.742   6.741 -1.7667  2.1169  0.6071
 3411SOL     OW21865   4.643   2.294   5.426 -0.0739 -0.5897 -0.1065
 3411SOL    HW121866   4.593   2.373   5.404 -2.5965 -1.8279  1.1273
 3411SOL    HW221867   4.718   2.341   5.461 -0.2073 -1.3941  1.2702
 3412SOL     OW21868   2.340   2.274   5.972 -0.2757  0.4487  0.4611
 3412SOL    HW121869   2.355   2.179   5.968  0.7903  0.6318  0.1698
 3412SOL    HW221870   2.245   2.285   5.961 -0.1376  0.8817 -0.2748
 3413SOL     OW21871   1.152   1.586  10.601  0.1415 -0.1348  0.1114
 3413SOL    HW121872   1.180   1.537  10.678 -0.8397 -1.7705 -0.5433
 3413SOL    HW221873   1.222   1.650  10.597 -0.1379  0.1888  0.4876
 3414SOL     OW21874   2.146   2.911   2.775  0.0008  0.3017 -0.0448
 3414SOL    HW121875   2.093   2.864   2.711  0.9033  1.8262 -1.8957
 3414SOL    HW221876   2.089   2.964   2.830 -0.5847  0.1217 -0.4831
 3415SOL     OW21877   3.393   4.270   3.420 -0.0869 -0.6873  0.4422
 3415SOL    HW121878   3.431   4.249   3.334  1.0978 -1.4884  1.1647
 3415SOL    HW221879   3.473   4.249   3.466  1.8848 -3.2803 -4.1166
 3416SOL     OW21880   3.647   4.473   4.130  0.3865  0.5945 -0.1549
 3416SOL    HW121881   3.679   4.437   4.213  1.0667 -2.5699 -1.7887
 3416SOL    HW221882   3.732   4.505   4.100  0.6856 -0.5825 -0.5591
 3417SOL     OW21883   1.187   1.937  15.921  0.1453  0.4711  0.0915
 3417SOL    HW121884   1.240   1.872  15.967  1.1685  0.1391 -1.5702
 3417SOL    HW221885   1.154   1.981  16.000  2.6479  1.9193  0.3471
 3418SOL     OW21886   4.333   2.859   2.757  0.6752 -0.2970  0.1652
 3418SOL    HW121887   4.271   2.903   2.815  0.9167  0.2958 -0.0137
 3418SOL    HW221888   4.373   2.944   2.735  0.6691 -0.0322  1.1611
 3419SOL     OW21889   0.029   2.690  14.696  0.3885 -0.2839  0.2458
 3419SOL    HW121890   0.078   2.754  14.644 -2.4228  0.1816 -1.7877
 3419SOL    HW221891   0.005   2.750  14.767  1.1152  0.1897  0.0927
 3420SOL     OW21892   1.085   1.178   1.098 -0.2878 -0.3412 -0.0156
 3420SOL    HW121893   1.127   1.142   1.020 -2.2985  1.2519 -1.8540
 3420SOL    HW221894   1.031   1.247   1.060 -1.6591 -1.2008  0.3186
 3421SOL     OW21895   1.169   0.075  17.587  0.0564  0.0830  0.2312
 3421SOL    HW121896   1.236   0.009  17.570  0.0294  0.3701 -1.0024
 3421SOL    HW221897   1.220   0.149  17.622  1.9586 -0.8671 -0.5542
 3422SOL     OW21898   2.453   0.151   6.694  0.5001  0.5296  0.1420
 3422SOL    HW121899   2.411   0.089   6.635  1.0363 -1.9441  2.3522
 3422SOL    HW221900   2.480   0.225   6.638 -0.2637  0.6340 -0.0780
 3423SOL     OW21901   3.560   1.082   1.761 -0.0560  0.2959  0.1820
 3423SOL    HW121902   3.652   1.098   1.784 -0.1882 -0.2862  1.1229
 3423SOL    HW221903   3.522   1.074   1.849  2.1115  1.6320  1.2298
 3424SOL     OW21904   3.665   0.801  10.237  0.3680  0.3016  0.2105
 3424SOL    HW121905   3.646   0.885  10.196 -0.9492 -0.1132 -0.0248
 3424SOL    HW221906   3.634   0.735  10.175  2.4631 -0.1131 -0.4155
 3425SOL     OW21907   0.427   0.070   9.578  0.4817  0.2492  0.1208
 3425SOL    HW121908   0.347   0.112   9.608 -0.4808 -0.4230 -1.5066
 3425SOL    HW221909   0.401   0.036   9.492 -2.7958  1.4044  0.6446
 3426SOL     OW21910   3.358   3.413   3.221 -0.2383  0.0310 -0.5622
 3426SOL    HW121911   3.270   3.401   3.257  0.3523  0.5358  1.0545
 3426SOL    HW221912   3.340   3.439   3.130 -1.2503  0.5258 -0.2262
 3427SOL     OW21913   0.583   0.741   5.635  0.5571 -0.6753 -0.1906
 3427SOL    HW121914   0.556   0.785   5.716 -1.9986  0.6533 -1.7454
 3427SOL    HW221915   0.513   0.677   5.627 -2.2573  2.5588 -1.7057
 3428SOL     OW21916   3.118   3.391   1.409  0.6878  0.1193  0.3940
 3428SOL    HW121917   3.094   3.307   1.368 -0.8705 -0.6690  2.9110
 3428SOL    HW221918   3.140   3.450   1.337 -1.0830  0.6518  0.2846
 3429SOL     OW21919   1.016   3.799   3.745  0.4044  0.0506  0.5364
 3429SOL    HW121920   0.932   3.842   3.761 -0.1046 -0.0677 -1.8442
 3429SOL    HW221921   1.044   3.858   3.674 -2.1333  1.2582  0.5215
 3430SOL     OW21922   4.349   0.383   5.746  0.0791  0.3621 -0.6185
 3430SOL    HW121923   4.383   0.367   5.834 -2.3041  3.5570  0.8746
 3430SOL    HW221924   4.379   0.306   5.697  2.9074 -0.3353  2.1923
 3431SOL     OW21925   1.614   2.845   3.570 -0.3046  0.1216 -0.1101
 3431SOL    HW121926   1.613   2.862   3.475 -2.5352  0.3680 -0.0472
 3431SOL    HW221927   1.676   2.910   3.604 -0.0443 -0.1327 -0.1077
 3432SOL     OW21928   3.808   0.111   8.447 -0.1652 -0.0845 -0.6483
 3432SOL    HW121929   3.786   0.053   8.520 -0.0207 -1.2784 -1.5625
 3432SOL    HW221930   3.798   0.054   8.371  1.3250  2.1931 -2.5505
 3433SOL     OW21931   0.910   0.442   1.794  0.1803 -0.2508  0.3025
 3433SOL    HW121932   0.934   0.419   1.705  3.8341 -0.1241  1.2482
 3433SOL    HW221933   0.992   0.480   1.824  0.2234 -0.4631  0.4586
 3434SOL     OW21934   2.361   3.833  15.542 -0.9180  0.3242  0.2466
 3434SOL    HW121935   2.283   3.809  15.491 -1.7945 -0.2800  1.8695
 3434SOL    HW221936   2.323   3.906  15.591 -2.1242  1.5111 -2.4144
 3435SOL     OW21937   1.634   2.783  10.733  0.2730  0.1808  0.5044
 3435SOL    HW121938   1.677   2.747  10.655 -1.4706  1.6435 -1.1387
 3435SOL    HW221939   1.704   2.833  10.774 -0.6550  1.6466  0.2970
 3436SOL     OW21940   1.369   0.786   0.859  0.1173  0.2237  0.1517
 3436SOL    HW121941   1.422   0.705   0.859  0.3999  0.4180  2.0404
 3436SOL    HW221942   1.440   0.850   0.862 -1.3598  1.9804 -2.5485
 3437SOL     OW21943   4.534   0.291   4.260 -0.3397  0.9894 -0.1715
 3437SOL    HW121944   4.630   0.295   4.258 -0.3885  3.9922  2.8626
 3437SOL    HW221945   4.515   0.380   4.233 -2.1931  0.6444 -0.0107
 3438SOL     OW21946   3.350   0.251   2.467  0.3611 -0.2016  0.3037
 3438SOL    HW121947   3.365   0.278   2.558  3.1250 -0.5763 -0.0453
 3438SOL    HW221948   3.372   0.158   2.476  0.7728  0.2213  3.5968
 3439SOL     OW21949   3.332   0.882   7.680  0.4593 -0.4427 -0.4888
 3439SOL    HW121950   3.350   0.805   7.733 -2.6235 -0.7934  0.0305
 3439SOL    HW221951   3.332   0.839   7.594  1.0207 -0.4839 -0.4687
 3440SOL     OW21952   1.276   4.076   3.962 -0.3683  0.1843 -0.4005
 3440SOL    HW121953   1.344   4.120   4.013  0.8467 -1.2106 -0.8325
 3440SOL    HW221954   1.325   4.094   3.882 -0.2225  1.5324 -0.0131
 3441SOL     OW21955   4.308   2.207   0.744  0.4320  0.3796  0.1932
 3441SOL    HW121956   4.362   2.283   0.725  0.8467 -0.3253 -1.3767
 3441SOL    HW221957   4.341   2.131   0.696 -1.8839 -0.4332 -0.1513
 3442SOL     OW21958   2.804   0.201   5.227 -0.2565  0.4286  0.8479
 3442SOL    HW121959   2.755   0.235   5.151  0.5497 -1.6362 -0.5996
 3442SOL    HW221960   2.814   0.108   5.207  0.5935  0.4571  1.1805
 3443SOL     OW21961   2.497   2.081  12.154  0.6001 -0.1624  0.1138
 3443SOL    HW121962   2.418   2.104  12.204  0.2102 -1.2033 -0.0296
 3443SOL    HW221963   2.554   2.141  12.202  0.8654 -1.4701  1.4337
 3444SOL     OW21964   3.458   1.135   3.105 -0.3366  0.2655  0.1364
 3444SOL    HW121965   3.484   1.174   3.021 -0.6184  0.2326  0.0325
 3444SOL    HW221966   3.369   1.103   3.090 -0.0447 -0.0463 -0.8815
 3445SOL     OW21967   2.195   1.942   4.581 -0.0709  0.0566 -0.0719
 3445SOL    HW121968   2.109   1.973   4.609 -0.6018 -1.5643  0.0562
 3445SOL    HW221969   2.209   1.987   4.497  0.9773  2.6864  1.4978
 3446SOL     OW21970   3.740   1.687   4.344  0.4869  0.1865 -0.7196
 3446SOL    HW121971   3.824   1.699   4.300 -0.4986 -0.5453 -2.8155
 3446SOL    HW221972   3.683   1.721   4.275  1.3545  0.0111 -1.5333
 3447SOL     OW21973   1.317   2.857   3.644  0.2189  0.7018  0.2166
 3447SOL    HW121974   1.408   2.885   3.631 -0.3003  1.7224 -1.1579
 3447SOL    HW221975   1.299   2.804   3.567 -0.7459 -1.6011  2.0294
 3448SOL     OW21976   2.816   1.093  14.498  0.4636 -0.4859 -0.3127
 3448SOL    HW121977   2.832   1.187  14.510 -0.1467 -0.4797  0.5248
 3448SOL    HW221978   2.906   1.066  14.480 -0.0698 -0.7571 -2.5650
 3449SOL     OW21979   1.619   4.348  13.804  0.4322 -0.0030  0.0527
 3449SOL    HW121980   1.648   4.257  13.796  0.0349  0.2262 -4.1029
 3449SOL    HW221981   1.529   4.334  13.774  0.0400  1.5787  0.4778
 3450SOL     OW21982   3.872   3.436   3.766 -0.2565  0.4493 -0.1385
 3450SOL    HW121983   3.780   3.412   3.780 -0.6268  1.6720 -0.4237
 3450SOL    HW221984   3.870   3.517   3.818  3.0633 -0.4352  1.3125
 3451SOL     OW21985   2.955   0.705   5.749 -0.1557 -0.2733  0.6964
 3451SOL    HW121986   2.877   0.728   5.798 -1.1802 -0.4046 -0.8624
 3451SOL    HW221987   2.947   0.769   5.678  3.7498 -1.1182 -0.5143
 3452SOL     OW21988   3.417   0.209   6.024  0.7553  0.5554 -0.2171
 3452SOL    HW121989   3.438   0.167   5.940  0.6587 -1.0957  0.6000
 3452SOL    HW221990   3.440   0.300   6.005  1.3056  0.4235 -0.2022
 3453SOL     OW21991   3.021   3.279   7.945 -0.3261  0.1161  0.3431
 3453SOL    HW121992   3.020   3.207   8.008 -1.1440 -0.7045 -0.6014
 3453SOL    HW221993   3.098   3.257   7.892  0.4017  0.3202  1.3193
 3454SOL     OW21994   0.211   0.236   0.685  0.2750 -0.3036  0.1522
 3454SOL    HW121995   0.131   0.239   0.737  0.5715 -4.1608  0.8499
 3454SOL    HW221996   0.232   0.142   0.685  1.2666 -0.0856 -1.3136
 3455SOL     OW21997   1.510   2.112  16.944  0.8107 -0.1307  0.1863
 3455SOL    HW121998   1.505   2.139  17.036  0.8506 -3.7274  1.2587
 3455SOL    HW221999   1.442   2.170  16.911 -1.4538 -1.5629  2.3540
 3456SOL     OW22000   3.588   4.363  13.647  0.0283 -0.5239 -0.0495
 3456SOL    HW122001   3.615   4.281  13.606 -0.0432  0.1329 -1.3936
 3456SOL    HW222002   3.638   4.360  13.728 -0.6328 -2.1286  0.3169
 3457SOL     OW22003   3.092   0.909  12.549 -0.2708 -0.5834 -0.2221
 3457SOL    HW122004   3.020   0.935  12.607  0.4649  0.7886  0.0684
 3457SOL    HW222005   3.128   0.995  12.528 -1.5748  0.0978  0.3281
 3458SOL     OW22006   3.989   1.444   0.847 -0.1626  0.3293  0.6753
 3458SOL    HW122007   4.058   1.378   0.836 -0.8778 -0.6411  2.0478
 3458SOL    HW222008   3.912   1.388   0.853  1.8809 -2.3695  1.9343
 3459SOL     OW22009   3.522   3.435   6.210 -0.0829  0.4182 -0.0229
 3459SOL    HW122010   3.456   3.501   6.227  0.5682  0.6748  1.5103
 3459SOL    HW222011   3.604   3.470   6.246 -0.7567  1.8662  0.0782
 3460SOL     OW22012   3.109   0.916   8.158  0.2115 -0.0340  0.6541
 3460SOL    HW122013   3.187   0.875   8.119  2.0676  1.5669  2.6627
 3460SOL    HW222014   3.148   0.992   8.202  0.4270 -0.7814  1.7392
 3461SOL     OW22015   2.689   1.027   5.749  0.5717 -0.3726 -0.1834
 3461SOL    HW122016   2.706   0.985   5.833  0.9633  0.1508 -0.0059
 3461SOL    HW222017   2.735   0.959   5.699  0.7536  0.5407 -1.2431
 3462SOL     OW22018   1.976   3.824   2.138  0.1083 -0.2328 -0.5120
 3462SOL    HW122019   1.890   3.854   2.165 -0.3502 -1.6079 -0.4541
 3462SOL    HW222020   2.009   3.908   2.104  0.9396  0.1794  1.3432
 3463SOL     OW22021   1.302   0.982   0.478 -0.5956 -0.1653  0.7301
 3463SOL    HW122022   1.317   0.963   0.386  1.7050  0.5833  0.9364
 3463SOL    HW222023   1.274   1.074   0.479 -0.6319 -0.1462 -2.5830
 3464SOL     OW22024   3.086   1.467   2.029 -0.4102 -0.0508 -0.0515
 3464SOL    HW122025   3.027   1.468   1.954 -0.3328 -0.8694 -0.1304
 3464SOL    HW222026   3.113   1.558   2.022 -1.1100  0.1630  0.0772
 3465SOL     OW22027   1.927   0.253   6.481 -0.0778  0.7415 -0.4233
 3465SOL    HW122028   1.938   0.158   6.473  0.4144  0.7024  0.6885
 3465SOL    HW222029   2.009   0.284   6.519 -0.1413 -1.4851  1.4825
 3466SOL     OW22030   0.514   4.008   2.784  0.1216  0.0426  0.5054
 3466SOL    HW122031   0.470   3.971   2.861 -0.8862 -1.9413 -1.0462
 3466SOL    HW222032   0.525   3.932   2.728 -1.0889 -0.5301  1.0394
 3467SOL     OW22033   3.291   1.886   6.727 -0.0621 -0.5090  0.3930
 3467SOL    HW122034   3.206   1.857   6.694 -0.6409 -0.9504  2.2241
 3467SOL    HW222035   3.283   1.980   6.711  3.2031  0.1155  2.3685
 3468SOL     OW22036   4.200   3.363   6.527  0.1126 -0.1516 -0.3395
 3468SOL    HW122037   4.254   3.344   6.604 -0.7135 -0.4264  0.1725
 3468SOL    HW222038   4.118   3.390   6.568  0.1624  0.1480 -0.4345
 3469SOL     OW22039   2.881   4.057  16.909 -0.3712  0.1741  0.2170
 3469SOL    HW122040   2.807   4.112  16.881  1.1169  1.3282 -1.4613
 3469SOL    HW222041   2.870   4.096  16.996 -3.7495  0.0099 -0.1446
 3470SOL     OW22042   1.373   1.532   3.695 -0.0543 -0.2069  0.0684
 3470SOL    HW122043   1.432   1.477   3.643 -2.5037 -1.3491 -1.5102
 3470SOL    HW222044   1.396   1.511   3.785 -2.2462  0.2360  0.7355
 3471SOL     OW22045   0.569   1.767  14.260 -0.1870  0.1108  0.4203
 3471SOL    HW122046   0.597   1.739  14.347  0.6960  1.1059  0.4583
 3471SOL    HW222047   0.604   1.704  14.198  1.9508 -0.6716  2.4461
 3472SOL     OW22048   1.880   3.821   6.431 -0.3182 -0.6139  0.4150
 3472SOL    HW122049   1.860   3.895   6.489 -0.7659  0.0242 -0.5579
 3472SOL    HW222050   1.825   3.756   6.474  0.2325 -0.6615  1.0538
 3473SOL     OW22051   1.770   3.645  12.778  0.2522 -0.0190 -0.4518
 3473SOL    HW122052   1.772   3.663  12.873  0.8656  0.9952 -0.6534
 3473SOL    HW222053   1.804   3.556  12.779  0.2304 -0.0350 -1.8389
 3474SOL     OW22054   3.463   4.352  15.368 -0.0673  0.7112 -0.2375
 3474SOL    HW122055   3.484   4.372  15.277 -0.1906  0.6708 -0.2752
 3474SOL    HW222056   3.394   4.286  15.358 -0.5890  0.9566  1.6540
 3475SOL     OW22057   2.217   2.793   6.621  0.0500 -0.5097  0.2036
 3475SOL    HW122058   2.261   2.765   6.701 -0.5193  0.2526  0.7769
 3475SOL    HW222059   2.291   2.845   6.589 -1.8355  1.0294 -1.6346
 3476SOL     OW22060   0.132   4.623   2.257 -0.2203 -0.4366 -0.2793
 3476SOL    HW122061   0.175   4.565   2.320  1.6115  0.0865 -1.0290
 3476SOL    HW222062   0.192   4.619   2.182 -2.1261  1.1039 -1.8912
 3477SOL     OW22063   3.972   0.499   4.825  0.0868  0.0377 -0.4100
 3477SOL    HW122064   4.016   0.458   4.751  1.7587 -1.3838  1.3692
 3477SOL    HW222065   4.036   0.567   4.847  0.4439 -0.5935  0.4876
 3478SOL     OW22066   2.014   2.041  12.282  0.1336 -0.3512  0.0814
 3478SOL    HW122067   2.024   1.974  12.215  0.3799 -2.1965  1.9368
 3478SOL    HW222068   1.921   2.062  12.269  0.3553 -1.1726 -2.7811
 3479SOL     OW22069   1.079   2.137   5.775  0.1178  0.1634 -0.2087
 3479SOL    HW122070   0.990   2.102   5.771  1.8052 -4.0166 -1.0901
 3479SOL    HW222071   1.131   2.069   5.731  1.2229  0.4484  0.6550
 3480SOL     OW22072   0.163   2.517  11.349  0.2490  0.0457  0.3599
 3480SOL    HW122073   0.126   2.581  11.410 -0.8414 -0.4098  0.1696
 3480SOL    HW222074   0.172   2.437  11.402 -1.0902 -0.0837  0.3777
 3481SOL     OW22075   2.069   1.383   1.136 -0.5066  0.5682  0.1272
 3481SOL    HW122076   2.089   1.300   1.093 -0.2488 -0.2649  1.8446
 3481SOL    HW222077   2.028   1.354   1.218  1.5712  1.0108  1.3316
 3482SOL     OW22078   1.168   2.262   1.959 -0.5311  0.2612 -0.0239
 3482SOL    HW122079   1.162   2.330   1.891 -0.8464  1.1663  0.9059
 3482SOL    HW222080   1.077   2.267   1.988 -0.5115 -1.5363  0.3552
 3483SOL     OW22081   3.009   0.720   3.160  0.1324  0.3699  0.1300
 3483SOL    HW122082   2.977   0.645   3.110  2.8566 -0.1839 -0.7829
 3483SOL    HW222083   3.101   0.696   3.172  0.5858  2.8625  1.7105
 3484SOL     OW22084   0.294   2.861   4.720 -0.2325 -0.6439  0.1491
 3484SOL    HW122085   0.277   2.819   4.636 -0.2783 -1.6861  0.6791
 3484SOL    HW222086   0.311   2.788   4.780 -1.9670  0.0334  1.4670
 3485SOL     OW22087   0.015   1.040  15.483  0.5361 -0.3547 -0.3801
 3485SOL    HW122088   0.004   0.977  15.555  1.3624  0.1766  0.2088
 3485SOL    HW222089   0.038   1.116  15.537  0.1065 -0.6770  0.2640
 3486SOL     OW22090   2.574   1.051  14.627 -0.3115  0.0500 -0.2092
 3486SOL    HW122091   2.561   1.146  14.629 -0.9966 -0.0370 -0.3308
 3486SOL    HW222092   2.665   1.037  14.601  0.4816  1.9548  1.5522
 3487SOL     OW22093   2.861   2.159   4.276  0.4907 -0.0087 -0.0354
 3487SOL    HW122094   2.835   2.165   4.184 -0.9624 -0.9825  0.3289
 3487SOL    HW222095   2.775   2.146   4.315  0.0826  0.0727 -0.9012
 3488SOL     OW22096   2.141   0.768   8.084  0.5686 -0.3249  0.4674
 3488SOL    HW122097   2.143   0.692   8.027 -0.3470  0.2677 -0.3523
 3488SOL    HW222098   2.233   0.790   8.097  0.8373 -0.4680 -1.2122
 3489SOL     OW22099   0.147   2.863   5.310  0.2670  0.0484  0.1615
 3489SOL    HW122100   0.229   2.828   5.278 -0.1358 -1.5172  0.8268
 3489SOL    HW222101   0.170   2.884   5.401  0.9813  0.8420 -0.2046
 3490SOL     OW22102   0.364   0.807   9.378  0.1288 -0.1748  0.1574
 3490SOL    HW122103   0.453   0.836   9.402  0.5882 -1.4816  0.0106
 3490SOL    HW222104   0.327   0.887   9.340  2.0663  0.3925 -0.5591
 3491SOL     OW22105   3.301   0.408   4.318 -0.5113  0.3888 -0.0910
 3491SOL    HW122106   3.214   0.387   4.283 -0.8558 -1.4932  1.9031
 3491SOL    HW222107   3.350   0.333   4.284 -0.7465 -1.1417  2.9512
 3492SOL     OW22108   1.021   0.392   9.732 -0.7083  0.2109 -0.3077
 3492SOL    HW122109   0.972   0.380   9.651 -0.4373 -0.5665 -0.3620
 3492SOL    HW222110   1.086   0.322   9.739 -2.1808 -1.1110  0.2628
 3493SOL     OW22111   2.241   2.327  11.069 -0.0845  0.3304  0.0281
 3493SOL    HW122112   2.168   2.363  11.119 -1.4763 -0.0107 -1.7361
 3493SOL    HW222113   2.217   2.235  11.057  1.3304 -0.1625  0.9430
 3494SOL     OW22114   0.349   0.828   6.107 -0.2707  0.4737  0.2400
 3494SOL    HW122115   0.373   0.904   6.159 -0.5187 -0.4773  1.7476
 3494SOL    HW222116   0.353   0.755   6.170  0.0449  1.6569  1.5794
 3495SOL     OW22117   2.444   0.258   4.180  0.0900  0.1489  0.3744
 3495SOL    HW122118   2.404   0.219   4.103  1.7257  0.9302 -0.8651
 3495SOL    HW222119   2.372   0.316   4.205  1.6591  1.2253  2.4861
 3496SOL     OW22120   0.830   4.349   5.406  0.2132 -0.2006  0.7405
 3496SOL    HW122121   0.848   4.264   5.365  0.8883  1.5355 -2.5461
 3496SOL    HW222122   0.881   4.405   5.347  0.3016 -0.3523  0.6722
 3497SOL     OW22123   0.953   0.621   7.463  0.0607  0.4807  0.0178
 3497SOL    HW122124   0.939   0.695   7.404 -0.4748  1.0013  0.8045
 3497SOL    HW222125   0.896   0.552   7.432 -1.5466  0.7190  2.4312
 3498SOL     OW22126   3.264   0.156   4.592 -0.2120 -0.2558  0.0914
 3498SOL    HW122127   3.308   0.114   4.518 -0.0510  0.1428 -0.0405
 3498SOL    HW222128   3.193   0.094   4.606 -0.7268  0.5287  0.9274
 3499SOL     OW22129   2.317   0.996  13.619 -0.1362  0.2002 -0.1142
 3499SOL    HW122130   2.240   1.054  13.616 -1.6013 -1.7413 -0.1712
 3499SOL    HW222131   2.330   0.978  13.526  0.2248 -0.4998  0.0727
 3500SOL     OW22132   3.914   4.065   7.235 -0.2295  0.3303  0.1871
 3500SOL    HW122133   3.877   3.978   7.220  1.5663 -0.5756  0.9220
 3500SOL    HW222134   4.008   4.050   7.222 -0.2132 -0.0457  0.7392
 3501SOL     OW22135   0.584   2.924   0.889 -0.0011  0.3812 -0.5829
 3501SOL    HW122136   0.589   2.956   0.979  0.9965 -1.9457  0.1857
 3501SOL    HW222137   0.561   3.005   0.843  3.2446  1.3579 -0.4340
 3502SOL     OW22138   3.038   1.218   3.549  0.2515  0.1469 -0.6973
 3502SOL    HW122139   3.007   1.144   3.497 -0.8482  0.0524  0.0967
 3502SOL    HW222140   2.999   1.292   3.503 -1.8446 -1.1301 -0.9707
 3503SOL     OW22141   3.762   2.718  11.982 -0.2754  0.1459  0.4143
 3503SOL    HW122142   3.854   2.691  11.979  0.0831  1.6902 -2.2796
 3503SOL    HW222143   3.767   2.761  12.068 -2.5597  0.2370  0.5037
 3504SOL     OW22144   0.211   0.946   3.765  0.5119  0.0051 -0.2308
 3504SOL    HW122145   0.206   0.856   3.799 -0.1193  1.0607  2.5163
 3504SOL    HW222146   0.117   0.963   3.761  0.6141 -0.2643 -3.7076
 3505SOL     OW22147   0.395   1.660   8.567 -0.2933 -0.2176  0.0230
 3505SOL    HW122148   0.358   1.716   8.636 -1.2844 -1.0550  0.1704
 3505SOL    HW222149   0.484   1.696   8.569 -0.4206  0.0447  1.3190
 3506SOL     OW22150   0.662   2.321   7.284 -0.6516 -0.1432  0.1191
 3506SOL    HW122151   0.650   2.235   7.325  1.4896  0.1521  1.3596
 3506SOL    HW222152   0.571   2.342   7.265 -1.5165 -2.0558  2.0023
 3507SOL     OW22153   2.990   2.405   3.293  0.0275 -0.2353 -0.0014
 3507SOL    HW122154   2.953   2.351   3.223 -0.8215 -1.8429  1.7089
 3507SOL    HW222155   3.025   2.341   3.355  1.5814  0.5942 -0.0271
 3508SOL     OW22156   2.687   0.887  14.366 -0.0885  0.0512  0.5824
 3508SOL    HW122157   2.715   0.978  14.379 -0.4066  0.4990 -1.8552
 3508SOL    HW222158   2.597   0.899  14.334  0.6466  1.9429 -0.8057
 3509SOL     OW22159   1.920   0.543  17.548 -0.2021 -0.2567 -0.4145
 3509SOL    HW122160   1.844   0.486  17.541  0.1836 -0.6911 -1.0598
 3509SOL    HW222161   1.907   0.601  17.473  0.8808  1.7469  0.9540
 3510SOL     OW22162   2.070   0.817   3.786 -0.0904 -0.5094  0.2370
 3510SOL    HW122163   2.015   0.870   3.843 -0.9930  1.2037 -2.2017
 3510SOL    HW222164   2.150   0.806   3.839  1.0106 -1.0988 -1.5402
 3511SOL     OW22165   0.498   2.950   3.616 -0.3175 -0.7265 -0.8371
 3511SOL    HW122166   0.527   2.910   3.533  0.1625 -2.0024 -0.0521
 3511SOL    HW222167   0.580   2.938   3.664 -0.9448 -3.0544 -0.3592
 3512SOL     OW22168   1.269   4.068   4.515 -1.0069  0.8120 -0.0478
 3512SOL    HW122169   1.229   4.152   4.491  0.0674  0.7499 -2.0525
 3512SOL    HW222170   1.347   4.104   4.557 -2.1595  1.9073  1.1359
 3513SOL     OW22171   2.211   3.719   7.554 -0.0145 -0.4087 -0.5530
 3513SOL    HW122172   2.218   3.801   7.506 -0.5486  0.5237  0.9355
 3513SOL    HW222173   2.224   3.746   7.645  2.2269 -0.5623 -0.8130
 3514SOL     OW22174   3.591   1.451  14.050 -0.0315  0.6017  0.2966
 3514SOL    HW122175   3.670   1.398  14.041 -0.0261  0.9218 -1.4238
 3514SOL    HW222176   3.558   1.445  13.961 -0.3946 -0.8758  0.5195
 3515SOL     OW22177   3.013   2.322   6.746 -0.3692  0.4463  0.4421
 3515SOL    HW122178   2.928   2.366   6.748 -0.3183  0.5397  0.5496
 3515SOL    HW222179   3.058   2.370   6.815 -1.0761  1.3544  0.2642
 3516SOL     OW22180   3.938   3.189   8.729 -0.2528  0.5124  0.3125
 3516SOL    HW122181   3.883   3.196   8.651 -0.9779  0.9279  0.8567
 3516SOL    HW222182   3.987   3.109   8.710  2.4225  1.7817  1.9235
 3517SOL     OW22183   0.693   0.280   3.652  0.1981  0.4195 -0.4442
 3517SOL    HW122184   0.726   0.364   3.622 -1.9187  1.2421 -0.4563
 3517SOL    HW222185   0.747   0.218   3.602 -1.4753 -0.4357 -1.1985
 3518SOL     OW22186   0.338   4.704  13.238 -0.1617 -0.2168 -0.1977
 3518SOL    HW122187   0.284   0.041  13.246 -1.1085 -0.8461 -0.3993
 3518SOL    HW222188   0.317   4.653  13.316 -1.1902 -0.1934 -0.4693
 3519SOL     OW22189   2.786   0.615   7.331 -0.1901  0.1980  0.5084
 3519SOL    HW122190   2.786   0.538   7.274  0.5786  1.2122 -0.8506
 3519SOL    HW222191   2.878   0.621   7.358 -0.0719 -0.0874  0.1742
 3520SOL     OW22192   0.605   0.401   1.787 -0.4041  0.3111 -0.3405
 3520SOL    HW122193   0.557   0.355   1.718  0.0992  0.4015 -0.7477
 3520SOL    HW222194   0.673   0.340   1.817 -0.8634  1.2970  2.7188
 3521SOL     OW22195   1.432   4.220  13.364 -0.1604  0.0591  0.5060
 3521SOL    HW122196   1.456   4.133  13.334 -0.4986 -0.5969  2.1750
 3521SOL    HW222197   1.464   4.275  13.292 -0.7127 -1.5015 -0.9377
 3522SOL     OW22198   0.006   3.686   2.574 -0.5824 -0.6706 -0.0282
 3522SOL    HW122199   4.728   3.617   2.510  2.6031  1.3103 -3.1105
 3522SOL    HW222200   0.082   3.652   2.621  0.7240 -0.9388 -2.3349
 3523SOL     OW22201   1.711   0.958   7.262  0.0546  0.1025 -0.4957
 3523SOL    HW122202   1.663   1.022   7.314  1.8702 -0.9790  2.5255
 3523SOL    HW222203   1.765   0.917   7.329 -1.2763  0.3339  0.7155
 3524SOL     OW22204   3.091   0.685  12.367  0.4994 -0.2635  1.4811
 3524SOL    HW122205   3.010   0.731  12.348  1.0318  0.0322 -0.0865
 3524SOL    HW222206   3.097   0.725  12.453  0.7337  1.0695  0.8579
 3525SOL     OW22207   0.224   0.442   8.061  0.3154  0.3679 -0.1720
 3525SOL    HW122208   0.150   0.460   8.118 -0.2526  2.2420 -1.4787
 3525SOL    HW222209   0.230   0.352   8.090  0.1849 -0.3679 -2.4276
 3526SOL     OW22210   0.887   3.913  16.945  0.7503  0.2095  0.6369
 3526SOL    HW122211   0.803   3.877  16.916  1.3708 -0.1851 -0.6141
 3526SOL    HW222212   0.950   3.860  16.896 -0.3434 -1.3414  0.8972
 3527SOL     OW22213   2.186   0.492   7.958  0.6470  0.2169  0.4686
 3527SOL    HW122214   2.254   0.433   7.993  0.4542 -1.5312 -2.1016
 3527SOL    HW222215   2.194   0.459   7.869  0.0471 -0.4017  0.6441
 3528SOL     OW22216   1.016   1.417  14.348 -0.1161 -0.5757 -0.3339
 3528SOL    HW122217   0.949   1.364  14.303  1.4800 -0.7593 -2.4815
 3528SOL    HW222218   1.092   1.396  14.294  0.8124  1.2410  0.2872
 3529SOL     OW22219   2.850   3.308  17.603  0.4246 -0.0071 -0.1330
 3529SOL    HW122220   2.851   3.251  17.526 -1.9692 -1.8639  1.2304
 3529SOL    HW222221   2.799   3.261  17.668  0.7938  0.3919  0.4483
 3530SOL     OW22222   3.638   2.061   1.465 -0.4318 -0.0235 -0.6450
 3530SOL    HW122223   3.597   2.002   1.402 -0.3281 -1.3102  0.4919
 3530SOL    HW222224   3.710   2.005   1.495 -1.6473 -0.5804  1.2743
 3531SOL     OW22225   4.361   2.621   6.232 -0.9747  0.0834  0.0915
 3531SOL    HW122226   4.293   2.665   6.283  1.1572  3.0451  0.3763
 3531SOL    HW222227   4.435   2.625   6.292 -0.9024  0.8083 -0.0479
 3532SOL     OW22228   2.208   3.997   6.453  0.5140  0.1880  0.3404
 3532SOL    HW122229   2.176   4.047   6.528 -0.3617 -2.8847  2.0195
 3532SOL    HW222230   2.133   4.031   6.403 -0.5574 -3.1921 -0.3914
 3533SOL     OW22231   1.616   1.196   7.356  0.4017  0.0908  0.0058
 3533SOL    HW122232   1.604   1.280   7.313  3.3694  0.5957  0.1947
 3533SOL    HW222233   1.686   1.218   7.417  0.0772  0.6050  0.1914
 3534SOL     OW22234   3.273   1.215   0.986 -0.5152 -0.1387  0.0205
 3534SOL    HW122235   3.314   1.234   1.070 -0.0643  0.9492 -0.4427
 3534SOL    HW222236   3.343   1.170   0.938  0.8630  1.7743  0.2380
 3535SOL     OW22237   2.967   0.586   2.126 -0.3747 -0.0662  0.1454
 3535SOL    HW122238   2.996   0.675   2.142  0.9174 -0.0101 -2.4813
 3535SOL    HW222239   2.890   0.611   2.075  0.2055  0.9738 -0.2078
 3536SOL     OW22240   0.970   2.686   1.427  0.1374  0.2872 -0.0792
 3536SOL    HW122241   0.930   2.663   1.344  1.9703  0.6565 -1.0602
 3536SOL    HW222242   1.056   2.645   1.417  0.3210  0.7037 -0.2149
 3537SOL     OW22243   1.361   2.502  11.853  0.4646 -0.4382  0.4307
 3537SOL    HW122244   1.398   2.438  11.792  0.9870  0.3664 -0.0927
 3537SOL    HW222245   1.439   2.514  11.907  0.8929 -0.1554 -0.2669
 3538SOL     OW22246   0.933   4.572   5.221  0.1000 -0.3611 -0.1472
 3538SOL    HW122247   0.871   4.609   5.158 -0.0565 -0.9223 -0.3200
 3538SOL    HW222248   1.003   4.538   5.165 -1.0560 -1.7658 -0.7464
 3539SOL     OW22249   3.346   0.911  17.577 -0.0916  0.2861 -0.7367
 3539SOL    HW122250   3.385   0.984  17.624  1.4333 -1.5591  0.9159
 3539SOL    HW222251   3.256   0.940  17.567 -0.2196  0.1762  0.0413
 3540SOL     OW22252   1.385   0.678  16.788 -0.0341  0.1521 -0.0650
 3540SOL    HW122253   1.390   0.752  16.728 -0.5108  1.1150  1.0921
 3540SOL    HW222254   1.380   0.613  16.717 -3.0529  1.0985 -0.7058
 3541SOL     OW22255   3.355   2.754  11.023 -0.0104 -0.3494  0.4209
 3541SOL    HW122256   3.395   2.683  10.973 -1.5616 -2.0012  1.5133
 3541SOL    HW222257   3.415   2.758  11.097  0.5474 -1.2659  0.0130
 3542SOL     OW22258   2.704   0.554  11.311  0.2252  0.2910  0.0740
 3542SOL    HW122259   2.686   0.646  11.330 -0.0298  0.5395 -1.3412
 3542SOL    HW222260   2.618   0.530  11.275  0.4875 -0.0613 -0.3282
 3543SOL     OW22261   4.051   3.397   2.487  0.3965 -0.5171 -0.2239
 3543SOL    HW122262   4.104   3.471   2.458 -0.5871 -0.6969 -2.4417
 3543SOL    HW222263   4.082   3.317   2.445  1.6398 -0.0781 -0.1232
 3544SOL     OW22264   3.437   3.808  16.861  0.5756 -0.1775  0.2826
 3544SOL    HW122265   3.472   3.771  16.942  0.5685  1.1081  0.8646
 3544SOL    HW222266   3.399   3.890  16.890 -0.6499 -0.9070  0.7742
 3545SOL     OW22267   1.168   0.138  11.752  0.1550  0.3997  0.0520
 3545SOL    HW122268   1.125   0.059  11.784  1.2624 -0.5480 -0.7768
 3545SOL    HW222269   1.097   0.202  11.749 -1.5658 -1.5565 -0.3733
 3546SOL     OW22270   4.630   4.261   6.374  0.3164  0.8582 -0.4139
 3546SOL    HW122271   4.597   4.233   6.460  0.4843 -0.9329 -0.9425
 3546SOL    HW222272   4.704   4.316   6.397 -0.5849  0.3452  3.8938
 3547SOL     OW22273   3.432   0.418  14.765  0.1910  0.8185 -0.0890
 3547SOL    HW122274   3.351   0.403  14.813  0.0205 -0.6282 -0.8596
 3547SOL    HW222275   3.404   0.439  14.676 -0.9938  1.1768  0.3729
 3548SOL     OW22276   2.943   2.008   2.908  0.6413 -0.8666 -0.2373
 3548SOL    HW122277   2.909   1.922   2.886 -0.6706 -0.1431 -1.0569
 3548SOL    HW222278   2.983   2.034   2.825 -1.0027  0.7611 -0.5293
 3549SOL     OW22279   0.233   0.763   2.051  0.0190  0.2080 -0.1276
 3549SOL    HW122280   0.306   0.723   2.003  1.6052 -0.2451  2.6455
 3549SOL    HW222281   0.268   0.852   2.045  0.6865  0.0904  1.9629
 3550SOL     OW22282   4.699   0.130   7.237 -0.6544 -0.1348  0.0125
 3550SOL    HW122283   4.605   0.139   7.249 -0.2634  1.3194  1.8979
 3550SOL    HW222284   4.716   0.092   7.323  0.3539 -2.3269 -1.1532
 3551SOL     OW22285   0.767   3.378  14.558  0.0292  0.4317 -0.2429
 3551SOL    HW122286   0.827   3.444  14.593  0.8821 -0.0077 -0.8593
 3551SOL    HW222287   0.704   3.367  14.629  1.4367 -0.8936  0.8038
 3552SOL     OW22288   3.977   0.897   8.923 -0.1752  0.2986  0.1218
 3552SOL    HW122289   3.954   0.818   8.876 -2.7701  1.5728 -0.7845
 3552SOL    HW222290   3.898   0.900   8.978 -0.4247 -0.0490 -0.2182
 3553SOL     OW22291   0.394   1.898  10.464  0.1223  0.1550 -0.3246
 3553SOL    HW122292   0.393   1.898  10.560 -1.9342 -2.9657 -0.3365
 3553SOL    HW222293   0.438   1.980  10.440  0.4473  0.1360  0.2095
 3554SOL     OW22294   1.037   2.411  16.712 -0.1287  0.1975 -0.4946
 3554SOL    HW122295   0.977   2.336  16.705  2.4767 -2.1355  2.0793
 3554SOL    HW222296   1.071   2.408  16.622  0.9689  0.9285 -0.1040
 3555SOL     OW22297   1.281   2.679   8.746  0.2055  0.2438  0.3086
 3555SOL    HW122298   1.205   2.637   8.785 -0.1511  0.6398  0.0336
 3555SOL    HW222299   1.348   2.632   8.797 -0.7449  0.0274  1.3484
 3556SOL     OW22300   2.415   3.484   1.831  0.0254  0.1329 -0.0834
 3556SOL    HW122301   2.477   3.452   1.766  0.0118 -3.1550  1.4822
 3556SOL    HW222302   2.404   3.574   1.800  3.8662  0.1832 -1.3515
 3557SOL     OW22303   0.324   4.430   1.487  0.8544  0.6100 -0.0595
 3557SOL    HW122304   0.330   4.368   1.414  0.9222  1.7340 -0.9998
 3557SOL    HW222305   0.285   4.507   1.447  0.0489 -0.3207 -1.0784
 3558SOL     OW22306   0.828   0.251   8.968 -0.2616  0.0508  0.1716
 3558SOL    HW122307   0.850   0.158   8.973 -1.5942 -0.2754 -0.0773
 3558SOL    HW222308   0.759   0.261   9.033  1.8555  0.7544  2.3237
 3559SOL     OW22309   0.924   1.417   8.762  0.3443 -0.0470  0.4062
 3559SOL    HW122310   0.943   1.329   8.728 -1.0999 -0.3783  0.4819
 3559SOL    HW222311   1.005   1.468   8.760  0.8144 -0.8489 -0.7347
 3560SOL     OW22312   1.082   0.427   3.610 -0.3928 -0.2357 -0.2590
 3560SOL    HW122313   1.071   0.374   3.532 -2.8462 -0.3280  0.1396
 3560SOL    HW222314   1.115   0.367   3.676  0.5174 -2.0921 -2.4323
 3561SOL     OW22315   3.573   3.102  16.821 -0.1069 -0.2934  0.4287
 3561SOL    HW122316   3.490   3.135  16.856 -0.1307 -1.3461  1.3601
 3561SOL    HW222317   3.600   3.172  16.761  0.3206 -0.5615  0.3052
 3562SOL     OW22318   0.498   0.849   4.760  0.0502  0.0925  0.1759
 3562SOL    HW122319   0.481   0.754   4.760  0.3053  0.0502 -0.2929
 3562SOL    HW222320   0.409   0.883   4.774 -0.2491 -0.5847 -0.0858
 3563SOL     OW22321   2.726   1.106  10.619 -0.5490 -0.1738  0.1109
 3563SOL    HW122322   2.722   1.011  10.632  1.2146 -0.2788 -0.1944
 3563SOL    HW222323   2.790   1.127  10.687  0.7720 -0.0661 -1.1830
 3564SOL     OW22324   2.052   0.258   3.741  0.2510  0.2549 -0.1559
 3564SOL    HW122325   2.049   0.170   3.779 -0.8628 -0.0829 -1.0197
 3564SOL    HW222326   2.139   0.262   3.700 -0.2207 -1.1319 -1.2965
 3565SOL     OW22327   3.546   4.130   5.623  0.2872 -0.3978 -0.1157
 3565SOL    HW122328   3.581   4.046   5.592  2.3849  0.8420 -1.1272
 3565SOL    HW222329   3.549   4.116   5.718 -1.9107 -0.5932 -0.0728
 3566SOL     OW22330   2.671   1.763  16.131  0.1949  0.2334 -0.0876
 3566SOL    HW122331   2.663   1.677  16.173  1.9804 -0.4643 -1.1695
 3566SOL    HW222332   2.760   1.751  16.099 -0.5403  0.5533 -2.2783
 3567SOL     OW22333   2.216   3.819  14.279  0.2443  0.0358 -0.3265
 3567SOL    HW122334   2.184   3.752  14.339  2.0139 -1.4847 -1.1101
 3567SOL    HW222335   2.311   3.805  14.286  0.1413 -0.3633  0.2010
 3568SOL     OW22336   3.785   3.080   5.386 -0.2026 -0.2784 -0.1048
 3568SOL    HW122337   3.804   3.039   5.471  2.1356  1.7263  0.3232
 3568SOL    HW222338   3.869   3.069   5.342 -0.2817 -0.5214 -0.1968
 3569SOL     OW22339   0.362   0.719   3.968  0.3275  0.2640 -0.0339
 3569SOL    HW122340   0.453   0.740   3.945 -0.8056  2.7103 -2.2692
 3569SOL    HW222341   0.337   0.641   3.919  0.6907  0.3420 -0.3486
 3570SOL     OW22342   3.901   2.968   3.873  0.4062 -0.4793 -0.5935
 3570SOL    HW122343   3.944   2.927   3.949 -2.0272  0.0925  1.0988
 3570SOL    HW222344   3.924   2.900   3.809  0.0667  0.3324 -1.5671
 3571SOL     OW22345   0.646   2.608   8.680 -0.7546  0.2712  0.1079
 3571SOL    HW122346   0.618   2.521   8.708 -1.0760 -0.2490 -1.8543
 3571SOL    HW222347   0.736   2.591   8.652  0.0747 -1.9952  4.1777
 3572SOL     OW22348   4.001   2.260   6.750  0.2002  0.0869 -0.7708
 3572SOL    HW122349   4.066   2.315   6.706  0.0143  0.5633 -0.4499
 3572SOL    HW222350   4.008   2.188   6.687  0.6086 -1.6159  1.2061
 3573SOL     OW22351   2.859   4.396   3.250  0.0657 -0.3061 -0.5927
 3573SOL    HW122352   2.765   4.407   3.233 -0.7857 -2.7979  2.6073
 3573SOL    HW222353   2.856   4.356   3.336 -0.1395  0.3917 -0.2793
 3574SOL     OW22354   0.318   4.224  12.834 -0.0680 -0.0124 -0.4809
 3574SOL    HW122355   0.387   4.163  12.859  0.7241  1.7817  1.6404
 3574SOL    HW222356   0.265   4.163  12.782  0.1550 -0.4109 -0.2436
 3575SOL     OW22357   1.861   1.267   6.484 -0.3570  0.4800 -0.3281
 3575SOL    HW122358   1.789   1.311   6.529 -0.3745  0.1766 -0.0672
 3575SOL    HW222359   1.928   1.334   6.502 -1.5549  1.4629  0.4806
 3576SOL     OW22360   1.228   2.776   5.224 -0.3086  0.0889 -0.0997
 3576SOL    HW122361   1.228   2.743   5.134 -1.9054 -1.5177  0.4716
 3576SOL    HW222362   1.317   2.803   5.242 -0.9705  2.7727 -0.9210
 3577SOL     OW22363   3.591   0.273   2.902  0.5075  0.2473  0.3112
 3577SOL    HW122364   3.659   0.237   2.846  0.5820  0.0362  0.5374
 3577SOL    HW222365   3.518   0.245   2.846  0.8657  0.6199 -0.3409
 3578SOL     OW22366   0.391   2.152   9.466 -0.8030 -0.0258  0.1134
 3578SOL    HW122367   0.437   2.233   9.487 -0.7031  0.0152 -0.2623
 3578SOL    HW222368   0.349   2.128   9.549  0.4101 -0.2525  0.6746
 3579SOL     OW22369   1.860   2.622   3.196  0.8078 -0.3975  0.0918
 3579SOL    HW122370   1.773   2.583   3.199  0.4050  0.3125 -2.0009
 3579SOL    HW222371   1.866   2.640   3.290  0.1862 -2.0362  0.4472
 3580SOL     OW22372   4.235   1.529   2.156  0.4969  0.0529  0.1627
 3580SOL    HW122373   4.323   1.543   2.121  0.5884  4.7602  2.2559
 3580SOL    HW222374   4.211   1.613   2.194  3.0485  2.4548 -3.6515
 3581SOL     OW22375   1.761   1.974   6.351  0.5166  0.0810 -0.4102
 3581SOL    HW122376   1.750   1.899   6.408  0.1298  2.0573  2.1089
 3581SOL    HW222377   1.673   2.010   6.359  0.1569 -0.9141 -0.0012
 3582SOL     OW22378   0.156   2.515   5.180  0.5258 -0.2397 -0.0673
 3582SOL    HW122379   0.203   2.529   5.263 -0.0138 -1.0564  0.3793
 3582SOL    HW222380   0.094   2.587   5.185  1.2285  0.3178  0.8022
 3583SOL     OW22381   3.361   4.415   8.983 -0.2604 -0.1297  0.6164
 3583SOL    HW122382   3.360   4.401   9.078  0.6935  0.1424  0.6631
 3583SOL    HW222383   3.398   4.503   8.987  0.5809 -0.4169 -0.9120
 3584SOL     OW22384   0.119   0.621   2.270 -0.5162 -0.1325 -0.4435
 3584SOL    HW122385   0.173   0.649   2.197  0.1841 -1.2219 -0.3416
 3584SOL    HW222386   0.184   0.626   2.339 -2.6755  0.6096  1.5432
 3585SOL     OW22387   0.531   1.977   7.786  0.1734  0.0183  0.0106
 3585SOL    HW122388   0.461   1.944   7.842  0.5425  0.0039  0.4652
 3585SOL    HW222389   0.471   2.019   7.724 -1.5654 -1.0784  0.9364
 3586SOL     OW22390   2.997   2.346   2.720 -0.6964  0.2110  0.3296
 3586SOL    HW122391   3.066   2.410   2.740 -0.1340 -0.3750  0.2619
 3586SOL    HW222392   2.938   2.398   2.664 -1.2846 -1.1880 -0.3480
 3587SOL     OW22393   2.216   1.471  14.231 -0.4687 -0.7234 -0.4705
 3587SOL    HW122394   2.162   1.396  14.255  0.2023 -0.2650  2.5911
 3587SOL    HW222395   2.148   1.536  14.216 -1.3979 -1.2003  1.6193
 3588SOL     OW22396   3.038   0.965  17.206 -0.1638  0.3130 -0.5900
 3588SOL    HW122397   3.026   1.055  17.175 -1.1113  0.2648 -0.3554
 3588SOL    HW222398   3.097   0.940  17.135  0.4116  3.1803 -1.1280
 3589SOL     OW22399   4.072   2.735   6.608  0.3749  0.2993  0.1985
 3589SOL    HW122400   4.143   2.786   6.648  1.5914 -1.8914  0.8208
 3589SOL    HW222401   4.064   2.667   6.675  0.1093 -0.1423 -0.2845
 3590SOL     OW22402   2.996   0.455  11.397  0.0402 -0.0542  0.2521
 3590SOL    HW122403   2.985   0.366  11.365  0.8954 -0.7750  1.9450
 3590SOL    HW222404   2.949   0.494  11.324 -1.8031 -1.8418  0.4852
 3591SOL     OW22405   2.408   4.133   1.004  0.0357 -0.2025 -0.0185
 3591SOL    HW122406   2.418   4.115   0.910  0.2204  1.3882 -0.2957
 3591SOL    HW222407   2.497   4.143   1.039 -1.0095  1.6915  2.1006
 3592SOL     OW22408   2.954   0.509  16.928  0.3355 -0.8821 -0.6884
 3592SOL    HW122409   3.018   0.578  16.913  1.5572 -1.5265  1.5987
 3592SOL    HW222410   2.884   0.528  16.866  1.0845  0.2772 -1.1698
 3593SOL     OW22411   1.866   2.820   2.738 -0.1253  0.0592  0.5530
 3593SOL    HW122412   1.842   2.869   2.816 -1.3241 -2.6661  1.9162
 3593SOL    HW222413   1.791   2.760   2.736 -0.9867  1.2030 -0.9937
 3594SOL     OW22414   2.456   3.757   3.550 -0.0272  0.0739  0.6429
 3594SOL    HW122415   2.484   3.678   3.504 -1.2558 -0.7382  1.2762
 3594SOL    HW222416   2.433   3.815   3.477  0.8141 -0.2800  0.1029
 3595SOL     OW22417   4.172   0.502  14.388 -0.1662 -0.0780 -0.0278
 3595SOL    HW122418   4.100   0.440  14.388 -0.9274  0.8109 -0.5548
 3595SOL    HW222419   4.168   0.524  14.295  0.3598  3.1625  0.6962
 3596SOL     OW22420   3.769   3.045  13.577 -0.3120  0.0186 -0.0361
 3596SOL    HW122421   3.755   3.094  13.496  0.3069 -1.9916 -1.3622
 3596SOL    HW222422   3.681   3.027  13.611  0.0112 -0.5986  0.4717
 3597SOL     OW22423   1.294   2.838   8.335  0.9215 -0.0068 -0.2444
 3597SOL    HW122424   1.381   2.798   8.324  0.8125 -1.1917  3.2351
 3597SOL    HW222425   1.292   2.839   8.431  0.5480  1.1111 -0.2674
 3598SOL     OW22426   4.271   2.508   4.184  0.3797  0.2557 -0.5582
 3598SOL    HW122427   4.309   2.553   4.108  0.4355 -0.0763 -0.7268
 3598SOL    HW222428   4.223   2.434   4.147  0.2492 -1.6993  3.5757
 3599SOL     OW22429   2.300   1.321   7.634  0.0841 -0.1520  0.4680
 3599SOL    HW122430   2.320   1.282   7.548  0.7334  0.9979  0.0943
 3599SOL    HW222431   2.335   1.248   7.685 -0.1113  0.8758  2.0528
 3600SOL     OW22432   3.316   1.640   9.047  0.2961  0.3689  0.5513
 3600SOL    HW122433   3.286   1.667   8.960  1.3989  1.5357  0.5320
 3600SOL    HW222434   3.337   1.724   9.087  0.9257  1.0555 -1.2090
 3601SOL     OW22435   2.677   0.610   3.655  0.4466 -0.4341 -0.0351
 3601SOL    HW122436   2.687   0.705   3.666 -2.4392 -0.3093  1.4886
 3601SOL    HW222437   2.742   0.592   3.587  3.2089  1.2624  2.1479
 3602SOL     OW22438   0.245   0.807  14.317  0.1317  0.4184 -0.5742
 3602SOL    HW122439   0.204   0.780  14.399 -1.1792 -0.0795 -1.3966
 3602SOL    HW222440   0.304   0.865  14.364 -0.2277  0.7739 -0.5590
 3603SOL     OW22441   1.343   1.730   3.493  0.5138  0.1178  0.5678
 3603SOL    HW122442   1.358   1.667   3.422  2.4318 -1.6376  2.5136
 3603SOL    HW222443   1.347   1.669   3.567  2.7356  0.2201  0.5236
 3604SOL     OW22444   3.793   3.205   6.419 -0.0058  0.3629 -0.3727
 3604SOL    HW122445   3.860   3.262   6.382 -0.2412  1.4980  0.9304
 3604SOL    HW222446   3.844   3.125   6.427  0.9465  1.0375  0.2193
 3605SOL     OW22447   0.998   2.437   1.064 -0.6522  0.6372  0.1165
 3605SOL    HW122448   1.077   2.483   1.094 -0.2693 -1.1824  1.9847
 3605SOL    HW222449   1.038   2.358   1.026 -0.6348 -0.8462  3.1743
 3606SOL     OW22450   0.973   4.237  17.531  0.2373  0.3947 -0.3608
 3606SOL    HW122451   0.984   4.317  17.480  0.6544  0.2583 -0.4850
 3606SOL    HW222452   1.023   4.273  17.604  0.5678 -1.4508  0.3457
 3607SOL     OW22453   1.499   0.153   5.045  0.6512  0.1769  0.3239
 3607SOL    HW122454   1.427   0.116   4.994 -0.8147  2.1439  0.9759
 3607SOL    HW222455   1.541   0.199   4.973  0.6897 -2.2516 -1.2103
 3608SOL     OW22456   1.149   2.725   4.579 -0.4816  0.0620 -0.3985
 3608SOL    HW122457   1.182   2.814   4.587 -1.1063  0.2611 -0.0799
 3608SOL    HW222458   1.205   2.682   4.644 -1.3277 -1.3962 -0.6172
 3609SOL     OW22459   3.575   0.402  16.847  0.2176  0.3626 -0.3345
 3609SOL    HW122460   3.647   0.370  16.900 -0.9505  0.8541  1.5311
 3609SOL    HW222461   3.575   0.332  16.782  1.0499  0.1511 -0.0972
 3610SOL     OW22462   1.727   3.265  11.104  0.2563  0.3736 -0.0424
 3610SOL    HW122463   1.688   3.320  11.173 -0.2488  1.8007 -1.4743
 3610SOL    HW222464   1.822   3.270  11.112  0.1779  0.9554  0.5379
 3611SOL     OW22465   1.056   1.448   5.933 -0.0929 -0.0233  0.4873
 3611SOL    HW122466   1.043   1.422   5.841 -0.5064 -0.5665  0.6998
 3611SOL    HW222467   1.151   1.449   5.927 -0.3151 -0.1364 -3.4728
 3612SOL     OW22468   0.363   2.228   8.063 -0.0743 -0.0563 -0.0744
 3612SOL    HW122469   0.353   2.323   8.058 -0.7646 -0.0790  0.8589
 3612SOL    HW222470   0.274   2.196   8.052  0.3998 -1.7585  1.0588
 3613SOL     OW22471   0.579   2.099   6.566 -0.2831  0.1432  0.2819
 3613SOL    HW122472   0.571   2.075   6.658  0.9074  0.6343  0.5247
 3613SOL    HW222473   0.515   2.042   6.524  0.2223 -0.5063  0.3777
 3614SOL     OW22474   1.314   0.636   7.328  0.2412  0.6724  0.3244
 3614SOL    HW122475   1.264   0.680   7.397 -0.3135  1.7156 -0.7259
 3614SOL    HW222476   1.400   0.678   7.341  0.4010  0.3800  0.2155
 3615SOL     OW22477   0.494   0.386   4.205 -0.4831 -0.0655  0.3140
 3615SOL    HW122478   0.506   0.308   4.150  0.6317  1.8261 -2.1026
 3615SOL    HW222479   0.461   0.444   4.136 -1.6701  1.2616  2.0326
 3616SOL     OW22480   0.674   0.010   5.219  0.6165  0.2248  0.1756
 3616SOL    HW122481   0.603   4.691   5.197  1.0241  0.0021 -0.5281
 3616SOL    HW222482   0.686   4.729   5.312 -0.7153 -0.6796  0.1297
 3617SOL     OW22483   1.626   0.799   7.057 -0.1102 -0.2654  0.4073
 3617SOL    HW122484   1.684   0.809   6.982 -2.1285  2.1454 -0.8554
 3617SOL    HW222485   1.678   0.841   7.126 -0.8702 -0.6018  1.1874
 3618SOL     OW22486   2.321   1.046  16.764 -0.0534 -0.1563  0.5646
 3618SOL    HW122487   2.414   1.021  16.757  0.4226  2.0615 -0.8879
 3618SOL    HW222488   2.283   0.958  16.761  0.9039 -0.5173 -0.9349
 3619SOL     OW22489   2.981   0.344  17.147  0.5507  0.0424 -0.2775
 3619SOL    HW122490   2.924   0.398  17.203  2.7146  1.3918  0.6418
 3619SOL    HW222491   2.979   0.398  17.068 -1.2137 -1.6303 -1.3690
 3620SOL     OW22492   0.076   3.884   6.377  0.1600  0.2936 -0.2276
 3620SOL    HW122493   0.067   3.882   6.282  2.3865  1.2074 -0.4517
 3620SOL    HW222494   0.135   3.811   6.396  2.1067  1.6445 -1.0907
 3621SOL     OW22495   2.547   1.331   6.747 -0.4463 -0.1976  0.1277
 3621SOL    HW122496   2.453   1.348   6.751 -0.4053 -0.0651  0.5474
 3621SOL    HW222497   2.581   1.420   6.739  0.4950 -0.5149  0.5493
 3622SOL     OW22498   2.549   4.305   2.395  0.0470 -0.1711 -0.2193
 3622SOL    HW122499   2.572   4.216   2.368 -1.3350 -0.4138 -0.6443
 3622SOL    HW222500   2.630   4.332   2.438  1.2924  0.4387 -2.9673
 3623SOL     OW22501   0.784   2.733  14.416  0.2221 -0.1181  0.3951
 3623SOL    HW122502   0.827   2.790  14.480  1.8101  0.2669 -1.0102
 3623SOL    HW222503   0.816   2.648  14.444  1.3426  0.7471  1.7479
 3624SOL     OW22504   1.258   4.123   1.302 -0.6185 -0.4006  0.1272
 3624SOL    HW122505   1.172   4.084   1.312  0.0458 -1.7868  0.4560
 3624SOL    HW222506   1.300   4.044   1.269 -0.7575 -0.1949 -0.5413
 3625SOL     OW22507   0.706   1.263  12.883  0.2615 -0.2764 -0.1770
 3625SOL    HW122508   0.718   1.174  12.849 -1.0025 -0.9009  1.0467
 3625SOL    HW222509   0.728   1.319  12.808  0.1406 -0.5296 -0.4039
 3626SOL     OW22510   3.278   3.532  15.862  0.0500  0.4010  0.0079
 3626SOL    HW122511   3.199   3.525  15.916 -0.2180  1.1621 -0.2839
 3626SOL    HW222512   3.240   3.539  15.774  0.3723 -1.6047 -0.2938
 3627SOL     OW22513   3.469   2.254   8.889  0.4249  0.7674 -0.0133
 3627SOL    HW122514   3.447   2.251   8.982  2.3372 -0.5271  0.3714
 3627SOL    HW222515   3.525   2.177   8.892  0.1138  0.4692 -2.1799
 3628SOL     OW22516   2.246   0.619   3.531  0.0364 -0.1515 -0.1477
 3628SOL    HW122517   2.296   0.662   3.461  1.2096 -0.3541  0.5647
 3628SOL    HW222518   2.294   0.654   3.606 -1.5399  0.6911  0.4812
 3629SOL     OW22519   0.771   1.873   9.206 -0.6707  0.1276  0.1418
 3629SOL    HW122520   0.689   1.880   9.156 -0.7430 -1.1112  0.0975
 3629SOL    HW222521   0.745   1.913   9.289 -0.3046  1.2030 -0.2702
 3630SOL     OW22522   3.839   4.291  10.956  0.2532  0.3735 -0.4727
 3630SOL    HW122523   3.921   4.297  10.907  0.2998 -1.6501 -0.6448
 3630SOL    HW222524   3.808   4.379  10.938  0.0492  0.3143 -0.4120
 3631SOL     OW22525   0.951   0.362  14.077 -0.2544  0.6193  0.2609
 3631SOL    HW122526   0.864   0.337  14.046 -0.4314  0.4439  0.9013
 3631SOL    HW222527   0.999   0.363  13.994  0.1154  4.1452  0.5294
 3632SOL     OW22528   0.628   3.132   5.032 -0.3346 -0.8253 -0.8564
 3632SOL    HW122529   0.704   3.078   5.013  2.0081  2.4117 -0.7124
 3632SOL    HW222530   0.662   3.180   5.108 -2.5136 -0.3679 -0.1623
 3633SOL     OW22531   4.664   3.598   6.254 -0.5600 -0.3978 -0.0675
 3633SOL    HW122532   4.679   3.692   6.240  0.7533 -0.5519  0.3025
 3633SOL    HW222533   0.015   3.573   6.246 -0.3197  0.0578  1.2043
 3634SOL     OW22534   2.751   3.379   7.503 -0.3660  0.2705 -0.6517
 3634SOL    HW122535   2.726   3.293   7.539  0.7732  0.0632 -0.3619
 3634SOL    HW222536   2.692   3.380   7.428 -1.7617 -0.6872  0.4150
 3635SOL     OW22537   2.677   4.334   9.593 -0.0422  0.3035 -0.6136
 3635SOL    HW122538   2.624   4.314   9.670  3.6175  0.9579  2.1014
 3635SOL    HW222539   2.616   4.376   9.533  0.6595  0.4183 -1.2395
 3636SOL     OW22540   0.991   2.809   8.744 -0.2957  0.2293  0.1692
 3636SOL    HW122541   0.923   2.876   8.755  0.0301  0.5286  0.3432
 3636SOL    HW222542   1.049   2.859   8.687  0.2595 -0.7137 -0.0938
 3637SOL     OW22543   3.663   3.593  10.978  0.3955  0.6395  0.1998
 3637SOL    HW122544   3.754   3.621  10.966  0.6569  1.0389  2.9536
 3637SOL    HW222545   3.649   3.602  11.072  0.5106  3.1143 -0.0036
 3638SOL     OW22546   3.645   3.738  13.861 -0.5396  0.5365  0.5096
 3638SOL    HW122547   3.654   3.822  13.815 -1.0833  0.1646 -0.2764
 3638SOL    HW222548   3.680   3.678  13.795  1.8544 -0.5808  2.7904
 3639SOL     OW22549   0.122   3.958   7.820 -0.2628  0.2755 -0.0502
 3639SOL    HW122550   0.069   3.978   7.897  0.3277  1.4309  0.0440
 3639SOL    HW222551   0.211   3.983   7.841  0.0227  0.5487 -1.5627
 3640SOL     OW22552   0.958   0.993   0.252 -0.0872 -0.6138 -0.2232
 3640SOL    HW122553   1.045   1.024   0.276 -0.7090  0.7118  0.3015
 3640SOL    HW222554   0.978   0.917   0.198  2.7853  1.3822 -1.9754
 3641SOL     OW22555   3.115   3.724   2.451  0.3046 -0.3703  0.0435
 3641SOL    HW122556   3.204   3.695   2.429  1.2500  2.2160  0.5494
 3641SOL    HW222557   3.083   3.634   2.454  1.5460 -0.7961  0.5354
 3642SOL     OW22558   3.308   4.194   8.820 -0.2794 -0.0782 -0.1787
 3642SOL    HW122559   3.223   4.228   8.792  0.5862  1.0899 -1.4089
 3642SOL    HW222560   3.336   4.272   8.867 -0.2625  1.5858 -2.9311
 3643SOL     OW22561   3.839   2.126   8.154  0.0237 -0.1259  0.0193
 3643SOL    HW122562   3.744   2.129   8.146  0.1751  3.5728 -0.4081
 3643SOL    HW222563   3.859   2.086   8.069  0.7952  0.9107 -0.2720
 3644SOL     OW22564   1.058   4.605   9.184 -0.0876  0.0148 -0.4587
 3644SOL    HW122565   1.009   4.543   9.238  1.1237  0.9362  1.7106
 3644SOL    HW222566   1.114   4.550   9.130  0.8521  2.5720 -2.1287
 3645SOL     OW22567   4.116   4.312  10.532 -0.2022  0.2163  0.1731
 3645SOL    HW122568   4.146   4.256  10.460 -0.3999 -1.0007  1.0410
 3645SOL    HW222569   4.077   4.385  10.485 -3.5382 -2.0199 -0.5481
 3646SOL     OW22570   1.935   3.553   8.522 -0.0358 -0.0547 -0.6607
 3646SOL    HW122571   1.962   3.462   8.510 -1.7593 -0.5002 -1.2045
 3646SOL    HW222572   2.020   3.590   8.545  0.2838  0.4420 -2.5629
 3647SOL     OW22573   2.294   2.465   6.796  0.1823  0.1460  0.5429
 3647SOL    HW122574   2.334   2.548   6.770  0.1657  0.6668  2.1970
 3647SOL    HW222575   2.350   2.453   6.873  0.8198  0.1537  0.0771
 3648SOL     OW22576   2.874   4.314   7.784 -0.3162  0.4756  0.4778
 3648SOL    HW122577   2.895   4.401   7.748 -2.5283  0.8641  0.1716
 3648SOL    HW222578   2.786   4.337   7.814 -0.8647  0.3910 -1.0728
 3649SOL     OW22579   4.084   3.298   7.164  0.4237 -0.2659  0.5454
 3649SOL    HW122580   4.161   3.245   7.187  0.2236 -0.8882 -0.2402
 3649SOL    HW222581   4.041   3.247   7.096  1.6358  1.2780 -1.3640
 3650SOL     OW22582   1.182   0.209  14.352  0.1186 -0.5767  0.7702
 3650SOL    HW122583   1.173   0.118  14.325  2.9295 -1.4290  2.7056
 3650SOL    HW222584   1.184   0.204  14.448 -0.8604  3.5199  1.0033
 3651SOL     OW22585   0.682   1.215  17.694  0.3068  0.1246 -0.2095
 3651SOL    HW122586   0.594   1.248  17.677 -0.3277 -1.7846 -0.6342
 3651SOL    HW222587   0.728   1.205  17.612  1.1424 -0.6893  0.3627
 3652SOL     OW22588   0.645   4.337  13.661 -0.0888  0.3476  0.4637
 3652SOL    HW122589   0.558   4.305  13.637  0.6497 -1.4013  0.1440
 3652SOL    HW222590   0.692   4.339  13.577  1.4600  3.2399  1.3895
 3653SOL     OW22591   1.071   1.238   8.018 -0.1455  0.6171 -0.2224
 3653SOL    HW122592   0.985   1.223   8.056  0.5423 -1.2008  0.5937
 3653SOL    HW222593   1.095   1.330   8.033 -1.3106  0.6552  1.3835
 3654SOL     OW22594   3.647   3.825   1.740  0.3442 -0.4436 -0.2734
 3654SOL    HW122595   3.556   3.854   1.745 -0.3331 -2.2720 -2.2250
 3654SOL    HW222596   3.691   3.909   1.724  0.4805 -0.6425 -0.9712
 3655SOL     OW22597   1.394   1.588   4.481  0.2713  0.4995 -0.2056
 3655SOL    HW122598   1.340   1.536   4.541  1.5832 -0.6144  0.0020
 3655SOL    HW222599   1.458   1.618   4.546 -0.5221 -0.4240  1.0042
 3656SOL     OW22600   0.959   4.063   5.500  0.0045 -0.0497 -0.5479
 3656SOL    HW122601   1.007   4.048   5.581  0.5532  1.9147 -0.5273
 3656SOL    HW222602   0.871   4.065   5.538 -0.2016 -0.6598 -0.9859
 3657SOL     OW22603   3.063   2.513   4.374 -0.4786 -0.1340  0.7274
 3657SOL    HW122604   2.974   2.542   4.394 -0.7505 -0.0278 -0.6174
 3657SOL    HW222605   3.111   2.594   4.391 -0.9625  0.4531 -0.6321
 3658SOL     OW22606   4.180   3.463   0.542  0.2612  0.0314  0.1009
 3658SOL    HW122607   4.187   3.405   0.466 -1.5949  1.2301 -0.9889
 3658SOL    HW222608   4.105   3.516   0.515  0.5329  0.5537  0.3776
 3659SOL     OW22609   2.526   2.876   8.485 -0.2971 -0.2937 -0.5024
 3659SOL    HW122610   2.552   2.879   8.393 -1.1452  2.0560 -0.6635
 3659SOL    HW222611   2.587   2.934   8.529  0.0161  0.4734 -1.9832
 3660SOL     OW22612   3.132   1.359   6.482  0.6391 -0.6798  0.1417
 3660SOL    HW122613   3.047   1.319   6.502  1.0042 -1.1650  0.7398
 3660SOL    HW222614   3.192   1.320   6.545  0.8239 -0.9087 -0.1761
 3661SOL     OW22615   3.774   3.353   3.198 -0.2871  0.0251  0.0972
 3661SOL    HW122616   3.861   3.366   3.162 -0.9009  1.1179 -1.0212
 3661SOL    HW222617   3.731   3.333   3.115 -0.7426 -2.0886  0.8508
 3662SOL     OW22618   0.902   4.234   6.136 -0.0768  0.1724 -0.4195
 3662SOL    HW122619   0.874   4.246   6.045  1.4411  0.8254 -0.8090
 3662SOL    HW222620   0.824   4.249   6.190 -0.6652 -2.1249 -0.6355
 3663SOL     OW22621   0.844   4.471  17.028 -0.0555 -0.3747 -0.2313
 3663SOL    HW122622   0.798   4.456  16.946  0.4091 -0.7382 -0.4255
 3663SOL    HW222623   0.777   4.522  17.073  0.9452  0.0032  0.8270
 3664SOL     OW22624   2.051   1.347   3.622  0.7587  0.1009 -0.1138
 3664SOL    HW122625   2.075   1.256   3.607  0.6085 -0.4979  3.3665
 3664SOL    HW222626   2.012   1.337   3.709  4.6514  1.8583  1.8679
 3665SOL     OW22627   2.774   0.743   2.673  0.3674 -0.2339 -0.7347
 3665SOL    HW122628   2.781   0.837   2.661 -1.5904  0.0059 -0.0224
 3665SOL    HW222629   2.700   0.727   2.731  0.3441  0.7287 -0.5138
 3666SOL     OW22630   3.089   0.260   7.371 -0.1375 -0.5642 -0.3311
 3666SOL    HW122631   3.173   0.217   7.388  0.1911  0.9281  1.7700
 3666SOL    HW222632   3.046   0.236   7.453 -0.2418  0.2380 -0.1558
 3667SOL     OW22633   0.405   2.165   7.593  0.0676 -0.0087 -0.1048
 3667SOL    HW122634   0.333   2.157   7.530  0.2755 -0.8601 -0.2422
 3667SOL    HW222635   0.477   2.137   7.535 -1.1505  0.3391 -1.7851
 3668SOL     OW22636   1.063   3.503   1.965  0.1539  0.4778  0.2843
 3668SOL    HW122637   0.968   3.516   1.966  0.0260 -0.5486  1.0405
 3668SOL    HW222638   1.073   3.496   1.870 -0.8237 -1.0231  0.2972
 3669SOL     OW22639   2.612   1.754   2.562  1.1686 -0.2165  0.3258
 3669SOL    HW122640   2.610   1.725   2.470 -0.5251  1.9494 -0.3235
 3669SOL    HW222641   2.678   1.824   2.560 -0.0587  0.9201 -0.3144
 3670SOL     OW22642   3.303   2.848   1.331  0.1347  1.2489 -0.0456
 3670SOL    HW122643   3.368   2.781   1.311  2.4507  3.2910  0.6019
 3670SOL    HW222644   3.309   2.887   1.243 -1.1084  1.6992  0.0681
 3671SOL     OW22645   2.816   2.445   8.258 -0.1761  0.4194 -0.2050
 3671SOL    HW122646   2.786   2.407   8.340 -0.5178  1.1967  0.0382
 3671SOL    HW222647   2.779   2.533   8.248 -0.1235  0.3994 -0.5689
 3672SOL     OW22648   1.966   0.105  16.127 -0.6017  0.1371 -0.3813
 3672SOL    HW122649   1.933   0.025  16.168  0.5480 -0.1072  0.0497
 3672SOL    HW222650   2.010   0.087  16.044 -1.0876  1.8704 -1.0241
 3673SOL     OW22651   0.496   0.039   1.826  0.3155  0.2148 -0.1293
 3673SOL    HW122652   0.441   4.708   1.795 -1.2675  0.8422  1.2378
 3673SOL    HW222653   0.479   0.106   1.758  1.9680 -2.2598 -2.9779
 3674SOL     OW22654   1.377   1.346   6.217 -0.1198 -0.0267 -0.4094
 3674SOL    HW122655   1.378   1.370   6.310 -2.2501  0.1686 -0.4238
 3674SOL    HW222656   1.359   1.428   6.171  0.8684 -0.6149 -1.8332
 3675SOL     OW22657   3.816   2.767   8.494  0.3315 -0.7285  0.0845
 3675SOL    HW122658   3.747   2.787   8.431 -0.3855  0.0809  1.1305
 3675SOL    HW222659   3.773   2.737   8.573  1.8702 -2.4668  0.2736
 3676SOL     OW22660   0.678   0.789   3.060  0.5004 -0.2270 -0.4906
 3676SOL    HW122661   0.614   0.759   3.125 -0.0407 -1.9332 -1.8291
 3676SOL    HW222662   0.752   0.756   3.111 -0.3119  2.5909  2.5694
 3677SOL     OW22663   1.985   1.709   5.381 -0.1392 -0.0571  0.1389
 3677SOL    HW122664   2.040   1.649   5.331 -1.5387 -0.8510 -0.4307
 3677SOL    HW222665   2.042   1.786   5.381 -1.2819  0.7531 -1.7612
 3678SOL     OW22666   2.615   4.429  14.800  0.4082 -0.5013  0.0963
 3678SOL    HW122667   2.578   4.485  14.731  0.6022 -1.2623 -0.6181
 3678SOL    HW222668   2.554   4.450  14.872 -0.2467  0.5503 -0.7584
 3679SOL     OW22669   0.664   3.630   0.837 -0.0373  0.1683 -0.7554
 3679SOL    HW122670   0.658   3.726   0.829 -2.6575  0.0502 -0.0099
 3679SOL    HW222671   0.632   3.632   0.927  0.4686  1.7515 -0.6001
 3680SOL     OW22672   3.327   4.313  11.958  0.1831  0.1220 -0.3470
 3680SOL    HW122673   3.327   4.408  11.963  0.0933  0.0983  0.1589
 3680SOL    HW222674   3.393   4.307  12.027 -1.5991 -1.1323  1.2545
 3681SOL     OW22675   3.882   4.201   5.641 -0.3161 -0.3864 -0.1193
 3681SOL    HW122676   3.849   4.275   5.692  0.6539  1.6194 -2.3651
 3681SOL    HW222677   3.857   4.131   5.701  1.3243 -0.1243  0.8835
 3682SOL     OW22678   4.482   1.891   4.829  0.0625  0.1661 -0.5818
 3682SOL    HW122679   4.417   1.952   4.792 -1.9159 -2.5322 -1.5176
 3682SOL    HW222680   4.536   1.868   4.754  2.6362  0.4364  1.1848
 3683SOL     OW22681   0.661   2.665   6.253  0.3203 -0.3160  0.3602
 3683SOL    HW122682   0.739   2.717   6.235  0.6941 -0.1167  2.4930
 3683SOL    HW222683   0.596   2.736   6.250 -0.3660 -1.0138 -1.4110
 3684SOL     OW22684   3.029   4.628  10.694 -0.0342  0.1122  0.3817
 3684SOL    HW122685   3.045   4.695  10.761 -2.2680  2.1416 -1.1539
 3684SOL    HW222686   2.934   4.632  10.688 -0.0397 -1.0323 -0.3616
 3685SOL     OW22687   0.229   2.816   1.539 -0.2749 -0.0299  0.6689
 3685SOL    HW122688   0.243   2.813   1.633 -0.1406 -1.4768  0.6024
 3685SOL    HW222689   0.159   2.751   1.538  1.9423 -2.4226 -0.0692
 3686SOL     OW22690   2.654   0.577   4.155  0.0657 -0.0415 -0.4291
 3686SOL    HW122691   2.724   0.514   4.170  1.4687  1.3429 -1.1909
 3686SOL    HW222692   2.617   0.548   4.072  0.7475  0.0964 -0.7811
 3687SOL     OW22693   3.655   1.418   3.280  0.4447  0.5420 -0.0954
 3687SOL    HW122694   3.616   1.333   3.302 -1.3475  1.4061  0.0432
 3687SOL    HW222695   3.576   1.471   3.267  0.8832  1.4278  0.8757
 3688SOL     OW22696   0.124   4.128   1.845 -0.3199  0.3494  0.1624
 3688SOL    HW122697   0.106   4.067   1.773  1.2032  0.7746 -0.5783
 3688SOL    HW222698   0.077   4.082   1.915 -1.6425 -1.2712 -1.7907
 3689SOL     OW22699   3.112   2.794   8.668 -0.7369  0.4119 -0.3385
 3689SOL    HW122700   3.107   2.882   8.632 -1.2293  0.9752  1.1368
 3689SOL    HW222701   3.206   2.781   8.657 -0.4233  0.9578  1.8851
 3690SOL     OW22702   1.643   3.135  12.965 -0.7086  0.4141 -0.2571
 3690SOL    HW122703   1.604   3.052  12.995  1.6168 -1.4760 -2.4827
 3690SOL    HW222704   1.731   3.120  13.000 -0.6569  0.9907 -0.1412
 3691SOL     OW22705   1.722   3.307  15.575 -0.3466  0.1319 -0.5477
 3691SOL    HW122706   1.727   3.271  15.663 -1.8840  1.0129 -0.0975
 3691SOL    HW222707   1.792   3.254  15.537 -1.2791 -0.3165 -1.6465
 3692SOL     OW22708   1.385   2.113   8.914  0.3622 -0.2491 -0.0765
 3692SOL    HW122709   1.319   2.112   8.983 -0.4883 -1.3686 -0.9127
 3692SOL    HW222710   1.465   2.112   8.968 -0.4004 -1.3098  1.0363
 3693SOL     OW22711   1.197   0.659  10.452 -0.4390 -0.2113  0.5036
 3693SOL    HW122712   1.141   0.637  10.526 -1.9761  0.7154 -0.3937
 3693SOL    HW222713   1.234   0.571  10.442  0.9619  0.5111 -0.7080
 3694SOL     OW22714   3.321   0.316   3.282  0.4601  0.6426 -0.1674
 3694SOL    HW122715   3.363   0.269   3.354  0.4828 -1.1565 -1.3537
 3694SOL    HW222716   3.318   0.251   3.212  1.6445  0.5274 -0.1041
 3695SOL     OW22717   2.267   0.134   6.232 -0.1786 -0.1950  0.4106
 3695SOL    HW122718   2.249   0.182   6.152 -0.5723  0.0873  0.6686
 3695SOL    HW222719   2.362   0.142   6.238 -0.2169  0.6308 -0.0709
 3696SOL     OW22720   2.362   1.186   0.751 -0.5119 -0.2205  0.5320
 3696SOL    HW122721   2.404   1.270   0.728  0.4568 -0.1295  2.6483
 3696SOL    HW222722   2.280   1.204   0.704 -0.7670  0.6316  1.2937
 3697SOL     OW22723   3.738   3.555   9.181  0.4176 -0.0645 -0.6167
 3697SOL    HW122724   3.746   3.546   9.276  3.0512  2.0475 -0.6548
 3697SOL    HW222725   3.815   3.611   9.172  0.5757  0.2819  3.0208
 3698SOL     OW22726   0.396   1.644   6.384  0.2478  0.0829 -0.6171
 3698SOL    HW122727   0.340   1.569   6.406 -0.1734 -0.1490 -2.4876
 3698SOL    HW222728   0.441   1.604   6.309 -0.0310  0.7060 -1.1150
 3699SOL     OW22729   0.914   2.594   9.638 -0.1579 -0.4467  0.5468
 3699SOL    HW122730   0.906   2.555   9.725  2.7325  0.6406  1.3034
 3699SOL    HW222731   1.000   2.633   9.657 -0.2100 -0.4338  0.7593
 3700SOL     OW22732   1.764   1.579   1.245 -0.0344 -0.6292 -0.3984
 3700SOL    HW122733   1.717   1.654   1.209 -0.4385 -1.1316 -0.9192
 3700SOL    HW222734   1.693   1.515   1.244  0.1862 -0.8524 -2.0372
 3701SOL     OW22735   2.177   0.673   3.110  0.2525 -0.0031  0.7203
 3701SOL    HW122736   2.179   0.758   3.067 -2.4177  0.0136  0.6228
 3701SOL    HW222737   2.095   0.688   3.158  0.2435 -1.2342  1.0984
 3702SOL     OW22738   0.423   1.918  10.729 -0.2097  0.2814  0.3470
 3702SOL    HW122739   0.515   1.899  10.713 -1.0702 -3.6352  0.1660
 3702SOL    HW222740   0.424   1.932  10.824  2.6838 -1.0964  0.5224
 3703SOL     OW22741   1.822   2.927   7.798 -0.8353 -0.0319  0.1330
 3703SOL    HW122742   1.893   2.947   7.859 -0.0950 -0.8650 -0.4581
 3703SOL    HW222743   1.832   2.832   7.798  0.6002  0.1121  1.2931
 3704SOL     OW22744   0.200   0.860   4.738 -0.5174  0.2149 -0.8432
 3704SOL    HW122745   0.110   0.890   4.729 -0.2987  1.6500  2.1190
 3704SOL    HW222746   0.224   0.834   4.648  0.9786 -0.5720 -0.2177
 3705SOL     OW22747   1.155   2.085   9.094 -0.2074 -1.0685  0.4685
 3705SOL    HW122748   1.071   2.079   9.048  2.0861  0.3335 -3.9490
 3705SOL    HW222749   1.138   2.026   9.167  1.3012 -1.0287  0.8500
 3706SOL     OW22750   3.677   0.205  15.041 -0.4916 -1.2268  0.1028
 3706SOL    HW122751   3.684   0.267  14.968 -1.7139 -0.7232  0.4118
 3706SOL    HW222752   3.613   0.248  15.097 -0.9841 -1.4127 -0.3132
 3707SOL     OW22753   0.406   0.556   5.588  0.0270  0.9097 -0.0417
 3707SOL    HW122754   0.328   0.538   5.642  0.2065 -0.8114 -0.3587
 3707SOL    HW222755   0.371   0.537   5.501  2.1683 -0.3552 -0.5978
 3708SOL     OW22756   2.485   1.979   4.606 -0.0149 -0.1492 -0.0898
 3708SOL    HW122757   2.433   2.036   4.662 -1.8766 -2.1309  0.1823
 3708SOL    HW222758   2.479   1.893   4.647  0.4428 -1.0873 -1.9933
 3709SOL     OW22759   0.161   0.318   3.576  0.1583 -0.7048  0.4914
 3709SOL    HW122760   0.248   0.352   3.556 -1.4342  2.6973 -0.5767
 3709SOL    HW222761   0.120   0.297   3.492 -2.4612  2.4991  0.9614
 3710SOL     OW22762   4.016   0.347  14.940 -0.5704  0.2764  0.1379
 3710SOL    HW122763   3.933   0.394  14.949 -1.6969 -1.8845  0.9063
 3710SOL    HW222764   4.058   0.366  15.023 -0.1647 -2.6200  0.5842
 3711SOL     OW22765   0.935   2.591   8.593 -0.2235  0.0938 -0.3917
 3711SOL    HW122766   0.946   2.650   8.518 -0.4892 -0.1382 -0.6130
 3711SOL    HW222767   0.957   2.650   8.665 -1.2665 -0.0237  0.0217
 3712SOL     OW22768   0.302   2.098   2.097  0.3366 -0.2351  0.5563
 3712SOL    HW122769   0.276   2.153   2.172  0.0891  0.3813  0.0154
 3712SOL    HW222770   0.387   2.131   2.071  0.8780 -2.8245 -0.9731
 3713SOL     OW22771   2.892   4.131   8.564  0.0320  0.1747  0.0821
 3713SOL    HW122772   2.801   4.157   8.548 -0.2790 -2.4283 -2.4731
 3713SOL    HW222773   2.893   4.075   8.641  1.3598  0.7523  0.4851
 3714SOL     OW22774   0.545   4.140  16.065 -0.1359 -0.0308 -0.1842
 3714SOL    HW122775   0.475   4.181  16.015 -2.8139 -0.7840  2.9318
 3714SOL    HW222776   0.491   4.103  16.135  0.6686  1.8729  1.4341
 3715SOL     OW22777   3.977   0.232   1.897  0.2293  0.0745 -0.7639
 3715SOL    HW122778   3.993   0.190   1.981  1.5647  2.6323  0.2652
 3715SOL    HW222779   3.916   0.298   1.931  0.1002 -1.5869  2.2037
 3716SOL     OW22780   1.977   3.206   4.921 -0.5766 -0.5191 -0.6263
 3716SOL    HW122781   1.885   3.213   4.949  0.2520  2.3938  1.3517
 3716SOL    HW222782   2.023   3.261   4.984  1.6483 -1.8889 -1.0855
 3717SOL     OW22783   4.455   2.653   4.011 -0.4132  0.2151  0.2125
 3717SOL    HW122784   4.436   2.746   3.999  0.8640  0.4199 -0.1939
 3717SOL    HW222785   4.445   2.631   3.918  0.1477  1.1701 -0.0752
 3718SOL     OW22786   1.342   2.970   4.902  0.0264 -0.1959 -0.6573
 3718SOL    HW122787   1.430   3.004   4.919 -0.7205  0.8726  0.9962
 3718SOL    HW222788   1.333   2.880   4.933  0.7979  0.3753  1.2154
 3719SOL     OW22789   4.169   0.262  11.537  0.5241 -0.0458 -0.1785
 3719SOL    HW122790   4.156   0.347  11.495  1.9525 -0.1748 -0.8624
 3719SOL    HW222791   4.264   0.268  11.533  0.6982 -1.5855  1.3747
 3720SOL     OW22792   2.681   4.505   2.171 -0.4546 -0.1788 -0.0457
 3720SOL    HW122793   2.618   4.516   2.099  0.6626 -0.8877 -1.1302
 3720SOL    HW222794   2.765   4.491   2.127 -0.0855 -0.4304  0.7474
 3721SOL     OW22795   2.480   3.489   3.444  0.8279  0.4710  0.3614
 3721SOL    HW122796   2.532   3.428   3.390 -1.6171 -0.0504 -1.3795
 3721SOL    HW222797   2.424   3.425   3.487  2.6315 -0.3404  1.5185
 3722SOL     OW22798   2.398   3.111  15.461  0.3793  0.1240 -0.0346
 3722SOL    HW122799   2.321   3.167  15.449  0.4505  0.4389  1.0163
 3722SOL    HW222800   2.397   3.079  15.551 -1.7782  0.6212  0.1303
 3723SOL     OW22801   1.472   3.727   8.928  0.1448  0.2182  0.4283
 3723SOL    HW122802   1.435   3.766   8.849 -0.4942 -0.9287  0.1589
 3723SOL    HW222803   1.524   3.659   8.886 -0.9475 -0.1058 -0.3893
 3724SOL     OW22804   2.422   0.511   6.311 -0.4580 -0.4789  0.5838
 3724SOL    HW122805   2.338   0.497   6.269 -0.2560 -1.4459  0.4918
 3724SOL    HW222806   2.446   0.590   6.263 -0.9296 -0.2973  0.6583
 3725SOL     OW22807   4.151   4.012   9.822  0.1926  0.2559  0.3960
 3725SOL    HW122808   4.119   3.949   9.758 -1.5750  2.3262 -0.7537
 3725SOL    HW222809   4.086   3.996   9.891  0.1381  0.8864  0.4859
 3726SOL     OW22810   1.612   0.639  16.470  0.4298  0.7455 -0.0514
 3726SOL    HW122811   1.656   0.617  16.388  1.8513 -0.9888  1.1886
 3726SOL    HW222812   1.622   0.553  16.511  3.0734  1.0809 -0.0195
 3727SOL     OW22813   2.913   1.286   5.685 -0.0940 -0.6187  0.6731
 3727SOL    HW122814   2.985   1.293   5.622  0.2816  0.1546  1.1899
 3727SOL    HW222815   2.942   1.218   5.746  2.2040  0.1819  0.4803
 3728SOL     OW22816   0.984   0.717   4.410  0.0460  1.0891  0.3385
 3728SOL    HW122817   0.958   0.665   4.334  2.5849  1.4811 -0.7893
 3728SOL    HW222818   0.920   0.684   4.473 -0.8917  0.3357 -1.0365
 3729SOL     OW22819   2.186   4.679   7.505  0.1510  0.2028  0.4448
 3729SOL    HW122820   2.266   4.718   7.468 -0.9374  0.3600 -1.7379
 3729SOL    HW222821   2.225   4.662   7.590  2.0570  0.9916 -0.2646
 3730SOL     OW22822   4.199   0.234  12.896  0.2523 -0.2424 -0.0344
 3730SOL    HW122823   4.238   0.316  12.865  0.8017 -0.6858 -0.5188
 3730SOL    HW222824   4.119   0.239  12.844  0.5599  3.7246 -0.1612
 3731SOL     OW22825   1.285   4.491   6.079 -0.1271  0.6494  0.0079
 3731SOL    HW122826   1.196   4.497   6.114  0.8122  1.3220  2.2781
 3731SOL    HW222827   1.317   4.580   6.093 -0.3029  0.5729  0.8670
 3732SOL     OW22828   4.503   0.060   2.021 -0.2764 -0.1769 -0.9199
 3732SOL    HW122829   4.564   0.097   2.085  0.8761 -0.8038 -1.6525
 3732SOL    HW222830   4.557   0.009   1.960 -0.8187 -0.7153 -0.9501
 3733SOL     OW22831   2.565   1.692   3.290 -0.1114  0.1074  0.1929
 3733SOL    HW122832   2.526   1.777   3.270  0.6403  0.4438  0.1871
 3733SOL    HW222833   2.651   1.719   3.320 -0.6117  0.2070  1.5336
 3734SOL     OW22834   1.739   0.930  17.422  0.2772  0.5199  0.1717
 3734SOL    HW122835   1.763   1.014  17.462 -1.1761  0.7276  0.6266
 3734SOL    HW222836   1.820   0.880  17.418 -1.9381 -2.8346 -3.1121
 3735SOL     OW22837   1.815   0.781   4.458  0.0917  0.3074  0.0920
 3735SOL    HW122838   1.866   0.701   4.465 -0.6247  0.0862  2.7080
 3735SOL    HW222839   1.744   0.749   4.512  0.2290 -0.4126 -0.1626
 3736SOL     OW22840   4.325   3.817   4.904 -0.0649 -0.1802 -0.4446
 3736SOL    HW122841   4.232   3.834   4.886 -0.4366  0.4084  2.0979
 3736SOL    HW222842   4.339   3.893   4.961 -0.7412  0.6855 -1.4152
 3737SOL     OW22843   3.786   0.221  15.836  0.0031  0.1077  0.1197
 3737SOL    HW122844   3.874   0.212  15.799  0.8411  1.9590  1.6617
 3737SOL    HW222845   3.743   0.147  15.794  0.7090  0.2677 -0.8764
 3738SOL     OW22846   4.369   0.322   4.471 -0.4031  0.1296  0.0817
 3738SOL    HW122847   4.395   0.296   4.382 -1.9848  2.6835 -1.1295
 3738SOL    HW222848   4.426   0.271   4.528 -1.5899 -1.6988 -0.3267
 3739SOL     OW22849   2.810   2.573   5.155  0.0523 -0.1762 -0.2255
 3739SOL    HW122850   2.721   2.538   5.156  0.5313 -1.3464  1.9028
 3739SOL    HW222851   2.858   2.494   5.177  1.5441  1.2479  1.5889
 3740SOL     OW22852   2.708   2.999   6.771 -0.1742  0.2971  0.0791
 3740SOL    HW122853   2.775   3.066   6.788 -2.1631  2.5847 -1.1110
 3740SOL    HW222854   2.762   2.926   6.742  0.3602 -0.1226  2.1622
 3741SOL     OW22855   3.071   0.539   2.958  0.3924  0.1643 -0.0701
 3741SOL    HW122856   3.136   0.472   2.936  2.7272  2.6363 -0.6520
 3741SOL    HW222857   3.125   0.617   2.947  1.6538 -0.9058 -1.4533
 3742SOL     OW22858   2.223   0.651  11.751  0.4064 -0.9906 -0.1044
 3742SOL    HW122859   2.250   0.684  11.837 -0.4575  2.0343 -1.0074
 3742SOL    HW222860   2.154   0.590  11.778  0.4314 -1.8857 -2.0667
 3743SOL     OW22861   1.834   3.570   1.683 -0.2890 -0.1640  0.3724
 3743SOL    HW122862   1.799   3.501   1.740  0.4383 -1.2026 -0.4185
 3743SOL    HW222863   1.903   3.608   1.737 -0.8131  0.5504  0.5323
 3744SOL     OW22864   0.738   1.078  12.332  0.1519  0.5647  0.2466
 3744SOL    HW122865   0.818   1.107  12.289  0.3206 -1.8257 -1.0250
 3744SOL    HW222866   0.715   1.007  12.273 -2.7956  1.4840  0.2720
 3745SOL     OW22867   2.413   1.436   7.190 -0.4356 -0.3396 -0.4167
 3745SOL    HW122868   2.357   1.440   7.113 -0.5982  1.0124 -0.2441
 3745SOL    HW222869   2.353   1.455   7.263 -0.5875 -0.3539 -0.5361
 3746SOL     OW22870   0.533   2.196  13.560 -0.3903 -0.0699  0.2777
 3746SOL    HW122871   0.452   2.246  13.575 -0.4787  0.2682 -1.2949
 3746SOL    HW222872   0.581   2.204  13.642  1.5595  0.2799 -0.9076
 3747SOL     OW22873   1.829   3.950   2.409 -0.2165  0.4820  0.1551
 3747SOL    HW122874   1.764   4.013   2.439  0.2199  1.0465 -0.0765
 3747SOL    HW222875   1.902   4.008   2.433  1.3902 -0.1100 -3.3413
 3748SOL     OW22876   1.602   2.119  15.351  0.6416 -0.1505 -0.1368
 3748SOL    HW122877   1.610   2.213  15.366  2.3968  0.2772 -3.6729
 3748SOL    HW222878   1.667   2.110  15.281  0.7053 -0.6628 -0.0182
 3749SOL     OW22879   1.561   2.655  12.603 -0.3298  0.6800 -0.2520
 3749SOL    HW122880   1.518   2.722  12.656 -0.3117 -1.9314  3.0447
 3749SOL    HW222881   1.551   2.585  12.667  1.3697  0.8792  0.2272
 3750SOL     OW22882   1.033   4.427   3.234  0.2849 -0.3332  0.2039
 3750SOL    HW122883   1.030   4.395   3.324  2.3315 -2.2228 -0.4244
 3750SOL    HW222884   1.124   4.432   3.206  0.1055  1.9823 -0.0048
 3751SOL     OW22885   3.733   3.949   8.682  0.4022 -0.6529 -0.1467
 3751SOL    HW122886   3.770   4.034   8.657 -0.2685 -0.2223  0.2994
 3751SOL    HW222887   3.647   3.964   8.641  1.2668 -1.5262 -2.2713
 3752SOL     OW22888   2.796   0.893  13.820  0.3204  0.5794  0.0637
 3752SOL    HW122889   2.796   0.839  13.741  0.6349  0.9198 -0.1633
 3752SOL    HW222890   2.706   0.926  13.823  0.2050  0.3540 -1.2782
 3753SOL     OW22891   1.693   3.270   7.396 -0.7802 -0.6111 -0.6955
 3753SOL    HW122892   1.649   3.330   7.456  1.0593  0.7955 -0.7420
 3753SOL    HW222893   1.718   3.202   7.458  2.1400  1.5241  0.4794
 3754SOL     OW22894   4.073   2.888   5.962 -0.1206  0.0897  0.0115
 3754SOL    HW122895   4.165   2.870   5.982  0.0510  0.3755 -0.5220
 3754SOL    HW222896   4.023   2.833   6.022  2.6326 -1.9666  0.4346
 3755SOL     OW22897   2.340   3.154   1.947 -0.3815 -0.5384  0.5548
 3755SOL    HW122898   2.418   3.098   1.951 -0.1272 -0.0761  2.0068
 3755SOL    HW222899   2.358   3.215   2.019 -0.2242  0.0592  0.0060
 3756SOL     OW22900   2.643   2.930   7.068  0.2193 -0.2309 -0.1654
 3756SOL    HW122901   2.637   2.867   6.996 -1.2430  2.1657 -2.1172
 3756SOL    HW222902   2.690   2.998   7.019  2.0944 -1.7282 -0.4303
 3757SOL     OW22903   0.363   0.560   4.972 -0.1508 -0.3046  0.0518
 3757SOL    HW122904   0.381   0.598   5.058  2.2110  2.0626 -1.4804
 3757SOL    HW222905   0.439   0.582   4.918 -1.3425  2.6022 -0.4702
 3758SOL     OW22906   3.337   1.111   2.058 -0.0595  0.3273  0.9871
 3758SOL    HW122907   3.330   1.085   1.966 -3.9410 -2.0916  2.0066
 3758SOL    HW222908   3.419   1.071   2.088 -1.4743 -1.1267  2.8637
 3759SOL     OW22909   1.893   3.263   6.732  0.7936  0.6741  0.0368
 3759SOL    HW122910   1.954   3.312   6.786  1.9767  0.6947 -1.3255
 3759SOL    HW222911   1.819   3.265   6.792  0.5723  1.2766 -0.2611
 3760SOL     OW22912   3.307   3.978   9.538  0.2512 -0.0026  0.1455
 3760SOL    HW122913   3.304   3.893   9.581  1.2025 -0.7409 -1.2667
 3760SOL    HW222914   3.232   4.019   9.582 -0.8779 -1.6638 -0.2471
 3761SOL     OW22915   0.007   0.320  16.344 -0.0476  0.0232  0.1028
 3761SOL    HW122916   4.715   0.312  16.255  0.6021 -3.8359  0.2052
 3761SOL    HW222917   0.095   0.283  16.340  0.4571  0.8475  3.1110
 3762SOL     OW22918   0.027   3.839   6.112 -0.3655 -0.2137  0.0899
 3762SOL    HW122919   4.709   3.906   6.077  0.4668  0.6235  0.2884
 3762SOL    HW222920   0.098   3.824   6.051 -0.7271  1.3682 -0.7359
 3763SOL     OW22921   4.271   0.626   8.372  0.1967 -0.1013  0.0800
 3763SOL    HW122922   4.246   0.718   8.365 -0.5173 -0.1836  1.4749
 3763SOL    HW222923   4.309   0.615   8.459 -0.1912 -0.1769  0.2411
 3764SOL     OW22924   2.119   1.146   4.789  0.1151  0.3376  0.0507
 3764SOL    HW122925   2.111   1.081   4.859  1.1039  0.8993  0.6903
 3764SOL    HW222926   2.194   1.117   4.737  0.7213  0.9405  0.5854
 3765SOL     OW22927   0.947   2.547   8.191 -0.5630  0.6207  0.0756
 3765SOL    HW122928   0.905   2.481   8.135  0.3302  1.0820 -1.1442
 3765SOL    HW222929   0.936   2.611   8.120 -1.9392  0.6748  0.3460
 3766SOL     OW22930   0.772   4.694   8.535 -0.1771  0.3238 -0.3258
 3766SOL    HW122931   0.828   4.656   8.467 -1.3373 -1.0950 -0.4892
 3766SOL    HW222932   0.736   4.616   8.578  3.8596 -0.9620  0.7691
 3767SOL     OW22933   1.205   2.155  17.088  0.0553  0.3132 -0.1850
 3767SOL    HW122934   1.176   2.238  17.050  2.0053  1.1251  0.0612
 3767SOL    HW222935   1.165   2.096  17.024  0.0301 -1.0851  1.1334
 3768SOL     OW22936   2.246   2.699   4.327 -0.0702  0.3450  0.3742
 3768SOL    HW122937   2.317   2.763   4.338  2.1448 -2.1728  0.7504
 3768SOL    HW222938   2.287   2.613   4.336 -0.4755  0.2069  0.8925
 3769SOL     OW22939   0.190   1.667   2.597 -0.4395 -0.0125  0.0850
 3769SOL    HW122940   0.228   1.750   2.570 -1.4504  0.4893  0.1777
 3769SOL    HW222941   0.251   1.604   2.559 -2.7249 -0.6735 -2.5290
 3770SOL     OW22942   3.327   2.999   3.732 -0.3448  0.0180  0.7661
 3770SOL    HW122943   3.357   2.995   3.823 -0.1842 -2.1117  0.6154
 3770SOL    HW222944   3.233   3.013   3.742 -0.7444 -2.3063  0.0737
 3771SOL     OW22945   0.408   2.785   2.488 -0.2302  0.5699  0.4065
 3771SOL    HW122946   0.428   2.810   2.397 -2.8217 -0.7828 -0.5490
 3771SOL    HW222947   0.484   2.730   2.508 -1.6288 -1.6414 -0.2546
 3772SOL     OW22948   0.619   3.784   6.238  0.0982  0.3416 -0.1591
 3772SOL    HW122949   0.655   3.696   6.247 -1.6526 -0.5057 -1.3286
 3772SOL    HW222950   0.699   3.830   6.259  0.3913 -0.8202  1.2577
 3773SOL     OW22951   1.273   1.344   5.804  0.4010  0.3310  0.1622
 3773SOL    HW122952   1.350   1.291   5.824  1.3998  1.9482  0.5572
 3773SOL    HW222953   1.227   1.264   5.779  1.8401 -0.9333  1.5634
 3774SOL     OW22954   3.287   4.099   1.490  0.5940  0.3401 -0.2609
 3774SOL    HW122955   3.203   4.135   1.520  0.1725  1.0495 -2.3283
 3774SOL    HW222956   3.344   4.116   1.565  0.1024  3.5241 -0.6258
 3775SOL     OW22957   1.128   2.749  12.617  0.6021  0.3711 -0.2221
 3775SOL    HW122958   1.153   2.680  12.678 -2.1261  2.7696  3.5768
 3775SOL    HW222959   1.191   2.816  12.643  2.1067 -1.2849  0.3538
 3776SOL     OW22960   1.103   4.591   0.857  0.9063  0.0578  0.4024
 3776SOL    HW122961   1.127   4.547   0.776  1.1487  0.3816  0.2986
 3776SOL    HW222962   1.106   4.684   0.837 -2.0408  0.1364  0.3296
 3777SOL     OW22963   2.067   2.333   5.973  0.2279 -0.2748 -0.1925
 3777SOL    HW122964   1.984   2.329   5.925 -0.2992  1.5868  0.5438
 3777SOL    HW222965   2.046   2.330   6.067 -0.4203 -0.1827 -0.3334
 3778SOL     OW22966   2.694   3.143  12.421 -0.0061  0.0334 -0.0198
 3778SOL    HW122967   2.678   3.088  12.344 -0.0711 -0.7658  0.5574
 3778SOL    HW222968   2.783   3.176  12.411  0.4430 -1.0837  0.2644
 3779SOL     OW22969   4.105   3.441   9.871 -0.1010 -0.6037 -0.1452
 3779SOL    HW122970   4.182   3.491   9.896 -0.0778 -0.6186 -0.1877
 3779SOL    HW222971   4.132   3.352   9.893  0.2411 -0.5686 -0.4347
 3780SOL     OW22972   2.526   0.278  15.542 -0.0207  0.4185  0.2992
 3780SOL    HW122973   2.454   0.309  15.596 -0.1300  0.1681  0.2980
 3780SOL    HW222974   2.514   0.183  15.552  1.4315  0.0014 -1.8517
 3781SOL     OW22975   3.974   2.875   1.649 -0.1218 -0.6481  0.2401
 3781SOL    HW122976   3.918   2.910   1.580  0.5749  0.5374  0.2818
 3781SOL    HW222977   3.962   2.940   1.718  0.1153 -0.2859 -0.0563
 3782SOL     OW22978   4.012   3.821   8.439 -0.1320 -0.0708  0.2786
 3782SOL    HW122979   4.001   3.731   8.472  1.9903 -0.0296  1.0846
 3782SOL    HW222980   3.924   3.846   8.411 -0.9294 -1.6625  1.3443
 3783SOL     OW22981   2.417   4.735  16.271 -0.1249  0.3664  0.5059
 3783SOL    HW122982   2.436   0.088  16.274  0.2899  0.4118 -3.5015
 3783SOL    HW222983   2.478   4.704  16.338  1.7142  0.5368 -1.1032
 3784SOL     OW22984   3.602   2.064  17.401 -0.1485  0.9860 -0.3338
 3784SOL    HW122985   3.670   2.073  17.335 -1.8205 -0.0456 -2.2051
 3784SOL    HW222986   3.547   2.143  17.394 -0.3352  0.7308 -1.6633
 3785SOL     OW22987   0.774   1.799   9.847 -0.0018 -0.6170 -0.4427
 3785SOL    HW122988   0.706   1.754   9.898 -0.3208  0.0585 -0.2719
 3785SOL    HW222989   0.847   1.743   9.874 -2.0085 -1.4096  3.3792
 3786SOL     OW22990   2.090   4.152   3.168  0.0452  0.3947 -0.2738
 3786SOL    HW122991   2.051   4.065   3.157 -0.1643  0.7567 -2.4224
 3786SOL    HW222992   2.003   4.187   3.186  0.4709  1.7461 -0.8970
 3787SOL     OW22993   3.171   4.610  16.541 -0.2859 -0.0077  0.5406
 3787SOL    HW122994   3.122   4.666  16.481  0.1203 -1.3378 -1.0263
 3787SOL    HW222995   3.156   4.655  16.625 -0.6574 -2.5865  1.8689
 3788SOL     OW22996   3.638   3.611  11.276  0.5717  0.3859 -0.5813
 3788SOL    HW122997   3.673   3.656  11.353  1.1819  0.0237 -0.6430
 3788SOL    HW222998   3.547   3.630  11.295  1.4784  2.1735  1.9277
 3789SOL     OW22999   3.353   1.022  15.247  0.3125 -0.6078  0.7676
 3789SOL    HW123000   3.338   1.032  15.341 -2.7029  2.4551 -0.0794
 3789SOL    HW223001   3.275   1.070  15.221  0.8410  0.8287  1.8488
 3790SOL     OW23002   4.395   2.563   4.626 -0.4839 -0.4732 -0.3310
 3790SOL    HW123003   4.359   2.646   4.597 -0.1024 -0.2795 -0.2587
 3790SOL    HW223004   4.420   2.528   4.541  0.4441  0.3061 -0.3755
 3791SOL     OW23005   3.406   3.798   7.880 -0.2756  0.0797 -0.6342
 3791SOL    HW123006   3.355   3.878   7.882  1.3479  1.0270  3.8506
 3791SOL    HW223007   3.427   3.795   7.786 -1.4848 -1.5214 -0.8538
 3792SOL     OW23008   2.789   0.450  10.073 -0.5061  0.1233  0.3721
 3792SOL    HW123009   2.809   0.512  10.143  1.1726  2.7376 -2.4735
 3792SOL    HW223010   2.840   0.376  10.105 -3.0465 -1.1289  1.5797
 3793SOL     OW23011   1.033   4.492   6.143  0.4454 -0.1742  0.0669
 3793SOL    HW123012   0.951   4.540   6.131 -1.2170 -3.1137 -0.3582
 3793SOL    HW223013   1.000   4.402   6.136  0.1857 -0.2075  1.7437
 3794SOL     OW23014   1.023   0.196  11.374 -0.1032  0.3809  0.3551
 3794SOL    HW123015   0.978   0.164  11.452  2.4805 -0.0751  1.6869
 3794SOL    HW223016   1.110   0.203  11.415  0.5731 -0.2251 -0.9834
 3795SOL     OW23017   0.965   4.009  13.767  0.1728  0.0793 -0.1254
 3795SOL    HW123018   0.874   4.022  13.738  0.0307 -0.9439 -0.1503
 3795SOL    HW223019   0.997   4.027  13.679 -0.6927 -0.9935 -0.6616
 3796SOL     OW23020   2.371   1.761   8.202 -0.0390  0.6724 -0.0049
 3796SOL    HW123021   2.295   1.711   8.231 -0.0624  1.0942  0.6650
 3796SOL    HW223022   2.339   1.798   8.119 -1.5309 -1.5748 -0.4162
 3797SOL     OW23023   3.581   0.602   3.639  0.0109  0.0610 -0.1438
 3797SOL    HW123024   3.488   0.618   3.626 -0.4109  0.5746  3.7947
 3797SOL    HW223025   3.593   0.523   3.690 -1.5654  2.2030  3.5423
 3798SOL     OW23026   1.381   1.595   5.767  0.1386  0.1403  0.5521
 3798SOL    HW123027   1.332   1.517   5.792  0.6832 -0.7374 -1.1588
 3798SOL    HW223028   1.465   1.559   5.739 -0.3002 -1.8977  1.8704
 3799SOL     OW23029   1.977   2.918   5.717  0.3963 -0.2335  0.3396
 3799SOL    HW123030   1.895   2.953   5.684 -0.5789 -0.0544  2.9775
 3799SOL    HW223031   2.025   3.001   5.726  1.6399 -0.9664  0.5135
 3800SOL     OW23032   3.178   2.006   4.008  0.1020 -0.1179  0.2354
 3800SOL    HW123033   3.260   2.045   3.979  0.0350 -0.8146 -0.8897
 3800SOL    HW223034   3.120   2.075   3.976 -0.2331  0.0425  1.1811
 3801SOL     OW23035   0.971   2.735  10.052 -0.6448 -0.0726 -0.3218
 3801SOL    HW123036   1.015   2.766  10.131 -1.3872 -0.2724  0.1647
 3801SOL    HW223037   0.929   2.812  10.014 -0.3431 -0.8287 -2.2121
 3802SOL     OW23038   1.533   1.534   7.453 -0.4079 -0.4918  0.9293
 3802SOL    HW123039   1.450   1.491   7.470 -0.1441 -1.6314 -0.6901
 3802SOL    HW223040   1.538   1.531   7.358  0.7281  1.4421  0.9178
 3803SOL     OW23041   0.561   1.704  13.050  0.0973 -0.0832 -0.3691
 3803SOL    HW123042   0.471   1.679  13.030  0.1595  1.4404 -2.5138
 3803SOL    HW223043   0.545   1.794  13.077 -0.3822  0.0836 -1.2319
 3804SOL     OW23044   1.151   1.849   8.651  0.3308  0.3091 -0.4041
 3804SOL    HW123045   1.130   1.935   8.613 -0.1665  0.5274  0.3643
 3804SOL    HW223046   1.224   1.874   8.707 -0.0312  0.0403  0.1843
 3805SOL     OW23047   0.777   3.909   7.063 -0.1413 -0.2492 -0.2278
 3805SOL    HW123048   0.798   3.939   7.152 -1.8998 -0.7600  0.3730
 3805SOL    HW223049   0.811   3.985   7.016  1.6989  1.5289  3.8908
 3806SOL     OW23050   1.132   3.163  11.358  0.1988 -0.2484  0.0160
 3806SOL    HW123051   1.198   3.201  11.301  1.0768 -0.3160  0.9920
 3806SOL    HW223052   1.187   3.133  11.430  1.0541  0.1075 -0.4868
 3807SOL     OW23053   4.458   4.377   5.086  0.1606 -0.6606  0.3266
 3807SOL    HW123054   4.470   4.397   4.993  2.4392 -1.3301  0.4804
 3807SOL    HW223055   4.533   4.319   5.096 -0.1492 -1.2375 -0.5789
 3808SOL     OW23056   1.819   2.020   2.983 -0.0400  0.1016  0.3516
 3808SOL    HW123057   1.877   2.075   3.035  0.8998 -0.9056  0.3562
 3808SOL    HW223058   1.877   1.987   2.915 -0.5968  3.0732 -1.5338
 3809SOL     OW23059   2.629   2.968   5.385 -0.0186  0.1108 -0.0569
 3809SOL    HW123060   2.718   2.979   5.350 -0.9303  0.9843 -2.0794
 3809SOL    HW223061   2.631   2.879   5.422  0.6643 -0.5439 -1.6491
 3810SOL     OW23062   2.283   1.694  17.729 -0.0558 -0.1962  0.0101
 3810SOL    HW123063   2.241   1.609  17.715  0.9224 -0.7067  0.1684
 3810SOL    HW223064   2.350   1.687  17.661 -1.0733  0.3203 -1.0482
 3811SOL     OW23065   2.870   3.309   8.700 -0.2209  0.1364  0.1509
 3811SOL    HW123066   2.964   3.324   8.694 -0.2374 -0.1125 -0.6376
 3811SOL    HW223067   2.839   3.386   8.748 -3.4828 -0.0516 -1.6360
 3812SOL     OW23068   1.563   2.952   0.709 -0.3187  0.4964  0.1126
 3812SOL    HW123069   1.593   3.042   0.723 -1.8177  1.2532 -1.4267
 3812SOL    HW223070   1.646   2.909   0.725 -0.5203  0.6500  1.5820
 3813SOL     OW23071   1.097   1.167  13.489 -0.0845  0.0413  0.9163
 3813SOL    HW123072   1.049   1.116  13.555 -0.2187  0.7595  1.3785
 3813SOL    HW223073   1.129   1.097  13.432 -0.6839  0.8831 -0.4421
 3814SOL     OW23074   3.428   2.082   5.130 -0.3447 -0.0483  0.1426
 3814SOL    HW123075   3.421   2.043   5.216  1.0113 -0.1248  0.2246
 3814SOL    HW223076   3.380   2.008   5.092 -1.8215  0.1107  1.7312
 3815SOL     OW23077   0.234   3.130  14.457  0.2383  0.1263 -0.4198
 3815SOL    HW123078   0.230   3.104  14.365 -3.5595  0.0713 -0.2349
 3815SOL    HW223079   0.326   3.107  14.473  0.0139  0.5605  1.5476
 3816SOL     OW23080   1.476   2.116   3.853  0.0467  0.4893 -0.4143
 3816SOL    HW123081   1.386   2.147   3.858 -0.3152 -0.9174  1.5953
 3816SOL    HW223082   1.463   2.025   3.826 -1.0348  0.6672 -0.4765
 3817SOL     OW23083   0.882   2.081   9.041  0.5226 -0.2990 -0.1724
 3817SOL    HW123084   0.800   2.121   9.011  0.0149 -2.1913 -1.3046
 3817SOL    HW223085   0.844   2.011   9.094 -0.1198 -0.5422 -0.9496
 3818SOL     OW23086   2.065   1.064   6.548  0.2816  0.3343 -0.3929
 3818SOL    HW123087   2.070   1.159   6.542  1.7618  0.2552 -0.3484
 3818SOL    HW223088   1.973   1.040   6.534  0.5313 -1.0694  0.3671
 3819SOL     OW23089   2.795   2.407   7.506  0.9093  0.0660 -0.0564
 3819SOL    HW123090   2.795   2.458   7.587 -1.1339  2.2996 -1.4349
 3819SOL    HW223091   2.792   2.484   7.448 -2.7113  1.1870  1.5672
 3820SOL     OW23092   3.549   1.667   6.065 -0.0667 -0.5153 -0.6212
 3820SOL    HW123093   3.496   1.603   6.017  0.5648  0.3543 -2.4820
 3820SOL    HW223094   3.628   1.661   6.011 -0.3027 -4.7140 -0.5582
 3821SOL     OW23095   1.446   4.731   5.335 -0.4130  0.1027 -0.3563
 3821SOL    HW123096   1.354   4.702   5.339 -0.6785  0.9342 -0.3175
 3821SOL    HW223097   1.438   0.050   5.261 -1.7203  0.1775 -0.1593
 3822SOL     OW23098   2.980   3.251   6.136 -0.7433 -0.6060 -0.9627
 3822SOL    HW123099   2.895   3.283   6.106  0.2423  1.2550 -1.7982
 3822SOL    HW223100   2.993   3.310   6.211  0.3561 -2.1113  0.0395
 3823SOL     OW23101   2.655   2.348   1.900  0.1710 -0.4322  0.1255
 3823SOL    HW123102   2.743   2.340   1.863 -0.0208 -0.5972 -0.2933
 3823SOL    HW223103   2.619   2.418   1.847 -2.0937 -2.8668 -1.5515
 3824SOL     OW23104   1.826   2.592   6.304 -0.6891  0.0895 -0.4597
 3824SOL    HW123105   1.753   2.651   6.325 -0.9988 -0.5237  0.1568
 3824SOL    HW223106   1.876   2.661   6.261  2.0873 -0.6846  1.5768
 3825SOL     OW23107   0.871   0.712   1.540 -0.0111 -0.1403 -0.4600
 3825SOL    HW123108   0.820   0.637   1.509  0.9707 -1.2659  0.6481
 3825SOL    HW223109   0.864   0.706   1.635 -0.7716  1.1674 -0.4283
 3826SOL     OW23110   4.413   3.307  17.433 -0.0230  0.3027  0.0346
 3826SOL    HW123111   4.466   3.370  17.481 -1.3037 -0.5417  2.5598
 3826SOL    HW223112   4.390   3.366  17.361  1.0076 -0.8113 -1.2104
 3827SOL     OW23113   3.822   3.721   6.752  0.0024 -0.1854  0.1589
 3827SOL    HW123114   3.759   3.770   6.804 -0.7111 -0.1272 -0.7532
 3827SOL    HW223115   3.777   3.637   6.743  0.4794 -0.5881  1.5866
 3828SOL     OW23116   0.220   0.416   4.791 -0.0100  0.3629 -0.3504
 3828SOL    HW123117   0.259   0.466   4.862 -1.8580  0.1082  0.8325
 3828SOL    HW223118   0.162   0.478   4.746  0.5035  1.3505  0.3544
 3829SOL     OW23119   2.248   4.347   6.242 -0.4516 -0.1298  0.1136
 3829SOL    HW123120   2.309   4.322   6.310  0.5548  2.5006  0.1928
 3829SOL    HW223121   2.256   4.272   6.183 -1.6962  2.0374 -2.8121
 3830SOL     OW23122   2.392   0.037   1.795  0.5715  0.0328  0.0290
 3830SOL    HW123123   2.438   0.095   1.734  3.4723 -1.1863  1.0152
 3830SOL    HW223124   2.337   4.726   1.738  1.1493  0.2675 -0.7329
 3831SOL     OW23125   2.892   4.692   8.971 -0.7152  0.3415 -0.4014
 3831SOL    HW123126   2.867   4.602   8.996 -0.0194  0.2210 -0.1477
 3831SOL    HW223127   2.987   4.696   8.977 -0.5193 -0.2802 -3.1303
 3832SOL     OW23128   0.835   4.352  13.857 -0.4245  0.0334 -0.0157
 3832SOL    HW123129   0.764   4.331  13.795  0.8360 -2.0705 -0.7296
 3832SOL    HW223130   0.808   4.295  13.929 -0.1291  0.8371  0.7248
 3833SOL     OW23131   1.110   1.740   4.232  0.0265 -0.3501 -0.1916
 3833SOL    HW123132   1.179   1.681   4.202 -0.9472 -1.4571 -0.2912
 3833SOL    HW223133   1.048   1.677   4.270 -0.5187  1.4413  1.8806
 3834SOL     OW23134   0.399   1.314   6.200 -0.8603  0.5995 -0.3814
 3834SOL    HW123135   0.465   1.380   6.180 -0.3373 -0.3398 -1.7566
 3834SOL    HW223136   0.430   1.232   6.161  0.3828  1.4948 -1.3077
 3835SOL     OW23137   0.006   0.135  14.003 -0.5188 -0.3543 -0.3623
 3835SOL    HW123138   4.708   0.088  13.929  2.4975 -0.2262 -2.0034
 3835SOL    HW223139   4.690   0.092  14.067  0.1397  0.7161  0.9246
 3836SOL     OW23140   0.919   1.889   7.239  0.1843 -0.7254 -0.3015
 3836SOL    HW123141   1.003   1.929   7.218 -0.0921  0.3577  0.6366
 3836SOL    HW223142   0.914   1.914   7.331  0.2849  0.0496 -0.5074
 3837SOL     OW23143   1.862   1.130   6.774 -0.4040  0.1792  0.4026
 3837SOL    HW123144   1.788   1.140   6.834 -0.5106 -0.7582  0.4131
 3837SOL    HW223145   1.864   1.214   6.727  1.3928  0.0723  0.3090
 3838SOL     OW23146   2.807   1.670   6.142  0.3416  0.8669 -0.0763
 3838SOL    HW123147   2.746   1.629   6.204  2.0208 -0.6996  0.5775
 3838SOL    HW223148   2.855   1.589   6.123  0.7478  1.3096 -0.9047
 3839SOL     OW23149   1.067   1.120   9.266 -0.5978 -0.4704 -0.0372
 3839SOL    HW123150   0.992   1.108   9.324  0.7390  0.7202  1.9714
 3839SOL    HW223151   1.127   1.167   9.324  0.5213 -0.9089 -0.8307
 3840SOL     OW23152   0.639   2.215   0.310 -0.0205 -0.1834  0.2846
 3840SOL    HW123153   0.644   2.185   0.219 -1.7798  0.1838  0.0593
 3840SOL    HW223154   0.625   2.307   0.286  2.9589 -0.0172 -0.8068
 3841SOL     OW23155   0.034   4.529   5.543  0.3649 -0.2180 -0.6536
 3841SOL    HW123156   0.029   4.582   5.463 -2.9963  1.3004  0.5580
 3841SOL    HW223157   4.682   4.516   5.559  0.8543 -0.6481  1.7761
 3842SOL     OW23158   4.572   1.320   1.739 -0.0461  0.5332  0.4029
 3842SOL    HW123159   4.501   1.257   1.730  0.7595 -0.4397  0.8805
 3842SOL    HW223160   4.527   1.400   1.710  0.7511  0.0445 -2.1496
 3843SOL     OW23161   1.632   3.542   7.493 -0.0218  0.2418  0.2830
 3843SOL    HW123162   1.716   3.578   7.521 -1.3968  2.1379  1.8987
 3843SOL    HW223163   1.590   3.506   7.571 -0.5572  1.3796  0.5124
 3844SOL     OW23164   1.069   3.010   6.731 -0.0088  0.1956  0.0694
 3844SOL    HW123165   1.031   2.926   6.704 -0.8147  0.3649  0.7012
 3844SOL    HW223166   1.001   3.057   6.778 -0.5964 -0.9882  0.4156
 3845SOL     OW23167   2.677   0.117   9.441 -0.3570 -0.5820 -0.1057
 3845SOL    HW123168   2.695   0.205   9.407 -2.0698  0.8015  2.5112
 3845SOL    HW223169   2.664   0.142   9.533  0.9430 -1.8337  0.4139
 3846SOL     OW23170   4.179   1.777   1.711 -0.6178 -0.2301 -0.3377
 3846SOL    HW123171   4.106   1.766   1.772 -0.2114 -0.2193  0.1491
 3846SOL    HW223172   4.236   1.822   1.773  0.5636 -1.2220 -0.6846
 3847SOL     OW23173   2.826   4.414  17.259 -0.2654  0.3414 -0.1843
 3847SOL    HW123174   2.853   4.476  17.327 -0.4346  0.4439 -0.2104
 3847SOL    HW223175   2.739   4.398  17.295 -0.5799  0.0857 -1.0643
 3848SOL     OW23176   0.289   1.754  11.310 -0.1698 -0.0117  0.2223
 3848SOL    HW123177   0.254   1.774  11.397  1.0725 -0.0916  0.7432
 3848SOL    HW223178   0.207   1.728  11.268 -0.0227  0.3392 -0.2878
 3849SOL     OW23179   2.174   0.759  14.113 -0.1123 -1.0472 -0.1217
 3849SOL    HW123180   2.160   0.762  14.018 -2.8130  0.3969  0.3173
 3849SOL    HW223181   2.092   0.718  14.140  0.4653 -0.5924  2.2952
 3850SOL     OW23182   0.048   3.154   3.098  0.0379  0.1058  0.5812
 3850SOL    HW123183   0.133   3.119   3.071  0.3930  2.0784 -0.8052
 3850SOL    HW223184   0.033   3.097   3.174 -1.6803  2.0287  1.6687
 3851SOL     OW23185   0.926   3.504   3.929  0.3798  0.2394 -0.1296
 3851SOL    HW123186   0.888   3.416   3.930  0.1733  0.3267 -0.4789
 3851SOL    HW223187   1.014   3.483   3.960 -0.1086  0.9388  1.7841
 3852SOL     OW23188   0.736   0.996   0.064 -0.9406 -0.0330 -0.4180
 3852SOL    HW123189   0.715   1.086   0.036 -1.1425  0.4739  1.4096
 3852SOL    HW223190   0.770   1.011   0.152 -3.1976 -0.1502  0.4886
 3853SOL     OW23191   2.386   1.367   4.203 -0.2422  0.1017 -0.0138
 3853SOL    HW123192   2.347   1.364   4.116  1.1825  1.1538 -0.6931
 3853SOL    HW223193   2.337   1.295   4.242  2.0958 -0.4818  1.8550
 3854SOL     OW23194   0.990   2.542  14.342  0.3731  0.0633 -0.3381
 3854SOL    HW123195   0.964   2.450  14.342 -0.1568  0.2165  0.5189
 3854SOL    HW223196   1.085   2.533  14.333  0.2531  1.5317 -3.3219
 3855SOL     OW23197   2.371   3.033  15.720 -0.2726  0.1783 -0.1240
 3855SOL    HW123198   2.295   3.044  15.776 -0.5599 -0.1959 -0.4419
 3855SOL    HW223199   2.423   2.985  15.785 -0.6191 -0.9763 -0.6917
 3856SOL     OW23200   0.793   3.982   8.376  0.5544 -0.0413 -0.8173
 3856SOL    HW123201   0.866   4.044   8.377 -0.6547  1.3859 -0.7414
 3856SOL    HW223202   0.781   3.968   8.282  0.7562  1.3076 -1.0490
 3857SOL     OW23203   0.746   4.059   3.694  0.2309  0.9436  1.0049
 3857SOL    HW123204   0.819   4.047   3.633 -1.3586  2.0269 -1.1471
 3857SOL    HW223205   0.678   4.082   3.630 -1.0133 -2.6629  1.0297
 3858SOL     OW23206   3.202   0.994   3.090 -0.2799  0.2809 -0.0863
 3858SOL    HW123207   3.207   0.900   3.074 -0.0068  0.2918 -0.0686
 3858SOL    HW223208   3.181   1.021   3.001 -0.4379  2.7405  0.6740
 3859SOL     OW23209   0.263   1.573   3.885 -0.1670 -0.1506  0.0514
 3859SOL    HW123210   0.190   1.553   3.944 -0.3429 -2.3996 -0.9240
 3859SOL    HW223211   0.226   1.539   3.803  0.8041 -1.6668  0.2296
 3860SOL     OW23212   2.734   2.266   2.813 -0.7638 -0.0921  0.0165
 3860SOL    HW123213   2.826   2.289   2.799 -1.2797  0.8577 -1.9077
 3860SOL    HW223214   2.700   2.326   2.746 -1.5843 -0.6335 -0.0500
 3861SOL     OW23215   1.896   2.936   9.206  0.1610  0.4716  0.1899
 3861SOL    HW123216   1.924   2.904   9.292 -1.4796  0.4645  0.7327
 3861SOL    HW223217   1.979   2.960   9.165  1.8166 -1.3744  2.4565
 3862SOL     OW23218   0.310   4.009   4.386  0.0544  0.4106  0.0153
 3862SOL    HW123219   0.368   4.066   4.437 -0.2785 -1.3462  2.3306
 3862SOL    HW223220   0.321   4.049   4.300  0.6040 -0.5661 -0.3559
 3863SOL     OW23221   0.137   1.797   8.115  0.2231  0.0291 -0.3491
 3863SOL    HW123222   0.041   1.806   8.112  0.0934 -1.4772 -0.6751
 3863SOL    HW223223   0.138   1.707   8.149  1.8371  0.6146  1.0844
 3864SOL     OW23224   1.285   0.040   4.889  0.0518  0.5377  0.1627
 3864SOL    HW123225   1.204   0.026   4.839  0.3509 -0.3669 -0.0541
 3864SOL    HW223226   1.344   0.063   4.818  2.0467 -0.7442  1.4051
 3865SOL     OW23227   0.392   2.042  12.144 -0.0953 -0.8862  0.0201
 3865SOL    HW123228   0.306   2.051  12.184  0.0837  3.0475 -0.4747
 3865SOL    HW223229   0.367   2.000  12.062  0.3889 -0.7874 -0.1812
 3866SOL     OW23230   0.264   2.867  12.666  0.4431  0.3364  0.7321
 3866SOL    HW123231   0.175   2.851  12.697  0.2409 -0.2487 -0.1390
 3866SOL    HW223232   0.254   2.838  12.575 -0.7919  2.2487  0.2513
 3867SOL     OW23233   3.984   2.624   0.253 -0.2744 -0.1379  0.2949
 3867SOL    HW123234   3.979   2.719   0.242 -1.7862 -0.4831 -1.9674
 3867SOL    HW223235   3.894   2.599   0.230 -0.8920  2.0464  0.2612
 3868SOL     OW23236   4.676   2.039   5.536 -0.4989 -0.3062  0.6887
 3868SOL    HW123237   4.642   2.124   5.563 -1.7712 -1.6692  3.3619
 3868SOL    HW223238   4.653   2.044   5.443 -1.5073 -0.1997  0.9411
 3869SOL     OW23239   0.424   4.215  15.701 -0.0168  0.4303  0.2509
 3869SOL    HW123240   0.495   4.276  15.720 -1.1571  1.4455  1.3210
 3869SOL    HW223241   0.374   4.210  15.783 -1.0429 -0.0173 -0.4056
 3870SOL     OW23242   1.199   2.654  11.679  0.6722 -0.0796 -0.1960
 3870SOL    HW123243   1.174   2.586  11.616  1.4842 -0.8017  0.2704
 3870SOL    HW223244   1.226   2.609  11.759  1.6470  1.0858  0.1316
 3871SOL     OW23245   4.252   3.667   9.515  0.4224 -0.3431  0.4956
 3871SOL    HW123246   4.330   3.701   9.470  0.4032  0.1621  0.8466
 3871SOL    HW223247   4.284   3.672   9.605  0.6273 -1.1993  0.4689
 3872SOL     OW23248   0.512   4.670   3.738  0.3293 -0.0742  0.5636
 3872SOL    HW123249   0.491   4.590   3.788 -1.9388  1.7701  2.5813
 3872SOL    HW223250   0.568   4.625   3.675  0.8138 -0.5086  1.2926
 3873SOL     OW23251   3.536   3.770   2.034  0.4187  0.4278 -0.0248
 3873SOL    HW123252   3.554   3.742   1.944  0.6479 -0.1131  0.1860
 3873SOL    HW223253   3.448   3.806   2.022 -0.2559 -1.9443 -2.3597
 3874SOL     OW23254   1.909   4.306   1.627 -0.3045  0.1065 -0.1264
 3874SOL    HW123255   1.869   4.348   1.550 -0.2381 -0.1439 -0.2971
 3874SOL    HW223256   1.862   4.223   1.635  0.9467 -0.5779  0.0330
 3875SOL     OW23257   3.386   0.113   3.108  0.1027  0.4195  0.0560
 3875SOL    HW123258   3.481   0.099   3.100  0.1755  0.7799  0.2521
 3875SOL    HW223259   3.346   0.030   3.133  0.1808  0.5061  0.4872
 3876SOL     OW23260   3.539   0.240   7.735 -0.0829  0.1611 -0.5466
 3876SOL    HW123261   3.600   0.275   7.800 -1.1530 -0.9983  1.0640
 3876SOL    HW223262   3.473   0.308   7.720 -1.0297 -0.4770  0.8028
 3877SOL     OW23263   3.172   0.756   1.920  0.2205 -0.0231  0.0679
 3877SOL    HW123264   3.203   0.733   2.007  0.6595 -1.2467 -0.4140
 3877SOL    HW223265   3.213   0.841   1.906  1.6494 -0.6717  0.2932
 3878SOL     OW23266   2.304   1.227   2.338 -0.2638 -0.3335  0.7407
 3878SOL    HW123267   2.357   1.162   2.384 -0.1051 -0.5302  0.2805
 3878SOL    HW223268   2.360   1.243   2.262  0.3718 -0.9071  1.0827
 3879SOL     OW23269   0.486   3.144   9.616 -0.5363  0.4221 -0.0222
 3879SOL    HW123270   0.409   3.102   9.577 -2.0723 -0.3975  3.8650
 3879SOL    HW223271   0.448   3.225   9.649 -0.0768  0.3008  0.8087
 3880SOL     OW23272   1.154   3.925   5.026 -0.5227  0.0820 -0.4128
 3880SOL    HW123273   1.247   3.903   5.018 -1.4095 -2.9342 -2.3122
 3880SOL    HW223274   1.123   3.837   5.048 -1.9633  0.9772  1.0883
 3881SOL     OW23275   0.534   1.469  15.583  0.0883 -0.4426  0.1408
 3881SOL    HW123276   0.441   1.472  15.563  0.0210  1.1037  0.7055
 3881SOL    HW223277   0.568   1.489  15.496  2.7140  1.5473  1.6171
 3882SOL     OW23278   1.931   2.152   6.475  0.2258  0.1049  0.1607
 3882SOL    HW123279   1.872   2.085   6.441  2.6255 -2.9032  1.9678
 3882SOL    HW223280   1.990   2.104   6.532 -1.5366  1.8802  3.5184
 3883SOL     OW23281   2.497   0.838   5.216 -0.4145  0.6096  0.6381
 3883SOL    HW123282   2.551   0.765   5.248 -0.3659  0.4419  0.1691
 3883SOL    HW223283   2.558   0.903   5.181 -0.8661  0.3960 -0.5291
 3884SOL     OW23284   3.347   4.224   0.373  0.2230  0.3342 -0.4483
 3884SOL    HW123285   3.337   4.316   0.397 -0.0236  0.0427  0.5480
 3884SOL    HW223286   3.347   4.225   0.277 -1.9665 -0.8414 -0.4642
 3885SOL     OW23287   0.881   4.308   6.523  0.3983 -0.2712 -0.4342
 3885SOL    HW123288   0.817   4.331   6.590 -1.0627 -0.0229 -1.8960
 3885SOL    HW223289   0.862   4.379   6.461 -3.7720 -0.1263  1.0280
 3886SOL     OW23290   2.174   3.296   6.496 -0.0090  0.1875  0.4857
 3886SOL    HW123291   2.186   3.371   6.554  0.7627  0.8258 -0.5063
 3886SOL    HW223292   2.160   3.227   6.561  3.1589  0.1328  1.1231
 3887SOL     OW23293   4.348   0.731  16.620  0.1396 -0.7568 -0.4337
 3887SOL    HW123294   4.436   0.724  16.657  0.5018  3.7448 -0.4473
 3887SOL    HW223295   4.375   0.678  16.545 -0.9282  1.3072 -2.2936
 3888SOL     OW23296   4.319   1.359   3.971  0.3811  0.4789 -0.3721
 3888SOL    HW123297   4.242   1.414   3.958 -1.1947 -1.2937  1.4877
 3888SOL    HW223298   4.369   1.418   4.028  0.8752 -1.3703  1.0911
 3889SOL     OW23299   3.564   1.148   3.354  0.0963  0.6063  0.4405
 3889SOL    HW123300   3.475   1.149   3.388 -0.2350 -0.0459 -0.4246
 3889SOL    HW223301   3.543   1.125   3.264 -1.4467  0.0731  0.9392
 3890SOL     OW23302   1.557   4.308  13.073  0.2321 -0.4176  0.1373
 3890SOL    HW123303   1.533   4.374  13.008 -1.1761  0.1655  1.2754
 3890SOL    HW223304   1.626   4.262  13.024  0.2694 -0.3014  0.0811
 3891SOL     OW23305   2.161   1.005   1.390 -0.0207  0.3679 -0.2800
 3891SOL    HW123306   2.232   1.008   1.326  2.1890 -1.3743  2.0868
 3891SOL    HW223307   2.171   0.923   1.437 -1.8779  0.6850  0.6489
 3892SOL     OW23308   1.790   1.829  15.263 -0.4048 -0.4742 -0.3002
 3892SOL    HW123309   1.712   1.859  15.215 -0.4826 -0.3531 -0.0966
 3892SOL    HW223310   1.837   1.908  15.289 -3.1528  0.8579  0.6307
 3893SOL     OW23311   1.754   1.805   2.346 -0.4180  0.1975 -0.0141
 3893SOL    HW123312   1.712   1.836   2.266 -0.4914 -1.7078 -0.6870
 3893SOL    HW223313   1.720   1.875   2.402 -1.0194 -1.0067  1.1269
 3894SOL     OW23314   2.689   3.945   4.054  0.1960 -0.5584  0.4533
 3894SOL    HW123315   2.680   3.999   4.132 -1.7830  0.4561 -0.4923
 3894SOL    HW223316   2.667   4.013   3.991  1.5004  0.1151  0.7075
 3895SOL     OW23317   3.077   0.033   3.382 -0.0799  0.2112 -0.0896
 3895SOL    HW123318   3.039   4.722   3.453 -0.6775 -1.8285 -1.8808
 3895SOL    HW223319   3.035   0.118   3.387 -1.0714 -0.2044 -1.1192
 3896SOL     OW23320   3.934   0.056   9.223  0.3537 -0.2616  0.1744
 3896SOL    HW123321   3.882   0.135   9.225 -0.3026 -0.6597 -2.2747
 3896SOL    HW223322   3.949   0.047   9.129  1.3389 -0.7246  0.3649
 3897SOL     OW23323   4.034   2.467   6.437 -0.1223  0.3776  0.8099
 3897SOL    HW123324   3.967   2.505   6.494 -2.0314 -1.7452 -0.0291
 3897SOL    HW223325   3.974   2.398   6.407  2.0747 -1.1649  0.0134
 3898SOL     OW23326   1.173   3.819  14.332 -0.2003  0.1402 -0.7316
 3898SOL    HW123327   1.110   3.875  14.378 -0.5385 -0.1352 -0.8537
 3898SOL    HW223328   1.128   3.736  14.343  1.0295 -0.6187 -1.4559
 3899SOL     OW23329   2.557   4.380  14.252 -0.7631 -0.0497 -0.0522
 3899SOL    HW123330   2.479   4.325  14.246  1.7003 -3.9363  3.5588
 3899SOL    HW223331   2.568   4.409  14.162  0.0285 -0.9257 -0.2393
 3900SOL     OW23332   1.013   4.608   4.529 -0.1506 -0.5360 -0.1988
 3900SOL    HW123333   0.992   4.672   4.460 -1.0831 -0.2498  0.3459
 3900SOL    HW223334   1.090   4.567   4.489 -1.7325 -0.4438 -3.3554
 3901SOL     OW23335   2.257   4.451  10.184 -0.3369  0.2090  0.2142
 3901SOL    HW123336   2.281   4.378  10.127 -2.5524  0.3442 -0.8614
 3901SOL    HW223337   2.169   4.424  10.209 -0.9583  1.1079 -1.0623
 3902SOL     OW23338   2.297   1.052   3.464  0.4344  0.1399 -0.4706
 3902SOL    HW123339   2.263   1.053   3.375  0.2794  1.8060 -0.3936
 3902SOL    HW223340   2.374   1.109   3.464  0.5003  0.0624  1.2581
 3903SOL     OW23341   2.316   2.450   2.056 -0.3456 -0.5087  0.4111
 3903SOL    HW123342   2.229   2.422   2.084  0.2115 -1.4826  1.1624
 3903SOL    HW223343   2.369   2.375   2.084  0.9982  0.2090 -0.2366
 3904SOL     OW23344   0.431   0.516   2.225 -0.3334 -0.3424  0.2430
 3904SOL    HW123345   0.408   0.425   2.245 -1.9956  0.5406  2.3514
 3904SOL    HW223346   0.407   0.531   2.133 -0.1110 -1.7088 -0.0313
 3905SOL     OW23347   0.950   3.037   9.275  0.5178  0.2962 -0.3714
 3905SOL    HW123348   1.008   3.090   9.330 -0.8058  1.6599 -0.2695
 3905SOL    HW223349   1.005   2.959   9.270 -0.5675 -0.4088 -1.3108
 3906SOL     OW23350   1.671   1.881  12.713  0.4065  0.6568 -0.2424
 3906SOL    HW123351   1.674   1.974  12.734 -0.4262  0.3165  1.4079
 3906SOL    HW223352   1.576   1.869  12.701  0.2644 -0.4524  2.0755
 3907SOL     OW23353   2.526   4.140  17.313 -0.1847  0.0380  0.0666
 3907SOL    HW123354   2.438   4.132  17.276  0.3413  1.1999 -1.4111
 3907SOL    HW223355   2.561   4.052  17.298 -1.0357 -0.1398 -0.8536
 3908SOL     OW23356   2.340   0.221   7.182 -0.4213 -0.0509  0.1595
 3908SOL    HW123357   2.246   0.237   7.173 -0.3931 -0.6264 -1.2309
 3908SOL    HW223358   2.348   0.172   7.100  2.2654 -1.3433  1.1959
 3909SOL     OW23359   2.003   2.932   5.208  0.4180  0.2475  0.4513
 3909SOL    HW123360   1.957   3.010   5.239  1.1675  1.4827 -1.6031
 3909SOL    HW223361   2.091   2.948   5.244  0.1931 -0.7500  1.4542
 3910SOL     OW23362   3.783   0.632  11.925 -0.2566 -0.8771  0.3533
 3910SOL    HW123363   3.749   0.606  12.012 -0.2320  0.4233  0.7462
 3910SOL    HW223364   3.877   0.628  11.940 -0.5971  0.8666  2.9941
 3911SOL     OW23365   3.879   1.742  13.211  0.2598 -0.0601  0.1094
 3911SOL    HW123366   3.796   1.694  13.216 -0.5179  1.1240 -1.5514
 3911SOL    HW223367   3.878   1.750  13.116 -3.5032 -0.5396  0.1169
 3912SOL     OW23368   4.100   3.649  12.840 -0.8288  0.7580 -0.3080
 3912SOL    HW123369   4.103   3.556  12.818  1.0134  0.1341  2.4767
 3912SOL    HW223370   4.100   3.678  12.749  0.6666 -1.0011 -0.8755
 3913SOL     OW23371   0.653   1.704   8.540 -0.3186 -0.5371 -0.0896
 3913SOL    HW123372   0.670   1.650   8.462 -0.8562 -2.6541  1.2630
 3913SOL    HW223373   0.736   1.699   8.587 -0.5825  0.0773  0.4420
 3914SOL     OW23374   0.746   3.957   8.122  0.3360  0.2006  0.3043
 3914SOL    HW123375   0.779   4.030   8.069  1.6678 -0.5568  0.0772
 3914SOL    HW223376   0.811   3.890   8.103 -1.5091 -1.7900  1.0175
 3915SOL     OW23377   3.171   4.247  15.526 -0.6402 -0.5135  0.0841
 3915SOL    HW123378   3.082   4.238  15.559 -0.5451  1.9321  1.0260
 3915SOL    HW223379   3.195   4.301  15.601  1.3772 -0.0557 -0.8715
 3916SOL     OW23380   0.177   0.279   2.391  0.1042  0.5998  0.4267
 3916SOL    HW123381   0.135   0.301   2.308 -0.9398  1.6287  1.2228
 3916SOL    HW223382   0.267   0.282   2.362  0.2167  0.5739  0.7655
 3917SOL     OW23383   4.738   2.273   3.860  0.2881  0.2975 -0.0937
 3917SOL    HW123384   4.668   2.265   3.795 -0.3087  3.0340  0.1857
 3917SOL    HW223385   4.715   2.190   3.902 -0.1793 -0.3404 -1.6032
 3918SOL     OW23386   4.258   1.923   5.465 -0.4316  0.0283  0.7163
 3918SOL    HW123387   4.315   2.000   5.456  0.0352 -0.4472 -0.3455
 3918SOL    HW223388   4.203   1.930   5.386 -1.1706  2.5352  1.4447
 3919SOL     OW23389   1.574   4.318   1.796  0.0687  0.3763 -0.5323
 3919SOL    HW123390   1.548   4.321   1.704  0.0034  0.1653 -0.5209
 3919SOL    HW223391   1.492   4.293   1.839 -0.0751  1.6624 -0.0401
 3920SOL     OW23392   0.334   3.891   1.085 -0.0069 -0.0722 -0.0322
 3920SOL    HW123393   0.274   3.907   1.012  1.3884  0.1774 -1.1181
 3920SOL    HW223394   0.404   3.949   1.054 -0.1932  0.7782  1.1347
 3921SOL     OW23395   4.235   2.033   9.756 -0.4545  0.0450  0.1179
 3921SOL    HW123396   4.171   1.986   9.810 -0.8619  0.5828  0.1045
 3921SOL    HW223397   4.187   2.032   9.673  0.6212  0.9587 -0.5172
 3922SOL     OW23398   1.011   4.094   4.305 -0.0099 -0.2274  0.4549
 3922SOL    HW123399   0.994   4.088   4.211  0.4111  1.0824  0.2895
 3922SOL    HW223400   1.016   4.004   4.336 -3.0391 -0.2845  0.8417
 3923SOL     OW23401   0.218   4.522   4.904  0.3851 -0.0163  0.2198
 3923SOL    HW123402   0.168   4.457   4.854 -0.7033 -1.0808  2.6785
 3923SOL    HW223403   0.228   4.581   4.829  3.5076 -1.1698 -0.2732
 3924SOL     OW23404   3.406   3.411  16.877  0.1137  0.1823 -0.0395
 3924SOL    HW123405   3.470   3.475  16.846 -1.3980  1.6723 -0.0689
 3924SOL    HW223406   3.324   3.429  16.831  1.5356  2.1629 -1.8254
 3925SOL     OW23407   2.164   1.282   1.403 -0.2102  0.0127 -0.0570
 3925SOL    HW123408   2.161   1.195   1.443  0.6175 -0.3989 -0.8950
 3925SOL    HW223409   2.152   1.250   1.313  2.9288  0.6341 -0.6723
 3926SOL     OW23410   4.706   3.749  13.021 -0.2645  0.3432  0.5339
 3926SOL    HW123411   4.682   3.721  12.932  0.7969  1.5555 -0.1186
 3926SOL    HW223412   4.654   3.684  13.069 -1.1248  0.4474 -0.2597
 3927SOL     OW23413   2.220   2.914   3.090  0.3664 -0.6642  0.0994
 3927SOL    HW123414   2.165   2.991   3.078 -0.2557 -2.0381 -5.7876
 3927SOL    HW223415   2.162   2.849   3.050  2.9083 -3.6328  1.2740
 3928SOL     OW23416   4.712   0.164   9.064  0.0942 -0.5198 -0.0258
 3928SOL    HW123417   0.011   0.142   9.148 -0.7376 -3.7206 -0.4945
 3928SOL    HW223418   4.626   0.185   9.101 -0.9433 -1.0946 -2.1429
 3929SOL     OW23419   2.381   4.344   6.935 -0.1271  0.1713 -0.2151
 3929SOL    HW123420   2.332   4.406   6.882  1.3661  0.9148 -0.7259
 3929SOL    HW223421   2.328   4.323   7.012 -1.0159  1.5857 -0.4570
 3930SOL     OW23422   1.353   3.461  12.375  0.3427  0.3404 -0.0902
 3930SOL    HW123423   1.391   3.389  12.425  1.2935  1.1040  0.2812
 3930SOL    HW223424   1.405   3.534  12.409  0.9031 -0.2546  0.3219
 3931SOL     OW23425   4.101   2.453   4.631 -0.0783 -0.1943 -0.6349
 3931SOL    HW123426   4.103   2.462   4.536  1.5881 -1.0648 -0.6760
 3931SOL    HW223427   4.195   2.464   4.642  0.1336 -0.9922 -1.6303
 3932SOL     OW23428   4.646   3.116   4.951  0.3998 -0.2723  0.0605
 3932SOL    HW123429   4.711   3.046   4.953 -1.6452 -2.2251 -1.5000
 3932SOL    HW223430   4.695   3.195   4.975  0.0258 -0.7891  2.5650
 3933SOL     OW23431   4.173   4.719   8.999  0.3334 -0.0228  0.6748
 3933SOL    HW123432   4.116   4.667   8.942 -2.6938  2.5269  1.3570
 3933SOL    HW223433   4.236   0.021   8.941  0.6253 -2.4017 -0.7831
 3934SOL     OW23434   0.792   4.121   8.683 -0.1788 -0.0750 -0.7309
 3934SOL    HW123435   0.866   4.107   8.742 -0.8780 -2.1764 -0.3727
 3934SOL    HW223436   0.824   4.195   8.632 -1.9310  1.5452  0.5252
 3935SOL     OW23437   3.620   2.308   3.676  0.1390 -0.2172  0.1076
 3935SOL    HW123438   3.564   2.235   3.652  0.2265 -0.1448 -0.3185
 3935SOL    HW223439   3.664   2.267   3.751 -2.5436 -2.0342  0.6732
 3936SOL     OW23440   2.826   3.877  12.627 -0.2357  0.0514  0.1565
 3936SOL    HW123441   2.751   3.932  12.651 -1.9691 -2.3803  0.2960
 3936SOL    HW223442   2.899   3.933  12.602 -0.4058  0.2309  0.0588
 3937SOL     OW23443   1.848   3.042   4.677 -0.0376 -0.0967  0.0975
 3937SOL    HW123444   1.892   3.113   4.630  1.2853 -0.2181  1.1432
 3937SOL    HW223445   1.892   2.968   4.636  0.6771 -0.0958  0.8617
 3938SOL     OW23446   4.480   1.695   6.423 -0.2953 -0.0134 -0.0050
 3938SOL    HW123447   4.388   1.669   6.413 -0.4795  0.1220  1.2578
 3938SOL    HW223448   4.514   1.689   6.334  2.5591 -0.6845  1.1559
 3939SOL     OW23449   0.536   3.271   1.763 -0.2528 -0.0666  0.0673
 3939SOL    HW123450   0.447   3.278   1.728 -0.0535 -1.5633 -0.7280
 3939SOL    HW223451   0.511   3.268   1.855  1.7313  0.7658  0.6354
 3940SOL     OW23452   1.714   3.874   3.104 -0.9102 -0.0377  0.0960
 3940SOL    HW123453   1.724   3.787   3.144 -2.6241  0.0296  0.6708
 3940SOL    HW223454   1.619   3.876   3.095 -0.9659 -0.4680  0.5784
 3941SOL     OW23455   2.877   1.322   2.969 -0.1300 -0.6000  0.0738
 3941SOL    HW123456   2.968   1.335   2.939 -1.5419  3.5647 -2.4551
 3941SOL    HW223457   2.837   1.384   2.907  0.2576  1.1839  1.6090
 3942SOL     OW23458   0.432   4.061   7.190 -0.4864  0.2828  0.1433
 3942SOL    HW123459   0.461   4.064   7.282 -0.1489 -1.2702  0.0787
 3942SOL    HW223460   0.338   4.058   7.205 -0.3877  3.5256  1.5153
 3943SOL     OW23461   3.114   2.584   3.832 -0.8309 -0.3275 -0.3391
 3943SOL    HW123462   3.066   2.502   3.837 -0.4329 -0.5898 -0.8514
 3943SOL    HW223463   3.086   2.629   3.752  1.4778  1.3471 -0.2164
 3944SOL     OW23464   3.922   3.827   4.144  0.1220 -0.1648 -0.0516
 3944SOL    HW123465   3.954   3.798   4.230 -3.2963 -1.3384  0.7992
 3944SOL    HW223466   3.856   3.893   4.162  0.3803 -0.1130  0.7168
 3945SOL     OW23467   0.370   1.854  14.110  0.1745 -0.2621  0.1474
 3945SOL    HW123468   0.366   1.759  14.099  2.6609 -0.2782 -0.4451
 3945SOL    HW223469   0.445   1.854  14.170  1.0113 -0.4479 -0.9064
 3946SOL     OW23470   0.045   0.580   4.653 -0.3228  0.4032  0.1208
 3946SOL    HW123471   4.715   0.606   4.711 -0.9213 -2.5256  0.6922
 3946SOL    HW223472   0.003   0.590   4.567 -1.9514 -0.7327  0.7789
 3947SOL     OW23473   1.706   1.464   5.373  0.4049  0.7060  0.0090
 3947SOL    HW123474   1.790   1.424   5.394  1.3982  2.1428 -1.1150
 3947SOL    HW223475   1.728   1.489   5.283  0.4384 -0.3662 -0.2748
 3948SOL     OW23476   1.716   1.765  12.352 -0.3852  0.2728 -0.1248
 3948SOL    HW123477   1.728   1.672  12.334  1.1053  0.2713  0.8378
 3948SOL    HW223478   1.680   1.756  12.440  0.2976  3.4832  0.5010
 3949SOL     OW23479   1.514   1.775   7.645 -0.3465  0.2468  0.1643
 3949SOL    HW123480   1.534   1.721   7.569  0.1317  1.1512 -0.3605
 3949SOL    HW223481   1.599   1.807   7.676 -0.5665 -1.4256  2.4841
 3950SOL     OW23482   4.500   1.800   4.393  0.4686  1.0332  0.0405
 3950SOL    HW123483   4.424   1.753   4.427 -0.0533  0.7971 -1.4171
 3950SOL    HW223484   4.562   1.727   4.395  0.1123  0.7075 -0.6692
 3951SOL     OW23485   3.616   0.598   4.775 -0.3079  0.3734  0.2333
 3951SOL    HW123486   3.628   0.506   4.796  1.6341  0.2247 -1.5722
 3951SOL    HW223487   3.600   0.576   4.683  0.8352 -2.9886  0.8495
 3952SOL     OW23488   4.411   2.915   3.655 -0.2055 -0.8910 -0.5416
 3952SOL    HW123489   4.383   2.839   3.603 -3.0437 -0.6468  0.6493
 3952SOL    HW223490   4.327   2.959   3.663  0.9980  1.1866  0.5460
 3953SOL     OW23491   1.320   4.044  13.828  0.1050  0.4288  0.0387
 3953SOL    HW123492   1.374   4.094  13.767  1.5695  1.8261  2.4636
 3953SOL    HW223493   1.383   4.007  13.890  1.3048 -0.8094 -1.9702
 3954SOL     OW23494   2.859   0.769  17.281 -0.3293 -0.7347  0.3902
 3954SOL    HW123495   2.919   0.831  17.238 -0.9650 -0.0651  0.4839
 3954SOL    HW223496   2.775   0.798  17.247 -0.6444 -3.3154 -1.0516
 3955SOL     OW23497   0.942   2.151   0.442  0.2041 -0.9402 -0.2250
 3955SOL    HW123498   1.026   2.170   0.399 -0.2343 -0.6779 -0.9600
 3955SOL    HW223499   0.878   2.120   0.378 -2.1061 -0.7932  2.0148
 3956SOL     OW23500   3.808   1.680   0.016  0.2981 -0.2475 -0.6619
 3956SOL    HW123501   3.780   1.678  17.685 -3.2559 -0.9419  0.4146
 3956SOL    HW223502   3.888   1.732   0.017  1.2199 -1.7613  3.2948
 3957SOL     OW23503   0.676   1.380  17.117  0.1548 -0.1480 -0.7089
 3957SOL    HW123504   0.759   1.381  17.164 -0.1980  1.9757 -0.1283
 3957SOL    HW223505   0.705   1.315  17.054 -0.0401 -0.9608  0.0357
 3958SOL     OW23506   2.477   4.456   8.324 -0.0410 -0.3311 -0.0871
 3958SOL    HW123507   2.464   4.550   8.333 -0.3918 -0.4033  0.1547
 3958SOL    HW223508   2.559   4.450   8.274 -0.2730  0.3017 -0.5395
 3959SOL     OW23509   1.343   1.257  11.843 -0.5760  0.3643  0.6385
 3959SOL    HW123510   1.423   1.207  11.827 -2.4924 -2.5233  0.1551
 3959SOL    HW223511   1.361   1.264  11.937 -2.3827 -1.3483  1.0975
 3960SOL     OW23512   1.070   1.728   1.697 -0.1852  0.1948  0.5968
 3960SOL    HW123513   1.126   1.658   1.664  1.0898  1.1453  0.7754
 3960SOL    HW223514   1.043   1.776   1.618  0.3342 -0.6262 -0.0841
 3961SOL     OW23515   0.735   3.593   5.805  0.1307 -0.0784 -0.2663
 3961SOL    HW123516   0.782   3.644   5.871 -1.0304  0.4090  0.1938
 3961SOL    HW223517   0.669   3.561   5.867 -0.8060  3.0285  0.3297
 3962SOL     OW23518   4.720   1.631   4.426  0.0462 -0.7687 -0.8972
 3962SOL    HW123519   4.728   1.581   4.507 -1.5980 -1.2734 -1.0370
 3962SOL    HW223520   0.056   1.599   4.379  2.4128  1.7914  1.3177
 3963SOL     OW23521   4.740   0.870  15.687  0.7530 -0.0803  0.0042
 3963SOL    HW123522   4.701   0.876  15.775 -1.7914 -0.7951 -1.0666
 3963SOL    HW223523   0.078   0.818  15.699  0.7737  0.0370  0.3951
 3964SOL     OW23524   3.020   0.518   2.455 -0.3505  0.0651  0.4710
 3964SOL    HW123525   3.005   0.458   2.528 -1.1956  0.0578  0.2918
 3964SOL    HW223526   2.933   0.557   2.442  1.5114  3.0807 -2.8066
 3965SOL     OW23527   1.598   2.549  11.983  0.2918 -0.0758 -0.6644
 3965SOL    HW123528   1.583   2.504  12.067  0.5048  0.6736 -0.2271
 3965SOL    HW223529   1.673   2.497  11.954 -0.2225 -1.4522  0.4273
 3966SOL     OW23530   1.610   1.448   5.677 -0.0161  0.3807 -0.1229
 3966SOL    HW123531   1.688   1.472   5.627 -1.2757  1.1427 -1.7463
 3966SOL    HW223532   1.656   1.425   5.758  0.0224  0.4169 -0.1343
 3967SOL     OW23533   1.987   4.699   3.776 -0.3156  0.2299 -0.0757
 3967SOL    HW123534   1.957   4.668   3.691 -1.5141  2.1048 -0.3481
 3967SOL    HW223535   1.936   0.036   3.799 -0.8661  0.7300 -3.1115
 3968SOL     OW23536   3.871   0.444   4.013 -0.2636  0.0921 -0.2290
 3968SOL    HW123537   3.909   0.454   3.926  1.7971 -0.1981  0.6540
 3968SOL    HW223538   3.821   0.525   4.016  1.3300  1.1366 -1.9854
 3969SOL     OW23539   3.661   2.823  15.341  0.4365 -0.3105  0.1924
 3969SOL    HW123540   3.628   2.797  15.427  0.6215  0.9124  0.6302
 3969SOL    HW223541   3.579   2.812  15.293 -0.4574  1.5240  1.3219
 3970SOL     OW23542   0.412   4.457   3.888 -0.3584 -0.0935  0.1960
 3970SOL    HW123543   0.343   4.415   3.836  0.2845 -1.0266  0.0859
 3970SOL    HW223544   0.452   4.387   3.940 -1.0273 -1.1991 -0.7939
 3971SOL     OW23545   4.017   0.652  17.027  0.5466 -0.5106  0.2803
 3971SOL    HW123546   4.085   0.710  17.061  1.3201 -0.3842 -1.4918
 3971SOL    HW223547   4.027   0.656  16.932  0.3998 -1.8362  0.2147
 3972SOL     OW23548   2.716   3.329  10.523 -0.0779  0.0723  0.1075
 3972SOL    HW123549   2.730   3.346  10.430 -1.1873 -0.2762 -0.1143
 3972SOL    HW223550   2.761   3.404  10.563 -2.5356  0.3293  2.3913
 3973SOL     OW23551   3.771   2.980   1.466  1.1161 -0.1302  0.3490
 3973SOL    HW123552   3.712   3.030   1.409  0.0978  1.8846  3.1630
 3973SOL    HW223553   3.726   2.897   1.449  2.0219 -0.4973 -0.2640
 3974SOL     OW23554   3.183   1.607   5.227 -0.2205  0.0517 -0.1466
 3974SOL    HW123555   3.100   1.649   5.250  0.3343  1.3563 -0.5338
 3974SOL    HW223556   3.209   1.645   5.143 -0.2399  0.1711 -0.0982
 3975SOL     OW23557   4.487   1.091  10.898  0.3283  0.0800 -0.2769
 3975SOL    HW123558   4.528   1.175  10.918 -0.8738  1.0515 -1.9143
 3975SOL    HW223559   4.443   1.078  10.982 -0.0994  2.2876 -0.1690
 3976SOL     OW23560   2.851   3.734   8.736  0.6351  0.0693  0.0474
 3976SOL    HW123561   2.919   3.799   8.751  0.7148 -0.0957  0.4127
 3976SOL    HW223562   2.895   3.655   8.768 -1.1231 -1.2263 -0.7080
 3977SOL     OW23563   4.522   1.684   5.795 -0.3874  0.4401  0.0992
 3977SOL    HW123564   4.468   1.763   5.801  0.0690  1.0233 -3.3655
 3977SOL    HW223565   4.460   1.626   5.751  1.1304  0.1309 -1.6346
 3978SOL     OW23566   3.250   4.710   2.101 -0.1624  0.2473  0.4151
 3978SOL    HW123567   3.326   0.025   2.085 -0.8865  1.0943 -0.0081
 3978SOL    HW223568   3.221   0.006   2.184  3.2835 -0.7785  2.1012
 3979SOL     OW23569   3.176   1.745   6.107 -0.8830 -0.4964  0.3464
 3979SOL    HW123570   3.148   1.677   6.169 -1.1085 -2.3349 -1.7966
 3979SOL    HW223571   3.169   1.827   6.155 -1.3464  0.5482 -1.5531
 3980SOL     OW23572   1.386   2.495   1.166  0.1224 -0.2131  0.0490
 3980SOL    HW123573   1.328   2.529   1.098 -3.4506 -0.5728  2.8841
 3980SOL    HW223574   1.465   2.546   1.147  0.7152  0.0339  3.2197
 3981SOL     OW23575   0.659   2.194   3.047  0.3535  0.0596  0.5092
 3981SOL    HW123576   0.587   2.257   3.043  0.6098  0.4926  2.4389
 3981SOL    HW223577   0.725   2.248   3.091 -0.5061  0.6717  1.0430
 3982SOL     OW23578   1.547   1.511  15.320  0.1658  0.1707 -0.2475
 3982SOL    HW123579   1.567   1.430  15.274 -1.8459 -0.5318  0.1132
 3982SOL    HW223580   1.633   1.540  15.349  1.5700  0.0167 -4.3061
 3983SOL     OW23581   0.286   3.731   7.725 -0.4858 -0.2794 -0.1927
 3983SOL    HW123582   0.255   3.750   7.636 -2.6099 -4.2964 -0.3122
 3983SOL    HW223583   0.246   3.804   7.771 -2.3841 -1.1715 -0.4422
 3984SOL     OW23584   1.190   0.363  16.923  0.1126 -0.0149 -0.2684
 3984SOL    HW123585   1.193   0.360  16.827  0.5839  0.6461 -0.2755
 3984SOL    HW223586   1.151   0.450  16.934  0.4002 -0.0742  1.1443
 3985SOL     OW23587   0.841   1.345   6.303 -0.8195 -0.0435  0.1792
 3985SOL    HW123588   0.815   1.268   6.252  0.3214  0.1104 -0.6494
 3985SOL    HW223589   0.848   1.413   6.236  1.5766 -1.5189 -1.0947
 3986SOL     OW23590   4.353   0.355  14.661 -0.1555 -0.6607  0.2911
 3986SOL    HW123591   4.358   0.414  14.736 -2.0074  2.2483 -1.8709
 3986SOL    HW223592   4.392   0.415  14.598 -2.2708  0.2151 -0.1844
 3987SOL     OW23593   2.079   0.204   0.315  0.0076  0.2028  0.4633
 3987SOL    HW123594   2.003   0.247   0.277 -0.0198  1.3256  1.7877
 3987SOL    HW223595   2.090   0.133   0.251  0.8477 -1.3451  2.3096
 3988SOL     OW23596   0.272   4.008   9.112 -0.0536  0.3646 -0.2148
 3988SOL    HW123597   0.283   3.927   9.062  2.5874  0.3057  0.4771
 3988SOL    HW223598   0.314   3.982   9.194  1.5066 -0.2863 -1.2096
 3989SOL     OW23599   2.432   1.576   4.390  0.8406  0.2950 -0.3242
 3989SOL    HW123600   2.431   1.665   4.353  0.0567 -0.0803 -1.2182
 3989SOL    HW223601   2.404   1.523   4.315 -0.2584  3.1791 -1.9672
 3990SOL     OW23602   3.623   1.813   6.880  0.4549  0.4494 -0.2432
 3990SOL    HW123603   3.689   1.763   6.928  0.4987  0.5557 -0.1932
 3990SOL    HW223604   3.608   1.884   6.942 -0.3036 -2.6772  3.1652
 3991SOL     OW23605   3.169   1.088   4.063 -0.4094  0.3716  0.0481
 3991SOL    HW123606   3.094   1.145   4.079 -0.0917  1.1350 -1.2694
 3991SOL    HW223607   3.237   1.142   4.103  0.4915 -0.8780  0.2144
 3992SOL     OW23608   1.882   3.353   3.545  0.2015 -0.1227  0.1250
 3992SOL    HW123609   1.887   3.299   3.466  1.3465  1.5567 -0.9410
 3992SOL    HW223610   1.793   3.386   3.550  0.3276  0.1826  0.3998
 3993SOL     OW23611   0.118   2.048   5.080 -0.5259  0.4775  0.2843
 3993SOL    HW123612   0.128   1.954   5.073  1.7921  0.5836  2.5870
 3993SOL    HW223613   0.151   2.079   4.995  0.7466  0.0962  0.6486
 3994SOL     OW23614   0.106   0.553   3.385 -0.1817 -0.2840  0.3040
 3994SOL    HW123615   0.027   0.500   3.379  0.5464 -1.0594 -2.3365
 3994SOL    HW223616   0.155   0.512   3.313  0.3677  0.3989  0.2831
 3995SOL     OW23617   4.291   2.879   5.629 -0.1635  0.3310  0.4196
 3995SOL    HW123618   4.321   2.795   5.664  0.4729 -0.6533 -2.5574
 3995SOL    HW223619   4.331   2.876   5.542 -2.8264  2.9361 -0.8865
 3996SOL     OW23620   4.680   0.370  10.040  0.3607 -0.5350 -0.0624
 3996SOL    HW123621   4.599   0.327  10.069 -0.4546 -1.0711 -3.1330
 3996SOL    HW223622   4.650   0.408   9.957  0.0708  2.7142  1.5643
 3997SOL     OW23623   1.825   3.563  10.719  0.2699 -0.1772  0.3823
 3997SOL    HW123624   1.751   3.529  10.769 -0.6560  1.6717  0.2962
 3997SOL    HW223625   1.788   3.564  10.631  1.2931  1.0293 -0.0316
 3998SOL     OW23626   1.128   3.113   5.476  0.3076 -0.1188 -0.0737
 3998SOL    HW123627   1.170   3.146   5.556  0.7240 -1.7957  0.3892
 3998SOL    HW223628   1.079   3.192   5.451 -1.0573 -1.5996 -2.0240
 3999SOL     OW23629   4.001   0.696   5.568 -0.2141  0.4460  0.0024
 3999SOL    HW123630   4.040   0.693   5.655 -1.7048  1.0866  0.7015
 3999SOL    HW223631   4.081   0.713   5.520 -0.8079  4.7130  0.5202
 4000SOL     OW23632   2.671   4.251   7.480 -0.0061 -0.1078 -0.5863
 4000SOL    HW123633   2.755   4.221   7.515  0.3290 -1.1144 -2.2559
 4000SOL    HW223634   2.685   4.230   7.388 -0.1964  1.7147 -1.0267
 4001SOL     OW23635   2.897   1.318  12.544 -0.6903  0.2070  0.0019
 4001SOL    HW123636   2.892   1.342  12.451  0.7952 -0.7998 -0.3439
 4001SOL    HW223637   2.817   1.368  12.560 -0.5362  0.6033 -0.4464
 4002SOL     OW23638   2.336   1.851  10.899 -0.3354 -0.4902  0.3943
 4002SOL    HW123639   2.403   1.889  10.842 -2.0530  1.1772 -0.5475
 4002SOL    HW223640   2.384   1.783  10.945 -2.0553 -1.3920  0.8543
 4003SOL     OW23641   1.448   0.352   5.250 -0.3386  0.3677 -0.3353
 4003SOL    HW123642   1.474   0.291   5.181  0.9104 -0.3353  0.7523
 4003SOL    HW223643   1.365   0.314   5.280  0.1114 -0.6472 -0.3712
 4004SOL     OW23644   1.645   0.884   0.582  0.4164 -0.1784 -0.3946
 4004SOL    HW123645   1.711   0.861   0.647  0.4651  0.0238 -0.3724
 4004SOL    HW223646   1.674   0.964   0.538  0.7307  0.0286  0.1897
 4005SOL     OW23647   2.057   1.856  10.172  0.3857 -0.3629 -0.5417
 4005SOL    HW123648   2.098   1.790  10.116  0.3769  0.8965 -2.0437
 4005SOL    HW223649   2.125   1.870  10.238 -1.5781  2.3436  0.9012
 4006SOL     OW23650   0.816   4.531   7.247 -0.4020 -0.0788  0.6908
 4006SOL    HW123651   0.857   4.617   7.257 -1.3330  0.6644 -1.9203
 4006SOL    HW223652   0.869   4.478   7.306  0.7456  2.9112  2.3132
 4007SOL     OW23653   1.296   0.699   6.024 -0.3942 -0.0744 -0.5085
 4007SOL    HW123654   1.296   0.789   5.992  2.5592  0.6257  1.4145
 4007SOL    HW223655   1.369   0.694   6.086 -0.9087  0.4006  0.1380
 4008SOL     OW23656   1.217   3.767   6.697 -0.3045 -0.0556 -0.2157
 4008SOL    HW123657   1.126   3.796   6.702 -0.2445  0.2074 -0.6336
 4008SOL    HW223658   1.240   3.786   6.788  0.3314  0.1102 -0.4136
 4009SOL     OW23659   1.997   3.951   1.731  0.8934 -0.3978 -0.3049
 4009SOL    HW123660   1.933   4.010   1.771  0.2054 -0.2165 -1.6744
 4009SOL    HW223661   1.958   3.944   1.644  0.6756 -1.2560 -0.1370
 4010SOL     OW23662   2.674   2.650   8.136  0.2022  0.1808 -0.1763
 4010SOL    HW123663   2.685   2.647   8.041  1.1004 -0.3824 -0.0585
 4010SOL    HW223664   2.636   2.737   8.142  0.1606  0.1809 -0.4424
 4011SOL     OW23665   3.989   3.301   3.036  0.3085 -0.0305  0.0275
 4011SOL    HW123666   4.075   3.340   3.052 -0.3926  1.0528  1.1318
 4011SOL    HW223667   3.968   3.331   2.947  0.4781  0.3408  0.1112
 4012SOL     OW23668   1.388   2.687   4.269 -0.2985  0.0989  0.9047
 4012SOL    HW123669   1.426   2.607   4.307 -0.5459  0.6752  2.3264
 4012SOL    HW223670   1.311   2.663   4.217  0.1344  0.1519  0.2284
 4013SOL     OW23671   0.797   1.178  11.659 -0.5813  0.8931  0.3471
 4013SOL    HW123672   0.838   1.265  11.664 -3.1061  1.9946  2.0599
 4013SOL    HW223673   0.704   1.201  11.669 -0.8034  0.3913 -0.6254
 4014SOL     OW23674   3.707   1.483  12.819 -0.1544  0.1948  0.4414
 4014SOL    HW123675   3.621   1.515  12.792 -0.8824 -1.5288  0.7144
 4014SOL    HW223676   3.761   1.539  12.764 -0.1675  0.2393  0.4742
 4015SOL     OW23677   4.161   4.065   5.895  0.5304  0.5452  0.0463
 4015SOL    HW123678   4.153   3.971   5.909  4.8584  0.1523 -0.1703
 4015SOL    HW223679   4.071   4.097   5.894  0.3858  0.1607  0.8502
 4016SOL     OW23680   1.357   3.151  10.957 -0.5501 -0.2356 -0.2876
 4016SOL    HW123681   1.296   3.215  10.993  0.0406  1.2881 -1.9685
 4016SOL    HW223682   1.338   3.069  11.002  2.7615 -0.2531  1.1248
 4017SOL     OW23683   0.447   0.667   5.193 -0.2544  0.0737  0.1438
 4017SOL    HW123684   0.439   0.761   5.210 -1.4221  0.2210 -1.2129
 4017SOL    HW223685   0.539   0.643   5.206  0.0287  1.2631  0.3001
 4018SOL     OW23686   1.533   1.754   1.169  0.5344 -0.0981 -0.0051
 4018SOL    HW123687   1.588   1.821   1.209 -2.9691  3.0867 -0.4630
 4018SOL    HW223688   1.563   1.762   1.078  2.7925 -2.0610  0.5763
 4019SOL     OW23689   1.069   1.727   3.266  0.2480 -0.8974  0.3716
 4019SOL    HW123690   0.978   1.740   3.292 -0.5852 -1.0588 -2.4299
 4019SOL    HW223691   1.112   1.780   3.333 -3.7605 -0.6833  2.7717
 4020SOL     OW23692   2.341   0.120   1.164  0.4020 -0.8082 -0.2283
 4020SOL    HW123693   2.409   0.121   1.097 -0.9583 -0.2102 -1.6216
 4020SOL    HW223694   2.374   0.190   1.219  0.9016  0.0523 -1.6187
 4021SOL     OW23695   1.749   2.134  15.609 -0.2143 -0.5149 -0.2304
 4021SOL    HW123696   1.825   2.077  15.598  1.7807  1.3136  3.7476
 4021SOL    HW223697   1.692   2.061  15.634 -0.9647  0.5476  1.1342
 4022SOL     OW23698   2.574   4.628   3.050  0.0008 -0.0578 -0.4026
 4022SOL    HW123699   2.537   4.599   3.133  0.8096 -2.2222 -0.8021
 4022SOL    HW223700   2.583   4.724   3.047 -0.3164 -0.0189  0.0500
 4023SOL     OW23701   4.375   1.454   6.705 -0.1241 -0.0034  0.4252
 4023SOL    HW123702   4.371   1.377   6.649  2.1796  0.6314 -0.5904
 4023SOL    HW223703   4.287   1.442   6.741  0.0916 -0.6476  0.7407
 4024SOL     OW23704   1.633   3.607  16.750  0.0387 -0.4423  0.4644
 4024SOL    HW123705   1.688   3.611  16.828 -0.1038  0.4329  0.5261
 4024SOL    HW223706   1.579   3.531  16.772 -2.2423  0.8326 -0.6678
 4025SOL     OW23707   3.290   4.390  16.627 -0.1143  0.4653 -0.0892
 4025SOL    HW123708   3.274   4.455  16.695  0.0937  0.6714 -0.2336
 4025SOL    HW223709   3.243   4.418  16.549  1.2883 -1.6995 -1.7027
 4026SOL     OW23710   0.109   2.667   3.286 -0.3444  0.0009 -0.0409
 4026SOL    HW123711   0.201   2.641   3.301 -0.4857 -0.3275  0.2814
 4026SOL    HW223712   0.102   2.642   3.194  1.4695 -1.5087  0.2031
 4027SOL     OW23713   4.712   2.437  17.391  0.3938  0.5068  0.2034
 4027SOL    HW123714   0.038   2.456  17.456  0.7999 -1.8785  0.4978
 4027SOL    HW223715   0.006   2.354  17.358 -1.8347  0.0653 -1.0130
 4028SOL     OW23716   4.099   2.950   5.011  0.1971 -0.4590 -0.1185
 4028SOL    HW123717   4.074   2.871   4.963 -2.1756  0.7802 -0.9475
 4028SOL    HW223718   4.192   2.955   4.991  0.0466  2.3148 -0.1224
 4029SOL     OW23719   0.727   3.171  14.403  0.3520  0.2380  0.0681
 4029SOL    HW123720   0.816   3.136  14.405 -0.7350 -2.5626 -0.5475
 4029SOL    HW223721   0.744   3.252  14.451 -1.0955  0.0473  0.9131
 4030SOL     OW23722   2.712   1.998  14.556  0.9806 -0.2821 -0.1617
 4030SOL    HW123723   2.729   1.980  14.648 -0.8074  3.5853  0.9479
 4030SOL    HW223724   2.656   2.075  14.566  0.6923 -0.4353 -0.6254
 4031SOL     OW23725   0.169   2.624   2.434 -0.1392  0.7089  0.0015
 4031SOL    HW123726   0.151   2.675   2.354  0.9731 -1.3766 -1.5669
 4031SOL    HW223727   0.236   2.684   2.467  0.9615 -1.0736  0.9606
 4032SOL     OW23728   1.623   1.689   6.624  0.8123  0.0357 -0.5550
 4032SOL    HW123729   1.650   1.781   6.620  3.5696 -0.7996 -1.5353
 4032SOL    HW223730   1.530   1.697   6.602  0.6811  1.0431  0.4079
 4033SOL     OW23731   2.413   0.710   4.452 -0.2045  0.2955  0.0170
 4033SOL    HW123732   2.494   0.659   4.446 -0.3452  0.1457 -0.6497
 4033SOL    HW223733   2.436   0.794   4.413  0.0328  0.7026  1.0592
 4034SOL     OW23734   0.375   0.293   5.197  0.0692  0.2958 -0.0918
 4034SOL    HW123735   0.359   0.375   5.243  1.0520  1.4702 -1.8076
 4034SOL    HW223736   0.466   0.311   5.171  0.0965  0.5632  0.2005
 4035SOL     OW23737   1.329   1.400  12.495  0.6340 -0.4276 -0.1802
 4035SOL    HW123738   1.377   1.423  12.415  0.5599  1.0164  0.1908
 4035SOL    HW223739   1.368   1.313  12.503  0.6185 -0.3737  0.4361
 4036SOL     OW23740   3.470   4.150   9.409 -0.4789 -0.2183  0.2313
 4036SOL    HW123741   3.457   4.208   9.484  3.3391  0.3913  0.4449
 4036SOL    HW223742   3.412   4.079   9.438 -0.6010 -0.2461 -0.0780
 4037SOL     OW23743   3.584   3.602  16.767 -0.0469  0.4359 -0.1240
 4037SOL    HW123744   3.652   3.654  16.724  0.3112 -0.8047 -1.0295
 4037SOL    HW223745   3.531   3.669  16.811 -0.5142  0.6685 -1.0344
 4038SOL     OW23746   1.500   1.980  10.307  0.3735  0.0630  0.3425
 4038SOL    HW123747   1.505   2.067  10.267 -0.0332 -0.4413 -0.7930
 4038SOL    HW223748   1.574   1.985  10.367  1.2741 -2.0905 -0.5673
 4039SOL     OW23749   1.272   4.322   5.383  0.0464 -0.0512 -0.4403
 4039SOL    HW123750   1.200   4.280   5.337 -0.4900  0.1805  0.1969
 4039SOL    HW223751   1.277   4.287   5.471 -1.5109  0.8170 -0.0114
 4040SOL     OW23752   0.141   1.704   8.781 -0.2206  0.2535  0.1313
 4040SOL    HW123753   0.096   1.711   8.865 -2.2539  1.9743 -1.0918
 4040SOL    HW223754   0.119   1.611   8.769 -1.6871  0.5579  0.4069
 4041SOL     OW23755   2.795   1.798   3.377 -0.4513 -0.2606  0.1761
 4041SOL    HW123756   2.876   1.839   3.348 -0.8783  0.0641 -0.5527
 4041SOL    HW223757   2.796   1.785   3.472  0.5811  0.6572  0.2871
 4042SOL     OW23758   2.895   1.740   2.171  0.4527  0.3700 -0.0103
 4042SOL    HW123759   2.962   1.789   2.124  1.3085 -0.7959 -0.0039
 4042SOL    HW223760   2.846   1.704   2.097  0.1227 -2.2901  1.4912
 4043SOL     OW23761   2.619   2.728   6.831 -0.1676  0.3349  0.1153
 4043SOL    HW123762   2.587   2.691   6.749 -0.3797 -0.6887  0.6582
 4043SOL    HW223763   2.713   2.739   6.818 -0.0031  1.6221  2.4681
 4044SOL     OW23764   1.676   3.505   4.275 -0.2300  0.2607 -0.0685
 4044SOL    HW123765   1.614   3.578   4.278  0.5782  0.8524  1.9457
 4044SOL    HW223766   1.634   3.445   4.213 -1.6853  1.3837 -0.1651
 4045SOL     OW23767   3.459   3.173   1.768 -0.2417  0.2384 -0.0661
 4045SOL    HW123768   3.445   3.107   1.699 -1.3101  1.1091 -0.6770
 4045SOL    HW223769   3.553   3.157   1.765 -0.9118 -4.1610  1.6004
 4046SOL     OW23770   3.762   4.163  13.805 -0.6890 -0.2034 -0.3689
 4046SOL    HW123771   3.730   4.142  13.893 -2.7173  1.6859 -0.6707
 4046SOL    HW223772   3.856   4.149  13.812 -0.8097 -0.3417  0.8961
 4047SOL     OW23773   0.049   4.465   7.632 -0.2602 -0.3068 -0.2900
 4047SOL    HW123774   0.065   4.387   7.578  1.9740  0.6337 -0.9747
 4047SOL    HW223775   4.731   4.428   7.698  0.3934 -2.9422 -1.1522
 4048SOL     OW23776   3.538   0.476   9.222  0.0613 -0.3242 -0.2311
 4048SOL    HW123777   3.476   0.540   9.187 -0.9368 -0.9790  0.3187
 4048SOL    HW223778   3.592   0.542   9.266  0.2209  1.2473 -2.7712
 4049SOL     OW23779   2.277   4.146  17.201 -0.2631 -0.5078 -0.1283
 4049SOL    HW123780   2.230   4.228  17.186 -1.1231 -0.6240  1.8178
 4049SOL    HW223781   2.217   4.086  17.157 -1.8329  0.8076  0.1987
 4050SOL     OW23782   1.612   2.603   7.620  0.3188 -0.0926  0.3446
 4050SOL    HW123783   1.598   2.620   7.527 -1.2455 -0.9589  0.4350
 4050SOL    HW223784   1.701   2.569   7.610  0.9043  1.6430 -0.3412
 4051SOL     OW23785   3.935   1.468   1.109  0.7635 -0.3179 -0.8911
 4051SOL    HW123786   3.841   1.455   1.098  0.4235  0.7746  0.7143
 4051SOL    HW223787   3.963   1.470   1.017  2.1986  0.5906 -0.4296
 4052SOL     OW23788   2.869   1.953  16.687  0.1372 -0.0972  0.3400
 4052SOL    HW123789   2.774   1.959  16.681  0.0845 -0.6498  0.5717
 4052SOL    HW223790   2.882   2.043  16.716 -2.0393  0.1817  0.3781
 4053SOL     OW23791   3.327   3.395   1.581  0.8083  0.1801  0.3316
 4053SOL    HW123792   3.241   3.398   1.538  0.5598 -1.6566  0.7255
 4053SOL    HW223793   3.316   3.404   1.675  0.9473  1.6991  0.2036
 4054SOL     OW23794   0.440   1.487   0.079  0.1935 -0.6717 -0.3544
 4054SOL    HW123795   0.472   1.458   0.165 -0.3113  0.4050  0.1910
 4054SOL    HW223796   0.361   1.434   0.074 -0.0387 -0.3531 -0.0329
 4055SOL     OW23797   3.686   4.384   7.280 -0.0007  0.0066  0.3101
 4055SOL    HW123798   3.683   4.295   7.315  1.4611  0.0379  0.5123
 4055SOL    HW223799   3.637   4.377   7.198 -1.7090 -3.3194  1.6267
 4056SOL     OW23800   1.422   2.969  10.648  0.0595  0.2150 -0.1914
 4056SOL    HW123801   1.491   2.923  10.695 -1.2423  0.8924  2.3588
 4056SOL    HW223802   1.407   2.903  10.580  0.6430  1.3477 -1.4257
 4057SOL     OW23803   0.256   4.157   2.810  0.0139  0.5807  0.9592
 4057SOL    HW123804   0.305   4.221   2.758 -0.1367 -0.3269 -0.2996
 4057SOL    HW223805   0.310   4.079   2.802  1.0654  1.3817  0.2401
 4058SOL     OW23806   1.618   1.048   8.902 -0.3831 -0.0009  0.6656
 4058SOL    HW123807   1.595   1.139   8.884 -0.0898  0.4909  2.8436
 4058SOL    HW223808   1.532   1.029   8.939 -0.2018 -1.9822  0.0857
 4059SOL     OW23809   1.435   2.571   3.058 -0.0256 -0.5751  0.2173
 4059SOL    HW123810   1.459   2.519   2.982  1.7867  1.6420 -0.7265
 4059SOL    HW223811   1.341   2.582   3.046  0.2482 -0.1277 -1.4575
 4060SOL     OW23812   0.947   0.156   7.782 -0.0188 -0.0684  0.3357
 4060SOL    HW123813   1.033   0.183   7.814  0.2813 -0.6615  0.0235
 4060SOL    HW223814   0.930   0.232   7.726  1.0428 -1.3613 -1.7101
 4061SOL     OW23815   0.997   4.535   5.606  0.2790 -0.1429 -0.0610
 4061SOL    HW123816   0.974   4.618   5.563  1.3622  0.0523 -0.2739
 4061SOL    HW223817   0.947   4.464   5.566  1.5661 -1.3815  0.5049
 4062SOL     OW23818   0.563   4.103  17.692  0.0989 -0.2042 -0.1953
 4062SOL    HW123819   0.547   4.128   0.021  0.8816 -1.0100  0.1637
 4062SOL    HW223820   0.478   4.131  17.658  1.1829 -0.7447 -3.3495
 4063SOL     OW23821   2.055   4.314  16.311  0.9349 -0.0230 -0.7904
 4063SOL    HW123822   1.962   4.299  16.329  1.4032 -1.2838  0.6422
 4063SOL    HW223823   2.077   4.225  16.337  0.7038  0.5022  1.1678
 4064SOL     OW23824   0.510   4.570  17.337 -0.1185 -0.0752  0.0560
 4064SOL    HW123825   0.566   4.645  17.318 -0.1948 -0.6105 -2.2569
 4064SOL    HW223826   0.495   4.527  17.253  1.0743  0.5174 -0.4558
 4065SOL     OW23827   3.133   3.909   7.574 -0.1843 -0.1960  1.0036
 4065SOL    HW123828   3.178   3.966   7.511  1.8993 -3.7370 -0.6578
 4065SOL    HW223829   3.072   3.864   7.516  0.5380  2.9863 -2.2474
 4066SOL     OW23830   4.351   3.692   0.928  0.5004 -0.1231  0.3286
 4066SOL    HW123831   4.438   3.653   0.920 -0.3819 -1.7383 -1.3916
 4066SOL    HW223832   4.308   3.642   0.858 -0.6404  1.0921  0.1602
 4067SOL     OW23833   3.040   0.019   5.887 -0.1230  0.0297 -0.1220
 4067SOL    HW123834   3.077   0.042   5.972 -2.1544  1.7101  0.2968
 4067SOL    HW223835   2.982   0.094   5.873  0.0871 -0.1654 -1.9903
 4068SOL     OW23836   0.829   4.582  12.684 -0.4229  0.3410 -0.1743
 4068SOL    HW123837   0.734   4.575  12.678 -0.6049  1.4106  1.4019
 4068SOL    HW223838   0.849   4.489  12.694 -2.6594  0.0053  1.0978
 4069SOL     OW23839   2.110   1.251   7.967  0.0317 -0.7148  0.2737
 4069SOL    HW123840   2.144   1.226   8.053  0.2423  0.5298  0.5620
 4069SOL    HW223841   2.123   1.346   7.968 -0.8325 -0.6300  2.8760
 4070SOL     OW23842   1.047   2.963   3.643 -0.1569  0.1852  0.2870
 4070SOL    HW123843   1.108   2.891   3.659  0.5511  0.6612 -0.2596
 4070SOL    HW223844   1.103   3.028   3.603 -0.1493  0.4956  0.7995
 4071SOL     OW23845   1.371   1.587   6.470 -0.3541 -0.0563 -0.5138
 4071SOL    HW123846   1.290   1.633   6.491  0.4817  0.7133  1.1002
 4071SOL    HW223847   1.332   1.503   6.493  0.3517  0.4679  2.6464
 4072SOL     OW23848   0.752   1.950   1.100  0.2561 -0.5769  0.5507
 4072SOL    HW123849   0.809   2.022   1.127  0.5087 -1.1818  1.6134
 4072SOL    HW223850   0.692   2.002   1.046  2.1568  1.0865  0.0524
 4073SOL     OW23851   3.869   0.471   6.704 -0.2561 -0.6901  0.5199
 4073SOL    HW123852   3.853   0.411   6.631 -1.4999  0.1805  0.0660
 4073SOL    HW223853   3.950   0.511   6.672 -1.4977  0.3958 -1.3195
 4074SOL     OW23854   0.361   1.217   5.770 -0.5542 -0.8885  1.1221
 4074SOL    HW123855   0.326   1.305   5.780 -1.3719 -1.3379  2.3152
 4074SOL    HW223856   0.450   1.234   5.800 -0.7254  0.7374  0.7014
 4075SOL     OW23857   1.479   0.079   4.603 -0.1230 -0.1693 -0.1101
 4075SOL    HW123858   1.534   0.003   4.623  1.6014  0.0391 -3.9714
 4075SOL    HW223859   1.457   0.054   4.513 -1.1409  0.8004 -0.1237
 4076SOL     OW23860   1.620   0.720   4.063  0.2618  0.2560  0.1105
 4076SOL    HW123861   1.699   0.729   4.116  0.9344 -1.3157 -0.6252
 4076SOL    HW223862   1.576   0.802   4.086  0.7316  0.5930 -0.1755
 4077SOL     OW23863   2.594   3.551   1.463 -0.1506 -0.5228 -0.5883
 4077SOL    HW123864   2.685   3.524   1.449 -0.3547 -0.8560 -1.2979
 4077SOL    HW223865   2.557   3.475   1.506 -1.8387  0.2235 -0.7153
 4078SOL     OW23866   4.211   1.805   8.502  0.1887 -0.2933  0.0904
 4078SOL    HW123867   4.180   1.771   8.586 -0.0377 -3.4862 -1.2871
 4078SOL    HW223868   4.273   1.740   8.470 -0.3611 -0.5781 -0.3874
 4079SOL     OW23869   4.260   0.794   3.888 -0.4352 -0.6622  0.3265
 4079SOL    HW123870   4.311   0.762   3.814 -1.4183 -0.3159 -0.4956
 4079SOL    HW223871   4.247   0.886   3.868 -4.2750 -1.1336  0.7673
 4080SOL     OW23872   4.641   2.749   3.467  0.0101 -0.3694  0.1939
 4080SOL    HW123873   4.576   2.792   3.411  1.9489 -1.4638 -2.8991
 4080SOL    HW223874   4.713   2.726   3.408 -2.3102 -1.4939 -2.2303
 4081SOL     OW23875   1.560   3.454   6.351  0.5133 -0.0109  0.5096
 4081SOL    HW123876   1.631   3.390   6.341  0.1196 -0.7498  2.3949
 4081SOL    HW223877   1.515   3.417   6.428 -0.0014  0.6280  0.5190
 4082SOL     OW23878   2.777   2.407   6.759 -0.1040  0.1347  0.6854
 4082SOL    HW123879   2.778   2.468   6.685 -1.9471  1.2783  1.5906
 4082SOL    HW223880   2.694   2.362   6.751 -0.1662  0.6059 -1.3542
 4083SOL     OW23881   3.143   3.467   5.670 -0.0160 -0.3621  0.3402
 4083SOL    HW123882   3.218   3.526   5.661  0.6607 -1.3147 -0.3546
 4083SOL    HW223883   3.195   3.388   5.686 -1.6792 -1.5037  0.1608
 4084SOL     OW23884   2.609   1.547   1.568 -0.6016 -0.0708 -0.1709
 4084SOL    HW123885   2.645   1.459   1.562  1.2020  0.5462  1.5772
 4084SOL    HW223886   2.523   1.525   1.532 -0.7967  0.7134 -0.1842
 4085SOL     OW23887   3.687   1.162   3.600  0.1756  0.2994 -0.6644
 4085SOL    HW123888   3.655   1.171   3.510 -1.2698  2.4594  0.0799
 4085SOL    HW223889   3.657   1.074   3.621  0.7706  0.3267  0.3310
 4086SOL     OW23890   2.955   1.049   6.670 -0.1799 -0.2865 -0.3620
 4086SOL    HW123891   3.035   0.999   6.656 -0.3270 -0.2384 -1.4025
 4086SOL    HW223892   2.899   0.976   6.694  0.4867 -1.6895 -3.0956
 4087SOL     OW23893   2.041   4.002  12.214 -0.2186  0.7839 -0.3599
 4087SOL    HW123894   1.953   3.969  12.227 -0.4149  2.1819  1.8953
 4087SOL    HW223895   2.084   3.931  12.166 -1.4299 -0.8965  1.0502
 4088SOL     OW23896   2.757   3.994   2.526  0.2198 -0.4481  0.2256
 4088SOL    HW123897   2.680   3.962   2.480  0.8029 -0.7722 -0.5110
 4088SOL    HW223898   2.738   3.965   2.616 -0.8227 -1.7190 -0.4044
 4089SOL     OW23899   1.381   0.268   2.112 -0.3310  0.0769 -0.1635
 4089SOL    HW123900   1.430   0.333   2.062  0.8452 -0.1797  0.6552
 4089SOL    HW223901   1.421   0.289   2.197 -1.5293  0.1640  0.3711
 4090SOL     OW23902   1.433   1.496   6.915  0.3216  0.5990 -0.2286
 4090SOL    HW123903   1.352   1.544   6.933  0.4496  1.0762 -0.9233
 4090SOL    HW223904   1.438   1.456   6.828 -2.2520  0.8463 -0.4808
 4091SOL     OW23905   1.128   0.869   1.909 -0.8955  0.5365 -0.4165
 4091SOL    HW123906   1.048   0.825   1.879  0.8050 -1.1563 -2.4247
 4091SOL    HW223907   1.154   0.911   1.827  2.8064  1.0559  1.0262
 4092SOL     OW23908   4.625   4.173  14.685  0.1361 -0.3794 -0.2253
 4092SOL    HW123909   4.648   4.176  14.592 -0.4144  1.5401 -0.3027
 4092SOL    HW223910   4.671   4.253  14.711 -0.0074 -0.8076  1.3740
 4093SOL     OW23911   0.487   1.899   2.878 -0.5449 -0.1904 -0.4480
 4093SOL    HW123912   0.573   1.913   2.916 -0.9911  1.5912 -0.1039
 4093SOL    HW223913   0.507   1.826   2.818 -2.5243 -1.1852  0.0956
 4094SOL     OW23914   2.284   4.290   4.027 -0.1623  0.3065 -0.2029
 4094SOL    HW123915   2.333   4.325   3.953 -1.3040  1.4977 -0.4102
 4094SOL    HW223916   2.199   4.328   4.003 -0.6578  0.6135  1.9822
 4095SOL     OW23917   3.600   1.134   5.855 -0.2225 -0.5737  1.1462
 4095SOL    HW123918   3.664   1.155   5.924 -1.0245  1.6377  1.2070
 4095SOL    HW223919   3.520   1.171   5.891 -2.0224 -2.4148 -0.9750
 4096SOL     OW23920   1.569   0.934   4.546  0.4181 -0.1252  0.0607
 4096SOL    HW123921   1.540   1.019   4.580 -0.8225 -1.0583  1.3343
 4096SOL    HW223922   1.624   0.957   4.471 -0.4258  1.1500 -0.1801
 4097SOL     OW23923   2.192   3.805  14.721  0.1384 -0.0471 -0.3083
 4097SOL    HW123924   2.149   3.874  14.671 -0.7233  0.7239  1.4879
 4097SOL    HW223925   2.285   3.827  14.709 -0.0862  2.4872  2.4426
 4098SOL     OW23926   3.036   0.936   4.291 -0.7619  0.0813  0.0579
 4098SOL    HW123927   3.029   0.975   4.379 -1.8759  0.1676 -0.0666
 4098SOL    HW223928   3.086   1.005   4.248 -0.4213  0.7436  1.5011
 4099SOL     OW23929   1.172   1.741   4.756  0.1811 -0.1496  0.1767
 4099SOL    HW123930   1.102   1.807   4.761 -0.6443 -1.2232  2.9959
 4099SOL    HW223931   1.200   1.720   4.845 -0.3889  2.1496  0.8969
 4100SOL     OW23932   1.176   4.596  14.539  0.5030  0.9456  0.3577
 4100SOL    HW123933   1.151   4.604  14.447  1.8738  1.2176  0.0012
 4100SOL    HW223934   1.210   4.683  14.556  1.4904  0.0984  2.7508
 4101SOL     OW23935   1.591   0.809   6.684  0.3899 -0.3371  0.1867
 4101SOL    HW123936   1.628   0.750   6.619  1.4838 -2.4874  2.7799
 4101SOL    HW223937   1.499   0.783   6.680  0.1521  0.2974  1.6765
 4102SOL     OW23938   1.218   1.469   4.694  0.0436  0.4341  0.0158
 4102SOL    HW123939   1.191   1.548   4.742 -0.6345  0.7324 -0.8432
 4102SOL    HW223940   1.141   1.412   4.698  0.4931 -0.5566 -4.4906
 4103SOL     OW23941   2.278   1.922  17.271  0.0017  0.7216 -0.2193
 4103SOL    HW123942   2.235   1.958  17.348 -1.2336 -0.4873 -0.3486
 4103SOL    HW223943   2.209   1.914  17.204 -1.7982  0.7592  1.6331
 4104SOL     OW23944   2.568   3.793  13.342  0.5415  0.5181 -0.2734
 4104SOL    HW123945   2.653   3.790  13.387  0.2044 -0.8645  0.2445
 4104SOL    HW223946   2.581   3.863  13.277  1.6680  0.0636 -0.5292
 4105SOL     OW23947   1.230   2.579  11.366 -0.0347  0.3054 -1.0986
 4105SOL    HW123948   1.186   2.640  11.306 -0.1004  2.7148  1.3719
 4105SOL    HW223949   1.156   2.547  11.418 -0.1995 -0.0115 -1.5273
 4106SOL     OW23950   0.981   3.700   1.215  0.1804 -0.1386 -0.3788
 4106SOL    HW123951   1.068   3.723   1.248  0.1749 -0.3091 -0.2448
 4106SOL    HW223952   0.940   3.663   1.293 -0.5936 -1.0539 -1.2205
 4107SOL     OW23953   4.240   3.972   8.547 -0.4160 -0.0407 -0.4119
 4107SOL    HW123954   4.274   3.919   8.619  0.0186  0.6079 -0.1454
 4107SOL    HW223955   4.200   3.905   8.492 -0.5070 -0.5654  0.2871
 4108SOL     OW23956   2.653   0.835  11.394  0.0516 -0.6567 -0.0003
 4108SOL    HW123957   2.746   0.857  11.381  0.0690 -0.8315 -0.1712
 4108SOL    HW223958   2.640   0.902  11.461 -1.3182  0.6271 -1.5409
 4109SOL     OW23959   3.851   1.522   5.585  0.4550 -0.2781  0.3343
 4109SOL    HW123960   3.827   1.474   5.506 -1.1680 -3.1514  2.5846
 4109SOL    HW223961   3.943   1.539   5.565  0.1120  0.7761 -0.3348
 4110SOL     OW23962   3.815   0.078   7.429  0.4147 -0.0561  0.2080
 4110SOL    HW123963   3.802   0.139   7.356 -2.0254 -1.3384 -0.4464
 4110SOL    HW223964   3.867   0.002   7.401  0.4016  0.1215 -0.3053
 4111SOL     OW23965   4.585   0.877   4.778  0.2160 -0.1058  0.2227
 4111SOL    HW123966   4.517   0.911   4.836  0.0888 -0.0529  0.0421
 4111SOL    HW223967   4.577   0.783   4.792 -1.0937  0.0047  0.2416
 4112SOL     OW23968   2.859   2.990   3.904  0.2556  0.6874 -0.2558
 4112SOL    HW123969   2.832   3.077   3.935  0.3903 -0.0302  1.9263
 4112SOL    HW223970   2.837   2.975   3.812  0.1306 -0.3733 -0.0457
 4113SOL     OW23971   2.041   2.737   5.027  0.0377  0.5670 -0.1376
 4113SOL    HW123972   2.122   2.786   5.012  0.1497  1.0451  2.1142
 4113SOL    HW223973   2.023   2.774   5.113  0.7574  1.7819 -0.5172
 4114SOL     OW23974   0.342   0.025   6.971  0.5933  0.0457  0.4029
 4114SOL    HW123975   0.375   0.062   6.888  0.7694 -4.8901 -1.7052
 4114SOL    HW223976   0.286   4.703   6.926  1.2381  0.1433 -0.5480
 4115SOL     OW23977   3.455   4.034   8.670  0.5336  0.1678  0.1828
 4115SOL    HW123978   3.447   4.090   8.592  4.3611  0.6133  0.1156
 4115SOL    HW223979   3.415   4.088   8.738 -0.7600 -1.3687  0.6350
 4116SOL     OW23980   2.371   2.132   8.015  0.2344  0.0704  0.1317
 4116SOL    HW123981   2.328   2.216   8.030 -0.8826 -0.8609  2.1417
 4116SOL    HW223982   2.302   2.066   8.015  0.3142 -0.0120  0.8910
 4117SOL     OW23983   2.016   3.712   3.527 -0.0385  0.0599 -0.2278
 4117SOL    HW123984   1.927   3.701   3.560 -0.4047 -1.5688 -1.7145
 4117SOL    HW223985   2.015   3.804   3.498 -1.0829  0.1911  0.2324
 4118SOL     OW23986   3.523   2.062   3.360  0.2534 -0.5635 -0.7361
 4118SOL    HW123987   3.519   2.074   3.455  2.1756  2.3064 -1.0249
 4118SOL    HW223988   3.484   2.148   3.344 -2.4048 -1.9313 -1.5530
 4119SOL     OW23989   3.392   1.802  11.953 -0.8309  0.0323 -0.1745
 4119SOL    HW123990   3.430   1.849  12.027 -2.0023  0.2139  0.3162
 4119SOL    HW223991   3.437   1.852  11.885  0.1704 -1.4803 -0.6248
 4120SOL     OW23992   2.474   3.171   9.927  0.2012 -0.2905 -0.2334
 4120SOL    HW123993   2.514   3.208  10.006  0.7369  0.3330 -0.7872
 4120SOL    HW223994   2.514   3.084   9.934  0.7136 -0.2745 -3.0784
 4121SOL     OW23995   3.590   2.363   5.756 -0.2755  0.2130  0.4202
 4121SOL    HW123996   3.677   2.381   5.721 -0.5484 -1.9619 -1.3954
 4121SOL    HW223997   3.584   2.270   5.735 -1.1353  0.5886 -1.0136
 4122SOL     OW23998   4.429   4.607   4.646 -0.2087 -0.4378 -0.0805
 4122SOL    HW123999   4.519   4.608   4.613 -0.6506  3.4632 -1.1869
 4122SOL    HW224000   4.402   4.521   4.614 -1.0352 -0.1573 -0.1410
 4123SOL     OW24001   0.286   3.518   1.069  0.2380  0.2342 -0.2321
 4123SOL    HW124002   0.230   3.552   0.999 -1.2067  0.6494  1.1181
 4123SOL    HW224003   0.228   3.524   1.145  0.4014 -1.2452  0.0154
 4124SOL     OW24004   2.918   0.132  16.919 -0.4775 -0.2631  0.4886
 4124SOL    HW124005   2.843   0.119  16.978 -1.1508 -1.5133 -0.6403
 4124SOL    HW224006   2.931   0.225  16.936  2.8914 -0.4733 -1.1209
 4125SOL     OW24007   0.108   2.346   3.491 -0.2647  0.6124  0.8919
 4125SOL    HW124008   0.139   2.357   3.580 -0.2049  2.6201  0.6311
 4125SOL    HW224009   0.191   2.324   3.447 -0.0141  0.1810  1.5855
 4126SOL     OW24010   3.739   0.168  15.450  0.5252  0.1531 -0.4978
 4126SOL    HW124011   3.739   0.140  15.542  1.4599  1.0094 -0.2423
 4126SOL    HW224012   3.680   0.100  15.417 -0.0025 -0.1536  1.0392
 4127SOL     OW24013   1.901   0.007   2.626  0.2128 -0.6540 -0.1670
 4127SOL    HW124014   1.952   0.004   2.544  0.2152  1.1094 -0.2357
 4127SOL    HW224015   1.812   0.015   2.591 -0.0248 -0.2552  0.5258
 4128SOL     OW24016   3.801   2.324  10.174 -0.1919 -0.0794  0.7538
 4128SOL    HW124017   3.737   2.361  10.115  0.6515 -2.2468 -1.5175
 4128SOL    HW224018   3.787   2.382  10.249 -1.2909  0.2314  0.3092
 4129SOL     OW24019   1.136   2.718  17.012  0.3122 -0.4038 -0.2543
 4129SOL    HW124020   1.048   2.742  16.983  0.1946 -1.9047 -1.1365
 4129SOL    HW224021   1.147   2.637  16.962 -0.7683 -1.6516  1.5200
 4130SOL     OW24022   4.203   1.356   7.721  0.0548 -0.2273 -0.6197
 4130SOL    HW124023   4.133   1.320   7.775 -0.1025 -0.0080 -0.6734
 4130SOL    HW224024   4.154   1.397   7.649  1.0845 -0.0226 -1.2087
 4131SOL     OW24025   4.069   1.930  11.500  0.1828 -0.0125 -0.1341
 4131SOL    HW124026   4.137   1.863  11.508 -1.7845 -1.8749  1.1069
 4131SOL    HW224027   4.035   1.931  11.411  0.5901  0.9235 -0.2789
 4132SOL     OW24028   0.362   4.634   4.397 -0.3528  0.0379  0.0628
 4132SOL    HW124029   0.279   4.681   4.406 -1.4909 -1.9350 -0.0880
 4132SOL    HW224030   0.327   4.589   4.321 -1.9158 -0.4540  1.0717
 4133SOL     OW24031   2.275   2.683   7.636 -0.1438  0.5311  0.1104
 4133SOL    HW124032   2.248   2.694   7.545  2.5123  2.6585 -0.4273
 4133SOL    HW224033   2.257   2.770   7.672  0.3257  1.7165 -2.5070
 4134SOL     OW24034   0.176   0.242  14.263  0.4419 -0.1252  0.3861
 4134SOL    HW124035   0.224   0.284  14.334 -1.4885  1.1073  0.9388
 4134SOL    HW224036   0.235   0.172  14.236  0.5810 -0.0980  0.6211
 4135SOL     OW24037   2.659   3.652  12.951 -0.2621 -0.2107 -0.3191
 4135SOL    HW124038   2.723   3.684  12.888  0.3027  0.2072  0.4694
 4135SOL    HW224039   2.589   3.610  12.901  1.1615 -0.9096 -1.7150
 4136SOL     OW24040   2.456   3.329  15.901 -0.0309  0.1145 -0.2990
 4136SOL    HW124041   2.472   3.284  15.818  0.8168  1.2542 -0.7630
 4136SOL    HW224042   2.361   3.321  15.911  0.1626 -0.3458  1.1825
 4137SOL     OW24043   2.257   4.368   9.720 -0.6033  0.0668  0.6439
 4137SOL    HW124044   2.186   4.420   9.682  0.1213  0.9056  0.4279
 4137SOL    HW224045   2.257   4.291   9.663  0.9335  1.0198 -0.6523
 4138SOL     OW24046   4.197   3.316   5.649  0.0650  0.2507  0.0567
 4138SOL    HW124047   4.151   3.234   5.630 -0.0425  0.1443  0.7767
 4138SOL    HW224048   4.287   3.281   5.651 -0.2642 -0.5015  1.9366
 4139SOL     OW24049   2.709   1.871   6.793 -0.0828 -1.0081 -0.0801
 4139SOL    HW124050   2.731   1.846   6.704 -0.9578  1.1200 -0.8878
 4139SOL    HW224051   2.765   1.948   6.794 -0.1983 -0.9235 -0.3148
 4140SOL     OW24052   1.031   2.614   5.800  0.3835 -0.5038 -0.6208
 4140SOL    HW124053   1.045   2.524   5.830 -1.0225  0.0065  1.5877
 4140SOL    HW224054   1.043   2.605   5.706  0.3921  0.0913 -0.6800
 4141SOL     OW24055   3.252   0.459   2.322 -0.1202  0.7976  0.4882
 4141SOL    HW124056   3.167   0.487   2.355 -0.9553 -1.1463 -0.0506
 4141SOL    HW224057   3.269   0.386   2.381  0.1494 -0.2906 -0.9416
 4142SOL     OW24058   4.200   3.435   3.036  0.3915 -0.2460 -0.4250
 4142SOL    HW124059   4.186   3.529   3.039 -0.0608 -0.3104 -0.6115
 4142SOL    HW224060   4.242   3.432   2.950  0.9735  2.4759 -0.2236
 4143SOL     OW24061   3.763   0.298   1.187 -0.8192  0.2057 -0.1188
 4143SOL    HW124062   3.795   0.232   1.125 -2.8146 -0.9942  0.1183
 4143SOL    HW224063   3.797   0.260   1.267  0.6255 -1.0836 -1.3375
 4144SOL     OW24064   0.905   2.281  10.774  0.6530  0.0009  0.0992
 4144SOL    HW124065   0.905   2.266  10.868 -0.3819  2.8757  0.5666
 4144SOL    HW224066   0.813   2.295  10.747  0.7121 -2.6822 -1.4508
 4145SOL     OW24067   0.636   4.382   1.446  0.2892 -0.1545 -0.0355
 4145SOL    HW124068   0.635   4.453   1.510  0.8035  0.8948 -1.1710
 4145SOL    HW224069   0.560   4.331   1.473 -1.4353  2.8075  0.6887
 4146SOL     OW24070   4.155   0.412  11.291  0.3807  0.1179 -0.1171
 4146SOL    HW124071   4.168   0.434  11.199  1.8775  1.8950  0.5115
 4146SOL    HW224072   4.093   0.340  11.295 -0.5596  0.9174 -0.1726
 4147SOL     OW24073   4.360   3.909   4.266 -0.0824 -0.3470  0.5896
 4147SOL    HW124074   4.366   3.831   4.321  1.7915 -0.6397 -0.0275
 4147SOL    HW224075   4.307   3.873   4.195  0.1750 -2.0491  1.2603
 4148SOL     OW24076   3.792   1.800   2.915 -0.2686 -0.3085 -0.1160
 4148SOL    HW124077   3.760   1.735   2.978  2.2394 -2.4271 -1.0129
 4148SOL    HW224078   3.885   1.779   2.902 -0.9149 -1.8212 -2.4758
 4149SOL     OW24079   2.393   0.318  17.030 -0.0585 -0.0834 -0.0296
 4149SOL    HW124080   2.416   0.387  16.967  0.7755 -1.9721 -1.8041
 4149SOL    HW224081   2.302   0.291  17.018 -0.1536 -0.1055  0.7680
 4150SOL     OW24082   1.626   4.116  16.533  0.0152 -0.6823 -0.0629
 4150SOL    HW124083   1.586   4.047  16.585  2.2258 -1.2043  0.9126
 4150SOL    HW224084   1.636   4.076  16.447 -2.2478 -1.1742 -0.0961
 4151SOL     OW24085   0.997   0.044   4.306 -0.6582  0.0113 -0.2231
 4151SOL    HW124086   0.938   0.037   4.230 -0.9981  0.1771  0.0249
 4151SOL    HW224087   0.980   0.133   4.336  1.6012  1.9526 -4.6358
 4152SOL     OW24088   2.754   0.036  15.714 -0.3870  0.3460  0.6692
 4152SOL    HW124089   2.763   4.689  15.678 -1.0544  1.1729 -1.5232
 4152SOL    HW224090   2.696   0.018  15.788 -1.2157  0.1666 -0.0267
 4153SOL     OW24091   3.243   1.635   4.316 -0.3450 -0.2373 -0.0399
 4153SOL    HW124092   3.217   1.554   4.360 -0.2545 -0.6949 -0.8372
 4153SOL    HW224093   3.241   1.704   4.382 -2.6230 -0.4232  0.0674
 4154SOL     OW24094   1.641   1.188  11.837  0.0378 -0.4208 -0.6217
 4154SOL    HW124095   1.632   1.220  11.747 -0.8076  2.2503  0.4444
 4154SOL    HW224096   1.734   1.193  11.858  0.3309  1.2653 -2.3820
 4155SOL     OW24097   4.319   3.179   7.203 -0.1707 -0.1765  0.0512
 4155SOL    HW124098   4.403   3.172   7.157 -0.5686 -0.2625 -0.6550
 4155SOL    HW224099   4.332   3.128   7.283  3.1009  0.5553 -0.0083
 4156SOL     OW24100   4.454   2.751   8.082  0.6791  0.2872 -0.3734
 4156SOL    HW124101   4.447   2.847   8.089 -0.1609  0.4693 -3.4316
 4156SOL    HW224102   4.389   2.723   8.146  0.1656  0.0414 -1.0084
 4157SOL     OW24103   0.456   1.371  17.545  0.0970  0.0771 -0.3980
 4157SOL    HW124104   0.457   1.399  17.453 -1.1360  1.3712 -0.0000
 4157SOL    HW224105   0.410   1.443  17.586 -2.1629 -1.7352  0.2753
 4158SOL     OW24106   0.483   4.383   5.781 -0.1209  0.2543 -0.2264
 4158SOL    HW124107   0.578   4.380   5.773  0.0193 -0.2715  1.6189
 4158SOL    HW224108   0.457   4.376   5.689 -0.0021 -1.3268 -0.1368
 4159SOL     OW24109   0.923   0.528  10.471 -0.0374 -0.1137  0.1381
 4159SOL    HW124110   0.908   0.612  10.429  2.4974  1.1817  1.8744
 4159SOL    HW224111   0.916   0.475  10.392  2.6392 -0.1287 -0.0756
 4160SOL     OW24112   1.153   2.386   6.409 -0.1557 -0.6283 -0.4293
 4160SOL    HW124113   1.211   2.388   6.333  0.3929 -2.4958 -0.0738
 4160SOL    HW224114   1.195   2.425   6.485  3.8394  0.1263 -3.0160
 4161SOL     OW24115   1.241   3.977   2.723  0.0105  0.5645 -0.3324
 4161SOL    HW124116   1.243   4.059   2.773 -0.8058 -0.0416  0.6854
 4161SOL    HW224117   1.152   3.986   2.689  0.0274 -1.1726 -0.8254
 4162SOL     OW24118   1.738   2.355   2.481 -0.0276  0.3686  0.7631
 4162SOL    HW124119   1.808   2.316   2.429 -1.5676  0.7720 -1.5960
 4162SOL    HW224120   1.775   2.434   2.521  0.1324  1.1792 -0.9687
 4163SOL     OW24121   4.737   4.154  13.431  0.2281  0.5065  0.0574
 4163SOL    HW124122   4.739   4.189  13.342 -1.4409  2.0408  0.6311
 4163SOL    HW224123   4.644   4.164  13.454 -0.2525 -0.7521 -1.3269
 4164SOL     OW24124   4.396   1.695  11.778  0.5404 -0.4460  0.6966
 4164SOL    HW124125   4.368   1.679  11.688  0.2831  0.6873  0.5716
 4164SOL    HW224126   4.312   1.688  11.823  1.1140  3.1898  2.3061
 4165SOL     OW24127   3.338   1.136   0.026 -0.4784 -0.3772  0.1180
 4165SOL    HW124128   3.377   1.071   0.084 -1.1347 -0.1966  0.7685
 4165SOL    HW224129   3.254   1.158   0.068 -0.1789  0.3963  0.3222
 4166SOL     OW24130   3.887   3.300   8.231  0.3348 -0.1138  0.4658
 4166SOL    HW124131   3.956   3.366   8.238  0.4097 -0.1531  0.0684
 4166SOL    HW224132   3.811   3.345   8.269 -2.1190 -2.3280 -1.8207
 4167SOL     OW24133   4.072   1.379   8.809 -0.7761 -0.3452 -0.2640
 4167SOL    HW124134   4.054   1.297   8.763  0.4935 -0.5194 -0.4227
 4167SOL    HW224135   4.101   1.339   8.891  1.2709 -0.4428 -1.0497
 4168SOL     OW24136   3.312   3.044   6.355 -0.2969 -0.4243 -0.3199
 4168SOL    HW124137   3.256   3.035   6.278 -0.8793 -1.7244  0.2415
 4168SOL    HW224138   3.398   3.066   6.320  0.6306 -0.6346  1.8163
 4169SOL     OW24139   0.526   4.100   6.466  0.5517 -0.0112  0.3803
 4169SOL    HW124140   0.487   4.109   6.379  0.3485 -0.3545  0.4347
 4169SOL    HW224141   0.618   4.123   6.452  1.2801 -2.3044  1.4654
 4170SOL     OW24142   4.701   4.371  17.631  0.5311  0.2451 -0.4741
 4170SOL    HW124143   4.642   4.319  17.578  1.6725 -0.4514 -1.0450
 4170SOL    HW224144   0.043   4.324  17.637 -0.4459 -1.2869  1.0799
 4171SOL     OW24145   1.629   1.569   6.098  0.3489  0.1417  0.1646
 4171SOL    HW124146   1.543   1.536   6.126  1.2375 -2.1043  0.2670
 4171SOL    HW224147   1.643   1.499   6.034 -2.8949 -0.6931  0.3640
 4172SOL     OW24148   0.789   0.386   7.412  0.6007 -0.4713 -0.2163
 4172SOL    HW124149   0.732   0.365   7.337  0.0063  0.5069 -0.0424
 4172SOL    HW224150   0.766   0.326   7.483  2.5165 -0.6077  0.2917
 4173SOL     OW24151   0.772   3.352   1.672 -0.0840 -0.0033  0.1735
 4173SOL    HW124152   0.816   3.274   1.639 -1.1575 -0.1149 -0.9902
 4173SOL    HW224153   0.678   3.333   1.664 -0.1235  1.4383 -2.7497
 4174SOL     OW24154   1.124   4.598   6.485  0.2360  0.1896  0.3457
 4174SOL    HW124155   1.072   4.634   6.558  0.4750  0.7049  0.2621
 4174SOL    HW224156   1.061   4.595   6.414 -0.2973 -2.0634  0.9093
 4175SOL     OW24157   3.189   1.700   5.826  0.8185  0.0845  0.1843
 4175SOL    HW124158   3.263   1.646   5.798  1.3317  0.9130 -0.0464
 4175SOL    HW224159   3.201   1.696   5.921 -0.2098 -1.2508  0.2639
 4176SOL     OW24160   3.331   0.941   4.803  0.4195  0.1724 -0.2469
 4176SOL    HW124161   3.348   0.947   4.709  0.1870 -1.2190 -0.3756
 4176SOL    HW224162   3.398   0.997   4.840 -0.9830  1.6475  0.0701
 4177SOL     OW24163   0.509   3.950   4.827 -0.1662 -0.2564  0.3889
 4177SOL    HW124164   0.553   3.893   4.890  0.2470 -0.7338 -0.3289
 4177SOL    HW224165   0.488   3.880   4.765  0.1393 -0.3116  0.3479
 4178SOL     OW24166   3.929   1.558   4.801 -0.3019  0.3630  0.0973
 4178SOL    HW124167   3.893   1.470   4.812 -2.4571  1.3370  0.7983
 4178SOL    HW224168   3.853   1.605   4.766 -0.6864 -0.9978 -0.8917
 4179SOL     OW24169   2.826   2.535   3.468 -0.0182  0.0801 -0.1282
 4179SOL    HW124170   2.755   2.474   3.486  2.6366 -2.5008  1.5589
 4179SOL    HW224171   2.873   2.491   3.398  2.3861  1.6450  0.4858
 4180SOL     OW24172   2.056   3.663  11.468  0.4596 -0.2580 -0.4430
 4180SOL    HW124173   2.018   3.650  11.555  2.1931  3.3421  0.8460
 4180SOL    HW224174   2.150   3.669  11.482  0.1706  1.3187  0.8010
 4181SOL     OW24175   0.856   2.250   5.453 -0.2260  0.6196 -0.7853
 4181SOL    HW124176   0.925   2.277   5.514 -1.7236  0.9071  0.7636
 4181SOL    HW224177   0.795   2.206   5.512 -0.2653 -2.3529 -3.0272
 4182SOL     OW24178   4.265   1.945  16.946 -0.3971  0.2562 -0.0620
 4182SOL    HW124179   4.273   2.005  16.871  0.8262  0.9844  0.6460
 4182SOL    HW224180   4.247   2.004  17.019 -1.2969  0.3637 -0.3642
 4183SOL     OW24181   1.450   2.185   3.485  0.1233 -0.4395 -0.1860
 4183SOL    HW124182   1.357   2.170   3.498 -0.5248  0.8119 -3.5522
 4183SOL    HW224183   1.477   2.121   3.420  1.7656  2.2336 -2.1777
 4184SOL     OW24184   0.494   2.584  15.617  0.3657  0.2536  0.0152
 4184SOL    HW124185   0.495   2.508  15.560 -0.4377  1.4228 -1.5401
 4184SOL    HW224186   0.481   2.553  15.707  1.2614  1.4428  0.5599
 4185SOL     OW24187   1.892   1.578   6.531  0.4191 -0.1195  0.0886
 4185SOL    HW124188   1.810   1.611   6.566  0.9530 -1.0214  2.1751
 4185SOL    HW224189   1.886   1.497   6.581 -0.5279  0.6735  1.2271
 4186SOL     OW24190   3.674   0.701   4.055  0.2270  0.2330 -0.1073
 4186SOL    HW124191   3.579   0.707   4.047  0.3011  1.7437  0.1020
 4186SOL    HW224192   3.689   0.765   4.125  0.0987 -1.2497  1.2802
 4187SOL     OW24193   3.215   4.623  10.441 -0.2638  0.0213  0.2218
 4187SOL    HW124194   3.242   4.712  10.420  1.4627 -1.0066 -1.8444
 4187SOL    HW224195   3.121   4.632  10.454 -0.8354 -2.0241 -2.5625
 4188SOL     OW24196   2.769   2.470   4.373 -0.1874 -0.2873  0.2129
 4188SOL    HW124197   2.736   2.450   4.461 -1.0752 -0.4949 -0.1619
 4188SOL    HW224198   2.783   2.383   4.335  0.2947 -0.7200  1.3937
 4189SOL     OW24199   0.937   0.697  13.544 -0.0430  0.4840  0.1823
 4189SOL    HW124200   0.920   0.678  13.637  0.8503 -0.0321  0.2476
 4189SOL    HW224201   1.024   0.738  13.540  1.1091 -1.8460  0.9459
 4190SOL     OW24202   4.670   0.362   8.103 -0.2693 -0.0816  0.3666
 4190SOL    HW124203   4.623   0.301   8.161  3.6072 -3.7356 -0.3101
 4190SOL    HW224204   4.690   0.430   8.167 -1.1940  2.1780 -1.7747
 4191SOL     OW24205   2.776   2.540   3.781 -0.6532 -0.0792 -0.4086
 4191SOL    HW124206   2.823   2.518   3.700 -0.0321 -0.5617  0.0843
 4191SOL    HW224207   2.810   2.622   3.815  0.4051  0.2703 -2.3244
 4192SOL     OW24208   3.835   4.149   9.099  0.0643 -0.2557  0.3452
 4192SOL    HW124209   3.786   4.076   9.062  0.2463  1.2217 -2.8341
 4192SOL    HW224210   3.804   4.141   9.189  0.8042  0.1332  0.6373
 4193SOL     OW24211   4.024   2.366   3.644 -0.4979  0.2854  0.1580
 4193SOL    HW124212   4.016   2.387   3.551  0.1733 -0.2535 -0.0228
 4193SOL    HW224213   3.932   2.377   3.669 -0.9250 -3.4225  0.2667
 4194SOL     OW24214   3.371   2.522   9.841  0.2866  0.4692  0.6044
 4194SOL    HW124215   3.316   2.599   9.830 -1.4635 -0.9313 -0.3904
 4194SOL    HW224216   3.349   2.466   9.766 -1.0608  0.1348  1.2490
 4195SOL     OW24217   1.288   0.929  13.898 -0.7029 -0.0702  0.1512
 4195SOL    HW124218   1.310   0.978  13.977 -0.3017  1.2309 -0.7729
 4195SOL    HW224219   1.306   0.837  13.916 -0.2245 -0.1216 -0.6086
 4196SOL     OW24220   1.115   4.302   4.405  0.0143  0.5561 -0.2224
 4196SOL    HW124221   1.122   4.359   4.328  0.9572  0.0322 -0.5257
 4196SOL    HW224222   1.076   4.224   4.366  1.0499  0.3051 -0.7594
 4197SOL     OW24223   0.368   2.373  13.770 -0.3015 -0.2190  0.7739
 4197SOL    HW124224   0.442   2.329  13.812  1.1074  1.0713 -0.3742
 4197SOL    HW224225   0.357   2.455  13.818  1.8145  0.2800  0.4155
 4198SOL     OW24226   2.288   0.506   2.814 -0.0716 -0.7510  0.2380
 4198SOL    HW124227   2.332   0.549   2.741 -0.8227  0.7426  0.6626
 4198SOL    HW224228   2.210   0.557   2.837  0.1610 -0.3775  0.2093
 4199SOL     OW24229   3.734   3.769   4.711 -0.4307 -0.2363  0.2591
 4199SOL    HW124230   3.777   3.685   4.695 -0.3175  0.0842 -1.1275
 4199SOL    HW224231   3.692   3.795   4.629  1.2106  0.6404 -0.2934
 4200SOL     OW24232   1.812   4.564  16.019  0.1509 -0.4336 -0.4757
 4200SOL    HW124233   1.763   4.646  16.031  0.4883 -0.1355 -1.1305
 4200SOL    HW224234   1.758   4.506  16.072 -1.8351  1.6475 -0.2272
 4201SOL     OW24235   0.762   2.459   6.604  0.1529  0.7411 -0.1938
 4201SOL    HW124236   0.812   2.516   6.545 -0.9825  1.9186 -0.0141
 4201SOL    HW224237   0.675   2.499   6.601  0.9165  2.5685  2.1994
 4202SOL     OW24238   1.536   0.867  11.088 -0.6888 -0.1617  0.2755
 4202SOL    HW124239   1.630   0.880  11.072 -0.9252  1.3277  0.1059
 4202SOL    HW224240   1.531   0.774  11.111 -1.0454  0.2774  1.9649
 4203SOL     OW24241   4.027   2.320  13.202  0.7177  0.2732 -0.0954
 4203SOL    HW124242   4.004   2.251  13.264 -0.5362 -0.3800 -1.2692
 4203SOL    HW224243   4.120   2.325  13.222  0.8713  2.1821 -1.2733
 4204SOL     OW24244   3.774   3.173   7.781  0.5990 -0.1354 -0.0688
 4204SOL    HW124245   3.798   3.154   7.872  1.1927 -0.6134 -0.3220
 4204SOL    HW224246   3.805   3.263   7.767  1.3282 -0.3189  0.3644
 4205SOL     OW24247   4.014   3.471   6.033 -0.2517  0.8975 -0.6313
 4205SOL    HW124248   3.997   3.492   5.941 -0.2262  0.9149 -0.6320
 4205SOL    HW224249   3.977   3.383   6.040 -1.7367  1.4188 -1.9469
 4206SOL     OW24250   1.107   2.029   2.323  0.4769 -0.9545 -0.7591
 4206SOL    HW124251   1.083   2.002   2.412  1.9380 -1.3236 -0.4831
 4206SOL    HW224252   1.069   1.962   2.266 -0.0653 -1.3402  0.0530
 4207SOL     OW24253   4.646   0.874  15.976 -0.1690  0.3410 -0.2125
 4207SOL    HW124254   4.649   0.946  16.039 -1.5191  0.5171 -0.3468
 4207SOL    HW224255   4.551   0.865  15.966 -0.1115  0.6057 -1.0741
 4208SOL     OW24256   4.187   0.529  12.326 -1.0441  0.3463  0.5056
 4208SOL    HW124257   4.156   0.615  12.298  0.0067  0.8808  0.9967
 4208SOL    HW224258   4.219   0.497  12.241  0.7861  0.6917  1.0889
 4209SOL     OW24259   1.078   1.931   3.815 -0.0642 -0.3929  0.1109
 4209SOL    HW124260   1.123   2.009   3.846 -0.2342  0.5201 -1.9056
 4209SOL    HW224261   1.030   1.907   3.894 -0.2959  2.2708  0.7483
 4210SOL     OW24262   2.856   0.156   6.249  0.5020 -0.7759  0.2100
 4210SOL    HW124263   2.934   0.198   6.214  0.3724 -1.5739 -1.0633
 4210SOL    HW224264   2.837   0.233   6.303  0.2639  1.0278 -2.4355
 4211SOL     OW24265   2.307   4.119   6.097  0.0955 -0.6926  0.4428
 4211SOL    HW124266   2.387   4.089   6.140  1.1248 -0.9687 -1.7109
 4211SOL    HW224267   2.321   4.099   6.005 -3.2203  3.4939 -0.9588
 4212SOL     OW24268   1.038   0.267   6.178  0.1636  0.9524  0.5905
 4212SOL    HW124269   1.012   0.358   6.164 -2.2050  0.3572  1.0812
 4212SOL    HW224270   1.126   0.273   6.140  0.7278 -1.4590  1.5215
 4213SOL     OW24271   3.159   0.544   3.852  0.0453  0.1366 -0.6906
 4213SOL    HW124272   3.167   0.597   3.932 -0.3844 -2.3769  1.0451
 4213SOL    HW224273   3.083   0.582   3.808 -0.1497  1.6253  0.9152
 4214SOL     OW24274   0.723   1.824  10.466  0.0633 -0.2967 -0.5837
 4214SOL    HW124275   0.722   1.856  10.556  0.5879 -1.3442 -0.2051
 4214SOL    HW224276   0.778   1.746  10.475  1.2595  0.6170  0.1361
 4215SOL     OW24277   3.842   0.023   7.693  0.0611  0.2395  0.3581
 4215SOL    HW124278   3.884   0.096   7.739 -0.4107  0.4786  0.4065
 4215SOL    HW224279   3.823   0.063   7.608  2.7294  1.8292  0.5095
 4216SOL     OW24280   4.631   0.200  14.295 -0.6408  0.4136 -0.4101
 4216SOL    HW124281   4.726   0.214  14.299 -0.3715 -1.2531 -1.2237
 4216SOL    HW224282   4.639   0.115  14.252 -1.5250 -0.5738  1.3747
 4217SOL     OW24283   2.669   1.187   3.973  0.2682 -0.0487 -0.1480
 4217SOL    HW124284   2.686   1.131   4.049  1.4063  0.4324 -0.0507
 4217SOL    HW224285   2.755   1.199   3.932 -0.4568 -1.0092 -1.9398
 4218SOL     OW24286   1.518   0.640   6.189 -0.1144 -0.7991 -0.1823
 4218SOL    HW124287   1.586   0.699   6.155  0.2904 -1.6028 -0.7858
 4218SOL    HW224288   1.557   0.553   6.177 -0.3247 -0.6667 -1.8291
 4219SOL     OW24289   3.064   3.446  14.755  0.4225 -0.2036 -0.0764
 4219SOL    HW124290   2.989   3.485  14.711  0.3966  2.2006  2.1046
 4219SOL    HW224291   3.138   3.476  14.701  1.7757  0.1447  1.9769
 4220SOL     OW24292   2.118   2.229   7.429  0.1937 -0.8591 -0.2930
 4220SOL    HW124293   2.137   2.261   7.341 -0.1892  0.8737  0.2698
 4220SOL    HW224294   2.203   2.192   7.451  0.7782 -0.7892 -2.4060
 4221SOL     OW24295   0.385   4.287   6.787  0.0175  0.1526 -0.5589
 4221SOL    HW124296   0.352   4.357   6.842 -0.4780  0.7825 -1.6472
 4221SOL    HW224297   0.456   4.251   6.840 -2.5355 -2.9761  0.7538
 4222SOL     OW24298   3.695   0.460   9.654 -0.5622  0.1222  0.7569
 4222SOL    HW124299   3.733   0.538   9.614  0.2622 -0.3470  0.6121
 4222SOL    HW224300   3.773   0.404   9.647 -0.4494  0.2332  1.1487
 4223SOL     OW24301   2.660   0.236  17.012  0.5999 -0.3561  0.5926
 4223SOL    HW124302   2.566   0.217  17.012  0.5806 -0.2550  0.3567
 4223SOL    HW224303   2.666   0.331  17.021  0.8348 -0.2548 -0.6042
 4224SOL     OW24304   4.211   3.536   6.886 -0.2787 -0.5689 -0.0440
 4224SOL    HW124305   4.201   3.555   6.979 -1.4879  4.4887 -1.2002
 4224SOL    HW224306   4.130   3.578   6.856 -0.1383  0.0802  0.4917
 4225SOL     OW24307   0.290   4.115   8.723 -0.0577  0.3856 -0.1832
 4225SOL    HW124308   0.275   4.174   8.798  0.3987 -1.3563  1.2683
 4225SOL    HW224309   0.239   4.036   8.741  0.5664  0.0287  0.0224
 4226SOL     OW24310   0.964   0.727   3.173 -0.3115 -0.4278 -0.2971
 4226SOL    HW124311   0.962   0.801   3.111  0.5801  1.2567  1.6910
 4226SOL    HW224312   1.043   0.680   3.145  0.3729 -1.4258  3.3396
 4227SOL     OW24313   3.916   3.044   4.518  0.1265 -0.0133 -0.5071
 4227SOL    HW124314   3.857   3.055   4.593 -0.2051  0.9489 -0.9016
 4227SOL    HW224315   3.922   3.134   4.487  1.1905 -0.2095 -0.8798
 4228SOL     OW24316   0.228   2.830   6.677 -0.1815  0.3116 -0.0459
 4228SOL    HW124317   0.274   2.900   6.631 -1.2092  1.2155  0.2986
 4228SOL    HW224318   0.227   2.763   6.609  0.6061 -1.0537  1.2846
 4229SOL     OW24319   4.544   3.705   6.985  0.4749 -0.2844 -0.5600
 4229SOL    HW124320   4.553   3.644   6.911 -0.8156 -1.1611  0.0090
 4229SOL    HW224321   4.579   3.642   7.048  0.3742  0.4830  0.2512
 4230SOL     OW24322   3.877   4.444   4.670  0.2950 -0.0033  0.4626
 4230SOL    HW124323   3.795   4.402   4.645  0.7776 -0.6019 -0.1037
 4230SOL    HW224324   3.893   4.504   4.597 -2.3061  0.5836  0.3551
 4231SOL     OW24325   1.043   3.457   3.073 -0.0411 -0.0932 -0.1407
 4231SOL    HW124326   1.062   3.541   3.114 -0.4963 -0.0958  0.0746
 4231SOL    HW224327   1.019   3.411   3.153 -0.5778  0.2869 -0.0859
 4232SOL     OW24328   1.559   0.593  11.213  0.1930 -0.2027  0.2877
 4232SOL    HW124329   1.472   0.575  11.178  0.1551 -1.1218  0.8378
 4232SOL    HW224330   1.605   0.541  11.147 -1.4932 -0.5392 -0.6413
 4233SOL     OW24331   4.382   1.104  13.664  0.2767 -0.3701 -0.4535
 4233SOL    HW124332   4.475   1.083  13.663  0.2961 -0.1350 -3.6928
 4233SOL    HW224333   4.382   1.164  13.590 -4.4050 -0.1199 -0.2577
 4234SOL     OW24334   0.800   2.306   2.513 -0.4903 -0.0463 -0.3560
 4234SOL    HW124335   0.751   2.329   2.434  2.5876  2.2138 -1.6515
 4234SOL    HW224336   0.816   2.212   2.513  2.0664  0.4051 -2.7675
 4235SOL     OW24337   1.405   1.751   9.151 -0.4903 -0.4982 -0.3077
 4235SOL    HW124338   1.411   1.803   9.232 -2.9050 -0.0324 -0.4118
 4235SOL    HW224339   1.356   1.679   9.190 -0.3017 -0.7943 -0.6242
 4236SOL     OW24340   2.578   0.147   9.145  0.4878 -0.3072 -0.2026
 4236SOL    HW124341   2.492   0.166   9.107 -0.4589  0.0430  2.1477
 4236SOL    HW224342   2.566   0.179   9.234  0.9069 -1.3504  0.2303
 4237SOL     OW24343   4.220   4.403   8.473 -0.1760  0.4203  0.4901
 4237SOL    HW124344   4.218   4.487   8.517 -1.1253  0.3057  0.6787
 4237SOL    HW224345   4.253   4.426   8.386  1.5404 -0.2495  0.9755
 4238SOL     OW24346   4.115   0.234   7.476  0.2792  0.4888 -0.0386
 4238SOL    HW124347   4.208   0.215   7.489  0.8372  1.1686 -2.9845
 4238SOL    HW224348   4.110   0.236   7.381  1.0262  0.0726 -0.0866
 4239SOL     OW24349   4.574   1.627   2.123  0.1890  0.3455  0.3200
 4239SOL    HW124350   4.659   1.591   2.098  0.0631 -0.3388  0.8788
 4239SOL    HW224351   4.526   1.604   2.043 -2.6908  0.5749  1.9608
 4240SOL     OW24352   0.059   1.206   4.358 -0.9781 -0.4813  0.1562
 4240SOL    HW124353   0.010   1.171   4.433  0.4842 -1.5543  0.5985
 4240SOL    HW224354   0.147   1.169   4.370 -1.4954 -2.0910 -0.9965
 4241SOL     OW24355   1.612   3.804   0.566  0.4499  0.0966 -0.6329
 4241SOL    HW124356   1.534   3.771   0.611 -0.0568  0.2316 -1.4150
 4241SOL    HW224357   1.621   3.745   0.491 -2.1910  0.9020 -1.5791
 4242SOL     OW24358   0.623   3.875   0.945  0.7261  0.2199  0.5656
 4242SOL    HW124359   0.707   3.852   0.986 -0.2046 -1.0717  1.7546
 4242SOL    HW224360   0.569   3.812   0.993  0.4157 -0.0288 -0.1172
 4243SOL     OW24361   4.424   1.219   2.500 -0.2948 -0.3376  0.6390
 4243SOL    HW124362   4.438   1.128   2.475 -0.5948  0.1958 -1.4407
 4243SOL    HW224363   4.356   1.255   2.443  0.4930  1.0073  0.5632
 4244SOL     OW24364   3.685   1.961  14.088 -0.3134 -0.3092  0.3763
 4244SOL    HW124365   3.706   1.987  14.178 -0.9077  0.5293  0.2799
 4244SOL    HW224366   3.692   1.867  14.100 -0.1623 -0.4134 -0.5756
 4245SOL     OW24367   1.169   1.278  11.651  0.3386 -0.3052  0.2706
 4245SOL    HW124368   1.240   1.271  11.716  0.5976  0.3347  0.0503
 4245SOL    HW224369   1.218   1.258  11.571 -1.3213  0.2018 -0.8512
 4246SOL     OW24370   3.228   1.173   9.913 -0.2640  0.2050  0.3760
 4246SOL    HW124371   3.294   1.235   9.883 -1.4904  1.0826 -0.4992
 4246SOL    HW224372   3.160   1.174   9.846  1.3361  0.9180 -1.2422
 4247SOL     OW24373   3.859   4.226  14.877 -0.0722  0.5380  0.7691
 4247SOL    HW124374   3.936   4.241  14.823 -0.3355  0.1743  0.2881
 4247SOL    HW224375   3.781   4.267  14.838 -0.5767 -1.7427 -0.6228
 4248SOL     OW24376   3.388   2.901   4.452 -0.8104  0.0473 -0.4409
 4248SOL    HW124377   3.433   2.870   4.530  1.8020 -1.4441 -2.5451
 4248SOL    HW224378   3.453   2.927   4.386  1.7650 -0.5122  1.8757
 4249SOL     OW24379   1.347   2.480   2.410  0.5164 -0.5197 -0.6240
 4249SOL    HW124380   1.266   2.430   2.405  0.7296 -0.6350 -3.0110
 4249SOL    HW224381   1.393   2.412   2.459 -1.8024 -1.9373 -0.4534
 4250SOL     OW24382   3.489   1.903  11.524  0.2760 -0.2297  0.2579
 4250SOL    HW124383   3.425   1.938  11.587 -2.1421 -2.2766 -1.0513
 4250SOL    HW224384   3.447   1.827  11.484  0.6998 -0.5859  0.4882
 4251SOL     OW24385   0.263   3.791   8.977 -0.2205  0.4302 -0.3864
 4251SOL    HW124386   0.187   3.822   8.927  0.1897  0.7786 -0.7889
 4251SOL    HW224387   0.266   3.701   8.944  1.0210  0.2938  0.1125
 4252SOL     OW24388   4.334   3.358   3.986  0.1874 -0.4689  0.6229
 4252SOL    HW124389   4.239   3.362   3.982  0.2530  0.3621 -0.0850
 4252SOL    HW224390   4.352   3.267   4.007 -3.5664 -1.1503  0.8092
 4253SOL     OW24391   4.221   1.865   0.694 -0.3591 -0.1351 -0.0583
 4253SOL    HW124392   4.316   1.878   0.691 -0.3952  0.1896  0.1783
 4253SOL    HW224393   4.206   1.781   0.738 -0.4408  0.8481  1.7699
 4254SOL     OW24394   0.437   1.016   6.627  0.1592  0.5139 -0.1989
 4254SOL    HW124395   0.484   1.024   6.709  0.5573 -0.1409 -0.3589
 4254SOL    HW224396   0.422   1.110   6.627 -0.7880  0.3671 -0.7344
 4255SOL     OW24397   2.195   1.406   2.874  0.2568 -0.1411 -0.3446
 4255SOL    HW124398   2.176   1.408   2.967 -0.5811 -0.0496 -0.5175
 4255SOL    HW224399   2.117   1.447   2.836 -1.3136  0.2296  3.3183
 4256SOL     OW24400   1.120   3.814   2.326  0.5247 -0.4497 -0.2832
 4256SOL    HW124401   1.124   3.759   2.248  2.8424 -1.1903  0.3777
 4256SOL    HW224402   1.049   3.776   2.378  1.4058 -0.6168  0.7773
 4257SOL     OW24403   4.389   1.354   6.063 -0.1576 -0.3905 -0.5013
 4257SOL    HW124404   4.303   1.394   6.053 -0.4777 -1.3473 -1.6172
 4257SOL    HW224405   4.377   1.270   6.107 -0.5329  0.8981  1.8310
 4258SOL     OW24406   2.567   3.454  13.177  0.7601  0.4127  0.0127
 4258SOL    HW124407   2.609   3.539  13.190  1.3083  0.2507 -0.6465
 4258SOL    HW224408   2.607   3.421  13.096 -0.9589 -2.0961  0.2107
 4259SOL     OW24409   4.503   0.040   6.170 -0.2428  0.5890  0.2109
 4259SOL    HW124410   4.461   4.697   6.150 -0.0151  0.8185 -1.2709
 4259SOL    HW224411   4.453   0.060   6.249 -2.8281  0.5860 -1.4437
 4260SOL     OW24412   2.149   1.928   5.435  0.2805  0.0130 -0.6253
 4260SOL    HW124413   2.112   1.998   5.488  0.7197  0.9576 -1.5587
 4260SOL    HW224414   2.188   1.980   5.364  0.2759 -0.6721 -1.1312
 4261SOL     OW24415   0.197   1.137   2.152 -0.4016  0.1199  0.8839
 4261SOL    HW124416   0.277   1.085   2.145 -0.2755  0.2406  1.4445
 4261SOL    HW224417   0.147   1.091   2.085 -2.5912  0.0934  2.5613
 4262SOL     OW24418   0.396   0.693   7.184  0.5025 -0.1670  0.1426
 4262SOL    HW124419   0.312   0.705   7.140 -0.8460 -0.5971  2.5949
 4262SOL    HW224420   0.450   0.748   7.127  1.1944  0.8443  1.7751
 4263SOL     OW24421   3.461   4.569  10.878 -0.5713  0.3766 -0.4411
 4263SOL    HW124422   3.381   4.567  10.825 -0.1970 -0.4610 -0.9753
 4263SOL    HW224423   3.522   4.623  10.827 -0.0199 -0.1983 -0.4026
 4264SOL     OW24424   4.065   2.161   4.270 -0.8615  0.4931  0.7994
 4264SOL    HW124425   4.012   2.152   4.349  0.6502  0.6197  1.8205
 4264SOL    HW224426   4.076   2.068   4.249  1.0959  0.6775  0.9921
 4265SOL     OW24427   2.692   2.707  13.452 -0.3164  0.1134 -0.1483
 4265SOL    HW124428   2.613   2.757  13.436 -0.4639  0.3448  1.3232
 4265SOL    HW224429   2.748   2.732  13.378  1.0305  0.1165  0.8742
 4266SOL     OW24430   0.225   2.023   1.178  0.0503 -0.3765 -0.5663
 4266SOL    HW124431   0.305   2.012   1.229  0.5016  0.7816 -1.0255
 4266SOL    HW224432   0.171   1.953   1.215 -0.9738  1.8852  2.2163
 4267SOL     OW24433   1.476   2.770   3.257  0.2821  0.2734 -0.1456
 4267SOL    HW124434   1.388   2.780   3.294 -0.5505  0.2471 -2.1551
 4267SOL    HW224435   1.469   2.699   3.194 -0.7319  0.9590 -0.8009
 4268SOL     OW24436   4.698   3.534  15.616 -0.1307 -0.3074  0.5956
 4268SOL    HW124437   4.727   3.489  15.536 -0.5564 -0.6139  0.6109
 4268SOL    HW224438   0.028   3.586  15.651  1.0655  0.0634 -2.3625
 4269SOL     OW24439   2.448   0.616  11.205 -0.0543  0.9246  0.6610
 4269SOL    HW124440   2.377   0.667  11.245 -0.0791  0.6148  1.0148
 4269SOL    HW224441   2.399   0.570  11.137  1.6054  2.9579 -1.8794
 4270SOL     OW24442   2.288   2.428  17.486  0.3483 -0.1591  0.3586
 4270SOL    HW124443   2.202   2.400  17.454  0.2763 -1.3643  1.6101
 4270SOL    HW224444   2.268   2.521  17.504  0.5381 -0.1875  0.7164
 4271SOL     OW24445   4.695   0.638   1.891  0.3429 -0.4086  0.0968
 4271SOL    HW124446   4.660   0.713   1.845  2.3629  0.6551  0.2752
 4271SOL    HW224447   0.047   0.642   1.869 -0.3998 -0.0586 -2.9643
 4272SOL     OW24448   4.586   3.005   9.193 -0.2176  0.0569 -0.0075
 4272SOL    HW124449   4.495   2.977   9.181 -0.6097  0.7819  1.2394
 4272SOL    HW224450   4.616   2.964   9.112 -1.1434  0.0663 -0.3628
 4273SOL     OW24451   2.641   3.414   2.957 -0.5011  0.1333 -0.4943
 4273SOL    HW124452   2.676   3.503   2.953  0.2540 -0.1974 -1.3973
 4273SOL    HW224453   2.698   3.381   3.027 -1.6616  0.0232  0.3899
 4274SOL     OW24454   2.809   1.075  16.821  0.2515 -0.3881 -0.3188
 4274SOL    HW124455   2.780   1.114  16.739  0.4405  0.1384 -0.1352
 4274SOL    HW224456   2.757   1.129  16.880  0.9938  1.1098 -1.0586
 4275SOL     OW24457   0.192   1.324   4.157  0.5412  0.5978  0.0623
 4275SOL    HW124458   0.143   1.319   4.074  1.1845  2.4497 -0.4210
 4275SOL    HW224459   0.120   1.295   4.214  0.1358 -1.9246 -1.7212
 4276SOL     OW24460   0.150   3.692   4.966 -0.2239  0.4695 -0.1256
 4276SOL    HW124461   0.172   3.601   4.944 -2.1829  0.1099 -0.5825
 4276SOL    HW224462   0.080   3.725   4.910  1.9982  2.9141 -1.4578
 4277SOL     OW24463   1.612   0.388  13.905  0.2037  0.5458 -0.6877
 4277SOL    HW124464   1.649   0.475  13.921  0.0029  0.2842  1.1749
 4277SOL    HW224465   1.665   0.338  13.967 -3.9892 -1.1584  1.5200
 4278SOL     OW24466   4.363   1.146   7.768  0.5308 -0.4226 -0.2066
 4278SOL    HW124467   4.330   1.224   7.721  1.0712  0.0294  0.1679
 4278SOL    HW224468   4.367   1.187   7.854  0.0466  1.7574 -1.2115
 4279SOL     OW24469   2.455   1.843   4.375 -0.3570 -0.3283 -0.1352
 4279SOL    HW124470   2.448   1.880   4.463 -0.6514  2.1423 -1.2012
 4279SOL    HW224471   2.537   1.875   4.338 -0.8844 -0.1317 -1.1439
 4280SOL     OW24472   3.210   2.831   9.225  0.1142  0.2117 -0.3939
 4280SOL    HW124473   3.299   2.813   9.254 -0.4758  1.0252  1.8761
 4280SOL    HW224474   3.172   2.745   9.205  1.7684 -0.0453 -2.4060
 4281SOL     OW24475   4.393   0.734   1.735  0.0496  0.5592  0.0612
 4281SOL    HW124476   4.324   0.680   1.774  0.3072 -0.9409 -1.5727
 4281SOL    HW224477   4.337   0.779   1.671  0.0111  3.0835  1.8594
 4282SOL     OW24478   1.622   2.940   3.908 -0.1635  0.1295 -0.1314
 4282SOL    HW124479   1.534   2.910   3.885 -0.7329  0.8639  1.0899
 4282SOL    HW224480   1.624   2.967   4.000  0.1272  0.7111 -0.3071
 4283SOL     OW24481   0.129   4.484  13.855 -0.0696 -0.1874 -0.7502
 4283SOL    HW124482   0.089   4.466  13.771 -0.2540  0.8930 -0.8940
 4283SOL    HW224483   0.200   4.547  13.839 -0.7371  0.5779 -0.6686
 4284SOL     OW24484   1.533   0.176   7.783 -0.1883 -1.0101  0.1688
 4284SOL    HW124485   1.577   0.115   7.724  0.4887  1.1284 -1.5430
 4284SOL    HW224486   1.584   0.179   7.864 -1.4983  2.3265  0.8870
 4285SOL     OW24487   2.300   3.451   4.927  0.2550 -0.4416  0.6758
 4285SOL    HW124488   2.244   3.413   4.994  0.9520  0.9480  2.0366
 4285SOL    HW224489   2.389   3.431   4.957 -0.0003 -0.3218  1.5112
 4286SOL     OW24490   1.479   3.763   1.428  0.4097  0.2455  0.2057
 4286SOL    HW124491   1.517   3.700   1.366 -1.1833  0.5240 -1.0431
 4286SOL    HW224492   1.547   3.787   1.490 -0.5133  2.6311  0.2780
 4287SOL     OW24493   3.328   3.764   6.058  0.7301  0.2432 -0.0413
 4287SOL    HW124494   3.419   3.733   6.054  0.5374 -0.2664 -0.5026
 4287SOL    HW224495   3.318   3.814   5.978  2.6041  0.4658 -0.1511
 4288SOL     OW24496   1.447   4.714   4.327  0.2694  0.8607  0.0733
 4288SOL    HW124497   1.360   4.674   4.323  0.7640 -0.2840  0.5990
 4288SOL    HW224498   1.464   0.003   4.237 -1.6361  1.8928  0.0492
 4289SOL     OW24499   2.419   0.416   5.423  0.5227 -0.3513  0.1068
 4289SOL    HW124500   2.457   0.461   5.347  0.8563 -2.6332 -1.0692
 4289SOL    HW224501   2.465   0.332   5.419 -1.1306 -1.4251  3.8150
 4290SOL     OW24502   0.394   0.043   9.303 -0.5917 -0.2043 -0.2087
 4290SOL    HW124503   0.410   0.131   9.266  1.4707 -0.7742 -0.6618
 4290SOL    HW224504   0.425   4.724   9.234 -0.4654 -0.7294  0.3109
 4291SOL     OW24505   3.072   4.370   8.038 -0.0834 -0.5254 -0.1336
 4291SOL    HW124506   3.110   4.405   7.957 -1.6609 -0.3159 -0.7823
 4291SOL    HW224507   3.108   4.282   8.032  0.5122 -0.2476 -0.7087
 4292SOL     OW24508   1.677   1.337   1.868 -0.1337 -0.2433  0.4366
 4292SOL    HW124509   1.762   1.377   1.851  0.2664 -1.8288 -1.2632
 4292SOL    HW224510   1.611   1.406   1.867 -0.2466 -0.3697 -1.4243
 4293SOL     OW24511   1.257   3.217   5.709  0.5588  0.2970 -0.4800
 4293SOL    HW124512   1.205   3.230   5.788  1.0488  0.9373 -0.2613
 4293SOL    HW224513   1.344   3.246   5.737  1.2672 -1.8991 -0.4608
 4294SOL     OW24514   1.820   3.757   6.154 -0.0258 -0.0073  0.1961
 4294SOL    HW124515   1.840   3.814   6.228  2.5423 -2.2469  1.2267
 4294SOL    HW224516   1.738   3.719   6.186 -0.3134 -1.5605 -2.3201
 4295SOL     OW24517   3.788   2.715  12.525  0.2226  0.0452 -0.3805
 4295SOL    HW124518   3.748   2.795  12.560 -2.2430 -2.4522  2.5588
 4295SOL    HW224519   3.747   2.721  12.439  1.0628  1.5230 -0.6725
 4296SOL     OW24520   0.296   4.581   7.742 -0.1269 -0.1215  0.1654
 4296SOL    HW124521   0.297   4.516   7.672  2.4962  1.8623 -1.6465
 4296SOL    HW224522   0.205   4.610   7.744  0.5756  2.1481 -0.4334
 4297SOL     OW24523   2.627   3.854   5.275 -0.4803 -0.0789 -0.1484
 4297SOL    HW124524   2.564   3.784   5.291  0.5801 -1.0701 -0.2456
 4297SOL    HW224525   2.699   3.838   5.337 -0.6499 -0.6100 -0.0849
 4298SOL     OW24526   4.702   2.904   4.274 -0.0947  0.2805  0.1689
 4298SOL    HW124527   0.051   2.872   4.270 -1.3660 -3.1373 -0.8312
 4298SOL    HW224528   4.652   2.830   4.239 -0.2773  1.7983 -2.7940
 4299SOL     OW24529   3.867   4.509   6.781 -0.2138  0.1453 -0.0230
 4299SOL    HW124530   3.922   4.562   6.839  1.6250 -0.7519 -0.9629
 4299SOL    HW224531   3.865   4.576   6.712  0.9713 -0.2294 -0.4188
 4300SOL     OW24532   1.904   0.390  11.475 -0.4938 -0.0780 -0.1416
 4300SOL    HW124533   1.893   0.302  11.511 -0.7777  0.7402  1.8222
 4300SOL    HW224534   1.964   0.359  11.407 -1.5341  0.0978 -1.1245
 4301SOL     OW24535   2.392   0.729  14.472  0.5733  0.1520 -0.4485
 4301SOL    HW124536   2.416   0.797  14.535 -1.3403 -0.2749  0.7410
 4301SOL    HW224537   2.429   0.769  14.393 -1.4902 -0.2906 -1.6357
 4302SOL     OW24538   2.071   1.117   1.145  0.2166  0.2434 -0.3190
 4302SOL    HW124539   2.076   1.061   1.067 -1.5671 -0.8444  0.3193
 4302SOL    HW224540   2.080   1.047   1.210  0.0977 -0.8637 -1.4684
 4303SOL     OW24541   2.915   0.847   8.838  0.4943  0.0432  0.2553
 4303SOL    HW124542   2.941   0.767   8.883 -2.0477 -0.8457  0.1675
 4303SOL    HW224543   2.842   0.876   8.892 -2.7187 -2.4518 -2.7635
 4304SOL     OW24544   3.145   2.053   5.054 -0.0006  0.4365  0.2021
 4304SOL    HW124545   3.142   2.029   5.146 -0.8289  0.2264  0.1230
 4304SOL    HW224546   3.110   1.977   5.006  0.0963  0.4022  0.1860
 4305SOL     OW24547   2.042   3.396   0.509  0.4505 -0.0353  0.1200
 4305SOL    HW124548   2.057   3.437   0.594  0.1863 -0.1143  0.2050
 4305SOL    HW224549   2.132   3.406   0.477 -0.5208 -0.9044 -2.9031
 4306SOL     OW24550   3.686   2.404  10.699  0.0005  0.2613 -0.0359
 4306SOL    HW124551   3.611   2.410  10.639 -0.9071  1.0611  1.1912
 4306SOL    HW224552   3.744   2.479  10.683  1.2484 -0.8930 -0.9204
 4307SOL     OW24553   4.391   3.036   4.901  0.5721 -0.3782  0.1038
 4307SOL    HW124554   4.484   3.054   4.886  0.4951  0.0030  0.0766
 4307SOL    HW224555   4.351   3.121   4.918 -0.9098 -0.6651 -1.9582
 4308SOL     OW24556   1.457   1.985   7.920 -0.3447  0.0384 -0.0546
 4308SOL    HW124557   1.477   2.070   7.881 -1.3348  0.3822  0.1890
 4308SOL    HW224558   1.544   1.946   7.928 -2.0575 -3.7972  0.0963
 4309SOL     OW24559   0.507   3.063  16.793 -0.3042 -0.1700  0.4112
 4309SOL    HW124560   0.415   3.035  16.796 -0.7930  1.1213 -2.5802
 4309SOL    HW224561   0.506   3.120  16.716  1.3263 -0.1515  0.4099
 4310SOL     OW24562   2.135   0.540   5.373 -0.1845 -0.3297 -0.2912
 4310SOL    HW124563   2.210   0.481   5.378 -0.5574 -0.7415  0.4823
 4310SOL    HW224564   2.133   0.551   5.278  1.5127  0.6632 -0.2076
 4311SOL     OW24565   4.440   3.741   3.678  0.1703  0.1198  0.6710
 4311SOL    HW124566   4.355   3.739   3.722  0.0562 -0.1345  0.4430
 4311SOL    HW224567   4.486   3.806   3.731  0.2853  1.0102 -0.5131
 4312SOL     OW24568   3.768   4.729  12.406  0.4762  0.0066 -0.3565
 4312SOL    HW124569   3.796   0.072  12.371  1.9986 -0.6967 -0.8301
 4312SOL    HW224570   3.752   0.013  12.496  0.1171  0.9694 -0.6905
 4313SOL     OW24571   1.027   0.980   5.722 -0.2294  0.4059  0.5153
 4313SOL    HW124572   1.016   0.891   5.758  2.0182  0.3203  1.0315
 4313SOL    HW224573   1.102   0.970   5.664 -0.4846 -2.1315  0.5956
 4314SOL     OW24574   4.652   1.371   3.166 -0.2127  0.4269  0.3850
 4314SOL    HW124575   4.591   1.362   3.093  0.3155  0.8117 -0.1008
 4314SOL    HW224576   4.732   1.411   3.131  0.4099 -0.9169  0.2640
 4315SOL     OW24577   1.242   1.223   1.986  0.9315  0.2498 -0.0247
 4315SOL    HW124578   1.217   1.288   1.920 -1.1902  1.5709  2.0752
 4315SOL    HW224579   1.317   1.264   2.028  1.0253 -1.0254  1.0627
 4316SOL     OW24580   4.586   1.836   1.315 -0.1614 -0.0527  0.2155
 4316SOL    HW124581   4.600   1.907   1.252  0.2570 -1.6913 -1.5298
 4316SOL    HW224582   4.673   1.797   1.317  0.0427  0.2970 -2.2172
 4317SOL     OW24583   4.599   1.355   4.308  0.1834  0.0252 -0.4241
 4317SOL    HW124584   4.682   1.309   4.309 -0.1459 -0.5569  0.0936
 4317SOL    HW224585   4.591   1.391   4.396  2.2365 -0.4693 -0.0382
 4318SOL     OW24586   3.211   2.652   7.880  0.3306  0.1903  0.2958
 4318SOL    HW124587   3.172   2.580   7.929 -1.0006  0.6075 -0.1445
 4318SOL    HW224588   3.256   2.692   7.954  0.4598 -0.9576  0.8336
 4319SOL     OW24589   3.989   0.950  12.632  0.0568 -0.0156 -0.2017
 4319SOL    HW124590   3.952   0.864  12.612  1.2213 -0.5617 -0.0218
 4319SOL    HW224591   3.968   0.964  12.724  0.5668  0.8688 -0.2191
 4320SOL     OW24592   2.792   2.492  10.917 -0.3609  0.1001 -0.2284
 4320SOL    HW124593   2.805   2.467  11.008 -0.7922  0.4237 -0.0833
 4320SOL    HW224594   2.846   2.428  10.869 -0.2344  0.6340 -0.7998
 4321SOL     OW24595   4.116   2.624   7.192  0.0936  0.0998 -0.1453
 4321SOL    HW124596   4.059   2.563   7.240  2.1029 -0.3862  1.6030
 4321SOL    HW224597   4.049   2.686   7.163  0.0765  0.4409  0.6339
 4322SOL     OW24598   2.796   4.259   2.559 -0.0629  0.3854  0.1853
 4322SOL    HW124599   2.855   4.256   2.634 -0.4526 -2.9780  0.3693
 4322SOL    HW224600   2.793   4.165   2.537  0.0258  0.8141 -1.6579
 4323SOL     OW24601   2.840   3.890   7.768  0.0159 -0.1069 -0.4606
 4323SOL    HW124602   2.913   3.868   7.826 -1.2626 -0.4223  1.0280
 4323SOL    HW224603   2.777   3.840   7.819 -0.6152  1.2404  0.0588
 4324SOL     OW24604   0.731   1.986   9.468  0.2314  0.1788 -0.5633
 4324SOL    HW124605   0.682   2.002   9.549 -1.1947 -0.5026 -1.2938
 4324SOL    HW224606   0.771   2.072   9.456  2.8419 -0.5777  2.5966
 4325SOL     OW24607   1.944   2.783   4.642  0.2227 -0.1304 -0.5665
 4325SOL    HW124608   1.857   2.762   4.608 -1.1195  1.1340  1.9750
 4325SOL    HW224609   1.951   2.720   4.713 -0.1499 -0.1071 -0.5089
 4326SOL     OW24610   1.370   2.159   4.749 -0.5368 -0.4379 -0.1536
 4326SOL    HW124611   1.299   2.157   4.814  0.4994  0.5777  1.0255
 4326SOL    HW224612   1.330   2.207   4.676 -2.6836  1.4445  2.2286
 4327SOL     OW24613   4.378   4.228   4.696 -0.3315  0.0190  0.4281
 4327SOL    HW124614   4.384   4.173   4.619  0.3053  0.6442  0.0305
 4327SOL    HW224615   4.288   4.259   4.693 -0.4884 -0.4087  0.7099
 4328SOL     OW24616   3.610   4.093   8.369  0.2606  0.1589  0.3381
 4328SOL    HW124617   3.648   4.154   8.306 -0.6214 -1.2723 -1.5912
 4328SOL    HW224618   3.537   4.052   8.322  2.3860 -1.6227 -1.3981
 4329SOL     OW24619   3.179   0.124   7.724  0.0346  0.2758 -0.3604
 4329SOL    HW124620   3.271   0.144   7.741  0.0244  0.9759 -1.1058
 4329SOL    HW224621   3.193   0.086   7.637 -0.6121  0.5382 -0.5803
 4330SOL     OW24622   0.913   1.099  10.005 -0.0589  0.1471 -0.3885
 4330SOL    HW124623   0.960   1.099  10.089 -2.7969 -2.3401  1.1427
 4330SOL    HW224624   0.851   1.027  10.017  0.7363 -0.5881 -0.6445
 4331SOL     OW24625   2.718   2.312   8.989  0.5414  1.0444 -0.4269
 4331SOL    HW124626   2.650   2.245   8.982  0.5364  1.0320 -0.2739
 4331SOL    HW224627   2.674   2.381   8.940 -1.1840 -0.4636 -0.9952
 4332SOL     OW24628   2.260   0.206   3.977  0.2023 -0.0144 -0.3007
 4332SOL    HW124629   2.171   0.230   4.002  0.0227 -2.6788  1.6641
 4332SOL    HW224630   2.254   0.111   3.989 -1.9770  0.3939  1.9250
 4333SOL     OW24631   3.630   4.553   8.269  0.4163  0.3723 -0.0870
 4333SOL    HW124632   3.570   4.618   8.231 -1.1292 -0.2957  1.2153
 4333SOL    HW224633   3.588   4.547   8.355 -1.6125  3.3531 -0.8580
 4334SOL     OW24634   2.530   2.893   8.167  0.3684  0.4771  0.9399
 4334SOL    HW124635   2.512   2.987   8.179  1.5581  1.1962 -2.7506
 4334SOL    HW224636   2.488   2.884   8.082 -0.2755  0.8325  1.2124
 4335SOL     OW24637   2.400   0.636   2.582  0.4401 -0.2684 -0.1624
 4335SOL    HW124638   2.483   0.609   2.544 -0.7912 -3.1171 -0.7822
 4335SOL    HW224639   2.373   0.691   2.508 -2.6459  1.1761  2.0396
 4336SOL     OW24640   3.679   2.839   4.347 -0.0665  0.0888  0.0306
 4336SOL    HW124641   3.736   2.881   4.411 -0.7838 -1.4218  1.6660
 4336SOL    HW224642   3.701   2.882   4.264  0.7137  0.5466  0.4664
 4337SOL     OW24643   3.019   2.175  16.456  0.4454  0.4076 -0.7873
 4337SOL    HW124644   2.999   2.088  16.421  1.6455 -0.4343  0.5923
 4337SOL    HW224645   2.994   2.228  16.380  1.0240 -0.4767 -1.5993
 4338SOL     OW24646   4.146   3.710   1.169  0.0978 -1.0150  0.1209
 4338SOL    HW124647   4.128   3.656   1.092  1.2254 -1.0792 -0.0921
 4338SOL    HW224648   4.061   3.715   1.213 -1.7761 -3.1243 -3.2353
 4339SOL     OW24649   4.579   1.281   5.322 -0.0057  0.4157 -0.0815
 4339SOL    HW124650   4.630   1.361   5.336  2.2524 -1.1653  0.6668
 4339SOL    HW224651   4.536   1.271   5.407 -1.6749 -1.1020 -1.1133
 4340SOL     OW24652   1.180   0.236  15.830  0.2500  0.3204 -0.0617
 4340SOL    HW124653   1.183   0.331  15.816 -1.3247  0.3164 -0.4670
 4340SOL    HW224654   1.220   0.222  15.916 -0.6834 -0.0086  0.3096
 4341SOL     OW24655   3.949   4.010   5.461 -0.0335 -0.2651 -0.1658
 4341SOL    HW124656   3.913   4.088   5.502 -1.5336 -0.7235 -0.6095
 4341SOL    HW224657   4.044   4.020   5.473  0.1931 -1.6376 -0.7319
 4342SOL     OW24658   1.230   2.229   8.720  0.0885 -0.3302 -0.2406
 4342SOL    HW124659   1.288   2.187   8.784 -0.8660 -2.0407 -0.4931
 4342SOL    HW224660   1.189   2.297   8.773 -3.0550 -2.7819  0.4659
 4343SOL     OW24661   0.948   1.470   2.054 -0.2534 -0.3054  0.0573
 4343SOL    HW124662   1.005   1.474   2.131  1.1005  0.1565 -0.9518
 4343SOL    HW224663   1.017   1.442   1.994 -0.7068  1.0726 -1.1028
 4344SOL     OW24664   2.408   3.576  16.147 -0.5985  0.0632 -0.7278
 4344SOL    HW124665   2.443   3.505  16.200 -0.3698  0.9934  0.3521
 4344SOL    HW224666   2.393   3.646  16.210  0.1678 -1.1673  0.8197
 4345SOL     OW24667   1.885   0.731   3.181  0.0021 -0.4925  0.3342
 4345SOL    HW124668   1.863   0.737   3.274 -0.9912 -1.9355  0.2063
 4345SOL    HW224669   1.880   0.821   3.151  2.5049 -0.9396 -1.3713
 4346SOL     OW24670   3.153   1.908  16.326 -0.7087 -0.2746  0.3707
 4346SOL    HW124671   3.161   1.842  16.257 -2.5075 -0.5084  0.3859
 4346SOL    HW224672   3.102   1.973  16.278 -0.4839 -1.8458 -1.9559
 4347SOL     OW24673   3.540   1.122  16.467 -0.0066  0.2155  0.0042
 4347SOL    HW124674   3.525   1.049  16.527 -0.2568  0.7106  0.5502
 4347SOL    HW224675   3.622   1.163  16.495  0.7182 -0.2846 -1.4180
 4348SOL     OW24676   0.124   0.178   5.549  0.6299 -0.7548  0.4173
 4348SOL    HW124677   0.162   0.091   5.563 -1.8865 -1.6956  1.4171
 4348SOL    HW224678   0.114   0.207   5.640  0.8775 -1.5807  0.7060
 4349SOL     OW24679   3.507   0.422   1.179 -0.4316  0.0849 -0.2812
 4349SOL    HW124680   3.587   0.371   1.197  1.3840  2.4442 -1.7234
 4349SOL    HW224681   3.455   0.357   1.132  0.6494 -1.4786  0.6749
 4350SOL     OW24682   4.596   3.668  11.350 -0.2809  0.1152 -0.4334
 4350SOL    HW124683   4.524   3.719  11.313  0.1814  0.5918 -0.6716
 4350SOL    HW224684   4.547   3.610  11.408  0.8702 -2.1971 -1.7597
 4351SOL     OW24685   4.433   4.537  16.124  0.3727 -0.8403  0.5598
 4351SOL    HW124686   4.367   4.515  16.189 -0.6755  1.8292  0.3875
 4351SOL    HW224687   4.403   4.623  16.095 -2.4133 -1.1451  2.5169
 4352SOL     OW24688   1.403   4.668   3.825 -0.1130  0.4272 -0.3708
 4352SOL    HW124689   1.445   4.622   3.752 -1.6714 -0.0381 -0.9835
 4352SOL    HW224690   1.382   4.596   3.884 -0.6111  0.7206 -0.1907
 4353SOL     OW24691   0.073   2.928   0.644  0.4252 -0.0938 -0.4353
 4353SOL    HW124692   0.059   3.021   0.660 -1.5758 -0.4578 -0.0513
 4353SOL    HW224693   0.142   2.912   0.709  1.2641 -0.9417 -1.5371
 4354SOL     OW24694   2.750   3.748  10.648 -0.3378 -0.3014 -0.7684
 4354SOL    HW124695   2.702   3.668  10.670  3.4843 -2.0377  1.2050
 4354SOL    HW224696   2.841   3.719  10.651 -0.0661  0.6143  0.0004
 4355SOL     OW24697   0.046   4.539   8.517  0.4572  0.6424 -0.7522
 4355SOL    HW124698   0.084   4.458   8.550  0.1357 -0.1157 -2.2274
 4355SOL    HW224699   4.693   4.522   8.524  0.3742  1.9621  1.1585
 4356SOL     OW24700   2.418   3.819   6.275 -0.7800  0.1977  0.2437
 4356SOL    HW124701   2.339   3.848   6.231 -2.5541 -2.7097  1.4991
 4356SOL    HW224702   2.382   3.762   6.343  0.6894 -1.0492 -0.0355
 4357SOL     OW24703   0.714   4.638   9.409  0.1496 -0.1843 -0.0072
 4357SOL    HW124704   0.717   4.733   9.423 -0.2999  0.0895 -1.7208
 4357SOL    HW224705   0.636   4.630   9.354 -1.4820  1.8061  2.0184
 4358SOL     OW24706   0.723   4.416   6.731  0.4275 -0.9769 -0.0198
 4358SOL    HW124707   0.725   4.392   6.824 -0.5660 -0.9264  0.0074
 4358SOL    HW224708   0.770   4.498   6.744 -4.3791  1.9405 -1.1523
 4359SOL     OW24709   4.598   3.140   6.537 -0.3075 -0.4105 -0.1058
 4359SOL    HW124710   4.533   3.202   6.503  1.0014  1.8645  1.5181
 4359SOL    HW224711   4.684   3.178   6.519 -0.5256 -0.2713 -0.8270
 4360SOL     OW24712   4.504   4.441  13.617  0.0339 -0.1587 -0.0650
 4360SOL    HW124713   4.477   4.483  13.536 -1.1007 -0.2561  0.2604
 4360SOL    HW224714   4.453   4.504  13.669 -0.8867 -1.9753  1.2320
 4361SOL     OW24715   0.852   1.916  16.093 -0.3775  0.2652  0.5891
 4361SOL    HW124716   0.873   1.998  16.138  0.0367 -0.9020  2.5258
 4361SOL    HW224717   0.935   1.892  16.051 -0.9371 -0.7230  0.0710
 4362SOL     OW24718   0.762   1.240   3.862  0.1227 -0.0354  0.0069
 4362SOL    HW124719   0.755   1.290   3.943 -2.0454  1.4554 -1.1208
 4362SOL    HW224720   0.710   1.164   3.889 -0.6692  0.2279 -0.8093
 4363SOL     OW24721   2.225   1.486   0.384 -0.0057 -0.0640 -0.3470
 4363SOL    HW124722   2.234   1.459   0.476 -2.5893 -1.7121 -0.5755
 4363SOL    HW224723   2.221   1.404   0.335 -2.3731 -0.8692  1.1706
 4364SOL     OW24724   0.185   3.546   4.075  0.1633  0.0662  0.5500
 4364SOL    HW124725   0.095   3.565   4.104  0.5492  0.1562  1.6818
 4364SOL    HW224726   0.224   3.633   4.083  1.7496 -0.5376 -0.6224
 4365SOL     OW24727   2.835   1.378   6.918  0.1406  0.3305 -0.5547
 4365SOL    HW124728   2.921   1.398   6.880  0.1695  2.0435  0.4090
 4365SOL    HW224729   2.848   1.421   7.003  2.2152 -0.2736 -0.5785
 4366SOL     OW24730   0.713   3.548   6.313 -0.0176  0.8647  0.2964
 4366SOL    HW124731   0.715   3.499   6.395 -0.3640 -0.8283 -0.7144
 4366SOL    HW224732   0.778   3.498   6.264  0.1008  1.4976 -0.1906
 4367SOL     OW24733   3.706   0.690  15.596  0.2522  0.2312  0.3589
 4367SOL    HW124734   3.659   0.773  15.599 -0.0560  0.0863 -0.4806
 4367SOL    HW224735   3.693   0.674  15.690  2.1107 -1.1929  0.3682
 4368SOL     OW24736   2.370   1.756   5.376  0.1340  0.9842  0.1084
 4368SOL    HW124737   2.425   1.831   5.399 -0.8092  1.6090  0.3192
 4368SOL    HW224738   2.285   1.789   5.406  0.8994  2.6412  0.4854
 4369SOL     OW24739   3.700   3.036   3.730 -0.2953 -0.6889  0.5710
 4369SOL    HW124740   3.767   3.015   3.795  0.6648 -0.2461 -0.2686
 4369SOL    HW224741   3.639   3.084   3.787 -1.4864 -4.0366  2.1086
 4370SOL     OW24742   2.354   2.178  16.184 -0.3939 -0.1578 -0.0812
 4370SOL    HW124743   2.324   2.263  16.216  2.6748 -0.0275  2.3793
 4370SOL    HW224744   2.411   2.149  16.256  0.1499  4.1502  1.1997
 4371SOL     OW24745   3.458   3.546   9.633 -0.0432  0.0924 -0.2622
 4371SOL    HW124746   3.442   3.493   9.555  1.0317 -1.3453  0.4936
 4371SOL    HW224747   3.553   3.535   9.640 -0.5846 -3.8711  0.6355
 4372SOL     OW24748   3.631   3.517   2.878  0.1087  0.3739 -0.0782
 4372SOL    HW124749   3.626   3.422   2.871  1.6785  0.1848  1.4743
 4372SOL    HW224750   3.627   3.535   2.784  0.8957 -0.2677 -0.2263
 4373SOL     OW24751   2.468   2.831  13.410  0.4065  0.6347  0.3366
 4373SOL    HW124752   2.398   2.874  13.460  0.1538 -0.0287  0.5588
 4373SOL    HW224753   2.416   2.798  13.337 -3.2661  2.9021  1.9096
 4374SOL     OW24754   4.576   1.268   5.860  0.2861  0.3397  0.9632
 4374SOL    HW124755   4.516   1.306   5.923  0.1495  0.5930  0.6775
 4374SOL    HW224756   4.566   1.176   5.884 -0.0254  0.3744  0.9615
 4375SOL     OW24757   3.207   0.439   2.046 -0.4172  0.1430  0.0808
 4375SOL    HW124758   3.121   0.483   2.046 -0.1324  0.7018  0.1482
 4375SOL    HW224759   3.229   0.451   2.139  1.1781  3.0274 -0.6664
 4376SOL     OW24760   3.414   3.168   9.023  0.0023 -0.1659 -0.0429
 4376SOL    HW124761   3.481   3.236   9.017  0.1868 -0.3626 -0.2120
 4376SOL    HW224762   3.472   3.099   8.991 -0.1819 -0.5962  0.5377
 4377SOL     OW24763   1.467   2.544   3.967  0.5667 -0.1205 -0.4185
 4377SOL    HW124764   1.409   2.487   4.017 -0.8720  0.1966 -1.6993
 4377SOL    HW224765   1.426   2.630   3.976  0.7793  0.3095 -3.3861
 4378SOL     OW24766   3.114   4.388   3.141 -0.3990  0.1147 -0.2398
 4378SOL    HW124767   3.105   4.293   3.146 -3.8810  0.5367  1.6429
 4378SOL    HW224768   3.034   4.411   3.188 -1.1385 -0.3086 -1.2862
 4379SOL     OW24769   3.561   2.975   8.385  0.1771  0.2500 -0.4559
 4379SOL    HW124770   3.576   2.891   8.342 -0.8616 -0.0634 -0.2001
 4379SOL    HW224771   3.644   3.015   8.358 -0.9261  1.6694 -1.7711
 4380SOL     OW24772   1.737   1.150   1.222  0.1849  0.4630 -0.1014
 4380SOL    HW124773   1.687   1.230   1.236  0.3936  0.8916 -1.7263
 4380SOL    HW224774   1.758   1.160   1.129 -0.2718  0.2635 -0.2274
 4381SOL     OW24775   2.475   2.502   2.970  0.5059 -0.1429  0.7414
 4381SOL    HW124776   2.550   2.558   2.987  0.7138  0.4094 -2.0723
 4381SOL    HW224777   2.410   2.555   2.923  1.3603 -2.0975 -2.6306
 4382SOL     OW24778   3.341   4.144  11.063  0.0787 -0.6362 -0.2221
 4382SOL    HW124779   3.414   4.204  11.046 -0.1417 -0.0503  0.9254
 4382SOL    HW224780   3.323   4.118  10.973 -1.3884 -0.7901  0.1189
 4383SOL     OW24781   0.728   4.355  11.071  0.0155  0.4107  0.2288
 4383SOL    HW124782   0.815   4.376  11.036  0.0443 -0.1361 -0.0398
 4383SOL    HW224783   0.743   4.373  11.164  0.0941 -1.3281  0.5540
 4384SOL     OW24784   2.609   4.057   6.938  0.0945  0.3403  0.1710
 4384SOL    HW124785   2.687   4.075   6.887 -0.2906  1.5420  0.0146
 4384SOL    HW224786   2.539   4.084   6.879 -0.0644 -2.2549 -0.8364
 4385SOL     OW24787   0.860   3.322   8.741 -0.6408 -0.1502  0.5332
 4385SOL    HW124788   0.781   3.273   8.716 -0.7158  0.1928  0.0986
 4385SOL    HW224789   0.834   3.395   8.686 -1.6594  0.0683  1.2994
 4386SOL     OW24790   2.336   1.359   8.193 -0.7570  0.1056  0.0448
 4386SOL    HW124791   2.417   1.308   8.189 -1.0760 -0.4773  0.8689
 4386SOL    HW224792   2.314   1.345   8.285 -0.4552 -0.6243  0.0060
 4387SOL     OW24793   3.930   4.027  13.991 -0.3410  0.4243 -0.7033
 4387SOL    HW124794   3.884   3.972  14.054  0.0995  0.4348 -0.3721
 4387SOL    HW224795   4.013   4.045  14.036 -0.0040 -0.6206 -0.9150
 4388SOL     OW24796   1.822   1.262   2.648 -0.0984 -0.0064 -0.2854
 4388SOL    HW124797   1.743   1.223   2.613  1.2028 -1.3945 -1.6960
 4388SOL    HW224798   1.892   1.218   2.599  0.0298 -0.8022  0.6061
 4389SOL     OW24799   2.517   3.610  11.707 -0.1912  0.6761  1.2256
 4389SOL    HW124800   2.540   3.628  11.799 -0.0749 -1.8067  1.6648
 4389SOL    HW224801   2.582   3.648  11.648  0.2254 -0.2144  1.1206
 4390SOL     OW24802   1.976   3.348   9.144  0.4761  0.0329 -0.2305
 4390SOL    HW124803   2.070   3.344   9.164  0.2623 -3.6161  0.1360
 4390SOL    HW224804   1.944   3.370   9.231  0.0816 -0.1023 -0.3421
 4391SOL     OW24805   0.514   0.465  14.326  0.3914  0.1028 -0.0278
 4391SOL    HW124806   0.490   0.473  14.234 -1.0629 -2.9864  0.1013
 4391SOL    HW224807   0.431   0.442  14.367  0.4198  2.0593  1.1173
 4392SOL     OW24808   4.530   3.288  15.245 -0.1444  0.2383 -0.0627
 4392SOL    HW124809   4.473   3.321  15.176  1.0431  2.8725  0.2144
 4392SOL    HW224810   4.478   3.223  15.292 -1.2221  0.2941 -1.1761
 4393SOL     OW24811   2.407   4.330   4.956  0.5926  0.0768  0.1014
 4393SOL    HW124812   2.315   4.335   4.930  1.1301  1.4285 -1.5233
 4393SOL    HW224813   2.409   4.268   5.029  0.3765 -0.4890 -0.3697
 4394SOL     OW24814   4.512   2.501   0.320 -0.3329  0.0799 -0.0755
 4394SOL    HW124815   4.592   2.492   0.373  0.0024  0.7023 -0.4749
 4394SOL    HW224816   4.452   2.542   0.383  0.2563 -0.4412  0.8299
 4395SOL     OW24817   4.511   3.909   8.204 -0.3211 -0.3700 -0.0456
 4395SOL    HW124818   4.493   3.974   8.272  0.8960  1.3946 -1.4131
 4395SOL    HW224819   4.423   3.872   8.197 -0.1589 -0.7341 -0.1483
 4396SOL     OW24820   3.165   0.775  12.814  0.5481 -0.0460 -0.5259
 4396SOL    HW124821   3.174   0.801  12.723 -1.5699  2.0801 -0.1127
 4396SOL    HW224822   3.072   0.756  12.819  0.2464  1.2056 -1.5130
 4397SOL     OW24823   2.516   1.337  17.472  0.2362 -0.2225 -0.3743
 4397SOL    HW124824   2.493   1.379  17.388 -0.5820 -1.0522 -0.5645
 4397SOL    HW224825   2.536   1.413  17.527 -1.2038  0.1725 -0.4033
 4398SOL     OW24826   4.298   4.145   3.799  0.0035  0.7578  0.1197
 4398SOL    HW124827   4.299   4.185   3.886 -0.9189  0.5507  0.2344
 4398SOL    HW224828   4.254   4.205   3.739 -0.0301  0.2839 -0.3287
 4399SOL     OW24829   0.094   4.460   6.170 -0.3996  0.1760 -0.6674
 4399SOL    HW124830   0.181   4.467   6.129 -0.9301  0.3859 -1.7431
 4399SOL    HW224831   0.116   4.463   6.263  0.3070 -1.4383 -0.7691
 4400SOL     OW24832   0.414   4.663   2.880 -0.0386  0.4736 -0.7413
 4400SOL    HW124833   0.327   4.698   2.900  1.0955  2.9298 -0.1790
 4400SOL    HW224834   0.452   4.659   2.968 -3.3927  1.7355  0.7997
 4401SOL     OW24835   2.205   0.668   4.263 -0.0126  0.4201  0.7207
 4401SOL    HW124836   2.162   0.683   4.347 -1.3200 -1.9827  0.4947
 4401SOL    HW224837   2.296   0.663   4.292 -0.6968  0.9191  2.9755
 4402SOL     OW24838   4.682   3.586   5.792  0.5943  0.2750  0.6050
 4402SOL    HW124839   4.629   3.602   5.870 -1.9809  0.1240 -1.1176
 4402SOL    HW224840   0.007   3.654   5.807 -0.8637  1.7353  0.2861
 4403SOL     OW24841   0.707   3.601   3.782 -0.5694 -0.2770 -0.4512
 4403SOL    HW124842   0.787   3.573   3.827 -0.0191 -0.5091 -1.5677
 4403SOL    HW224843   0.684   3.680   3.830  1.4475 -0.7018  1.2404
 4404SOL     OW24844   2.179   0.611  12.498 -0.2608 -0.2399 -0.5697
 4404SOL    HW124845   2.086   0.604  12.518  0.1175 -1.4982  0.7576
 4404SOL    HW224846   2.185   0.692  12.447  0.3312 -0.3826 -0.7352
 4405SOL     OW24847   4.010   1.088   5.380 -0.1852  0.4803  0.5005
 4405SOL    HW124848   4.066   1.075   5.304 -1.4245 -2.1226  0.0354
 4405SOL    HW224849   3.950   1.159   5.356 -2.0575 -0.3732  2.6404
 4406SOL     OW24850   2.726   1.558  16.355  0.0321 -0.1302 -0.5229
 4406SOL    HW124851   2.799   1.500  16.334  1.0238  0.0856  2.4854
 4406SOL    HW224852   2.776   1.637  16.375  1.3714 -2.0108  3.5220
 4407SOL     OW24853   2.834   1.918   7.897 -0.0475  0.5730  0.2717
 4407SOL    HW124854   2.909   1.877   7.856  1.2742  0.8318  2.4486
 4407SOL    HW224855   2.854   2.008   7.872 -1.2004  1.8591  3.9034
 4408SOL     OW24856   0.056   3.340   3.398 -0.0048  0.1910  0.1591
 4408SOL    HW124857   0.096   3.320   3.482 -0.4902 -0.0925  0.3216
 4408SOL    HW224858   0.028   3.431   3.405  0.0553  0.2126  0.1240
 4409SOL     OW24859   3.642   2.019   6.456  0.6056  0.0435 -0.2359
 4409SOL    HW124860   3.619   1.930   6.431  3.1245 -0.5487 -0.4414
 4409SOL    HW224861   3.637   2.060   6.370  1.4946  0.6262 -0.0065
 4410SOL     OW24862   1.566   2.957  12.742  0.3578 -0.0872  0.3850
 4410SOL    HW124863   1.646   2.932  12.696 -0.8068 -1.4269 -0.9027
 4410SOL    HW224864   1.598   3.040  12.778 -1.7354  0.1383  1.6655
 4411SOL     OW24865   2.405   2.388  10.082  0.7967  0.3219 -0.2048
 4411SOL    HW124866   2.427   2.324  10.149 -0.3844  0.9900  0.8342
 4411SOL    HW224867   2.489   2.416  10.046  1.4698 -0.1911  0.9718
 4412SOL     OW24868   4.401   2.214   9.841  0.1363  0.2864 -0.1357
 4412SOL    HW124869   4.342   2.161   9.788  0.1905  2.3547 -2.2818
 4412SOL    HW224870   4.431   2.150   9.905 -1.9001 -0.4253  0.0932
 4413SOL     OW24871   2.405   3.778   9.466 -0.1097  0.1559 -0.1795
 4413SOL    HW124872   2.352   3.757   9.542 -0.3003  0.9217 -0.1067
 4413SOL    HW224873   2.462   3.701   9.464 -2.7899 -1.7369 -2.0522
 4414SOL     OW24874   2.156   0.556   6.123 -0.0595 -0.5095 -0.3343
 4414SOL    HW124875   2.076   0.581   6.170 -1.1233 -3.3751 -0.6430
 4414SOL    HW224876   2.117   0.540   6.037 -0.1379  0.1736 -0.4286
 4415SOL     OW24877   3.514   2.077   7.521  0.5049 -0.0144 -0.3569
 4415SOL    HW124878   3.438   2.042   7.475  0.8915  0.8604 -1.6924
 4415SOL    HW224879   3.543   2.004   7.575 -1.8970 -0.6526  0.0782
 4416SOL     OW24880   3.526   0.476   3.053 -0.5385  0.3362 -0.3414
 4416SOL    HW124881   3.462   0.435   3.111  0.3386 -0.7038 -0.1105
 4416SOL    HW224882   3.563   0.407   3.000  1.7188  0.8995  0.5120
 4417SOL     OW24883   2.096   3.435   8.130 -0.2507  0.2447  0.1056
 4417SOL    HW124884   2.169   3.480   8.174 -1.0877  0.8547  0.8686
 4417SOL    HW224885   2.099   3.362   8.193 -1.2283 -0.4034 -0.6028
 4418SOL     OW24886   4.713   1.056   7.076 -0.1945 -0.3966  0.3431
 4418SOL    HW124887   4.662   1.121   7.125  1.6335 -0.7288  2.6811
 4418SOL    HW224888   0.039   1.041   7.143  1.4559 -2.0472 -1.6911
 4419SOL     OW24889   2.913   0.020   7.414 -0.5718 -0.2363  0.1493
 4419SOL    HW124890   2.843   0.042   7.352 -1.2200 -0.0547  0.9543
 4419SOL    HW224891   2.985   4.738   7.355  1.5003  0.8161  2.2773
 4420SOL     OW24892   3.584   2.685   7.861  0.1386  0.3553  0.0889
 4420SOL    HW124893   3.581   2.608   7.918 -2.6654  0.9533  0.7527
 4420SOL    HW224894   3.653   2.741   7.898  1.8484  0.5190 -3.3033
 4421SOL     OW24895   3.003   1.017   7.532  0.2162 -0.2065  0.3926
 4421SOL    HW124896   3.014   0.967   7.451 -1.2386  0.6037 -0.3174
 4421SOL    HW224897   2.969   0.952   7.593 -2.0868  0.4601 -0.1616
 4422SOL     OW24898   2.686   1.033   0.941  0.3388  0.1456 -0.0334
 4422SOL    HW124899   2.592   1.027   0.923 -0.1968 -0.3065  3.0314
 4422SOL    HW224900   2.711   0.941   0.946 -0.7623 -0.1312  0.5270
 4423SOL     OW24901   1.014   1.723   7.843  0.4488 -0.0009  0.1041
 4423SOL    HW124902   1.050   1.763   7.922  0.2120  2.7174 -1.1956
 4423SOL    HW224903   0.946   1.785   7.817  1.0790  0.2492 -0.9024
 4424SOL     OW24904   2.437   0.854  16.327 -0.0401  0.9549  0.1739
 4424SOL    HW124905   2.349   0.817  16.334  0.2485 -0.1465 -2.0720
 4424SOL    HW224906   2.497   0.786  16.356  2.3703  3.0916  0.2574
 4425SOL     OW24907   3.458   2.519   8.049 -0.2239  0.2849  0.0989
 4425SOL    HW124908   3.402   2.486   8.119 -0.2076 -0.0653 -0.0523
 4425SOL    HW224909   3.446   2.613   8.040 -0.1243  0.4135  1.2777
 4426SOL     OW24910   2.194   3.350  14.211 -0.0800 -0.0415 -0.0206
 4426SOL    HW124911   2.100   3.363  14.206 -0.1187 -0.2185  0.2246
 4426SOL    HW224912   2.211   3.433  14.254 -1.5654  0.5511 -0.5953
 4427SOL     OW24913   2.547   3.171   9.340 -0.5497 -0.1653  0.1127
 4427SOL    HW124914   2.502   3.095   9.376 -0.6528 -0.0046  0.3174
 4427SOL    HW224915   2.490   3.195   9.267  1.4041  0.7141 -1.1494
 4428SOL     OW24916   1.999   3.919   1.430 -0.0027 -0.4883  0.4190
 4428SOL    HW124917   2.093   3.938   1.425 -0.6678  3.1315  1.5291
 4428SOL    HW224918   1.954   3.993   1.390 -1.4603 -2.0842 -0.9060
 4429SOL     OW24919   4.379   2.183   7.784 -0.7000  0.1530  0.3425
 4429SOL    HW124920   4.349   2.243   7.716  0.7823  0.5404  0.0325
 4429SOL    HW224921   4.415   2.252   7.840  1.8331 -0.2172 -0.8224
 4430SOL     OW24922   1.319   0.750   6.733 -0.2088  0.2139 -0.1712
 4430SOL    HW124923   1.321   0.660   6.701  0.8905  0.0023  0.4780
 4430SOL    HW224924   1.225   0.762   6.746 -0.1177 -0.6277  1.1990
 4431SOL     OW24925   0.451   2.574   4.686  0.2521 -0.4054 -0.1262
 4431SOL    HW124926   0.413   2.597   4.771 -0.8922  0.9813 -1.0128
 4431SOL    HW224927   0.542   2.600   4.703 -0.1870  1.1363 -0.0955
 4432SOL     OW24928   2.664   3.640  10.154  0.6479 -1.2750 -0.2743
 4432SOL    HW124929   2.604   3.612  10.223 -0.6418  1.1122 -0.4528
 4432SOL    HW224930   2.718   3.702  10.203 -1.0920 -0.2896  0.3887
 4433SOL     OW24931   4.134   1.780   5.644 -0.1877  0.3404 -0.4228
 4433SOL    HW124932   4.146   1.692   5.609 -1.0206 -0.6722  1.7966
 4433SOL    HW224933   4.195   1.826   5.587  0.8489 -2.2133 -1.3791
 4434SOL     OW24934   1.550   0.440  16.815 -0.0157  0.2751 -0.0479
 4434SOL    HW124935   1.476   0.389  16.782  0.2747 -0.8386  1.0306
 4434SOL    HW224936   1.507   0.525  16.827 -1.2746 -0.4048  0.2615
 4435SOL     OW24937   2.538   3.945  13.729 -0.2578  0.1433 -0.1100
 4435SOL    HW124938   2.555   4.032  13.766 -1.4356  0.4302 -0.2615
 4435SOL    HW224939   2.444   3.937  13.713 -0.4327  0.4411  0.7296
 4436SOL     OW24940   0.537   4.245   0.509  0.1228  0.2226 -0.1604
 4436SOL    HW124941   0.495   4.312   0.565  0.0743  0.0176  0.0512
 4436SOL    HW224942   0.467   4.179   0.504  2.8084 -2.3527 -3.2550
 4437SOL     OW24943   2.078   0.497  15.769 -1.1818  0.6754 -0.7696
 4437SOL    HW124944   2.037   0.410  15.773  0.5497 -0.0777  0.6661
 4437SOL    HW224945   2.025   0.531  15.698 -0.8383  0.9059 -0.9152
 4438SOL     OW24946   4.184   3.120  16.112  0.3005 -0.1469  0.0472
 4438SOL    HW124947   4.187   3.085  16.201 -0.1857 -0.7483 -0.1731
 4438SOL    HW224948   4.197   3.215  16.119  0.5172 -0.2187  0.5741
 4439SOL     OW24949   3.902   0.760   1.362 -0.0728  0.6120 -0.0054
 4439SOL    HW124950   3.871   0.712   1.285  0.2588 -2.1300  1.5381
 4439SOL    HW224951   3.825   0.753   1.419  0.6291  0.9897  0.9803
 4440SOL     OW24952   1.278   2.861   9.124  0.0570  0.5916 -0.0722
 4440SOL    HW124953   1.217   2.883   9.053  0.2120  1.6594  0.1258
 4440SOL    HW224954   1.295   2.951   9.153  1.0046 -0.2174  1.8592
 4441SOL     OW24955   3.763   1.100   6.098 -0.6109 -0.5403  0.3619
 4441SOL    HW124956   3.680   1.054   6.111 -1.2213  0.7432  0.9645
 4441SOL    HW224957   3.801   1.052   6.024 -1.5071  0.8713 -1.0105
 4442SOL     OW24958   1.639   4.657   9.425  0.0641 -0.1529  0.2156
 4442SOL    HW124959   1.661   4.579   9.475  2.8591  0.6422  0.2293
 4442SOL    HW224960   1.725   4.673   9.385  0.4035 -1.3420  0.4952
 4443SOL     OW24961   1.931   4.633   8.126 -0.8321 -0.4698 -0.1404
 4443SOL    HW124962   1.854   4.592   8.087 -1.0416 -0.5721  0.3811
 4443SOL    HW224963   1.963   4.687   8.055  0.5417 -2.1481 -0.8187
 4444SOL     OW24964   2.609   0.083   3.691  0.3591 -0.1127 -0.1514
 4444SOL    HW124965   2.634   0.138   3.617 -1.8077  0.8323 -0.1788
 4444SOL    HW224966   2.674   0.093   3.761 -0.4703  0.0862  0.5903
 4445SOL     OW24967   3.290   0.231   1.434  0.1304 -0.0671  0.8624
 4445SOL    HW124968   3.335   0.172   1.494  0.9759 -1.6721 -1.3668
 4445SOL    HW224969   3.253   0.175   1.366 -1.9164 -0.0488  1.9550
 4446SOL     OW24970   0.853   4.696   7.599 -0.1999 -0.0126  0.1149
 4446SOL    HW124971   0.912   4.726   7.669 -0.8645  2.0602 -0.2132
 4446SOL    HW224972   0.800   0.034   7.591  2.2363  1.7058  0.7547
 4447SOL     OW24973   3.726   0.794  11.702  0.2464 -0.1493 -0.3918
 4447SOL    HW124974   3.701   0.745  11.781  2.6682 -0.3260  0.2686
 4447SOL    HW224975   3.770   0.731  11.645  1.1488  0.9831 -0.9487
 4448SOL     OW24976   3.567   3.183   8.579 -0.2432  0.0521 -0.2011
 4448SOL    HW124977   3.583   3.121   8.508  0.3320 -0.6992  0.5816
 4448SOL    HW224978   3.540   3.265   8.536  2.1175  0.5600 -0.6954
 4449SOL     OW24979   1.341   3.509  17.319  0.9401 -0.6291  0.3240
 4449SOL    HW124980   1.367   3.594  17.354 -0.9613 -1.8959  4.8797
 4449SOL    HW224981   1.251   3.506  17.351  0.4236  4.2848 -0.6466
 4450SOL     OW24982   1.047   2.264   7.510  0.0756 -0.0701  0.4913
 4450SOL    HW124983   1.057   2.331   7.443  0.1796 -1.5754 -1.0083
 4450SOL    HW224984   1.134   2.258   7.551  0.3640  1.0080  0.0188
 4451SOL     OW24985   4.076   0.826   4.671 -0.0396 -0.2145  0.0824
 4451SOL    HW124986   3.986   0.795   4.671 -0.2346  0.3464  0.3629
 4451SOL    HW224987   4.074   0.868   4.758  0.9021 -1.0841  0.5316
 4452SOL     OW24988   0.505   4.377  14.035  0.1552 -0.2270 -0.5001
 4452SOL    HW124989   0.497   4.285  14.061 -0.9817  0.4917  1.6722
 4452SOL    HW224990   0.450   4.369  13.957 -0.4347  1.4337 -0.2488
 4453SOL     OW24991   1.988   0.627   3.612 -0.0674 -0.2604 -0.0405
 4453SOL    HW124992   2.004   0.697   3.675 -1.7454  1.3730 -1.4271
 4453SOL    HW224993   2.077   0.618   3.579  0.6023  2.5834  0.9693
 4454SOL     OW24994   2.097   0.259   1.698 -1.0321 -0.9231 -0.1304
 4454SOL    HW124995   2.023   0.222   1.651 -0.6287  0.0814 -1.5821
 4454SOL    HW224996   2.123   0.185   1.753 -0.4051 -0.2097  0.5314
 4455SOL     OW24997   0.840   0.836   2.752 -0.1395  0.4741  0.3993
 4455SOL    HW124998   0.905   0.809   2.817  0.8112 -3.3047 -2.0548
 4455SOL    HW224999   0.796   0.754   2.727  0.7658 -0.2766  1.2815
 4456SOL     OW25000   4.152   0.070  11.140  0.1877 -0.0880 -0.5736
 4456SOL    HW125001   4.247   0.076  11.134  0.1397  0.3293 -0.9267
 4456SOL    HW225002   4.142   0.011  11.065  1.5750 -0.3986 -0.5012
 4457SOL     OW25003   2.084   2.848  14.104 -0.0968 -0.6304  0.4405
 4457SOL    HW125004   2.107   2.939  14.122 -2.4541 -0.0212  0.3684
 4457SOL    HW225005   1.991   2.847  14.081 -0.1597  4.4995  0.4683
 4458SOL     OW25006   4.613   0.704   7.239  0.0196  0.7073  0.5498
 4458SOL    HW125007   4.568   0.770   7.187  0.8357  1.9352  1.4093
 4458SOL    HW225008   4.550   0.661   7.297  1.5949 -0.2632  1.5511
 4459SOL     OW25009   2.821   3.613   5.161  0.3241  0.3065 -0.0849
 4459SOL    HW125010   2.878   3.568   5.098  1.2557  1.7648 -0.2913
 4459SOL    HW225011   2.883   3.659   5.218 -0.4429  2.2981 -0.8839
 4460SOL     OW25012   3.926   2.765   2.010 -0.4558  0.3070  0.3294
 4460SOL    HW125013   3.936   2.681   1.967  2.3935  0.7747  0.0833
 4460SOL    HW225014   3.831   2.782   2.013 -0.2775  1.7092 -1.8327
 4461SOL     OW25015   2.751   3.420   6.063 -0.0589 -0.8566 -0.4315
 4461SOL    HW125016   2.671   3.435   6.111 -0.3775 -0.3729 -1.1098
 4461SOL    HW225017   2.755   3.511   6.032  1.3604 -0.4315  0.9712
 4462SOL     OW25018   4.605   2.032   1.808  0.5015  0.0967  0.2338
 4462SOL    HW125019   4.604   2.120   1.771 -1.3161  1.1727  2.8107
 4462SOL    HW225020   4.545   1.989   1.748  0.6028  1.2583 -0.7050
 4463SOL     OW25021   4.253   4.632   2.588  0.1874  0.3158  0.0586
 4463SOL    HW125022   4.290   4.708   2.633  0.1321 -0.5100  1.4891
 4463SOL    HW225023   4.324   4.607   2.530  1.5090 -0.3116  1.9780
 4464SOL     OW25024   2.132   2.811  13.411 -0.1038 -0.6248 -1.1718
 4464SOL    HW125025   2.063   2.773  13.465  0.4525 -1.1906 -0.8518
 4464SOL    HW225026   2.098   2.900  13.408 -1.1616 -0.8955  1.9852
 4465SOL     OW25027   3.948   1.562   6.925 -0.2284 -0.2840  0.4593
 4465SOL    HW125028   3.908   1.584   7.009  1.1693  0.6697  0.8695
 4465SOL    HW225029   4.021   1.624   6.931 -2.1400  2.1838 -1.7743
 4466SOL     OW25030   4.727   2.462   7.870 -0.5970 -0.4616 -0.0843
 4466SOL    HW125031   0.074   2.450   7.904 -1.1323 -0.2401  1.3946
 4466SOL    HW225032   4.719   2.548   7.912 -0.2088  0.2350 -1.3966
 4467SOL     OW25033   2.651   2.320  14.958 -0.2321 -0.3402 -0.0764
 4467SOL    HW125034   2.672   2.247  14.899 -2.8633 -0.3005 -1.0343
 4467SOL    HW225035   2.602   2.363  14.888 -0.3420 -2.0145 -1.0302
 4468SOL     OW25036   2.784   0.539  11.056  0.0587 -0.4844 -0.6291
 4468SOL    HW125037   2.854   0.604  11.064  1.5543 -1.9506 -1.6212
 4468SOL    HW225038   2.763   0.531  11.149 -2.4091 -0.0953 -1.1643
 4469SOL     OW25039   4.543   1.771  14.065  0.4640  0.3137 -0.4913
 4469SOL    HW125040   4.604   1.702  14.040 -0.7340 -1.5413  1.7059
 4469SOL    HW225041   4.474   1.734  14.120 -0.7653 -0.3673 -2.4707
 4470SOL     OW25042   1.629   2.244   4.783 -0.4358  0.0682  0.1876
 4470SOL    HW125043   1.606   2.199   4.864 -1.0694 -3.3060 -1.8589
 4470SOL    HW225044   1.545   2.222   4.742  0.1091 -1.8135  0.0994
 4471SOL     OW25045   3.062   3.637   3.136  0.3515 -0.6500 -0.2327
 4471SOL    HW125046   2.980   3.644   3.087  0.9063  0.7730 -0.9791
 4471SOL    HW225047   3.121   3.619   3.063  0.9089  3.1487 -0.7134
 4472SOL     OW25048   0.013   2.261   2.696  0.4803 -0.3415  0.3334
 4472SOL    HW125049   0.090   2.262   2.640 -0.0654 -1.3018 -0.4391
 4472SOL    HW225050   4.688   2.271   2.628  0.2982  0.3903  0.6188
 4473SOL     OW25051   4.048   2.544   2.445  0.2245 -0.2393 -0.0736
 4473SOL    HW125052   4.034   2.608   2.514 -0.6353  0.6458 -1.0737
 4473SOL    HW225053   4.120   2.581   2.394 -2.0369 -0.9364 -3.7507
 4474SOL     OW25054   4.036   0.512   0.132 -0.2321  0.0369  0.0373
 4474SOL    HW125055   4.006   0.535   0.044 -0.0692  0.6484  0.1436
 4474SOL    HW225056   4.118   0.560   0.139  0.7070 -0.7406 -5.4524
 4475SOL     OW25057   4.611   0.759   8.753  0.5024 -0.2453  0.0546
 4475SOL    HW125058   4.594   0.740   8.845  0.5006  2.9717  0.7361
 4475SOL    HW225059   4.589   0.852   8.752  1.2420 -0.0732 -1.7363
 4476SOL     OW25060   0.828   2.201   6.561 -0.0080  0.4100 -0.4279
 4476SOL    HW125061   0.742   2.160   6.556  0.0512  0.0034  1.9351
 4476SOL    HW225062   0.800   2.291   6.579 -0.9037 -0.0046  0.2388
 4477SOL     OW25063   0.050   2.496   0.460 -0.2943 -0.2310 -0.4514
 4477SOL    HW125064   0.034   2.414   0.507 -2.0568  0.2573 -0.2272
 4477SOL    HW225065   0.008   2.554   0.522 -1.0089 -0.6351 -0.5610
 4478SOL     OW25066   3.441   2.001  15.712 -0.4457 -0.2885  0.5277
 4478SOL    HW125067   3.517   2.033  15.761 -0.6198  0.3107  0.4038
 4478SOL    HW225068   3.469   1.910  15.697  0.9903 -0.1724  2.4428
 4479SOL     OW25069   3.796   1.616   3.106  0.4627  1.0416  0.1539
 4479SOL    HW125070   3.815   1.700   3.148 -1.5372  0.3504  2.4282
 4479SOL    HW225071   3.749   1.573   3.177 -1.4399  2.7754 -0.0427
 4480SOL     OW25072   4.135   0.857   7.183  0.1394  0.3769  0.0144
 4480SOL    HW125073   4.129   0.953   7.188  2.0283  0.4611  0.5155
 4480SOL    HW225074   4.111   0.827   7.270  1.0603  0.8012  0.4129
 4481SOL     OW25075   1.853   1.650   3.563 -0.4203 -0.2716 -0.1124
 4481SOL    HW125076   1.813   1.733   3.588 -0.4551 -0.3223  0.0048
 4481SOL    HW225077   1.935   1.656   3.612 -0.0220  1.5515 -1.0294
 4482SOL     OW25078   0.217   4.092   5.877  0.6941  0.0137  0.0221
 4482SOL    HW125079   0.159   4.120   5.806 -1.2613  2.0600  2.4613
 4482SOL    HW225080   0.203   4.151   5.950  0.2721  0.6851 -0.6037
 4483SOL     OW25081   2.461   4.539  17.179 -0.3710 -0.2146  0.0547
 4483SOL    HW125082   2.443   4.628  17.147 -0.7676  0.4025  1.9766
 4483SOL    HW225083   2.462   4.486  17.100  0.0850 -0.7130  0.4046
 4484SOL     OW25084   0.628   0.751  17.337  0.0523 -0.6322  0.4764
 4484SOL    HW125085   0.598   0.768  17.426 -0.7886 -0.2356  0.1105
 4484SOL    HW225086   0.569   0.813  17.294  1.3083  0.1490 -0.1478
 4485SOL     OW25087   0.067   4.539   3.519 -0.0030  0.2825  0.3516
 4485SOL    HW125088   0.096   4.462   3.470  0.9995  1.1761 -0.4547
 4485SOL    HW225089   0.147   4.586   3.540 -0.0109 -0.5680  2.3275
 4486SOL     OW25090   2.822   4.478   1.630 -0.0671 -0.6783 -0.6658
 4486SOL    HW125091   2.790   4.489   1.541  0.3781  0.5463 -0.6648
 4486SOL    HW225092   2.915   4.495   1.619  0.5998 -2.4822  2.1087
 4487SOL     OW25093   2.810   4.427  17.657  0.4168 -0.1182 -0.0587
 4487SOL    HW125094   2.726   4.424  17.704 -0.0113 -0.5871 -0.8624
 4487SOL    HW225095   2.821   4.338  17.623 -2.2636  0.2833 -1.9313
 4488SOL     OW25096   1.652   2.209   7.836 -0.0117  0.6003 -0.2290
 4488SOL    HW125097   1.716   2.236   7.902  0.3962 -0.4550 -0.1833
 4488SOL    HW225098   1.703   2.232   7.758  2.1124 -1.7218  0.4484
 4489SOL     OW25099   1.194   3.805   6.984  0.1491  0.0452 -1.0004
 4489SOL    HW125100   1.279   3.809   7.028 -0.9549  1.0974  1.0562
 4489SOL    HW225101   1.157   3.891   7.004 -1.6646 -0.5262 -1.8357
 4490SOL     OW25102   3.618   3.108   4.429  0.0703  0.5281  0.2367
 4490SOL    HW125103   3.635   3.200   4.448 -2.3489  1.1739 -0.7921
 4490SOL    HW225104   3.617   3.067   4.516 -1.3917 -0.5306 -0.2781
 4491SOL     OW25105   3.132   4.737  16.787  0.2758 -0.1221 -0.5991
 4491SOL    HW125106   3.058   0.017  16.844  0.4207  1.0623 -0.8469
 4491SOL    HW225107   3.176   0.078  16.767 -1.9684  1.5014  1.1345
 4492SOL     OW25108   4.496   1.941   8.293 -0.1216 -0.1433  0.1727
 4492SOL    HW125109   4.434   2.011   8.309 -1.5589 -1.0817 -1.3629
 4492SOL    HW225110   4.467   1.873   8.355  2.2449  0.2161  1.6725
 4493SOL     OW25111   2.929   1.883   3.731 -0.1086  0.0976 -0.1714
 4493SOL    HW125112   2.857   1.831   3.765  0.0457  0.7213  1.1095
 4493SOL    HW225113   2.877   1.957   3.701 -0.2331  0.6419  1.4131
 4494SOL     OW25114   1.847   2.509   7.604  0.1960 -0.1890 -0.1081
 4494SOL    HW125115   1.874   2.424   7.639 -1.3136  0.0771  1.6726
 4494SOL    HW225116   1.923   2.540   7.555  0.5787 -1.6854 -0.4832
 4495SOL     OW25117   0.030   4.712   7.953  0.1508 -0.0510 -0.4565
 4495SOL    HW125118   0.093   4.649   7.989 -0.2002  0.3054  0.7851
 4495SOL    HW225119   0.087   0.038   7.915  0.5302  0.8948  1.7264
 4496SOL     OW25120   1.270   2.896   6.255  0.2788  0.4699  0.0211
 4496SOL    HW125121   1.238   2.808   6.236 -2.0957  1.1278  0.8625
 4496SOL    HW225122   1.206   2.960   6.224  1.0857  2.6128  2.7807
 4497SOL     OW25123   3.712   0.129  16.071  0.3049  0.4208 -0.2648
 4497SOL    HW125124   3.769   0.174  16.010  2.1663 -0.1703  1.0366
 4497SOL    HW225125   3.649   0.079  16.019 -0.8255  2.0375 -0.4381
 4498SOL     OW25126   0.964   1.772   6.906  0.5186 -0.4430 -0.2804
 4498SOL    HW125127   0.915   1.738   6.981  1.4870 -0.2671  0.4187
 4498SOL    HW225128   0.896   1.819   6.857 -0.0699  0.0418  0.9880
 4499SOL     OW25129   3.672   0.250   8.788  0.1545 -0.0302 -1.0116
 4499SOL    HW125130   3.712   0.164   8.793  0.5950  0.3602  1.8370
 4499SOL    HW225131   3.698   0.269   8.878  1.4753  0.3403 -1.4739
 4500SOL     OW25132   4.359   1.006   1.235  0.0190 -0.3818 -0.0675
 4500SOL    HW125133   4.337   0.915   1.259  1.0871 -0.7508 -0.4804
 4500SOL    HW225134   4.445   1.021   1.275 -0.0372 -2.6817  0.9404
 4501SOL     OW25135   2.443   4.029   4.330  0.6193  0.0470  0.0518
 4501SOL    HW125136   2.383   4.013   4.403  0.3327 -2.9377 -0.8448
 4501SOL    HW225137   2.527   4.001   4.366  1.2832  0.9599 -0.7855
 4502SOL     OW25138   4.235   1.012   2.622 -0.4603 -0.0437 -0.2435
 4502SOL    HW125139   4.283   1.006   2.540  1.6063  1.4827  0.8504
 4502SOL    HW225140   4.303   1.025   2.688  0.5440 -0.2257 -1.2489
 4503SOL     OW25141   0.338   4.183   2.210 -0.0375 -0.1632  0.2566
 4503SOL    HW125142   0.403   4.120   2.241 -0.6666 -0.0162  1.8860
 4503SOL    HW225143   0.372   4.188   2.121 -2.5008  0.1538 -0.6420
 4504SOL     OW25144   0.448   1.831   4.674 -0.5124  0.1736 -0.3249
 4504SOL    HW125145   0.473   1.740   4.688 -0.9141  0.3583  1.6771
 4504SOL    HW225146   0.483   1.869   4.755 -0.7435  0.3117 -0.2896
 4505SOL     OW25147   0.225   1.496   1.793 -0.0043 -0.3357 -0.1628
 4505SOL    HW125148   0.189   1.584   1.783 -0.5128 -0.5216  0.0480
 4505SOL    HW225149   0.281   1.494   1.870 -0.2483 -0.2121  0.0187
 4506SOL     OW25150   0.609   0.455  11.231  0.3997 -0.1715 -0.0807
 4506SOL    HW125151   0.519   0.448  11.263  0.4098  0.7789  0.1394
 4506SOL    HW225152   0.656   0.470  11.313 -2.3020 -0.4425  1.5065
 4507SOL     OW25153   2.521   3.206   4.436 -0.2352 -0.4152  0.0065
 4507SOL    HW125154   2.442   3.157   4.456 -2.1461  1.8719 -1.9408
 4507SOL    HW225155   2.563   3.210   4.522 -1.0414  1.4014  0.3252
 4508SOL     OW25156   1.907   0.730   4.185 -0.3278 -0.2214  0.1073
 4508SOL    HW125157   2.001   0.715   4.181 -0.1526  0.9480 -0.0487
 4508SOL    HW225158   1.874   0.640   4.185  1.6728 -0.9347 -0.1145
 4509SOL     OW25159   0.353   0.677  12.726  0.2906  0.0326  0.6076
 4509SOL    HW125160   0.437   0.630  12.729 -0.3295 -1.0999  0.0653
 4509SOL    HW225161   0.362   0.736  12.801 -0.1684 -0.6619  1.2090
 4510SOL     OW25162   3.947   0.683   8.771 -0.1515 -0.1671 -0.7412
 4510SOL    HW125163   3.864   0.675   8.725  0.2693 -0.6531 -1.4219
 4510SOL    HW225164   3.994   0.607   8.736  0.5763  0.7108 -1.6643
 4511SOL     OW25165   3.329   0.695   6.789  0.4870 -0.4544 -0.0002
 4511SOL    HW125166   3.330   0.763   6.722 -1.2918 -0.8511 -0.4380
 4511SOL    HW225167   3.400   0.639   6.760 -0.0804  0.9206 -4.0093
 4512SOL     OW25168   1.993   3.734  10.536  0.3154  0.1577  0.3846
 4512SOL    HW125169   1.999   3.817  10.583 -0.6100  0.3793  0.1059
 4512SOL    HW225170   1.967   3.672  10.604  0.1045  0.4244  0.5451
 4513SOL     OW25171   4.557   3.150   2.156 -0.0295 -0.5924 -0.0394
 4513SOL    HW125172   4.498   3.217   2.189  0.1050 -0.8713  0.7869
 4513SOL    HW225173   4.635   3.199   2.129  0.4729 -1.7342 -0.7019
 4514SOL     OW25174   3.420   1.276   4.234  0.2378 -0.2755 -0.8236
 4514SOL    HW125175   3.421   1.302   4.142 -1.8362 -0.6554 -0.9547
 4514SOL    HW225176   3.477   1.342   4.272  0.8741 -1.0995 -0.3422
 4515SOL     OW25177   1.694   4.707  15.695 -0.1169  0.5786  0.4259
 4515SOL    HW125178   1.629   4.655  15.649  1.6356 -1.2620  0.0336
 4515SOL    HW225179   1.761   4.720  15.628 -0.5318  1.8395  0.2490
 4516SOL     OW25180   0.187   3.369  10.304 -0.0995 -0.0020 -0.0059
 4516SOL    HW125181   0.270   3.411  10.327 -0.9114  1.6477 -0.1449
 4516SOL    HW225182   0.129   3.444  10.314  3.1849  2.4100  0.9631
 4517SOL     OW25183   1.144   2.469   8.915  0.8861 -0.0579 -0.8454
 4517SOL    HW125184   1.106   2.545   8.959 -0.0350 -0.6519 -0.6020
 4517SOL    HW225185   1.215   2.445   8.975  0.6514  2.1821  0.3121
 4518SOL     OW25186   2.492   0.745   8.589  0.2252  0.0832  0.0009
 4518SOL    HW125187   2.535   0.800   8.523  0.0995  0.5996  0.3458
 4518SOL    HW225188   2.407   0.759   8.549  0.3196  0.8388  0.0604
 4519SOL     OW25189   3.688   1.264   5.264  0.4162  0.3246 -0.1219
 4519SOL    HW125190   3.696   1.238   5.172  0.0299 -0.7707  0.1481
 4519SOL    HW225191   3.595   1.283   5.280  0.1037  1.0060 -2.6822
 4520SOL     OW25192   4.663   1.365  16.092  0.0564  0.1131 -0.3118
 4520SOL    HW125193   4.670   1.407  16.178  0.6597  0.3771 -0.4882
 4520SOL    HW225194   4.591   1.413  16.051  0.9412 -0.1262 -2.1364
 4521SOL     OW25195   1.392   1.905   1.420 -0.0789  0.6766  1.1314
 4521SOL    HW125196   1.368   1.949   1.339  0.5357  0.1701  0.6646
 4521SOL    HW225197   1.361   1.816   1.407  0.1743  0.7790 -0.0975
 4522SOL     OW25198   3.954   2.990   9.815  0.2320  0.0422  0.1906
 4522SOL    HW125199   4.022   3.021   9.755  1.1217 -1.3912  0.4465
 4522SOL    HW225200   3.880   3.039   9.780  1.0962  0.1075 -1.5236
 4523SOL     OW25201   1.354   0.185   8.080  0.2695 -0.3108  0.3673
 4523SOL    HW125202   1.428   0.157   8.026 -0.5222  1.6604 -1.7278
 4523SOL    HW225203   1.386   0.229   8.159  0.7008 -1.6429  0.9376
 4524SOL     OW25204   0.266   4.335   5.580  0.3775 -0.4812  0.1997
 4524SOL    HW125205   0.191   4.283   5.608 -0.2134  0.0297 -0.4418
 4524SOL    HW225206   0.220   4.419   5.579  1.3875  0.0639  0.1817
 4525SOL     OW25207   1.346   0.471  13.974  0.0086 -0.0704 -0.2107
 4525SOL    HW125208   1.367   0.432  14.059  1.7116 -0.8870 -1.0068
 4525SOL    HW225209   1.434   0.477  13.936  0.3704 -3.1915  0.1464
 4526SOL     OW25210   2.713   1.189   5.371  0.4952  0.0591 -0.3193
 4526SOL    HW125211   2.678   1.121   5.314  0.6900  0.1374 -0.5305
 4526SOL    HW225212   2.801   1.153   5.383  0.0590 -0.4332  1.4143
 4527SOL     OW25213   4.015   0.193  17.126 -0.6923 -0.4303 -0.1791
 4527SOL    HW125214   4.110   0.180  17.126 -0.9785 -2.5140  1.1229
 4527SOL    HW225215   3.999   0.286  17.145  0.0013 -0.2862 -0.2965
 4528SOL     OW25216   3.303   0.868  15.637  0.0463 -0.0128 -0.1217
 4528SOL    HW125217   3.395   0.887  15.617  0.4103 -0.6475  0.9541
 4528SOL    HW225218   3.268   0.918  15.564 -1.2129  0.7591  1.0150
 4529SOL     OW25219   1.164   0.273   5.283  0.5244  0.3749  0.1229
 4529SOL    HW125220   1.142   0.347   5.339 -2.5352 -1.2936  1.1200
 4529SOL    HW225221   1.115   0.204   5.328  1.9293 -1.0595 -0.5697
 4530SOL     OW25222   2.402   2.537  13.677  0.1239  0.0350  0.4505
 4530SOL    HW125223   2.441   2.497  13.600  0.5919  0.0120  0.6997
 4530SOL    HW225224   2.326   2.479  13.672  0.1509  0.1894 -1.4885
 4531SOL     OW25225   0.177   3.881   1.699 -0.3865 -0.4551  0.4726
 4531SOL    HW125226   0.121   3.816   1.742 -1.4055 -0.3823 -0.7675
 4531SOL    HW225227   0.127   3.885   1.618  1.1987  0.2746 -0.4687
 4532SOL     OW25228   3.049   3.063   8.558 -0.0441  0.1136 -0.0592
 4532SOL    HW125229   3.132   3.067   8.607  0.8442 -1.2884 -1.4424
 4532SOL    HW225230   3.015   3.152   8.571 -1.4962 -0.9910  3.6825
 4533SOL     OW25231   4.340   2.954  10.005  0.5152  0.2968  0.1829
 4533SOL    HW125232   4.371   2.867   9.980 -2.0049 -0.3408 -0.7077
 4533SOL    HW225233   4.419   2.993  10.042 -1.7008  2.5014  2.5282
 4534SOL     OW25234   0.947   1.495   5.046 -1.2304  0.1328  0.4638
 4534SOL    HW125235   0.873   1.437   5.029 -1.1082  0.3919 -0.9073
 4534SOL    HW225236   0.906   1.565   5.098  1.5871  1.0627  1.4288
 4535SOL     OW25237   4.255   1.760   4.870 -0.0252  0.3943 -0.3612
 4535SOL    HW125238   4.266   1.702   4.945  0.8787 -0.7847 -1.4073
 4535SOL    HW225239   4.343   1.797   4.873  0.6664 -1.3638  0.6309
 4536SOL     OW25240   2.813   0.459  12.661 -0.2950 -0.0531 -0.6486
 4536SOL    HW125241   2.890   0.405  12.647 -0.8661 -1.3675  1.3383
 4536SOL    HW225242   2.760   0.432  12.586 -0.1448  0.3347 -0.8935
 4537SOL     OW25243   1.576   1.368   9.714  0.5748 -0.3723  0.1832
 4537SOL    HW125244   1.669   1.342   9.715  0.8503  0.6096 -0.5487
 4537SOL    HW225245   1.596   1.460   9.727  1.0786 -0.2081 -1.8370
 4538SOL     OW25246   4.613   1.453  16.795  0.2938 -0.3536 -0.2684
 4538SOL    HW125247   4.544   1.494  16.846  2.9040  1.2348  1.9944
 4538SOL    HW225248   4.673   1.524  16.772 -0.0446 -0.0895 -0.3150
 4539SOL     OW25249   0.931   3.521   2.825 -0.1545 -0.8290 -0.2516
 4539SOL    HW125250   0.976   3.509   2.908 -0.2058  1.4709  0.1063
 4539SOL    HW225251   0.958   3.439   2.782 -0.9881 -1.4487  0.3923
 4540SOL     OW25252   4.456   2.467   5.351 -0.4949 -0.6166  0.2375
 4540SOL    HW125253   4.412   2.538   5.304  3.5750  2.7307  1.4337
 4540SOL    HW225254   4.390   2.429   5.409 -1.6203 -0.2304 -0.8077
 4541SOL     OW25255   2.623   0.787  10.336  0.7717  0.3453 -0.1786
 4541SOL    HW125256   2.697   0.739  10.300 -1.8576 -1.7473 -2.7806
 4541SOL    HW225257   2.547   0.735  10.309  1.2544 -1.5564  2.0921
 4542SOL     OW25258   2.690   2.354  17.750  0.4750  0.1967 -0.0516
 4542SOL    HW125259   2.626   2.423  17.734 -1.2622 -0.7439  2.6910
 4542SOL    HW225260   2.637   2.275  17.736  3.1551 -1.2766 -1.7714
 4543SOL     OW25261   1.904   4.353   8.704  0.3803  0.3948 -0.0725
 4543SOL    HW125262   1.973   4.420   8.703  0.3445  0.3807 -1.9047
 4543SOL    HW225263   1.948   4.268   8.706  0.3935  0.4135  0.6111
 4544SOL     OW25264   2.983   2.971   4.368  0.2983  0.3669 -0.3685
 4544SOL    HW125265   2.903   3.021   4.348 -2.1860 -3.9640 -1.2380
 4544SOL    HW225266   3.036   3.046   4.395  0.9619  0.9756 -3.3641
 4545SOL     OW25267   3.831   1.544   4.083 -0.1834  0.3829 -0.2563
 4545SOL    HW125268   3.810   1.623   4.032  0.3766  0.3833 -0.4927
 4545SOL    HW225269   3.761   1.483   4.058  0.4269 -0.3133 -0.2743
 4546SOL     OW25270   3.064   2.365  16.878  0.2567  0.2012 -0.4527
 4546SOL    HW125271   3.117   2.319  16.813  0.5771 -0.4144  0.2373
 4546SOL    HW225272   3.135   2.401  16.932  0.5321 -0.6877 -0.2105
 4547SOL     OW25273   0.532   2.769   3.401  0.0123  0.0765  0.2597
 4547SOL    HW125274   0.449   2.756   3.354  0.3925 -0.3004 -0.3126
 4547SOL    HW225275   0.572   2.682   3.400  2.2580  1.1068  0.8581
 4548SOL     OW25276   0.547   3.793  16.440 -0.4183 -0.1677  0.0277
 4548SOL    HW125277   0.491   3.789  16.518  0.8712  0.7781  0.9987
 4548SOL    HW225278   0.636   3.772  16.467 -0.7827  0.3841  1.6580
 4549SOL     OW25279   4.493   3.083  13.821 -0.4776  0.0649  0.8061
 4549SOL    HW125280   4.409   3.040  13.808  0.1256 -1.4900  1.9796
 4549SOL    HW225281   4.470   3.128  13.902 -2.0319 -5.3492  3.4259
 4550SOL     OW25282   1.955   2.697  12.301  0.2450 -0.3810  0.3966
 4550SOL    HW125283   1.955   2.792  12.304  0.2194 -0.3874  0.6489
 4550SOL    HW225284   1.864   2.680  12.324  0.2649 -0.0209  0.7472
 4551SOL     OW25285   3.801   3.911   6.403 -0.0050  0.5304 -0.1513
 4551SOL    HW125286   3.718   3.915   6.355  2.0069  1.4760 -3.4773
 4551SOL    HW225287   3.789   3.967   6.480 -0.3503  2.9423 -1.9825
 4552SOL     OW25288   1.726   0.605  13.029 -0.0863  0.3819 -0.2141
 4552SOL    HW125289   1.642   0.624  13.070 -0.4832 -0.4069 -0.6551
 4552SOL    HW225290   1.764   0.540  13.088 -2.5791 -2.1040 -1.3533
 4553SOL     OW25291   4.479   2.948   2.313 -0.7626  0.3052 -0.1164
 4553SOL    HW125292   4.387   2.931   2.291 -0.7706  1.2898 -0.8786
 4553SOL    HW225293   4.501   3.017   2.250 -3.4698  1.5151  0.2546
 4554SOL     OW25294   3.638   3.619  14.190 -0.3134 -0.1163 -0.1404
 4554SOL    HW125295   3.616   3.643  14.100 -0.1797  0.8479  0.0835
 4554SOL    HW225296   3.682   3.535  14.175  0.2059  0.1509 -0.1258
 4555SOL     OW25297   2.173   1.407   3.329  0.4978  0.4412  0.6412
 4555SOL    HW125298   2.129   1.428   3.412  1.9095  0.3078  1.4307
 4555SOL    HW225299   2.250   1.360   3.363 -0.0033 -1.3576 -0.7201
 4556SOL     OW25300   2.764   1.761   2.894 -0.0736  0.3196  0.3172
 4556SOL    HW125301   2.694   1.697   2.903  0.1841  0.3832  2.6813
 4556SOL    HW225302   2.725   1.820   2.957  0.1298  1.3255 -0.5043
 4557SOL     OW25303   1.957   0.936   1.698  0.0262 -0.0581 -0.2840
 4557SOL    HW125304   2.004   0.888   1.629  1.3077 -1.1597  1.3384
 4557SOL    HW225305   2.012   1.014   1.699  0.0047 -0.0717  2.4037
 4558SOL     OW25306   0.387   3.793   0.101  0.2147  0.0879 -0.2487
 4558SOL    HW125307   0.455   3.785   0.168 -2.3445  2.6491  2.6933
 4558SOL    HW225308   0.433   3.792   0.018  0.8164 -0.7705  0.1036
 4559SOL     OW25309   3.991   1.182  12.461  0.4074 -0.0644  0.1060
 4559SOL    HW125310   3.921   1.154  12.402 -1.2957 -0.6840  2.3857
 4559SOL    HW225311   3.960   1.129  12.535  0.7678 -0.1751  0.1752
 4560SOL     OW25312   3.459   0.113   8.665 -0.0770  0.1785  0.0360
 4560SOL    HW125313   3.374   0.116   8.709 -0.8285 -1.8455 -1.2565
 4560SOL    HW225314   3.512   0.169   8.721  1.5655 -0.1393 -1.1862
 4561SOL     OW25315   4.237   0.044   3.239  0.5683  0.6201  0.5362
 4561SOL    HW125316   4.277   0.079   3.160 -1.2261 -1.0976 -1.1234
 4561SOL    HW225317   4.143   0.040   3.223  0.1684 -0.7663  3.0968
 4562SOL     OW25318   2.769   3.793  10.344  0.6128  0.0780 -0.2081
 4562SOL    HW125319   2.712   3.773  10.418  1.9921  0.6067  0.9730
 4562SOL    HW225320   2.856   3.793  10.384  0.8085 -3.0243 -0.6053
 4563SOL     OW25321   3.416   3.333   4.006  0.0159  0.0201  0.0795
 4563SOL    HW125322   3.443   3.425   4.014  1.3667 -0.2937 -0.9191
 4563SOL    HW225323   3.352   3.323   4.076 -0.4989 -0.7611 -0.5090
 4564SOL     OW25324   4.432   0.880   9.567  0.2618  0.0770 -0.4551
 4564SOL    HW125325   4.496   0.839   9.509  0.4055 -0.1115 -0.1608
 4564SOL    HW225326   4.416   0.963   9.523 -2.9303 -1.0058 -1.3855
 4565SOL     OW25327   1.295   2.021   0.613 -0.0915 -0.2533 -0.1476
 4565SOL    HW125328   1.295   2.081   0.539 -0.2433  0.8354  0.7383
 4565SOL    HW225329   1.209   2.027   0.654 -0.5547 -1.2070 -0.9692
 4566SOL     OW25330   2.400   1.256   1.618  0.0944  0.4518  0.2607
 4566SOL    HW125331   2.428   1.283   1.531 -1.1233  2.4226  0.4781
 4566SOL    HW225332   2.382   1.344   1.650 -0.7600  0.0527  0.8915
 4567SOL     OW25333   1.928   1.409  17.583 -0.8254 -0.4423  0.6756
 4567SOL    HW125334   1.940   1.449  17.497 -0.3332 -0.1990  0.8527
 4567SOL    HW225335   1.868   1.472  17.623 -0.3813  0.3748  0.0709
 4568SOL     OW25336   1.712   2.086   7.506  0.0777 -0.2602 -0.4591
 4568SOL    HW125337   1.747   2.157   7.452 -0.3799 -0.6301 -1.2308
 4568SOL    HW225338   1.627   2.125   7.527  0.7032 -0.2246  2.0949
 4569SOL     OW25339   1.010   1.817   2.201 -0.6974 -0.0521 -0.0197
 4569SOL    HW125340   1.055   1.733   2.206 -0.1700  0.0055 -4.0660
 4569SOL    HW225341   1.028   1.845   2.112 -1.7369  2.9446  0.7135
 4570SOL     OW25342   3.644   3.591  11.632 -0.3170 -0.6608  0.7078
 4570SOL    HW125343   3.638   3.660  11.566 -0.5104 -0.0973  1.3143
 4570SOL    HW225344   3.560   3.544  11.628 -0.5235 -0.4252  2.2137
 4571SOL     OW25345   0.438   0.679   3.172  0.0845 -0.2798 -0.8187
 4571SOL    HW125346   0.377   0.614   3.207 -1.1704  0.9864 -0.6493
 4571SOL    HW225347   0.476   0.622   3.105 -0.8258 -1.1829 -0.5685
 4572SOL     OW25348   4.682   3.837   9.573  0.3433 -0.9376 -0.2688
 4572SOL    HW125349   4.707   3.923   9.607  0.2144  0.4635 -3.6892
 4572SOL    HW225350   0.023   3.808   9.535  0.7313 -1.2365  0.7928
 4573SOL     OW25351   0.805   2.324   3.511  0.7381 -0.0091  0.0819
 4573SOL    HW125352   0.812   2.269   3.589 -0.9427 -0.5326 -0.1371
 4573SOL    HW225353   0.807   2.255   3.445 -1.0502  1.3238 -1.3629
 4574SOL     OW25354   3.324   2.567   7.068  0.4222 -0.1996 -0.7584
 4574SOL    HW125355   3.398   2.536   7.120 -0.5062  1.0050  1.3322
 4574SOL    HW225356   3.360   2.631   7.006  1.0313  1.2525  1.0838
 4575SOL     OW25357   0.943   0.866   3.449 -0.1950 -0.5791 -0.5123
 4575SOL    HW125358   0.965   0.864   3.355  0.1857 -1.0473 -0.4134
 4575SOL    HW225359   0.849   0.850   3.450 -0.3281  0.1064 -1.5125
 4576SOL     OW25360   0.494   2.891   4.396 -0.2267  0.1155 -0.0885
 4576SOL    HW125361   0.483   2.980   4.361 -1.7150  0.7245  1.8375
 4576SOL    HW225362   0.570   2.913   4.450  0.0917 -0.0053 -0.4896
 4577SOL     OW25363   2.865   3.449   7.788  0.2550 -0.7146 -0.1744
 4577SOL    HW125364   2.808   3.407   7.724 -2.1947 -1.5894  2.5526
 4577SOL    HW225365   2.923   3.383   7.825  1.7828  0.0943 -1.1633
 4578SOL     OW25366   0.741   1.177   7.631  0.3480  0.1278  0.0295
 4578SOL    HW125367   0.774   1.115   7.566  0.6699  0.1277  0.1917
 4578SOL    HW225368   0.670   1.226   7.590 -0.7291 -0.6222  0.9778
 4579SOL     OW25369   2.787   1.165   8.638  0.3023  0.1092 -0.1948
 4579SOL    HW125370   2.825   1.240   8.685  3.8535 -0.3081 -2.3433
 4579SOL    HW225371   2.740   1.210   8.568 -0.1351 -1.2427 -0.7758
 4580SOL     OW25372   3.808   1.384  13.062  0.9100 -0.1329 -0.0794
 4580SOL    HW125373   3.780   1.395  12.971 -1.4236 -0.4374  0.6011
 4580SOL    HW225374   3.886   1.440  13.066  0.1775  0.9464 -0.9769
 4581SOL     OW25375   4.721   3.142   7.807 -0.2776 -0.3665  0.4065
 4581SOL    HW125376   4.734   3.237   7.804  1.4946 -0.5711  1.6362
 4581SOL    HW225377   4.625   3.142   7.802 -0.2473  0.7183 -0.0570
 4582SOL     OW25378   0.879   1.020  11.915  0.4664 -0.3021  0.1070
 4582SOL    HW125379   0.800   1.066  11.942 -0.7342 -0.6820 -2.8123
 4582SOL    HW225380   0.937   1.093  11.891 -1.7862  1.2849 -0.4821
 4583SOL     OW25381   2.675   1.029   4.203  0.1251 -0.2509  0.0436
 4583SOL    HW125382   2.611   0.987   4.261  1.1987 -0.4431  1.0782
 4583SOL    HW225383   2.721   1.080   4.271  1.5367 -2.3740  0.6645
 4584SOL     OW25384   1.825   4.627   8.512 -0.2436  0.0285 -0.6509
 4584SOL    HW125385   1.791   4.619   8.601  1.0045  0.2080 -0.1684
 4584SOL    HW225386   1.748   4.618   8.456 -1.2021  1.9204  0.3543
 4585SOL     OW25387   0.684   0.665   9.086 -0.3186 -0.0919  0.5463
 4585SOL    HW125388   0.652   0.581   9.117  1.2678 -1.7818 -2.2716
 4585SOL    HW225389   0.645   0.666   8.998  0.2450  1.0542  0.3136
 4586SOL     OW25390   4.720   4.223   5.085 -0.6028 -0.4053 -0.0878
 4586SOL    HW125391   4.687   4.202   4.998  0.0594  1.0825 -0.7035
 4586SOL    HW225392   0.005   4.138   5.119 -0.1273 -0.0399  0.4568
 4587SOL     OW25393   0.771   2.050   8.741 -0.8411 -0.1640 -0.1791
 4587SOL    HW125394   0.859   2.079   8.718 -1.8675  1.0333 -2.6402
 4587SOL    HW225395   0.738   2.101   8.815  1.3882  2.4732 -1.0076
 4588SOL     OW25396   4.719   0.513  16.987 -0.7670 -0.3572  0.1038
 4588SOL    HW125397   0.012   0.598  17.014 -1.9444  0.2419 -0.2888
 4588SOL    HW225398   4.638   0.509  17.039 -0.3449 -2.0460  0.6424
 4589SOL     OW25399   0.809   0.503   6.467 -0.0603  0.1636  0.0056
 4589SOL    HW125400   0.814   0.413   6.434  2.1377  0.4490 -0.4087
 4589SOL    HW225401   0.900   0.530   6.458  0.0058 -0.9146 -2.5975
 4590SOL     OW25402   0.877   2.899   7.144  0.1910  0.0116 -0.0708
 4590SOL    HW125403   0.875   2.995   7.135  0.8488  0.3719  3.7565
 4590SOL    HW225404   0.816   2.893   7.218 -1.7068  0.5878 -1.5900
 4591SOL     OW25405   3.731   0.716  13.027 -0.1200  0.3033 -0.5164
 4591SOL    HW125406   3.777   0.758  13.098 -0.9282 -1.7518  1.2445
 4591SOL    HW225407   3.708   0.632  13.068  0.5798  0.7818  0.8392
 4592SOL     OW25408   2.557   2.416   9.259  0.3405  0.1158 -0.8848
 4592SOL    HW125409   2.557   2.321   9.248  1.3240  0.0991 -0.7036
 4592SOL    HW225410   2.623   2.415   9.329 -1.9532  1.2154  1.3242
 4593SOL     OW25411   2.634   0.899   8.429 -0.7787 -0.2166 -0.4992
 4593SOL    HW125412   2.703   0.861   8.375  0.5073  1.4662 -0.0285
 4593SOL    HW225413   2.665   0.990   8.431 -0.1145 -0.4596  0.2153
 4594SOL     OW25414   0.315   3.621   7.196  0.2855  0.0809 -0.7095
 4594SOL    HW125415   0.315   3.697   7.254 -2.2210  0.8746 -1.7422
 4594SOL    HW225416   0.388   3.639   7.136  2.2091 -0.6670  1.4276
 4595SOL     OW25417   3.477   0.502  11.951 -0.1215 -0.5999 -0.1608
 4595SOL    HW125418   3.499   0.556  11.876  0.8762 -0.1770  0.4424
 4595SOL    HW225419   3.535   0.530  12.022 -0.3826  0.0446 -0.2040
 4596SOL     OW25420   3.319   2.954   2.269 -0.0842  0.5212 -0.1922
 4596SOL    HW125421   3.355   2.996   2.191  2.5554 -1.0783  0.1651
 4596SOL    HW225422   3.266   3.017   2.316  0.9626  1.1491  0.1411
 4597SOL     OW25423   1.613   3.755   6.949 -0.7739  0.0276  0.4103
 4597SOL    HW125424   1.632   3.670   6.987  0.0379 -1.7801 -3.9858
 4597SOL    HW225425   1.537   3.781   7.001 -2.7360 -1.3734 -1.7273
 4598SOL     OW25426   2.936   0.618   9.017 -0.1386  0.0987 -0.4854
 4598SOL    HW125427   2.988   0.540   9.001  1.6229  1.1596  0.0280
 4598SOL    HW225428   2.853   0.587   9.053  0.7781 -0.5507  1.0472
 4599SOL     OW25429   4.445   2.365  16.313  0.1875  0.3000  0.3102
 4599SOL    HW125430   4.461   2.457  16.334  2.2085 -0.0259  0.1885
 4599SOL    HW225431   4.478   2.373  16.223  0.2036  1.2823  0.4039
 4600SOL     OW25432   1.061   0.711   5.841 -0.0156  0.4247 -0.0056
 4600SOL    HW125433   1.010   0.635   5.869 -1.1417  1.5465  0.9899
 4600SOL    HW225434   1.121   0.718   5.916  1.5449  0.6269 -1.2842
 4601SOL     OW25435   3.184   3.497   0.394 -0.1414 -0.3541  0.2030
 4601SOL    HW125436   3.245   3.565   0.422  2.0048 -0.2435 -4.6215
 4601SOL    HW225437   3.100   3.538   0.415  1.2285  1.4864  1.9589
 4602SOL     OW25438   1.784   3.565   4.977  0.1902 -0.0493  0.3052
 4602SOL    HW125439   1.767   3.476   5.008 -0.7425 -0.3302 -1.0191
 4602SOL    HW225440   1.771   3.542   4.885 -1.4007 -3.9033  1.4942
 4603SOL     OW25441   2.896   1.587  12.307  0.1853  0.1563 -0.1577
 4603SOL    HW125442   2.913   1.676  12.275  0.7109 -0.4329 -1.5192
 4603SOL    HW225443   2.805   1.569  12.283  0.1592 -2.7599  2.1559
 4604SOL     OW25444   2.414   4.022   9.622 -0.1478 -0.1782 -0.0522
 4604SOL    HW125445   2.433   3.993   9.712 -0.9289 -1.3021 -0.2448
 4604SOL    HW225446   2.441   3.950   9.565  1.2629  0.2816  0.0385
 4605SOL     OW25447   3.494   1.846   3.961  0.1072  0.1173 -0.8309
 4605SOL    HW125448   3.503   1.822   4.053  0.9236  0.5009 -0.8153
 4605SOL    HW225449   3.498   1.942   3.960  0.6198  0.1138  0.8380
 4606SOL     OW25450   2.016   2.565   4.415  0.3685  0.1218 -0.2811
 4606SOL    HW125451   2.096   2.614   4.400 -0.2646  1.7247  1.5853
 4606SOL    HW225452   1.957   2.604   4.350  1.6180  1.5339 -0.5735
 4607SOL     OW25453   2.641   3.734  11.503  0.1952  0.4813  0.1525
 4607SOL    HW125454   2.584   3.806  11.477 -0.8475 -0.9676 -1.6358
 4607SOL    HW225455   2.724   3.779  11.517 -0.6782  2.5381 -1.2694
 4608SOL     OW25456   4.663   1.284  10.960 -0.0594 -1.0777 -0.5451
 4608SOL    HW125457   4.636   1.312  10.872  0.7164  1.2249 -0.0320
 4608SOL    HW225458   0.018   1.291  10.956 -0.1715  0.9972  0.4211
 4609SOL     OW25459   4.250   4.610   3.442 -0.3615 -0.0437 -0.0174
 4609SOL    HW125460   4.155   4.609   3.436 -0.2390 -1.7669 -2.0677
 4609SOL    HW225461   4.269   4.654   3.358 -2.1021  1.0423  0.1602
 4610SOL     OW25462   0.145   2.224   2.344 -0.7842  0.0015 -0.1560
 4610SOL    HW125463   0.100   2.139   2.338  2.6638 -1.8502  0.6162
 4610SOL    HW225464   0.087   2.292   2.311 -1.7491 -0.7844 -0.1063
 4611SOL     OW25465   3.729   0.311  17.451 -0.2062 -0.2447 -0.0431
 4611SOL    HW125466   3.767   0.227  17.427 -1.9418 -0.9125 -0.4264
 4611SOL    HW225467   3.719   0.357  17.368 -1.9492 -0.1362  0.2143
 4612SOL     OW25468   0.772   3.390   6.541  0.2437  0.8793 -0.4118
 4612SOL    HW125469   0.766   3.473   6.588 -1.7284 -0.7455  2.2474
 4612SOL    HW225470   0.820   3.328   6.596  0.1657  0.2108 -1.1044
 4613SOL     OW25471   1.614   1.094   6.993  0.5078 -0.2777 -0.2191
 4613SOL    HW125472   1.667   1.162   7.034  0.4802 -0.7703  0.6435
 4613SOL    HW225473   1.633   1.022   7.054  1.5763 -0.4329 -0.7399
 4614SOL     OW25474   4.015   1.049   2.359 -0.8294  0.2219  0.0042
 4614SOL    HW125475   4.108   1.031   2.374 -0.7499  1.0957  0.5369
 4614SOL    HW225476   4.017   1.134   2.403 -0.7405  0.0731  0.2898
 4615SOL     OW25477   3.392   4.682   8.971 -0.1996 -0.1566 -0.0495
 4615SOL    HW125478   3.344   4.715   9.047 -1.7446 -0.9690 -0.6721
 4615SOL    HW225479   3.338   4.710   8.897 -0.3838  1.8563  0.8537
 4616SOL     OW25480   2.406   2.923  17.139  0.1897 -0.1269 -0.1306
 4616SOL    HW125481   2.488   2.967  17.116  0.4143  1.3473  3.6375
 4616SOL    HW225482   2.348   2.998  17.132  0.7844  0.2235 -1.3355
 4617SOL     OW25483   2.689   2.175  16.587 -0.3097  0.5056  1.2502
 4617SOL    HW125484   2.665   2.162  16.679 -0.0411 -3.5905  0.7381
 4617SOL    HW225485   2.695   2.269  16.570 -0.2182  0.3984  0.6923
 4618SOL     OW25486   4.611   3.400   7.710 -0.2169  0.2431 -0.6212
 4618SOL    HW125487   4.629   3.489   7.738 -0.5135  0.1370 -0.0871
 4618SOL    HW225488   4.523   3.392   7.747 -0.6401  0.3307 -1.6137
 4619SOL     OW25489   0.599   2.074   4.279 -0.8508  0.0073  0.2581
 4619SOL    HW125490   0.555   2.137   4.336  3.2919  2.1906  1.1143
 4619SOL    HW225491   0.530   2.024   4.236 -0.0116 -0.5540 -0.4503
 4620SOL     OW25492   0.899   0.209   4.806  1.1973 -0.2168 -0.3104
 4620SOL    HW125493   0.945   0.246   4.882  0.3320 -0.3341  0.2684
 4620SOL    HW225494   0.828   0.164   4.853  1.8374  0.3426  1.2087
 4621SOL     OW25495   0.202   0.189  13.282 -0.2769  0.3261 -0.3787
 4621SOL    HW125496   0.114   0.221  13.262 -1.2172 -2.1499 -0.2029
 4621SOL    HW225497   0.248   0.267  13.314 -3.0224  2.0313 -0.6777
 4622SOL     OW25498   4.609   0.723   1.589  0.5392 -0.1192  0.6098
 4622SOL    HW125499   4.526   0.707   1.634  0.8251 -1.4167  0.6631
 4622SOL    HW225500   4.605   0.815   1.615 -0.7942  0.4331 -1.5173
 4623SOL     OW25501   3.667   4.194  12.930 -0.2977  0.3695  0.4338
 4623SOL    HW125502   3.654   4.144  13.011  3.8638 -1.3146  0.0534
 4623SOL    HW225503   3.602   4.263  12.941 -1.1450  0.0362 -2.3719
 4624SOL     OW25504   0.580   2.828  14.259  0.1078  0.4402 -0.1283
 4624SOL    HW125505   0.655   2.803  14.312 -0.8470 -3.1646 -0.4658
 4624SOL    HW225506   0.541   2.899  14.310  1.4086  1.6457 -0.8186
 4625SOL     OW25507   0.013   4.197   4.234  0.1509 -0.3823  0.1832
 4625SOL    HW125508   0.008   4.274   4.178  0.3485  0.4908  1.3697
 4625SOL    HW225509   0.042   4.139   4.163  0.5926 -0.9661  0.8452
 4626SOL     OW25510   2.690   2.727   2.033  0.6784  0.0472 -0.5452
 4626SOL    HW125511   2.627   2.765   2.094  1.8391 -0.5931  1.0680
 4626SOL    HW225512   2.634   2.698   1.962  1.1612 -1.6193 -0.2629
 4627SOL     OW25513   3.657   0.283   9.067 -0.0940 -0.3740 -0.1825
 4627SOL    HW125514   3.610   0.358   9.105 -3.4081 -2.3668 -0.3522
 4627SOL    HW225515   3.674   0.232   9.146  1.5085  0.3068 -0.0967
 4628SOL     OW25516   4.334   3.659   6.656  0.0308  0.2445 -0.1892
 4628SOL    HW125517   4.341   3.584   6.715  1.5946  1.2970  0.9935
 4628SOL    HW225518   4.262   3.710   6.694  1.0015  1.8010 -0.4462
 4629SOL     OW25519   4.081   1.268  15.658  0.3652  0.2754  0.1021
 4629SOL    HW125520   4.031   1.343  15.625  0.6383  0.6448  0.5340
 4629SOL    HW225521   4.114   1.231  15.576  0.4556 -0.8925  0.6618
 4630SOL     OW25522   1.793   0.915   4.871 -0.4345  0.0056  0.2907
 4630SOL    HW125523   1.854   0.889   4.940 -1.4511 -0.5587  0.9789
 4630SOL    HW225524   1.720   0.857   4.894 -1.7675  1.2907 -0.7091
 4631SOL     OW25525   2.508   0.536   3.944 -0.0920  0.0802 -0.4848
 4631SOL    HW125526   2.517   0.603   3.876 -1.8311  1.7861  0.9830
 4631SOL    HW225527   2.440   0.478   3.907 -0.2005  0.4192 -0.8142
 4632SOL     OW25528   2.228   3.514   6.181  0.0052 -0.7456 -0.2980
 4632SOL    HW125529   2.175   3.571   6.237  1.1664  0.2366 -0.1737
 4632SOL    HW225530   2.207   3.561   6.101  0.1730  0.7842  0.5347
 4633SOL     OW25531   1.859   1.243   8.999  0.4387  0.5593 -0.6261
 4633SOL    HW125532   1.798   1.174   8.970  1.4409 -0.6754  0.2313
 4633SOL    HW225533   1.843   1.310   8.932  1.0851  3.1235  1.7930
 4634SOL     OW25534   4.651   4.466   2.265 -0.7682  0.8014  0.7833
 4634SOL    HW125535   4.673   4.374   2.282 -0.2417  0.5790 -1.0987
 4634SOL    HW225536   4.734   4.503   2.235 -2.1970  2.0017 -1.6793
 4635SOL     OW25537   3.308   1.260  13.963 -0.3553  0.6041  0.2929
 4635SOL    HW125538   3.390   1.280  14.007  1.1829 -1.3389 -1.6531
 4635SOL    HW225539   3.270   1.191  14.016 -3.1004  1.8302 -0.0759
 4636SOL     OW25540   0.707   3.773   9.057 -0.2175 -0.5555 -0.1769
 4636SOL    HW125541   0.793   3.815   9.057  0.1092 -1.2093 -1.4241
 4636SOL    HW225542   0.691   3.751   9.149  2.0138  2.3056  0.9160
 4637SOL     OW25543   2.855   2.754   8.327 -0.4349 -0.3728  0.0870
 4637SOL    HW125544   2.760   2.749   8.315 -0.1970 -0.9016 -1.5855
 4637SOL    HW225545   2.873   2.848   8.329  0.8493 -0.6273  0.5392
 4638SOL     OW25546   3.908   2.539  10.619 -0.3305 -0.1383  0.0676
 4638SOL    HW125547   3.922   2.592  10.541 -0.3928  0.9517  0.7964
 4638SOL    HW225548   3.963   2.580  10.686  1.7647 -2.4730 -0.2119
 4639SOL     OW25549   4.695   1.142  10.542  0.0946  0.1138 -0.0927
 4639SOL    HW125550   4.632   1.070  10.545  1.4807 -1.1435 -1.3713
 4639SOL    HW225551   4.664   1.185  10.462 -3.2565 -1.1238  0.5346
 4640SOL     OW25552   1.132   3.506   8.319 -0.1706 -0.1658 -0.2961
 4640SOL    HW125553   1.172   3.536   8.238  1.8582  2.4352  1.6630
 4640SOL    HW225554   1.164   3.416   8.317 -0.0245 -0.1530  1.0369
 4641SOL     OW25555   2.927   0.731   1.276  0.7173 -0.0438 -0.2251
 4641SOL    HW125556   2.873   0.653   1.265 -2.2240  2.1756 -1.4988
 4641SOL    HW225557   2.988   0.706   1.345  1.5244 -1.5289 -1.4979
 4642SOL     OW25558   3.417   4.208   1.948  0.2740 -0.4648 -0.2322
 4642SOL    HW125559   3.399   4.274   2.015  0.7764  0.8744 -1.4037
 4642SOL    HW225560   3.470   4.144   1.995 -0.3992 -2.4618 -2.2155
 4643SOL     OW25561   2.562   0.322   7.327 -0.1686  0.0994 -0.1384
 4643SOL    HW125562   2.486   0.293   7.275 -0.1044  0.3352 -0.3648
 4643SOL    HW225563   2.556   0.416   7.311  1.5694  0.4567  1.3206
 4644SOL     OW25564   0.083   0.240   4.949  0.3484 -0.2812 -0.2477
 4644SOL    HW125565   0.074   0.174   4.880 -1.0176  0.7177 -1.0133
 4644SOL    HW225566   0.122   0.313   4.900  0.1250  0.4707  0.7048
 4645SOL     OW25567   2.219   2.490   8.192  0.2241 -0.3039 -0.0265
 4645SOL    HW125568   2.314   2.495   8.201 -0.0186  0.7593  1.7854
 4645SOL    HW225569   2.191   2.461   8.278  2.4294 -3.4794 -0.3535
 4646SOL     OW25570   2.023   0.382   5.604 -0.4172 -0.6615 -0.0810
 4646SOL    HW125571   1.965   0.361   5.530 -0.7618 -0.2052  0.0587
 4646SOL    HW225572   2.062   0.463   5.571 -1.1354  0.6975  2.4072
 4647SOL     OW25573   1.499   3.938  13.344 -0.3764  0.2079  0.4035
 4647SOL    HW125574   1.542   3.916  13.427 -0.4834  2.0640  0.9360
 4647SOL    HW225575   1.491   3.851  13.305 -0.1840 -0.4325  1.8011
 4648SOL     OW25576   4.306   4.365   2.563 -0.5120  0.6065 -0.2421
 4648SOL    HW125577   4.255   4.445   2.574  1.5258  1.8861 -0.1292
 4648SOL    HW225578   4.324   4.355   2.656  1.4076 -0.0327 -0.6709
 4649SOL     OW25579   0.473   1.687   8.248 -0.0776 -0.4594 -0.0421
 4649SOL    HW125580   0.543   1.622   8.251 -0.6481 -1.1276 -0.8685
 4649SOL    HW225581   0.511   1.765   8.208  0.8552 -1.8973 -1.9436
 4650SOL     OW25582   0.572   0.249   8.394 -0.3177  0.6086  0.6797
 4650SOL    HW125583   0.550   0.178   8.334  1.9226  0.3862  0.1251
 4650SOL    HW225584   0.596   0.310   8.324  0.2370 -0.4086 -0.0119
 4651SOL     OW25585   1.092   3.169   6.442 -0.1552 -0.0171 -0.1107
 4651SOL    HW125586   1.080   3.103   6.510 -0.7745  1.8974  1.6077
 4651SOL    HW225587   1.126   3.233   6.504 -1.2929  0.0488  0.4480
 4652SOL     OW25588   3.175   1.218   7.346 -0.4723 -0.0383 -0.0959
 4652SOL    HW125589   3.215   1.274   7.412 -1.9570  1.0895 -0.1729
 4652SOL    HW225590   3.193   1.130   7.381  0.8774 -0.8787 -2.9092
 4653SOL     OW25591   3.044   2.085   2.668  0.1887  0.1530  0.3444
 4653SOL    HW125592   3.017   2.177   2.666 -2.8082 -0.8113 -2.3015
 4653SOL    HW225593   3.139   2.086   2.657  0.1176  0.4368 -0.2413
 4654SOL     OW25594   2.971   1.084   5.335 -0.5417  0.1294  0.5080
 4654SOL    HW125595   3.020   1.010   5.371  1.8879  1.9741  0.9381
 4654SOL    HW225596   2.992   1.082   5.242 -1.6735  0.4407  0.2447
 4655SOL     OW25597   2.463   4.412  16.936 -0.3803 -0.2232 -0.1368
 4655SOL    HW125598   2.404   4.378  16.869 -1.6172  1.6817 -0.0150
 4655SOL    HW225599   2.532   4.450  16.882 -1.9394 -0.5174 -2.2893
 4656SOL     OW25600   1.595   3.503   9.629 -0.2318  0.3647 -0.2770
 4656SOL    HW125601   1.530   3.458   9.683 -0.0973  1.3600  0.7104
 4656SOL    HW225602   1.637   3.422   9.599 -0.7734 -0.2788  0.6985
 4657SOL     OW25603   1.238   1.496   2.469 -0.2102  0.0904  0.0772
 4657SOL    HW125604   1.200   1.512   2.556  1.9735  1.4888  0.7816
 4657SOL    HW225605   1.295   1.572   2.459 -1.9800  1.8131  3.1090
 4658SOL     OW25606   3.732   3.658   7.420 -0.0809 -0.1858  0.4346
 4658SOL    HW125607   3.820   3.666   7.457 -0.1972 -3.5421  1.4494
 4658SOL    HW225608   3.705   3.606   7.496 -2.0583 -0.0053 -0.1385
 4659SOL     OW25609   4.446   3.330   6.444 -0.3288 -0.0867  0.0342
 4659SOL    HW125610   4.354   3.340   6.469  0.0461 -1.4849  1.9348
 4659SOL    HW225611   4.474   3.410   6.488 -2.5090  0.4278  0.4910
 4660SOL     OW25612   0.550   2.613   7.143  0.0126  0.5481  0.0361
 4660SOL    HW125613   0.592   2.668   7.209  0.9800  0.9550 -0.9094
 4660SOL    HW225614   0.599   2.636   7.064  1.9305 -0.3394  0.9636
 4661SOL     OW25615   3.781   0.304   3.315  0.2499  0.0287  0.4473
 4661SOL    HW125616   3.713   0.287   3.380  0.5289 -0.0248  0.7233
 4661SOL    HW225617   3.820   0.382   3.355 -0.8235  0.2048  1.1508
 4662SOL     OW25618   1.202   0.611   3.092  0.7941 -0.1230  0.4019
 4662SOL    HW125619   1.284   0.602   3.044  0.7614 -1.2838  0.5660
 4662SOL    HW225620   1.235   0.661   3.167 -1.1150 -0.3813  1.4156
 4663SOL     OW25621   4.629   0.836   6.950  0.4214 -0.5913  0.2405
 4663SOL    HW125622   4.536   0.833   6.975  0.3736  0.0449  0.1616
 4663SOL    HW225623   4.661   0.912   7.000 -1.6866 -1.1434  2.4504
 4664SOL     OW25624   2.471   2.110  13.480 -0.1798  0.7890  0.1069
 4664SOL    HW125625   2.392   2.121  13.532 -0.6447  0.0378 -0.4357
 4664SOL    HW225626   2.520   2.051  13.537 -0.5214 -1.4488 -1.8859
 4665SOL     OW25627   0.732   4.498   3.559 -0.2061  0.1408  0.4886
 4665SOL    HW125628   0.757   4.452   3.478  0.0245  0.1851  0.5334
 4665SOL    HW225629   0.746   4.590   3.538 -1.0749  0.2527  0.4270
 4666SOL     OW25630   3.064   2.546   8.337  0.1942 -0.5416 -0.2102
 4666SOL    HW125631   3.034   2.629   8.372  2.4704  1.4475 -2.9427
 4666SOL    HW225632   2.983   2.509   8.303  0.3377  0.7837 -2.0221
 4667SOL     OW25633   0.269   2.758   7.837 -0.0589 -0.6046  0.0876
 4667SOL    HW125634   0.361   2.783   7.840 -0.0510 -0.6527  0.2632
 4667SOL    HW225635   0.238   2.799   7.918 -0.5543  0.4370 -0.6376
 4668SOL     OW25636   3.593   3.816   5.422 -0.1634  0.3504  0.0143
 4668SOL    HW125637   3.508   3.777   5.402  1.6311 -3.9572  0.8986
 4668SOL    HW225638   3.612   3.880   5.353 -0.5373 -0.3880 -0.7729
 4669SOL     OW25639   2.353   1.324   2.041  0.1306  0.2524  0.5156
 4669SOL    HW125640   2.268   1.367   2.027  0.3473 -0.1777 -2.0491
 4669SOL    HW225641   2.413   1.389   2.003 -1.2890  1.7944  0.8900
 4670SOL     OW25642   1.663   3.884  13.557 -0.2420 -0.5358 -0.4236
 4670SOL    HW125643   1.669   3.902  13.651 -4.0214 -0.3879 -0.2335
 4670SOL    HW225644   1.663   3.788  13.554 -0.4564 -0.4453 -3.4145
 4671SOL     OW25645   2.856   4.184  17.162  0.5950  0.4603 -0.0309
 4671SOL    HW125646   2.854   4.270  17.206  0.8700  0.4604 -0.0181
 4671SOL    HW225647   2.801   4.133  17.221  0.8195 -0.7941 -0.9069
 4672SOL     OW25648   0.081   3.915   2.900 -0.7858  0.1122 -0.3174
 4672SOL    HW125649   0.174   3.934   2.911 -0.5058 -1.2758 -0.2590
 4672SOL    HW225650   0.048   4.005   2.908 -1.7165 -0.1469 -1.2407
 4673SOL     OW25651   4.044   2.755   5.391 -0.1496  0.4115 -0.1190
 4673SOL    HW125652   3.970   2.700   5.419 -0.1075  1.0579  1.2450
 4673SOL    HW225653   4.093   2.700   5.330 -1.8627 -2.4626  1.0634
 4674SOL     OW25654   4.453   0.123   7.362 -0.3195 -0.4495 -0.4974
 4674SOL    HW125655   4.427   0.124   7.455  2.1447 -0.2883  0.1769
 4674SOL    HW225656   4.406   0.045   7.333 -0.8540 -0.2035 -0.3050
 4675SOL     OW25657   1.863   0.264   2.950 -0.1058 -0.1057  0.3837
 4675SOL    HW125658   1.932   0.237   2.889 -0.1548 -0.9954  0.7199
 4675SOL    HW225659   1.794   0.291   2.891 -0.6489  2.8109  2.3679
 4676SOL     OW25660   3.637   3.934   9.063  0.2411 -0.3559 -0.4910
 4676SOL    HW125661   3.626   3.847   9.025  0.1480 -1.3334  1.7700
 4676SOL    HW225662   3.554   3.969   9.031  0.6352  0.1361 -0.9669
 4677SOL     OW25663   2.588   1.718   6.974 -0.3549  0.2285  0.3151
 4677SOL    HW125664   2.630   1.786   6.921 -0.3179  0.3804  0.5370
 4677SOL    HW225665   2.551   1.661   6.908  0.2238  0.2327 -0.0134
 4678SOL     OW25666   2.605   4.253  10.164  0.0556  0.4045 -0.5243
 4678SOL    HW125667   2.647   4.169  10.146 -1.0051  0.1853 -1.9624
 4678SOL    HW225668   2.562   4.239  10.249 -1.6554  0.4793 -1.3874
 4679SOL     OW25669   1.247   2.276   7.764  0.4778 -0.2531 -0.3341
 4679SOL    HW125670   1.309   2.338   7.801 -1.8722  0.8303  1.7408
 4679SOL    HW225671   1.237   2.213   7.835 -2.4922  1.2838  0.6126
 4680SOL     OW25672   3.560   3.205  14.618  0.2013 -0.1746 -0.1810
 4680SOL    HW125673   3.626   3.153  14.665  0.3166  0.9584  0.9044
 4680SOL    HW225674   3.617   3.271  14.577  1.5952 -0.6263  1.0330
 4681SOL     OW25675   2.336   4.601   3.787  0.1286 -0.6302  0.4497
 4681SOL    HW125676   2.374   4.647   3.863  0.3257 -0.2375  0.1165
 4681SOL    HW225677   2.313   4.678   3.735  0.5377 -1.1659 -0.5246
 4682SOL     OW25678   0.460   4.388   4.990  0.1149 -0.0702  0.2216
 4682SOL    HW125679   0.402   4.426   4.924 -0.0467 -0.4894  0.1224
 4682SOL    HW225680   0.392   4.349   5.045 -1.9357  2.9505 -0.1507
 4683SOL     OW25681   1.173   0.800  12.315 -0.0865  0.6119 -0.2755
 4683SOL    HW125682   1.251   0.844  12.348  1.9027 -2.3866 -1.0564
 4683SOL    HW225683   1.193   0.713  12.349  0.0233  0.5777 -0.4286
 4684SOL     OW25684   0.419   4.641   5.119 -0.2932 -0.1953 -0.1183
 4684SOL    HW125685   0.337   4.684   5.144  1.6836  2.5902  1.4829
 4684SOL    HW225686   0.379   4.572   5.065 -0.6773  0.6248 -0.8763
 4685SOL     OW25687   1.261   1.569   9.892  0.3780 -0.0271  0.3350
 4685SOL    HW125688   1.295   1.560   9.803  1.5476 -1.6284  0.9520
 4685SOL    HW225689   1.311   1.648   9.913  1.8591 -1.2361  1.3241
 4686SOL     OW25690   3.776   3.404   2.006  0.2302 -0.0733 -0.7458
 4686SOL    HW125691   3.720   3.327   2.010  1.6866 -0.8986  3.1926
 4686SOL    HW225692   3.726   3.458   1.944 -0.8133  0.0764  0.2363
 4687SOL     OW25693   4.616   3.966   4.657  0.4106  0.4885 -0.5452
 4687SOL    HW125694   4.597   4.016   4.737  3.0435  2.1975 -0.9791
 4687SOL    HW225695   4.707   3.937   4.664  0.0997 -0.2823  0.3369
 4688SOL     OW25696   2.284   2.465   3.563  0.3805  0.3761  0.0356
 4688SOL    HW125697   2.293   2.371   3.545  0.7995  0.4875 -0.3504
 4688SOL    HW225698   2.197   2.488   3.531  0.5342  0.4697 -0.3143
 4689SOL     OW25699   1.759   1.179   8.417 -0.4576 -0.7999 -0.0680
 4689SOL    HW125700   1.743   1.094   8.458 -1.2804  0.0112  1.2857
 4689SOL    HW225701   1.705   1.181   8.338 -0.0992 -2.5621 -0.3599
 4690SOL     OW25702   1.617   1.221   8.164  0.1874 -0.2353 -0.4237
 4690SOL    HW125703   1.704   1.236   8.126  0.3517 -3.5279 -1.3119
 4690SOL    HW225704   1.572   1.295   8.123  0.3498  0.2384  0.2476
 4691SOL     OW25705   2.157   0.873   6.367 -0.1460 -0.6261  0.6261
 4691SOL    HW125706   2.121   0.920   6.292 -0.2519  0.0394  1.0921
 4691SOL    HW225707   2.130   0.934   6.436  1.6074  0.9857 -0.1191
 4692SOL     OW25708   1.627   1.335   5.057  0.0783 -0.1408  0.0495
 4692SOL    HW125709   1.668   1.310   4.975 -2.4536  1.1629 -1.6134
 4692SOL    HW225710   1.707   1.358   5.104 -0.1758 -0.8841  0.8424
 4693SOL     OW25711   3.095   1.275   0.123 -0.1248  0.3781 -0.3107
 4693SOL    HW125712   3.100   1.278   0.218 -1.8392  1.5499 -0.2580
 4693SOL    HW225713   3.059   1.189   0.103 -0.2061  0.5744 -1.0306
 4694SOL     OW25714   0.787   2.671   4.416 -0.1788 -0.1842  0.2435
 4694SOL    HW125715   0.705   2.624   4.402 -1.7296  2.8430 -0.9261
 4694SOL    HW225716   0.778   2.743   4.354  1.3392 -0.0281  0.1957
 4695SOL     OW25717   2.873   1.277   6.577 -0.3924 -0.0768 -0.2949
 4695SOL    HW125718   2.789   1.236   6.556  0.4274 -1.4396 -0.8452
 4695SOL    HW225719   2.904   1.202   6.628 -2.4579  0.3487  1.6063
 4696SOL     OW25720   2.546   1.215   8.273  0.5228 -0.6080  0.2127
 4696SOL    HW125721   2.620   1.160   8.248  0.8396 -0.7488  1.4355
 4696SOL    HW225722   2.574   1.248   8.358  1.1634 -0.3731 -0.0906
 4697SOL     OW25723   4.187   4.382   5.003  0.5324  0.0762 -0.3996
 4697SOL    HW125724   4.270   4.405   5.046  0.2260 -0.0535  0.2566
 4697SOL    HW225725   4.141   4.465   4.997  2.4470  0.9961 -2.4299
 4698SOL     OW25726   2.993   3.442   1.823 -0.2557 -0.1950 -0.8131
 4698SOL    HW125727   2.935   3.386   1.874  1.9685 -0.9282  0.9041
 4698SOL    HW225728   3.041   3.383   1.765 -1.6854 -0.4503 -1.7417
 4699SOL     OW25729   0.651   4.395  15.759 -0.0496 -0.0104 -0.1213
 4699SOL    HW125730   0.729   4.374  15.709 -0.5053 -1.6370 -0.1650
 4699SOL    HW225731   0.679   4.392  15.850  2.2635  1.1721 -0.8168
 4700SOL     OW25732   2.930   3.823   7.355 -0.0116  1.0396  0.5332
 4700SOL    HW125733   2.864   3.845   7.421 -1.9740 -0.9555 -0.7521
 4700SOL    HW225734   2.921   3.878   7.277 -0.8881 -0.0618 -0.1501
 4701SOL     OW25735   1.735   0.479   9.231  0.0269  0.0923 -0.2292
 4701SOL    HW125736   1.766   0.467   9.141 -1.8966  1.2592 -1.0424
 4701SOL    HW225737   1.700   0.568   9.225  0.9142  0.4748  0.2939
 4702SOL     OW25738   4.269   1.874   5.884 -0.2991 -0.1630 -0.0620
 4702SOL    HW125739   4.291   1.966   5.892  1.3702 -0.7002  1.6267
 4702SOL    HW225740   4.232   1.869   5.796  0.2475 -2.0207 -0.1879
 4703SOL     OW25741   3.503   2.293   6.545 -0.1072 -0.4007 -0.2513
 4703SOL    HW125742   3.534   2.214   6.502  0.6353 -0.7783  0.9876
 4703SOL    HW225743   3.582   2.329   6.585 -0.2127  0.2805 -0.6462
 4704SOL     OW25744   3.489   1.855   8.334 -0.7061 -0.0224  0.2794
 4704SOL    HW125745   3.425   1.893   8.395 -0.2027 -0.9022  1.3580
 4704SOL    HW225746   3.567   1.903   8.361 -1.0409  0.1817  0.9157
 4705SOL     OW25747   2.916   3.673   6.338  0.7452  0.0821  0.3606
 4705SOL    HW125748   2.906   3.703   6.429  1.1010 -1.7107  0.9806
 4705SOL    HW225749   2.829   3.681   6.299  0.4876 -2.1274  0.4764
 4706SOL     OW25750   1.174   1.461   1.845  0.3769  0.1857  0.2091
 4706SOL    HW125751   1.239   1.502   1.903  0.4334 -0.2206  0.4365
 4706SOL    HW225752   1.207   1.477   1.757  1.4561 -0.1050  0.5599
 4707SOL     OW25753   2.885   2.011  16.244  0.6812  0.3055 -0.1260
 4707SOL    HW125754   2.870   2.035  16.152 -0.1812  1.5651  0.3545
 4707SOL    HW225755   2.908   1.920  16.222  2.2401  0.8131 -0.5675
 4708SOL     OW25756   0.010   0.071   8.451  0.0931  0.1079  0.2203
 4708SOL    HW125757   0.034   4.721   8.472 -0.5669  0.3736  2.1435
 4708SOL    HW225758   0.027   0.118   8.532 -1.1364  1.2730 -0.2031
 4709SOL     OW25759   2.470   3.115   6.806  0.4671 -0.6230  0.7544
 4709SOL    HW125760   2.561   3.089   6.813  0.2386 -2.1175 -2.1152
 4709SOL    HW225761   2.430   3.105   6.893 -0.3667  1.4909  0.6265
 4710SOL     OW25762   1.722   1.195   1.498 -0.3031 -0.6731 -0.2941
 4710SOL    HW125763   1.741   1.171   1.407  2.2408 -0.0541  0.0554
 4710SOL    HW225764   1.810   1.218   1.529  0.3733  1.4192 -3.7664
 4711SOL     OW25765   3.021   0.962  16.033  0.3826  0.1732  0.1012
 4711SOL    HW125766   3.061   0.917  15.959  2.7296 -1.5467  2.3954
 4711SOL    HW225767   3.093   0.970  16.096  0.9107 -1.8182 -0.2558
 4712SOL     OW25768   4.182   4.532   5.693 -0.1376 -0.0094  0.2510
 4712SOL    HW125769   4.108   4.495   5.645  0.3635  1.0508 -1.3124
 4712SOL    HW225770   4.206   4.453   5.742 -0.0507  0.3687  0.8150
 4713SOL     OW25771   2.144   1.572   8.858  0.2861 -0.6698  0.0215
 4713SOL    HW125772   2.078   1.563   8.926  1.8719 -0.7676  1.5637
 4713SOL    HW225773   2.133   1.490   8.809 -2.0389  0.2275 -0.9038
 4714SOL     OW25774   2.897   3.526   1.536 -0.3924  0.2596 -0.0621
 4714SOL    HW125775   2.845   3.467   1.590  0.6100  0.0753  0.7080
 4714SOL    HW225776   2.968   3.475   1.497 -1.9942 -0.5983 -1.8954
 4715SOL     OW25777   0.328   1.539   7.014  0.2453 -0.2015  0.4327
 4715SOL    HW125778   0.421   1.549   7.034 -0.0054 -1.1713  2.0488
 4715SOL    HW225779   0.313   1.602   6.943 -1.8918 -3.1931 -1.7817
 4716SOL     OW25780   3.933   0.754   4.215 -0.1177 -0.1818 -0.2155
 4716SOL    HW125781   4.014   0.716   4.249 -1.3366 -0.5225  2.3046
 4716SOL    HW225782   3.967   0.825   4.159 -0.2439 -1.1354 -1.5169
 4717SOL     OW25783   3.736   4.064   4.668 -0.8725  0.3086  0.1816
 4717SOL    HW125784   3.746   4.048   4.762  2.5863  0.5986 -0.1402
 4717SOL    HW225785   3.821   4.088   4.631 -1.5657  0.2916 -1.4270
 4718SOL     OW25786   0.638   4.316   4.726 -0.6567  0.2127 -0.3173
 4718SOL    HW125787   0.724   4.303   4.686 -1.7814 -0.8106 -2.3774
 4718SOL    HW225788   0.605   4.394   4.682  0.3895  1.1216  0.4916
 4719SOL     OW25789   0.089   4.378   2.953 -0.0873  0.4757  0.1829
 4719SOL    HW125790   0.019   4.319   2.926 -0.7097  1.2441  0.1320
 4719SOL    HW225791   0.167   4.330   2.926 -0.6165 -0.0289 -0.4316
 4720SOL     OW25792   1.522   3.682   3.865 -0.0098 -0.1176  0.0363
 4720SOL    HW125793   1.440   3.728   3.883 -1.1630 -2.4049  0.6669
 4720SOL    HW225794   1.529   3.628   3.944 -0.0284 -0.2519 -0.0531
 4721SOL     OW25795   0.566   2.276   1.238  0.0289  0.2772  0.0554
 4721SOL    HW125796   0.554   2.214   1.166 -0.8954 -0.4194  0.8077
 4721SOL    HW225797   0.479   2.271   1.278 -0.6074  2.0243 -1.0988
 4722SOL     OW25798   2.196   1.435  17.641 -0.7581 -0.1339 -0.1237
 4722SOL    HW125799   2.202   1.341  17.625  0.1417 -0.2648  1.0327
 4722SOL    HW225800   2.100   1.441  17.643 -0.9614 -2.6616 -1.6011
 4723SOL     OW25801   1.127   4.439   8.774 -0.0013  0.4273  0.4942
 4723SOL    HW125802   1.106   4.360   8.824 -0.6263 -0.5239 -1.2738
 4723SOL    HW225803   1.046   4.485   8.798 -1.0674 -0.4815 -1.3516
 4724SOL     OW25804   1.958   1.486   2.757  0.2152 -0.1987 -0.2550
 4724SOL    HW125805   1.923   1.544   2.689  0.5762  2.3879  1.7940
 4724SOL    HW225806   1.924   1.403   2.722 -1.9810 -0.1675  1.8319
 4725SOL     OW25807   4.355   2.945   1.638  0.2808 -0.0281  0.2911
 4725SOL    HW125808   4.345   2.863   1.590 -0.1724  1.6545 -2.4437
 4725SOL    HW225809   4.284   2.944   1.703  0.9069 -0.4568  0.9660
 4726SOL     OW25810   1.419   1.895   5.056  0.4678  0.1777  0.6182
 4726SOL    HW125811   1.443   1.802   5.049 -0.1445  0.1980 -1.5105
 4726SOL    HW225812   1.355   1.891   5.127  0.9673 -0.6414  1.0374
 4727SOL     OW25813   2.608   0.559   9.039 -0.6663 -0.1566  0.7057
 4727SOL    HW125814   2.564   0.643   9.028 -1.1613 -0.5387 -0.2022
 4727SOL    HW225815   2.589   0.513   8.958 -0.5279  0.0065  0.5820
 4728SOL     OW25816   2.649   1.029  17.164  0.5338  0.4696  0.0935
 4728SOL    HW125817   2.664   1.068  17.250 -0.5453  2.6969 -0.7155
 4728SOL    HW225818   2.659   1.106  17.108  1.2890  0.3553  0.0800
 4729SOL     OW25819   2.710   1.748  11.346  0.2965 -0.3346  0.0519
 4729SOL    HW125820   2.791   1.792  11.373  0.0353 -2.2518  3.9912
 4729SOL    HW225821   2.737   1.658  11.364 -2.4053 -1.3701 -1.1433
 4730SOL     OW25822   3.412   3.314   0.780  0.6290 -0.0707  0.4856
 4730SOL    HW125823   3.390   3.344   0.692 -1.4213 -0.4024  0.8931
 4730SOL    HW225824   3.506   3.332   0.781  0.3109  1.7375 -1.1173
 4731SOL     OW25825   1.473   2.300   2.561  0.7194  0.9933 -0.4628
 4731SOL    HW125826   1.567   2.300   2.541  0.7353  1.4804 -0.4007
 4731SOL    HW225827   1.441   2.220   2.518  1.1067  1.2205 -1.1816
 4732SOL     OW25828   3.425   0.447   6.732  0.2025 -0.3487 -0.7677
 4732SOL    HW125829   3.340   0.422   6.695  0.4289  0.4870 -1.8628
 4732SOL    HW225830   3.484   0.427   6.660  0.9378 -0.0694 -0.2466
 4733SOL     OW25831   4.033   4.194   8.407 -0.7672 -0.3158  0.1354
 4733SOL    HW125832   4.086   4.123   8.444  2.6143  1.7456 -0.7917
 4733SOL    HW225833   4.089   4.269   8.428  0.3014 -0.8765 -0.7067
 4734SOL     OW25834   3.292   2.315   3.692  1.1515  0.9630  0.6884
 4734SOL    HW125835   3.289   2.409   3.710 -1.5632  1.0898 -0.3204
 4734SOL    HW225836   3.198   2.300   3.682  1.3680 -0.2332  0.4962
 4735SOL     OW25837   0.530   1.587  12.760  0.5293 -0.2284 -0.2575
 4735SOL    HW125838   0.544   1.626  12.846 -1.1031 -1.6958  0.6738
 4735SOL    HW225839   0.571   1.656  12.708  1.1576  0.5964  1.3402
 4736SOL     OW25840   0.231   4.027   3.705 -0.1214  0.0321 -0.2339
 4736SOL    HW125841   0.319   3.998   3.729 -0.1854 -0.0661 -0.1207
 4736SOL    HW225842   0.205   3.942   3.670  0.5327 -0.3976  0.3399
 4737SOL     OW25843   3.999   4.679   6.985  0.8665  0.3350  0.0814
 4737SOL    HW125844   3.961   4.642   7.065  1.5725  0.6484  0.5494
 4737SOL    HW225845   3.934   0.008   6.991 -1.3324 -1.8193  1.9950
 4738SOL     OW25846   1.770   1.660   2.038  0.2730 -0.3099  0.1304
 4738SOL    HW125847   1.826   1.652   1.960 -1.3456 -0.7312 -1.0080
 4738SOL    HW225848   1.721   1.736   2.007  0.5633 -0.2635 -0.2196
 4739SOL     OW25849   2.901   3.722   9.174  0.1150 -0.0933  0.1385
 4739SOL    HW125850   2.908   3.740   9.268  5.3938  0.0171 -0.2652
 4739SOL    HW225851   2.859   3.636   9.171 -2.2143  1.0161  0.5766
 4740SOL     OW25852   4.638   0.667   2.949 -0.1191  0.1402  0.1526
 4740SOL    HW125853   4.603   0.587   2.910  3.6319 -0.8864 -1.0365
 4740SOL    HW225854   4.658   0.709   2.866 -0.3729  2.0001  1.0248
 4741SOL     OW25855   1.750   1.880   7.662 -0.2453 -0.4843 -0.6921
 4741SOL    HW125856   1.830   1.845   7.623 -1.2845 -2.7852 -0.7255
 4741SOL    HW225857   1.738   1.962   7.613  0.3879 -0.9803 -1.6783
 4742SOL     OW25858   2.852   1.068   3.320  0.0675  0.3762 -0.4865
 4742SOL    HW125859   2.797   1.064   3.242 -0.5222  0.5699 -0.0750
 4742SOL    HW225860   2.921   1.120   3.279 -1.9685  4.1354  0.9111
 4743SOL     OW25861   4.340   3.612   4.697 -0.0841  0.0636 -0.2333
 4743SOL    HW125862   4.339   3.691   4.752  1.7878  0.5085 -0.8193
 4743SOL    HW225863   4.395   3.647   4.626 -1.1735  0.0205 -1.0889
 4744SOL     OW25864   1.747   3.694   9.762 -0.2112 -0.1351 -0.2530
 4744SOL    HW125865   1.693   3.655   9.694 -1.2480  2.0068 -0.6742
 4744SOL    HW225866   1.680   3.737   9.816  2.9087  2.0244  1.9033
 4745SOL     OW25867   4.359   0.564  14.882  0.1111 -0.0360  0.0906
 4745SOL    HW125868   4.313   0.609  14.953 -0.4395  1.3784 -1.1750
 4745SOL    HW225869   4.399   0.500  14.941  1.0225 -0.4148 -0.9344
 4746SOL     OW25870   1.714   4.337  17.733 -0.0615  0.4830 -0.4370
 4746SOL    HW125871   1.629   4.369   0.004 -0.0272  0.6764 -0.5363
 4746SOL    HW225872   1.752   4.305   0.053 -2.7916 -0.5666  0.4472
 4747SOL     OW25873   3.881   4.727   8.966  0.9456 -0.3435  0.2564
 4747SOL    HW125874   3.915   4.640   8.948  1.4766  0.0274 -0.5470
 4747SOL    HW225875   3.789   4.701   8.956  1.6977 -3.1483  0.6582
 4748SOL     OW25876   1.238   1.135  14.341  0.3008 -0.0016 -0.3894
 4748SOL    HW125877   1.307   1.093  14.393  1.6785  1.6035 -0.9290
 4748SOL    HW225878   1.197   1.063  14.293 -1.5439  1.2803 -0.7244
 4749SOL     OW25879   1.149   0.655  13.885  0.4960 -0.1160 -0.0842
 4749SOL    HW125880   1.210   0.581  13.893  1.0006  0.5252  2.0271
 4749SOL    HW225881   1.069   0.612  13.855  0.5024 -0.7895  0.8504
 4750SOL     OW25882   4.491   1.777   3.257 -0.4516  0.2791  0.3979
 4750SOL    HW125883   4.562   1.839   3.243 -0.0369 -0.2946 -0.0643
 4750SOL    HW225884   4.534   1.705   3.304  0.0923  0.9642  0.9362
 4751SOL     OW25885   4.056   0.555   6.526  0.5461  0.0675 -0.2586
 4751SOL    HW125886   3.992   0.497   6.484  1.2881  0.5141 -2.0104
 4751SOL    HW225887   4.122   0.576   6.460  0.7471  1.0297  0.2412
 4752SOL     OW25888   2.608   4.105   4.900  0.9391 -0.2361 -0.2071
 4752SOL    HW125889   2.577   4.188   4.865  0.7572 -0.0488  0.3911
 4752SOL    HW225890   2.626   4.127   4.992 -0.5014 -1.5698  0.3995
 4753SOL     OW25891   3.316   2.452   6.658 -0.9349  0.3369 -0.5541
 4753SOL    HW125892   3.264   2.387   6.705 -1.5207 -0.4479 -2.2901
 4753SOL    HW225893   3.374   2.391   6.612 -2.2892 -0.1907 -1.5445
 4754SOL     OW25894   2.699   0.726  16.007  0.1675  1.0538 -0.0720
 4754SOL    HW125895   2.657   0.805  15.973  1.2803  1.0722 -1.4145
 4754SOL    HW225896   2.645   0.668  15.953 -0.9866 -0.1331  2.3533
 4755SOL     OW25897   0.490   1.895   9.086 -0.0085 -0.1267 -0.4470
 4755SOL    HW125898   0.431   1.870   9.015  1.9973 -0.6816 -1.9269
 4755SOL    HW225899   0.434   1.911   9.161  1.5845  1.3661  0.4098
 4756SOL     OW25900   3.773   0.093   5.765  0.2462  0.6765 -0.0517
 4756SOL    HW125901   3.720   0.044   5.702  0.1615  1.4857 -0.6073
 4756SOL    HW225902   3.842   0.027   5.776  0.0720  0.3377 -1.0192
 4757SOL     OW25903   4.426   4.720   2.952  0.9597  0.2376 -0.5575
 4757SOL    HW125904   4.423   4.629   2.979 -0.1387  0.5824  0.4653
 4757SOL    HW225905   4.464   4.711   2.864  0.6031 -1.5145 -0.5224
 4758SOL     OW25906   1.080   4.206   6.364 -0.8669 -0.0208  0.4543
 4758SOL    HW125907   1.036   4.200   6.279 -3.2333  3.4171  1.4373
 4758SOL    HW225908   1.024   4.265   6.415  0.0425 -0.0552  1.4947
 4759SOL     OW25909   0.108   4.647   0.702 -0.0843  0.3813 -0.4056
 4759SOL    HW125910   0.158   4.656   0.783 -3.0479  3.8561  1.0450
 4759SOL    HW225911   0.177   4.667   0.638  2.4046 -1.9923  1.5179
 4760SOL     OW25912   0.694   0.308  14.551  0.1941  0.1259 -0.6077
 4760SOL    HW125913   0.643   0.312  14.470  1.7628  2.9472 -1.4517
 4760SOL    HW225914   0.737   0.222  14.550 -2.5054 -1.2069 -2.2970
 4761SOL     OW25915   2.163   3.247   7.012  0.5492 -0.1369 -0.0738
 4761SOL    HW125916   2.199   3.335   6.995  0.7434 -0.7864 -3.1652
 4761SOL    HW225917   2.073   3.278   7.017  0.5546 -0.1100 -0.1365
 4762SOL     OW25918   2.539   1.476   2.437  0.4133 -0.5833 -1.1435
 4762SOL    HW125919   2.446   1.499   2.426 -0.0109 -0.8276  2.0697
 4762SOL    HW225920   2.540   1.418   2.513  1.0407 -1.4347 -1.8088
 4763SOL     OW25921   1.128   3.772   6.394 -0.1527  0.1597 -0.1137
 4763SOL    HW125922   1.129   3.769   6.490 -2.7226  0.6672 -0.0637
 4763SOL    HW225923   1.188   3.845   6.380 -0.6229  0.3500 -1.1025
 4764SOL     OW25924   3.111   1.264  13.602  0.5172  0.0449 -0.2058
 4764SOL    HW125925   3.110   1.171  13.626  0.3808  0.3297  0.8631
 4764SOL    HW225926   3.122   1.264  13.507 -1.7350  2.3113 -0.4658
 4765SOL     OW25927   0.166   4.122   4.002  0.0960 -0.2817  0.6324
 4765SOL    HW125928   0.248   4.108   4.050 -0.7178 -1.9070  1.5229
 4765SOL    HW225929   0.198   4.176   3.930  1.3422 -1.2763  0.4522
 4766SOL     OW25930   4.387   2.408   1.818  0.1887  0.1144 -0.4525
 4766SOL    HW125931   4.341   2.345   1.763 -0.0109 -0.2102  0.0815
 4766SOL    HW225932   4.327   2.410   1.893  1.0930 -2.0177  0.3426
 4767SOL     OW25933   3.257   4.234   4.666  0.1808 -0.0801  0.2167
 4767SOL    HW125934   3.293   4.287   4.738 -1.0728  2.0166 -0.6906
 4767SOL    HW225935   3.171   4.223   4.705 -0.3770  3.3360 -0.0583
 4768SOL     OW25936   1.906   4.481   6.667 -0.5737  0.2652  0.0870
 4768SOL    HW125937   1.991   4.514   6.639 -0.9829  0.3497 -1.0692
 4768SOL    HW225938   1.852   4.510   6.593 -0.9454 -0.5331  0.0424
 4769SOL     OW25939   1.292   2.911   5.578  0.2402 -0.7095  0.3664
 4769SOL    HW125940   1.241   2.906   5.659  0.0092  0.2019  0.2697
 4769SOL    HW225941   1.243   2.967   5.518 -0.2181  0.7949  2.1274
 4770SOL     OW25942   3.886   2.812  17.490 -0.3737 -0.1243  0.2353
 4770SOL    HW125943   3.968   2.849  17.457  0.4590 -0.4985  1.8710
 4770SOL    HW225944   3.875   2.747  17.421  0.0563 -0.8133  0.8271
 4771SOL     OW25945   3.277   4.465  15.709 -0.0591 -0.0280 -0.6164
 4771SOL    HW125946   3.252   4.549  15.747  1.5209  0.3082 -0.3009
 4771SOL    HW225947   3.356   4.496  15.665  0.6831 -0.5289  0.3569
 4772SOL     OW25948   1.570   2.700  15.786  0.2341  0.4452 -0.5313
 4772SOL    HW125949   1.626   2.623  15.796 -2.2316 -1.2307  0.5803
 4772SOL    HW225950   1.556   2.703  15.691  1.2456 -0.4756 -0.7153
 4773SOL     OW25951   2.437   0.044   8.305  0.6226  0.0165  0.6509
 4773SOL    HW125952   2.503   0.061   8.372  1.6488 -0.8575 -0.1406
 4773SOL    HW225953   2.363   0.096   8.337  2.4346  2.2267  1.2074
 4774SOL     OW25954   2.774   4.376   7.084  0.2709 -0.2903  0.8800
 4774SOL    HW125955   2.709   4.394   7.153 -0.6625  1.0088 -0.3498
 4774SOL    HW225956   2.723   4.411   7.012  2.0999 -3.8980 -2.1320
 4775SOL     OW25957   0.058   2.283  14.095 -0.4223 -0.1157  0.4373
 4775SOL    HW125958   0.082   2.293  14.002  0.3385 -0.2853  0.6138
 4775SOL    HW225959   4.712   2.245  14.082 -0.3521 -1.5613  4.3422
 4776SOL     OW25960   2.917   4.565   7.642 -1.1187  0.5740  0.2122
 4776SOL    HW125961   3.012   4.572   7.636 -0.7791 -0.8881  3.9567
 4776SOL    HW225962   2.905   4.608   7.558  1.0209  0.0770 -0.3627
 4777SOL     OW25963   4.505   1.703   9.733 -0.3207  0.1007  0.1214
 4777SOL    HW125964   4.569   1.635   9.712 -0.7867 -0.7849  1.6108
 4777SOL    HW225965   4.537   1.767   9.669 -0.9645 -1.2627 -1.5731
 4778SOL     OW25966   3.554   2.539   2.145  0.3071  0.4917 -0.2199
 4778SOL    HW125967   3.620   2.491   2.095  1.5505  2.6825 -0.6448
 4778SOL    HW225968   3.601   2.560   2.225 -1.3939  1.8862  0.4155
 4779SOL     OW25969   1.406   2.356  11.320 -0.0964  0.2708  0.2404
 4779SOL    HW125970   1.374   2.303  11.247  1.1557  1.7084 -1.3353
 4779SOL    HW225971   1.363   2.441  11.309  0.2000  0.6571  2.0526
 4780SOL     OW25972   2.322   1.196   4.399 -0.1739  0.0357  0.4660
 4780SOL    HW125973   2.243   1.171   4.448 -0.5463  0.7721  0.2512
 4780SOL    HW225974   2.345   1.276   4.447 -0.6484  1.5503 -1.8633
 4781SOL     OW25975   2.045   2.686   8.155  0.5467 -0.5715  0.4220
 4781SOL    HW125976   1.964   2.636   8.148 -1.4341  2.5356  1.3458
 4781SOL    HW225977   2.110   2.617   8.168  1.6507  0.0790 -1.6624
 4782SOL     OW25978   0.001   4.264   7.193  0.3867  0.1032  0.5671
 4782SOL    HW125979   0.022   4.350   7.156 -1.2961 -1.1298 -3.2488
 4782SOL    HW225980   4.647   4.266   7.183  0.2081 -1.1582  2.0852
 4783SOL     OW25981   2.400   3.800   7.212  0.1467  0.1149 -0.0947
 4783SOL    HW125982   2.333   3.815   7.145 -1.1810  1.1197  1.4469
 4783SOL    HW225983   2.421   3.708   7.225  2.6226  0.8417  0.9315
 4784SOL     OW25984   0.164   2.968   8.328  0.4161  0.6627 -0.1256
 4784SOL    HW125985   0.217   3.047   8.318 -0.6190  1.3140 -0.4929
 4784SOL    HW225986   0.224   2.897   8.306  0.9918  0.6108  1.5583
 4785SOL     OW25987   2.556   2.568   4.963 -0.0147  0.2280 -0.2769
 4785SOL    HW125988   2.495   2.641   4.952 -1.7220 -1.5441 -2.4709
 4785SOL    HW225989   2.529   2.540   5.050  0.1005 -0.5970 -0.5136
 4786SOL     OW25990   3.631   0.496   6.905  0.4713 -0.2982 -0.0749
 4786SOL    HW125991   3.564   0.488   6.837 -0.6434 -2.0685  1.2294
 4786SOL    HW225992   3.711   0.508   6.853  0.0519  0.2798 -0.5829
 4787SOL     OW25993   4.526   0.910  13.400  0.1584  0.2888  0.7403
 4787SOL    HW125994   4.613   0.900  13.439  0.0560  3.6651  1.8315
 4787SOL    HW225995   4.558   0.976  13.338  0.5069  1.4672  2.1832
 4788SOL     OW25996   2.583   4.669  16.478 -0.2036  0.1954 -0.7961
 4788SOL    HW125997   2.565   4.711  16.562 -0.5471  0.0122 -0.7769
 4788SOL    HW225998   2.673   4.702  16.476 -0.9536  2.1978 -0.8145
 4789SOL     OW25999   3.828   2.433   5.583 -0.3434 -0.0940  0.3779
 4789SOL    HW126000   3.862   2.419   5.494  2.1963  1.4167  1.1181
 4789SOL    HW226001   3.909   2.438   5.634  0.3206 -0.4851 -0.6336
 4790SOL     OW26002   3.933   1.925  13.463  0.0173  0.7081 -1.0178
 4790SOL    HW126003   3.911   1.864  13.393  1.9942 -1.6700  0.4458
 4790SOL    HW226004   3.871   1.895  13.529  1.3788 -2.2327 -1.0928
 4791SOL     OW26005   1.425   0.548   6.543  0.1478 -0.0834  0.1907
 4791SOL    HW126006   1.457   0.471   6.591 -3.3500 -0.7703  1.4684
 4791SOL    HW226007   1.366   0.508   6.479  1.1954  0.4893 -1.1268
 4792SOL     OW26008   4.026   2.252  14.698 -0.0882 -0.1979 -0.5868
 4792SOL    HW126009   4.117   2.233  14.677  0.0666 -1.4339  1.1834
 4792SOL    HW226010   3.993   2.308  14.628  2.0937  0.4816 -1.0679
 4793SOL     OW26011   3.930   2.391   5.340 -0.5319  0.0141  0.2194
 4793SOL    HW126012   3.947   2.435   5.256 -0.8725  2.0863  1.2381
 4793SOL    HW226013   3.867   2.322   5.319  0.0058  0.1360 -1.7928
 4794SOL     OW26014   3.275   0.200   0.373  0.2744  0.2751 -0.2321
 4794SOL    HW126015   3.270   0.291   0.345  0.2728 -0.0293 -1.2176
 4794SOL    HW226016   3.353   0.210   0.427  1.3323 -0.0076 -1.6907
 4795SOL     OW26017   0.159   3.367   7.081 -0.1301  0.5379 -0.3954
 4795SOL    HW126018   0.177   3.324   7.165 -0.1722 -0.0757 -0.6951
 4795SOL    HW226019   0.234   3.426   7.075  0.5852 -0.1599  1.7115
 4796SOL     OW26020   2.692   0.376   9.359  0.6089 -0.4319  0.3598
 4796SOL    HW126021   2.733   0.386   9.273  0.1439  0.4830  0.2463
 4796SOL    HW226022   2.641   0.456   9.372  3.3824  1.0420  2.0090
 4797SOL     OW26023   1.381   1.405  12.940 -0.1565 -0.2414  0.4182
 4797SOL    HW126024   1.294   1.418  12.979 -0.6124  0.1549 -0.7392
 4797SOL    HW226025   1.364   1.332  12.880 -0.4542 -0.0182  0.2302
 4798SOL     OW26026   4.683   1.514   7.054 -0.6509  0.5066  0.2479
 4798SOL    HW126027   4.657   1.524   6.963 -1.5276  1.0992  0.5675
 4798SOL    HW226028   4.624   1.575   7.099 -1.1192 -1.2798  2.0571
 4799SOL     OW26029   0.555   3.298   6.679 -0.4208 -0.2509 -0.1734
 4799SOL    HW126030   0.487   3.362   6.658 -1.5277 -1.1637  0.5875
 4799SOL    HW226031   0.623   3.337   6.625  0.5195 -0.8626  0.5427
 4800SOL     OW26032   2.006   0.067  13.425  0.5838  0.6914 -0.2466
 4800SOL    HW126033   1.991   0.002  13.494  0.4893  1.0501  0.0725
 4800SOL    HW226034   2.045   0.016  13.354  1.9517  0.8668  0.3820
 4801SOL     OW26035   0.199   2.146  17.462 -0.1392 -0.1373  0.6123
 4801SOL    HW126036   0.125   2.161  17.404  0.9077 -2.0995 -1.2432
 4801SOL    HW226037   0.248   2.226  17.443  0.7083 -0.7693  0.1005
 4802SOL     OW26038   0.659   4.329   6.212  0.7464  0.0376  0.2071
 4802SOL    HW126039   0.572   4.307   6.179  1.4714  1.9198 -2.9575
 4802SOL    HW226040   0.648   4.382   6.291 -1.0996 -0.4939  0.2888
 4803SOL     OW26041   3.892   2.432   2.805 -0.7879  0.1075  0.0532
 4803SOL    HW126042   3.861   2.431   2.896 -1.5759  1.5733 -0.1865
 4803SOL    HW226043   3.962   2.497   2.813 -0.3105 -0.7249  2.6531
 4804SOL     OW26044   3.343   2.881   7.648 -0.0900  0.4305  0.3115
 4804SOL    HW126045   3.306   2.947   7.588  3.2254  1.3469 -0.7507
 4804SOL    HW226046   3.435   2.883   7.622 -0.0839  2.6029  0.4857
 4805SOL     OW26047   2.841   3.950   4.959 -0.0617 -0.9027  0.1275
 4805SOL    HW126048   2.865   3.970   5.050  0.2197  0.6345 -0.2919
 4805SOL    HW226049   2.747   3.968   4.968  0.8039  2.6941  1.8842
 4806SOL     OW26050   2.733   2.128   7.647  0.1131  0.0464 -0.3620
 4806SOL    HW126051   2.711   2.215   7.613  0.5245  0.1734 -0.2964
 4806SOL    HW226052   2.822   2.115   7.615  0.6323  0.5658  0.8743
 4807SOL     OW26053   2.365   4.131   8.627 -0.0657  0.1417 -0.2068
 4807SOL    HW126054   2.272   4.153   8.622  0.2480  0.7829 -2.8715
 4807SOL    HW226055   2.373   4.076   8.705 -1.1215  0.0531 -0.1535
 4808SOL     OW26056   0.614   1.852  15.952  0.1213 -0.0072  0.4627
 4808SOL    HW126057   0.692   1.860  16.006  0.8124  0.1638 -0.5659
 4808SOL    HW226058   0.552   1.911  15.996  0.8688  1.8464 -0.9622
 4809SOL     OW26059   3.955   1.712  12.004  0.6589 -0.0058  1.1809
 4809SOL    HW126060   3.928   1.629  11.966 -1.1802  0.0461  2.3849
 4809SOL    HW226061   3.884   1.733  12.064 -0.4383  0.1102 -0.1817
 4810SOL     OW26062   0.062   1.893   3.037  0.3162 -0.1416  0.7634
 4810SOL    HW126063   0.015   1.897   3.120  1.8130 -0.5393  1.6367
 4810SOL    HW226064   0.125   1.823   3.053  0.1991 -0.3761  0.1811
 4811SOL     OW26065   0.418   1.305   2.023  0.4545  0.6944  0.2038
 4811SOL    HW126066   0.447   1.332   2.110 -3.2904  2.1711  0.9674
 4811SOL    HW226067   0.340   1.262   2.057  2.0194  0.3562  3.3266
 4812SOL     OW26068   0.717   4.091  14.004  0.1040  0.4469 -0.3315
 4812SOL    HW126069   0.703   4.092  14.099  0.4514  0.4561 -0.2790
 4812SOL    HW226070   0.697   3.998  13.994  3.2955 -0.2624 -0.0659
 4813SOL     OW26071   4.698   1.868   4.652  0.0511  0.0011 -0.0583
 4813SOL    HW126072   4.643   1.876   4.574 -0.1987  0.8772  0.2093
 4813SOL    HW226073   0.039   1.899   4.612 -0.7917  0.5947 -1.3296
 4814SOL     OW26074   0.610   2.453   5.355 -1.2692  0.4261 -0.1625
 4814SOL    HW126075   0.616   2.466   5.260 -2.1416  1.9447 -0.0181
 4814SOL    HW226076   0.636   2.364   5.376 -2.3801 -0.0555 -0.8251
 4815SOL     OW26077   4.020   4.509  10.411 -0.0575  0.8001 -0.0761
 4815SOL    HW126078   3.935   4.513  10.456  0.9744 -0.7782  2.0221
 4815SOL    HW226079   3.996   4.506  10.319 -2.2700 -1.2997  0.5667
 4816SOL     OW26080   0.772   3.540   1.974 -0.5073  0.0293 -0.1701
 4816SOL    HW126081   0.720   3.593   1.913 -0.4185  0.8173  0.4313
 4816SOL    HW226082   0.756   3.447   1.960 -1.5393 -0.0206  1.3196
 4817SOL     OW26083   3.082   1.923   1.365 -0.3573 -0.6237 -0.2008
 4817SOL    HW126084   3.117   1.858   1.426  0.0559  0.7939  1.0628
 4817SOL    HW226085   3.030   1.979   1.423 -0.9033 -0.3504 -0.9574
 4818SOL     OW26086   3.378   0.462  12.292 -0.8237  0.3399  0.4297
 4818SOL    HW126087   3.326   0.516  12.232 -1.0791 -0.6195 -0.1975
 4818SOL    HW226088   3.384   0.373  12.258  0.4531  0.1751  1.1014
 4819SOL     OW26089   0.462   0.907  17.156  0.2515 -0.2390 -0.2264
 4819SOL    HW126090   0.428   0.905  17.066  0.5874 -1.7734 -0.3177
 4819SOL    HW226091   0.518   0.985  17.152 -1.0778  0.7601  0.7345
 4820SOL     OW26092   0.858   0.585  11.695 -0.1667 -0.1822 -0.6203
 4820SOL    HW126093   0.928   0.635  11.653  0.8583 -1.3283 -0.2781
 4820SOL    HW226094   0.837   0.649  11.764  0.7853 -1.3068  0.7151
 4821SOL     OW26095   0.679   2.852   5.671 -0.2198  0.1591  0.6975
 4821SOL    HW126096   0.727   2.929   5.704  0.4413  0.2462 -0.4854
 4821SOL    HW226097   0.735   2.776   5.659 -0.6355 -0.4189  2.4312
 4822SOL     OW26098   4.351   3.552   9.938 -0.0422 -1.1096 -0.3651
 4822SOL    HW126099   4.412   3.479   9.946 -0.4291 -1.2736  1.2020
 4822SOL    HW226100   4.414   3.614   9.904 -1.8512  1.7168  1.3995
 4823SOL     OW26101   4.523   0.943  11.991 -0.6482 -0.9219 -0.5333
 4823SOL    HW126102   4.570   1.009  11.940 -1.2449  0.0376  0.1622
 4823SOL    HW226103   4.558   0.960  12.078  0.3094 -1.6562 -0.7764
 4824SOL     OW26104   3.038   3.764   4.584  0.6853  0.3701 -0.3333
 4824SOL    HW126105   3.097   3.750   4.511 -0.0504 -1.9560 -0.4727
 4824SOL    HW226106   2.975   3.692   4.574 -0.6049  1.0037  2.9515
 4825SOL     OW26107   1.159   1.278   5.495 -0.8251  0.1760 -0.2586
 4825SOL    HW126108   1.221   1.351   5.494  0.7431 -1.1566 -0.9852
 4825SOL    HW226109   1.123   1.269   5.407 -0.4498 -1.0348 -0.2929
 4826SOL     OW26110   2.684   3.774   6.233 -0.3388  0.0096  0.2761
 4826SOL    HW126111   2.590   3.776   6.212 -0.5911 -0.9672  1.2990
 4826SOL    HW226112   2.697   3.865   6.258 -1.8110  0.1998  0.3602
 4827SOL     OW26113   1.286   1.331  10.093  0.1244  0.8208  0.3283
 4827SOL    HW126114   1.314   1.421  10.076 -0.9314  0.8929 -1.1061
 4827SOL    HW226115   1.312   1.329  10.185 -2.1027  1.3166  0.9875
 4828SOL     OW26116   2.532   0.890  15.868  0.9058  0.1623  0.3970
 4828SOL    HW126117   2.497   0.817  15.816  0.7041  0.3231  0.3096
 4828SOL    HW226118   2.518   0.963  15.807 -1.0259  1.1360  2.0053
 4829SOL     OW26119   3.897   4.095   6.186  0.0318  0.7866  0.3756
 4829SOL    HW126120   3.862   4.010   6.215  0.3210 -0.1587 -2.0888
 4829SOL    HW226121   3.817   4.147   6.196 -0.2536  0.3318  0.4753
 4830SOL     OW26122   0.651   4.480  14.241 -0.7198 -0.5474  0.2643
 4830SOL    HW126123   0.598   4.441  14.171  0.0136 -1.7597  0.3872
 4830SOL    HW226124   0.724   4.419  14.234  0.6908  1.3310 -1.4134
 4831SOL     OW26125   2.576   2.411   5.501  0.1040 -0.0979  0.0794
 4831SOL    HW126126   2.522   2.466   5.558  1.6653  2.9738 -1.4104
 4831SOL    HW226127   2.655   2.404   5.555 -0.3500 -1.5656  0.5555
 4832SOL     OW26128   0.394   4.480   0.626 -0.3039  0.2608 -0.1356
 4832SOL    HW126129   0.351   4.511   0.546  0.1076 -0.4843 -0.6486
 4832SOL    HW226130   0.476   4.528   0.639 -0.7483  0.9738  0.0409
 4833SOL     OW26131   2.113   1.882   0.100 -0.3730 -0.1215 -0.2568
 4833SOL    HW126132   2.135   1.806   0.046 -0.1071 -0.1931 -0.0436
 4833SOL    HW226133   2.199   1.922   0.109 -1.4284  1.5748  2.1439
 4834SOL     OW26134   2.961   0.652   5.151  0.0338  0.3527 -0.7660
 4834SOL    HW126135   2.968   0.584   5.217  0.8887 -1.3328 -2.6066
 4834SOL    HW226136   3.002   0.622   5.070 -0.9511 -2.6985 -0.1077
 4835SOL     OW26137   1.001   4.663   7.897  0.3407  0.4580  0.1309
 4835SOL    HW126138   0.972   0.006   7.861 -1.0353 -1.3549 -2.9857
 4835SOL    HW226139   1.053   4.683   7.975  1.4880  1.1417 -0.8270
 4836SOL     OW26140   2.651   2.662  13.746 -0.1633  0.4412 -0.4996
 4836SOL    HW126141   2.687   2.633  13.662  0.3629 -2.8160  0.8445
 4836SOL    HW226142   2.559   2.644  13.726 -0.2000  0.0905 -0.0400
 4837SOL     OW26143   2.866   1.186  16.117  0.3425  0.2288  0.0269
 4837SOL    HW126144   2.922   1.114  16.088  1.1414  0.3607  1.2920
 4837SOL    HW226145   2.782   1.139  16.120 -1.0163  2.5146 -1.6773
 4838SOL     OW26146   2.311   0.413  15.645 -0.3022 -0.9432  0.9647
 4838SOL    HW126147   2.297   0.458  15.562 -0.4907 -2.9680 -0.1064
 4838SOL    HW226148   2.228   0.431  15.687 -1.0743 -3.0372  0.3173
 4839SOL     OW26149   1.849   2.865   2.457 -0.5320  0.3593 -0.1807
 4839SOL    HW126150   1.859   2.848   2.551  3.4864 -2.2295 -1.0654
 4839SOL    HW226151   1.768   2.815   2.450 -0.2604 -0.0485 -0.4316
 4840SOL     OW26152   1.906   3.823  10.263  0.0752 -0.3195 -0.1433
 4840SOL    HW126153   1.853   3.759  10.216 -0.2359 -0.2893  0.1679
 4840SOL    HW226154   1.921   3.782  10.348  0.4922  1.5919  0.7071
 4841SOL     OW26155   0.748   4.019   4.486  1.1255  0.7088 -0.0660
 4841SOL    HW126156   0.835   4.007   4.447 -0.0894  0.3557 -2.6724
 4841SOL    HW226157   0.741   3.944   4.545  0.3604 -0.3652 -1.5350
 4842SOL     OW26158   2.859   2.749   6.749  0.0030 -0.1220 -0.1756
 4842SOL    HW126159   2.842   2.678   6.687 -0.5636 -0.5498  0.4679
 4842SOL    HW226160   2.955   2.750   6.748  0.0059 -0.2952 -0.0742
 4843SOL     OW26161   3.994   0.606   2.483 -0.7448  0.7254  0.2335
 4843SOL    HW126162   3.999   0.581   2.575  0.5311 -2.0490 -0.5947
 4843SOL    HW226163   3.904   0.593   2.452 -0.2202 -1.7261 -0.2472
 4844SOL     OW26164   0.565   1.349   7.540  0.1753 -0.1622  0.1178
 4844SOL    HW126165   0.588   1.440   7.520 -0.2760 -0.3486 -1.2695
 4844SOL    HW226166   0.477   1.376   7.566 -0.3534  0.2851 -2.1277
 4845SOL     OW26167   2.179   1.959  11.092  0.1263 -0.2874  0.0526
 4845SOL    HW126168   2.206   1.941  11.002  4.0245  3.3478  0.4657
 4845SOL    HW226169   2.260   1.997  11.126 -0.1498  0.4170 -0.0821
 4846SOL     OW26170   3.572   1.378  13.213 -0.3587  0.5103 -0.2726
 4846SOL    HW126171   3.565   1.471  13.193 -0.4761  1.1857  2.8699
 4846SOL    HW226172   3.613   1.347  13.133  3.8545  0.4742  1.8933
 4847SOL     OW26173   3.708   2.072  14.351  0.6180 -0.1770  0.8792
 4847SOL    HW126174   3.730   2.053  14.442  1.0908 -2.6455  0.2390
 4847SOL    HW226175   3.738   2.163  14.351 -0.0487  0.0481 -0.4310
 4848SOL     OW26176   0.478   1.412   2.843 -0.1651 -0.3773 -0.1986
 4848SOL    HW126177   0.560   1.391   2.886 -0.3241  0.6764  0.6255
 4848SOL    HW226178   0.424   1.334   2.860 -0.6501  0.0508  0.2199
 4849SOL     OW26179   1.226   3.712   1.304 -0.0798  0.1133  0.1729
 4849SOL    HW126180   1.290   3.746   1.366 -1.4310  0.5173  1.3308
 4849SOL    HW226181   1.211   3.630   1.351 -0.1374  0.1498  0.2175
 4850SOL     OW26182   1.238   1.912   4.396  0.2781  0.5754 -0.2742
 4850SOL    HW126183   1.294   1.846   4.437 -1.6380  0.9303  2.8667
 4850SOL    HW226184   1.180   1.857   4.343 -1.6536 -0.0373  2.4893
 4851SOL     OW26185   0.467   1.533   5.205  0.2808 -0.7227  0.1478
 4851SOL    HW126186   0.422   1.564   5.126 -0.1826  0.3590  0.8391
 4851SOL    HW226187   0.463   1.439   5.187  0.3890 -0.4352 -1.3990
 4852SOL     OW26188   0.272   0.334   8.954  0.0670  0.0756  0.3714
 4852SOL    HW126189   0.329   0.357   8.880 -1.8643  1.4492 -0.6723
 4852SOL    HW226190   0.181   0.327   8.925 -0.4167  2.5390  1.3063
 4853SOL     OW26191   3.219   4.140   3.948  0.0660  0.6253 -0.5601
 4853SOL    HW126192   3.262   4.157   3.864  0.9124  2.5820  0.2837
 4853SOL    HW226193   3.291   4.100   3.997  1.0073  0.0028 -2.4487
 4854SOL     OW26194   1.650   4.067   7.959 -0.2450 -0.0803  0.4104
 4854SOL    HW126195   1.670   4.146   8.010 -3.8126  2.2270 -1.7103
 4854SOL    HW226196   1.559   4.085   7.933  0.2224  0.3743 -0.9242
 4855SOL     OW26197   3.490   0.932   9.098  0.1877  0.1172  0.6492
 4855SOL    HW126198   3.444   1.002   9.051 -0.5334 -1.0496 -0.3698
 4855SOL    HW226199   3.513   0.881   9.020 -0.7548  0.8552 -0.1147
 4856SOL     OW26200   1.905   1.421  12.627  0.2130 -0.7872 -0.3332
 4856SOL    HW126201   1.825   1.457  12.588  1.6952  1.7486 -1.0045
 4856SOL    HW226202   1.938   1.504  12.661 -0.1138 -0.6273 -0.4028
 4857SOL     OW26203   2.163   4.738  16.368  0.3102 -0.1632  0.1705
 4857SOL    HW126204   2.257   4.719  16.364  0.3564 -0.0674  0.7606
 4857SOL    HW226205   2.145   4.688  16.289  1.0339 -0.2383  0.0522
 4858SOL     OW26206   1.808   3.966   9.548  0.2668  0.7018  0.2574
 4858SOL    HW126207   1.831   3.910   9.474 -3.0406  0.9117 -0.9598
 4858SOL    HW226208   1.807   3.898   9.615  0.7417 -0.6927 -1.1361
 4859SOL     OW26209   1.739   4.095   1.672 -0.4733  0.5743  0.3271
 4859SOL    HW126210   1.651   4.122   1.699 -0.6645 -0.0541  0.3193
 4859SOL    HW226211   1.711   4.012   1.635  0.9398 -0.5790  1.8594
 4860SOL     OW26212   2.363   3.042   6.091  0.1827  0.2449  0.3091
 4860SOL    HW126213   2.441   3.088   6.061  0.6042  1.2591  2.9965
 4860SOL    HW226214   2.312   3.110   6.135 -1.9078 -0.7472 -0.5977
 4861SOL     OW26215   4.149   0.654  12.573  0.2990  0.7387  0.3709
 4861SOL    HW126216   4.151   0.594  12.499 -0.4415  1.4890 -0.2588
 4861SOL    HW226217   4.054   0.655  12.584  0.3585  0.7128  0.8900
 4862SOL     OW26218   1.661   3.122   9.259  0.0601  0.0244  0.6052
 4862SOL    HW126219   1.712   3.042   9.269 -1.5316 -0.7744  2.2186
 4862SOL    HW226220   1.676   3.159   9.172  0.6142  0.3512  0.8403
 4863SOL     OW26221   3.941   0.699   2.040  0.0024 -0.1510 -0.0701
 4863SOL    HW126222   3.908   0.717   2.128  0.2585 -0.8294  0.1672
 4863SOL    HW226223   3.925   0.784   2.001  0.0139  0.4610  1.2735
 4864SOL     OW26224   3.402   2.030   3.072 -0.1781  0.1491  0.2255
 4864SOL    HW126225   3.436   2.002   3.157 -2.3008 -1.8447  0.4169
 4864SOL    HW226226   3.318   2.049   3.116  1.4113  0.4139  3.1448
 4865SOL     OW26227   3.117   4.427  14.430  0.3578 -0.1606 -0.1375
 4865SOL    HW126228   3.152   4.493  14.490 -1.7684 -0.4684  1.4056
 4865SOL    HW226229   3.025   4.451  14.424  0.3706 -0.2159 -0.5241
 4866SOL     OW26230   1.398   4.564   5.036 -0.5306 -0.1331  0.4904
 4866SOL    HW126231   1.363   4.495   4.980 -1.2194  0.2646  0.4202
 4866SOL    HW226232   1.334   4.631   5.012 -2.7643 -2.9716 -1.4510
 4867SOL     OW26233   0.019   4.089   9.224 -0.5356  0.5420 -0.3141
 4867SOL    HW126234   4.698   4.020   9.201 -1.0276  1.3380 -1.3789
 4867SOL    HW226235   0.097   4.038   9.202 -0.9794 -0.5757  0.7300
 4868SOL     OW26236   2.396   2.982  14.247 -0.4341 -0.2747 -0.2497
 4868SOL    HW126237   2.446   3.045  14.195 -0.0077 -0.3004  0.1229
 4868SOL    HW226238   2.416   2.898  14.206  1.3328  0.4286 -0.8241
 4869SOL     OW26239   2.830   0.615   4.804  0.2829  0.0895 -0.3449
 4869SOL    HW126240   2.828   0.519   4.798  0.9243 -0.0095  1.0796
 4869SOL    HW226241   2.914   0.637   4.846 -1.0343  0.4666  2.0674
 4870SOL     OW26242   2.088   2.035   2.749 -0.0345  0.5482  0.2872
 4870SOL    HW126243   2.121   2.008   2.835  0.4795  2.3933  0.6632
 4870SOL    HW226244   2.157   2.021   2.683  0.2679  0.5027  0.6118
 4871SOL     OW26245   3.764   0.842   1.035  0.1297 -0.0603  1.3077
 4871SOL    HW126246   3.774   0.932   1.066 -1.4648  0.9943 -1.1625
 4871SOL    HW226247   3.857   0.837   1.013  0.4999 -0.7207  3.0415
 4872SOL     OW26248   3.659   2.946  12.477 -0.2891 -0.4810 -1.1117
 4872SOL    HW126249   3.601   2.992  12.417 -2.7147 -1.3968  0.5115
 4872SOL    HW226250   3.700   3.028  12.503  0.3229 -1.6697  1.6768
 4873SOL     OW26251   3.807   0.828   7.947 -0.1381  0.0297  0.2012
 4873SOL    HW126252   3.715   0.853   7.955 -0.4812 -1.2637  0.2259
 4873SOL    HW226253   3.799   0.734   7.932 -0.1559  0.1747 -0.7525
 4874SOL     OW26254   2.627   2.689  17.734 -0.2442  0.5345 -0.1981
 4874SOL    HW126255   2.538   2.652  17.733 -0.6774  1.5433  0.6140
 4874SOL    HW226256   2.663   2.668  17.647 -1.0675 -0.5363 -0.2869
 4875SOL     OW26257   0.646   2.052  15.361  0.5635 -0.0661  0.2326
 4875SOL    HW126258   0.647   1.957  15.369  2.2910  0.0930  2.1812
 4875SOL    HW226259   0.715   2.065  15.296  1.1431 -1.4342  0.5749
 4876SOL     OW26260   2.251   2.155   5.672 -0.3041 -0.8053  0.3580
 4876SOL    HW126261   2.280   2.204   5.595  0.2179 -0.8550  0.5199
 4876SOL    HW226262   2.159   2.141   5.653 -0.1973 -0.9963 -0.0125
 4877SOL     OW26263   0.659   3.903   4.261  0.1504 -0.2620 -0.2580
 4877SOL    HW126264   0.677   3.950   4.342  0.8243  0.5854 -0.9034
 4877SOL    HW226265   0.661   3.811   4.285 -0.5728  0.1774  1.5148
 4878SOL     OW26266   3.026   0.718   6.985 -0.4410  0.2789 -0.6885
 4878SOL    HW126267   2.951   0.760   7.028 -1.8236 -0.4966 -2.3424
 4878SOL    HW226268   3.095   0.778   7.013 -0.4729 -0.2305  0.5047
 4879SOL     OW26269   0.899   2.380   6.303 -0.0709  0.0913  0.1843
 4879SOL    HW126270   0.986   2.366   6.340 -1.7087 -0.9030  3.6649
 4879SOL    HW226271   0.868   2.450   6.361  0.8012  2.4201 -2.1692
 4880SOL     OW26272   0.669   1.303   4.113  0.5621  0.5050  0.6440
 4880SOL    HW126273   0.601   1.236   4.126 -1.6125  2.2293 -1.8553
 4880SOL    HW226274   0.638   1.374   4.169 -1.8181  0.7281 -0.9285
 4881SOL     OW26275   2.200   2.158   6.991  0.0940 -0.1602 -0.0148
 4881SOL    HW126276   2.295   2.170   6.989  0.2342 -1.1530  0.4165
 4881SOL    HW226277   2.195   2.075   6.944 -0.0686  1.4546 -2.8106
 4882SOL     OW26278   2.421   3.663  12.778  0.1161 -0.2870  0.1274
 4882SOL    HW126279   2.352   3.654  12.713 -0.1518  0.8809  0.2577
 4882SOL    HW226280   2.391   3.743  12.821  0.3032 -1.6882  2.8620
 4883SOL     OW26281   2.957   1.863  11.382 -0.1013 -0.4564 -0.3682
 4883SOL    HW126282   3.041   1.841  11.342 -0.0645 -1.4863  0.2730
 4883SOL    HW226283   2.966   1.809  11.461  0.1031 -1.5599 -1.1376
 4884SOL     OW26284   3.046   4.059   9.647 -0.0171 -0.4334 -0.2472
 4884SOL    HW126285   2.987   4.081   9.719  1.0805  0.4531  0.3838
 4884SOL    HW226286   2.985   4.026   9.581  0.4906 -1.2992 -0.2865
 4885SOL     OW26287   4.529   1.135   3.936 -0.1482  0.1914  0.3788
 4885SOL    HW126288   4.438   1.104   3.940 -0.3803  0.3132 -4.4864
 4885SOL    HW226289   4.560   1.072   4.001  1.4906  0.3465 -0.2566
 4886SOL     OW26290   1.854   4.551  10.304 -0.4824 -0.3695  0.6953
 4886SOL    HW126291   1.929   4.493  10.313 -0.0005  0.1194 -0.2023
 4886SOL    HW226292   1.779   4.492  10.308  0.8347 -1.9994  1.1309
 4887SOL     OW26293   0.286   1.494  15.510  0.1870  0.5569 -0.2127
 4887SOL    HW126294   0.232   1.530  15.439 -1.6349  1.1614  1.4756
 4887SOL    HW226295   0.237   1.415  15.534 -0.3545  0.6244 -1.0711
 4888SOL     OW26296   2.769   3.896   2.800  0.7859  0.0881  0.3596
 4888SOL    HW126297   2.864   3.892   2.788  0.6415  0.0686 -0.6956
 4888SOL    HW226298   2.780   3.950   2.879  1.1720  3.1860 -1.8246
 4889SOL     OW26299   2.194   0.469   5.117 -0.7466 -0.7711  0.6162
 4889SOL    HW126300   2.125   0.453   5.052  0.5917 -3.9227 -0.0217
 4889SOL    HW226301   2.263   0.410   5.087  0.1351 -0.9746  3.0279
 4890SOL     OW26302   2.555   4.430  16.328  0.2167  0.0231  0.1699
 4890SOL    HW126303   2.463   4.404  16.331  0.2981 -0.1481  1.1107
 4890SOL    HW226304   2.553   4.519  16.363 -3.2444 -0.2367  0.7200
 4891SOL     OW26305   4.262   0.306   8.718 -0.1944 -0.2572  0.0335
 4891SOL    HW126306   4.248   0.382   8.775  0.5384 -1.4231  1.7789
 4891SOL    HW226307   4.177   0.264   8.720 -0.4971  0.4232  1.7139
 4892SOL     OW26308   4.575   2.878   7.431 -0.8723 -0.0154 -0.3117
 4892SOL    HW126309   4.626   2.895   7.351 -0.9118  0.6110 -0.2045
 4892SOL    HW226310   4.632   2.815   7.474 -1.4495  0.7390  1.5556
 4893SOL     OW26311   2.282   2.051   7.560 -0.0278  1.2746 -0.1562
 4893SOL    HW126312   2.345   2.086   7.623  1.8229  1.7086 -2.2662
 4893SOL    HW226313   2.331   1.993   7.503 -2.0513 -0.2121 -0.3762
 4894SOL     OW26314   4.449   2.183   5.239 -0.0586 -0.5116 -0.2141
 4894SOL    HW126315   4.403   2.266   5.228  0.0677 -0.5241 -0.8652
 4894SOL    HW226316   4.511   2.206   5.308  0.5772 -0.7773 -0.6849
 4895SOL     OW26317   1.831   4.442   1.374 -0.0640  0.7152 -0.0572
 4895SOL    HW126318   1.874   4.412   1.294  1.4459  0.8093  0.7125
 4895SOL    HW226319   1.745   4.401   1.362 -0.5501  1.3874  1.2097
 4896SOL     OW26320   4.189   2.346  17.561  0.4784  0.4370 -0.4618
 4896SOL    HW126321   4.276   2.350  17.522  0.8261 -2.1379  0.0909
 4896SOL    HW226322   4.201   2.416  17.625  3.3551  1.9978 -2.6858
 4897SOL     OW26323   1.584   4.726   2.870 -0.1213  0.0408 -0.0596
 4897SOL    HW126324   1.637   4.725   2.950 -0.6879 -0.7535  0.3016
 4897SOL    HW226325   1.584   0.079   2.853 -1.7011 -0.0851 -0.7841
 4898SOL     OW26326   2.527   2.594   6.619  0.0980 -0.2571  0.1724
 4898SOL    HW126327   2.606   2.582   6.567  1.1938  1.1762  1.5033
 4898SOL    HW226328   2.454   2.595   6.556 -1.4314 -2.5035  1.8905
 4899SOL     OW26329   3.076   3.668   3.394  0.2357  0.4279 -0.0196
 4899SOL    HW126330   3.080   3.649   3.300  0.8423  0.2008  0.0490
 4899SOL    HW226331   2.996   3.623   3.421  0.9389  1.5527  3.9400
 4900SOL     OW26332   1.343   2.788   6.515  0.7700  0.0339  0.0827
 4900SOL    HW126333   1.335   2.847   6.440  0.1810 -0.9037 -0.5860
 4900SOL    HW226334   1.432   2.757   6.500  0.3681 -0.7162 -0.7469
 4901SOL     OW26335   0.076   0.930   8.464 -0.3017  0.0091 -0.4198
 4901SOL    HW126336   0.047   0.951   8.375 -0.5787 -0.5348 -0.4576
 4901SOL    HW226337   0.098   0.838   8.450  2.0647  0.4461  0.5367
 4902SOL     OW26338   1.195   2.176   5.046 -0.7509  0.2643 -0.3174
 4902SOL    HW126339   1.135   2.224   5.103  0.0705 -1.6175  2.1198
 4902SOL    HW226340   1.220   2.108   5.108 -0.1712  0.2397 -0.5823
 4903SOL     OW26341   2.583   4.338   6.377 -0.1735  1.0346 -0.0862
 4903SOL    HW126342   2.540   4.253   6.365 -0.6846  1.3550 -0.5350
 4903SOL    HW226343   2.674   4.315   6.356 -0.0815  0.7280  0.6363
 4904SOL     OW26344   0.749   3.792   4.652 -0.0657 -0.4418  0.1850
 4904SOL    HW126345   0.828   3.779   4.704  1.1753 -0.0114 -1.5681
 4904SOL    HW226346   0.692   3.719   4.674 -0.3315 -0.5044 -0.6850
 4905SOL     OW26347   2.276   4.532   4.512  0.1662  0.3748  0.5864
 4905SOL    HW126348   2.289   4.543   4.418  1.4246  0.2706  0.7498
 4905SOL    HW226349   2.363   4.495   4.530 -0.2648  0.2335  2.3600
 4906SOL     OW26350   2.040   3.109   3.610  0.4429 -0.5716 -0.0485
 4906SOL    HW126351   2.032   3.049   3.535 -0.1553  0.3832 -0.7505
 4906SOL    HW226352   2.059   3.188   3.560  2.4805 -1.2525 -0.3676
 4907SOL     OW26353   2.620   0.890   9.164  0.3154  0.2011  0.5615
 4907SOL    HW126354   2.526   0.888   9.180  0.2820 -1.4938  0.2264
 4907SOL    HW226355   2.657   0.865   9.249  1.4828 -1.0320 -0.2990
 4908SOL     OW26356   4.313   1.335   3.572  0.0815  0.3606  0.3772
 4908SOL    HW126357   4.226   1.296   3.566 -0.1043  0.6903  0.9579
 4908SOL    HW226358   4.340   1.347   3.481 -1.1869 -0.1135 -0.0715
 4909SOL     OW26359   2.187   4.162   9.558 -0.1922  0.0711  0.6814
 4909SOL    HW126360   2.144   4.124   9.481  2.6040 -0.1420 -0.7640
 4909SOL    HW226361   2.265   4.107   9.551 -0.2892  0.0890 -0.7310
 4910SOL     OW26362   2.772   4.491   1.370  0.1213  0.2153  0.0520
 4910SOL    HW126363   2.778   4.500   1.275 -0.3002 -0.8227 -0.0809
 4910SOL    HW226364   2.699   4.547   1.397 -0.6646 -0.3363 -0.9196
 4911SOL     OW26365   1.319   2.124   8.184  0.0234  0.0302 -0.2513
 4911SOL    HW126366   1.246   2.080   8.226 -0.1776  0.4477 -0.1683
 4911SOL    HW226367   1.337   2.070   8.107  2.3213  0.5369 -0.0804
 4912SOL     OW26368   0.291   3.626   3.234  0.1945 -0.0400 -0.1830
 4912SOL    HW126369   0.237   3.558   3.194  0.2843  0.0006 -0.3713
 4912SOL    HW226370   0.366   3.576   3.266  0.5271  0.3806 -0.3054
 4913SOL     OW26371   1.120   3.771   9.251 -0.1091 -0.0956  0.5824
 4913SOL    HW126372   1.133   3.783   9.345  0.1938 -0.0260  0.5307
 4913SOL    HW226373   1.205   3.730   9.236 -0.2368 -0.4776  0.9011
 4914SOL     OW26374   0.343   4.332   0.864 -0.0257 -0.1128  0.1402
 4914SOL    HW126375   0.271   4.275   0.836 -1.3553  0.3467  2.6534
 4914SOL    HW226376   0.352   4.385   0.784 -2.4179 -0.2491 -0.2168
 4915SOL     OW26377   3.256   2.141   1.334 -0.3638  0.1829 -0.0997
 4915SOL    HW126378   3.172   2.102   1.360 -0.7590 -0.7203 -2.6720
 4915SOL    HW226379   3.274   2.104   1.248 -2.1315  0.2294 -0.4995
 4916SOL     OW26380   3.270   1.264   3.800  0.2356 -0.4486 -0.5007
 4916SOL    HW126381   3.345   1.324   3.809 -3.1238  3.7016 -0.3472
 4916SOL    HW226382   3.247   1.275   3.707 -1.4514 -0.0113 -0.0238
 4917SOL     OW26383   4.031   3.298  14.530  0.2997 -0.0773 -0.2095
 4917SOL    HW126384   4.049   3.225  14.471  0.4759  1.0325 -1.5290
 4917SOL    HW226385   4.098   3.358  14.496 -1.7761  0.7534 -2.7615
 4918SOL     OW26386   1.523   3.557   6.685 -0.1566 -0.3725 -0.0745
 4918SOL    HW126387   1.496   3.469   6.659  0.8954 -0.7489  0.1297
 4918SOL    HW226388   1.549   3.551   6.776  0.1314 -0.4609 -0.1643
 4919SOL     OW26389   1.172   3.290   2.143  0.3126 -0.3393 -0.0535
 4919SOL    HW126390   1.124   3.341   2.077 -0.6309 -0.7838  0.2925
 4919SOL    HW226391   1.197   3.367   2.194 -2.8492  1.6993 -1.6016
 4920SOL     OW26392   0.687   3.020   2.851  0.6035  0.2765 -0.5882
 4920SOL    HW126393   0.635   2.965   2.910  0.3873 -0.0018 -1.0444
 4920SOL    HW226394   0.630   3.093   2.829  2.2467  2.3086  1.8247
 4921SOL     OW26395   0.920   4.472   9.442  0.2429  0.1792  0.3060
 4921SOL    HW126396   0.854   4.533   9.409  1.0807  0.8659 -0.1005
 4921SOL    HW226397   0.920   4.500   9.534  1.3041  1.5045 -0.0921
 4922SOL     OW26398   1.901   2.125   7.037  0.4927 -0.4846 -0.2246
 4922SOL    HW126399   1.893   2.191   6.969  0.1676 -1.9201 -1.5979
 4922SOL    HW226400   1.997   2.123   7.032  0.6065 -0.5540  1.8430
 4923SOL     OW26401   4.093   2.685   4.896  0.2689  0.8192  0.3898
 4923SOL    HW126402   4.154   2.613   4.880  1.2217  1.4674  1.1248
 4923SOL    HW226403   4.014   2.631   4.902 -0.6156  1.8804 -1.6914
 4924SOL     OW26404   1.947   4.451  15.806  0.0661  0.1006 -1.0291
 4924SOL    HW126405   1.871   4.430  15.753  0.0571 -1.6170 -0.3356
 4924SOL    HW226406   1.898   4.500  15.873 -0.5813 -0.8957 -0.7833
 4925SOL     OW26407   3.563   0.558  16.389  0.6631 -0.0858  0.4572
 4925SOL    HW126408   3.573   0.481  16.333 -0.5827  0.1615 -0.1131
 4925SOL    HW226409   3.594   0.525  16.473  0.1276 -0.1165  0.6446
 4926SOL     OW26410   1.803   3.218   5.539 -0.2670 -0.5728  0.1968
 4926SOL    HW126411   1.752   3.141   5.563 -2.2742  0.9639  0.8744
 4926SOL    HW226412   1.809   3.269   5.620  1.3006  1.7446 -1.3735
 4927SOL     OW26413   3.455   3.950   8.200 -0.6957 -0.3836 -0.3992
 4927SOL    HW126414   3.362   3.957   8.183 -0.0027  2.0381 -3.1766
 4927SOL    HW226415   3.463   3.861   8.234 -0.2185 -0.0193  0.4632
 4928SOL     OW26416   1.055   0.685   6.483 -0.2768  0.1464  0.4772
 4928SOL    HW126417   1.010   0.693   6.568  0.3616 -1.5403  0.9904
 4928SOL    HW226418   1.096   0.771   6.481 -0.2264  0.1003 -0.3644
 4929SOL     OW26419   0.350   4.345   2.629  0.3502 -0.3772  0.1062
 4929SOL    HW126420   0.295   4.351   2.551  2.0419  3.0581 -0.8258
 4929SOL    HW226421   0.378   4.437   2.624  0.0323 -0.1636  2.2553
 4930SOL     OW26422   1.874   2.388  11.095  0.0262 -0.2782  0.0561
 4930SOL    HW126423   1.877   2.373  11.189  0.9988  3.5827  0.6154
 4930SOL    HW226424   1.819   2.316  11.063 -1.0559 -0.0618  1.4616
 4931SOL     OW26425   4.378   0.282   9.088  0.5335  0.0541  0.5199
 4931SOL    HW126426   4.431   0.362   9.082 -0.7632  0.8467 -0.3462
 4931SOL    HW226427   4.390   0.253   9.178 -1.7969  2.2809  1.5570
 4932SOL     OW26428   3.803   2.392   6.910  0.4003  0.0028 -1.0379
 4932SOL    HW126429   3.813   2.342   6.991 -2.4247  0.2216 -0.5831
 4932SOL    HW226430   3.874   2.356   6.857  0.2688  0.0224 -1.2276
 4933SOL     OW26431   1.670   3.827   1.628  0.2058  0.4822 -0.2926
 4933SOL    HW126432   1.578   3.801   1.640  1.3038 -1.6911  3.2770
 4933SOL    HW226433   1.723   3.750   1.650 -2.0258 -0.8382  0.4906
 4934SOL     OW26434   2.540   2.417  17.141  0.0678 -0.6046 -0.2828
 4934SOL    HW126435   2.532   2.496  17.196 -0.7770  0.3992 -1.8277
 4934SOL    HW226436   2.494   2.450  17.063 -0.8832 -3.3107 -0.8570
 4935SOL     OW26437   1.695   4.195   5.267 -0.1357  0.0829 -0.2314
 4935SOL    HW126438   1.667   4.237   5.348  1.2265  0.4316  0.0528
 4935SOL    HW226439   1.638   4.228   5.197 -1.9693 -3.5145 -0.4303
 4936SOL     OW26440   1.416   0.693   2.703 -0.0077  0.5778  0.0625
 4936SOL    HW126441   1.512   0.701   2.701 -0.0311  0.2250 -1.7874
 4936SOL    HW226442   1.395   0.754   2.774 -1.0594  1.1727 -0.7713
 4937SOL     OW26443   4.376   3.459   7.312 -0.4167 -0.0077  0.3986
 4937SOL    HW126444   4.362   3.396   7.241 -3.4776  0.1572  0.8521
 4937SOL    HW226445   4.463   3.428   7.335 -1.3926 -3.8507 -1.1535
 4938SOL     OW26446   0.278   3.081   3.786  0.1422 -0.0985  0.0536
 4938SOL    HW126447   0.316   3.047   3.705  1.5209  0.5700  0.4142
 4938SOL    HW226448   0.347   3.061   3.850  0.8966  0.2270 -0.6599
 4939SOL     OW26449   3.498   2.259   5.339  0.0177 -0.0130  0.1057
 4939SOL    HW126450   3.525   2.230   5.252 -0.1303  1.6898 -0.5078
 4939SOL    HW226451   3.467   2.177   5.377 -1.2635 -0.0888 -1.0773
 4940SOL     OW26452   3.713   2.059   9.330 -0.2661 -0.0781 -0.0228
 4940SOL    HW126453   3.755   2.000   9.392  1.9023 -0.6405 -2.0498
 4940SOL    HW226454   3.785   2.121   9.321 -0.5926  0.0980 -1.5235
 4941SOL     OW26455   1.818   0.451   7.437  0.0887 -0.3652 -0.2233
 4941SOL    HW126456   1.876   0.376   7.448  1.9074  1.3382  1.8984
 4941SOL    HW226457   1.820   0.474   7.344  1.3998  2.8052  0.5682
 4942SOL     OW26458   1.287   1.385  14.226  0.1682 -0.1120 -0.2300
 4942SOL    HW126459   1.244   1.340  14.153 -0.1705  1.4300 -0.9798
 4942SOL    HW226460   1.270   1.320  14.294 -1.5691  1.8638  1.2091
 4943SOL     OW26461   1.292   0.395  16.646 -0.1248 -0.1059 -0.0922
 4943SOL    HW126462   1.279   0.402  16.551  0.7819  2.5618 -0.0135
 4943SOL    HW226463   1.270   0.302  16.653  1.4922 -0.3028  2.1360
 4944SOL     OW26464   4.532   0.037   9.245  0.3665  0.2281 -0.5003
 4944SOL    HW126465   4.562   4.701   9.198 -0.0903  0.1463 -0.6518
 4944SOL    HW226466   4.442   0.013   9.267 -0.0875  3.7050  1.4891
 4945SOL     OW26467   2.899   2.824   3.163 -0.2760 -0.3568 -0.2538
 4945SOL    HW126468   2.994   2.829   3.175  0.0433 -1.5462 -2.3246
 4945SOL    HW226469   2.880   2.846   3.072  0.3450  0.2557 -0.2326
 4946SOL     OW26470   3.190   1.399   6.071  0.1918  0.0860  0.3534
 4946SOL    HW126471   3.191   1.451   6.151 -1.3010  0.4360  0.1532
 4946SOL    HW226472   3.106   1.421   6.030  0.3175 -0.5717 -0.2538
 4947SOL     OW26473   4.230   3.338   2.214 -0.5321  0.3063  0.3339
 4947SOL    HW126474   4.165   3.389   2.165 -1.2553 -1.3267 -0.4132
 4947SOL    HW226475   4.215   3.250   2.178 -0.5031  0.2927  0.3556
 4948SOL     OW26476   3.709   2.239   4.144 -0.6658  0.2022 -0.3591
 4948SOL    HW126477   3.639   2.296   4.110  0.8258  1.7118 -0.8576
 4948SOL    HW226478   3.738   2.294   4.216 -0.3136 -0.8649  0.3089
 4949SOL     OW26479   0.008   0.608   6.857  0.3582  0.5110 -0.4481
 4949SOL    HW126480   4.699   0.686   6.879  0.3110  1.0827 -2.5406
 4949SOL    HW226481   4.729   0.550   6.931  0.1636  2.5163  1.0510
 4950SOL     OW26482   3.183   1.662  13.475 -0.3730  0.4693  0.2933
 4950SOL    HW126483   3.215   1.748  13.504  2.4638 -0.6019  0.2950
 4950SOL    HW226484   3.182   1.647  13.381 -0.6908 -2.9188  0.8640
 4951SOL     OW26485   2.778   0.217  13.549  0.7567  0.3351 -0.3814
 4951SOL    HW126486   2.731   0.232  13.468 -1.3859  3.1534  1.3992
 4951SOL    HW226487   2.797   0.123  13.544  0.6803  0.1125  3.3395
 4952SOL     OW26488   4.736   3.166  15.433  0.4888  0.2221 -0.3784
 4952SOL    HW126489   4.665   3.171  15.369 -0.0908 -0.1540  0.2281
 4952SOL    HW226490   0.039   3.250  15.422 -0.2281  0.8639  1.5282
 4953SOL     OW26491   2.389   1.133  13.159  0.1954 -0.8225  0.0932
 4953SOL    HW126492   2.382   1.045  13.198 -0.1277  0.0146  1.9239
 4953SOL    HW226493   2.388   1.194  13.233  2.2716 -1.0039  0.2882
 4954SOL     OW26494   0.444   2.767   5.999 -0.3337 -0.0837 -0.7000
 4954SOL    HW126495   0.476   2.849   6.035 -2.2950  0.1844  0.4337
 4954SOL    HW226496   0.527   2.727   5.975 -0.5314 -0.5894 -0.5557
 4955SOL     OW26497   3.606   1.879   1.917 -0.0494  0.3735 -0.3872
 4955SOL    HW126498   3.647   1.800   1.881 -0.1552 -0.6339  1.6654
 4955SOL    HW226499   3.552   1.917   1.847  0.2591  3.2808  0.9496
 4956SOL     OW26500   4.681   1.558   3.384  0.2246  0.0027 -0.0030
 4956SOL    HW126501   0.033   1.552   3.360  0.0880  0.0792 -0.5678
 4956SOL    HW226502   4.639   1.485   3.338 -1.0957  0.8824 -0.1921
 4957SOL     OW26503   1.618   2.710   6.810  0.4313 -0.2925  0.4885
 4957SOL    HW126504   1.593   2.654   6.737 -1.3871 -0.5818  1.3421
 4957SOL    HW226505   1.654   2.634   6.856 -0.7189 -0.6429  0.8117
 4958SOL     OW26506   0.812   4.512   8.086 -0.0391 -0.2066 -0.0230
 4958SOL    HW126507   0.768   4.587   8.126 -0.5543 -0.6053  0.1504
 4958SOL    HW226508   0.862   4.563   8.022 -1.0515  0.7677 -0.0426
 4959SOL     OW26509   2.425   2.810  12.961  0.4665  0.1588  0.2261
 4959SOL    HW126510   2.388   2.871  13.024 -1.9142 -1.5872  0.5164
 4959SOL    HW226511   2.386   2.725  12.982 -1.1726  1.2708  1.6105
 4960SOL     OW26512   3.598   3.892   4.490 -0.3145  0.1300 -0.2408
 4960SOL    HW126513   3.630   3.963   4.545 -0.4885  0.7061 -0.8863
 4960SOL    HW226514   3.512   3.931   4.471  0.1731  1.0562 -0.5460
 4961SOL     OW26515   2.799   2.499   7.791  0.3434 -0.5832 -0.3255
 4961SOL    HW126516   2.771   2.439   7.860 -1.2780  1.5371  0.8633
 4961SOL    HW226517   2.755   2.579   7.821  0.4896  0.0597 -1.8123
 4962SOL     OW26518   0.743   1.335   2.628 -0.0614  0.6453  0.2302
 4962SOL    HW126519   0.755   1.356   2.721  0.2562 -0.1644  0.3709
 4962SOL    HW226520   0.650   1.313   2.625  0.1570 -0.3332  0.9039
 4963SOL     OW26521   3.274   2.152   4.834 -0.3921 -0.4065  0.2575
 4963SOL    HW126522   3.358   2.106   4.835  0.1155  0.5215  0.3066
 4963SOL    HW226523   3.228   2.111   4.907 -1.0519 -0.3174 -0.1082
 4964SOL     OW26524   0.376   0.875  13.816  0.1371 -0.0654  0.0648
 4964SOL    HW126525   0.326   0.850  13.894  0.1007 -1.0319 -0.2605
 4964SOL    HW226526   0.454   0.821  13.826 -0.2591 -0.4830  0.9011
 4965SOL     OW26527   0.390   4.468  11.488  0.0789 -0.1097  0.7193
 4965SOL    HW126528   0.357   4.519  11.414 -0.4368 -0.7767  0.4871
 4965SOL    HW226529   0.472   4.516  11.503  0.3548 -0.4914  0.4195
 4966SOL     OW26530   3.288   3.556  15.545 -0.0138 -0.0620  0.6631
 4966SOL    HW126531   3.348   3.538  15.472 -0.9327  0.4454 -0.2271
 4966SOL    HW226532   3.208   3.549  15.492  0.8220 -0.9557 -0.4967
 4967SOL     OW26533   3.435   0.246   8.141 -0.2440  0.2842  0.0032
 4967SOL    HW126534   3.416   0.153   8.153 -0.3269  0.6633  2.6537
 4967SOL    HW226535   3.434   0.271   8.233 -0.1078  2.5897 -0.6169
 4968SOL     OW26536   2.934   3.342  15.184  0.1990  0.0293  0.0602
 4968SOL    HW126537   2.886   3.311  15.107 -0.4502  0.5038  0.2814
 4968SOL    HW226538   2.862   3.371  15.240 -0.6109 -0.4085 -0.7609
 4969SOL     OW26539   2.221   3.868  11.714  0.0777 -0.5007  0.4664
 4969SOL    HW126540   2.173   3.937  11.667 -1.1288 -1.0744  0.8837
 4969SOL    HW226541   2.230   3.803  11.644 -0.2797  0.5090 -0.5298
 4970SOL     OW26542   2.205   1.757   9.781  0.1992  0.3312  0.7510
 4970SOL    HW126543   2.179   1.727   9.868 -0.0892  1.2761  0.9840
 4970SOL    HW226544   2.276   1.700   9.750  0.0628  0.8728 -0.5598
 4971SOL     OW26545   4.680   0.115   2.226 -0.1432  0.0371 -0.3552
 4971SOL    HW126546   0.001   0.178   2.189  0.8845 -0.9024 -0.1994
 4971SOL    HW226547   4.740   0.042   2.234 -0.8148 -0.5712 -0.7918
 4972SOL     OW26548   3.389   1.816   3.684 -0.7819 -0.4233 -0.0878
 4972SOL    HW126549   3.399   1.819   3.780  0.9261  2.0997 -0.3766
 4972SOL    HW226550   3.415   1.728   3.656  1.1638  1.0237 -2.6945
 4973SOL     OW26551   3.979   1.166  12.955 -0.3333  0.7836  0.2114
 4973SOL    HW126552   3.977   1.085  12.904 -0.0674  1.5978 -1.0799
 4973SOL    HW226553   3.897   1.204  12.923  0.0266 -0.0620 -1.7140
 4974SOL     OW26554   3.801   4.426   0.385  0.0619  0.6228  0.1599
 4974SOL    HW126555   3.712   4.462   0.378  0.5568  1.7788 -0.1471
 4974SOL    HW226556   3.841   4.460   0.305 -1.0199  1.5422  0.0071
 4975SOL     OW26557   1.512   3.237   0.123 -0.2956  0.2811  0.3796
 4975SOL    HW126558   1.576   3.301   0.092  2.6509 -2.7664  0.2809
 4975SOL    HW226559   1.445   3.249   0.055 -0.7594  0.7701  0.9270
 4976SOL     OW26560   1.058   4.331   1.407 -0.1754  0.1816 -0.3808
 4976SOL    HW126561   1.019   4.309   1.491  1.6694  0.3411  0.5121
 4976SOL    HW226562   1.150   4.323   1.432 -0.1798 -2.4154 -1.2098
 4977SOL     OW26563   0.182   2.738   5.664  0.1334  0.2860 -0.3921
 4977SOL    HW126564   0.242   2.805   5.631  0.2667  0.4281  0.1280
 4977SOL    HW226565   0.237   2.673   5.708  1.4896  1.0710 -0.9288
 4978SOL     OW26566   2.409   2.114   1.860 -0.9805  0.2634  0.0508
 4978SOL    HW126567   2.402   2.209   1.847  0.1302  0.2555 -0.5911
 4978SOL    HW226568   2.354   2.101   1.938 -0.9306 -1.1768 -0.1549
 4979SOL     OW26569   1.303   3.042  11.972 -0.0285 -0.2148 -0.5774
 4979SOL    HW126570   1.367   2.972  11.982 -0.4936 -0.6639 -0.7552
 4979SOL    HW226571   1.291   3.044  11.877  0.3927 -0.4282 -0.6368
 4980SOL     OW26572   4.686   2.925   8.508  0.0944 -0.2612 -0.1677
 4980SOL    HW126573   4.607   2.955   8.463 -1.7147 -2.1597  1.8012
 4980SOL    HW226574   0.004   2.907   8.434 -1.1760 -2.2222 -0.7030
 4981SOL     OW26575   3.854   1.491  12.393 -0.2259 -0.6473 -0.0516
 4981SOL    HW126576   3.875   1.468  12.303  1.3872 -1.1745  0.4561
 4981SOL    HW226577   3.774   1.439  12.404 -0.1277 -1.2010 -2.0451
 4982SOL     OW26578   4.682   2.996   2.730 -0.1785 -0.1787  0.0823
 4982SOL    HW126579   4.663   2.917   2.679  3.0092 -1.1831  0.4794
 4982SOL    HW226580   0.016   3.033   2.683  0.8015 -0.4206  1.4702
 4983SOL     OW26581   2.239   3.249   9.530  0.3464  0.8129  0.3668
 4983SOL    HW126582   2.172   3.197   9.574  0.1634  0.8511  0.1335
 4983SOL    HW226583   2.319   3.196   9.534 -0.6255 -0.7244 -0.1274
 4984SOL     OW26584   1.401   1.405  17.166 -0.1237  0.3948  0.3704
 4984SOL    HW126585   1.483   1.378  17.208  0.7931  3.8435  0.7842
 4984SOL    HW226586   1.349   1.397  17.246 -0.5504  0.5011  0.1043
 4985SOL     OW26587   2.832   0.981  10.883  0.1815  0.4294  0.2695
 4985SOL    HW126588   2.855   1.005  10.973  2.0908  0.7793 -0.3064
 4985SOL    HW226589   2.754   0.928  10.903  0.6681 -0.3952 -0.0111
 4986SOL     OW26590   0.378   1.261   6.724 -0.1896 -0.3456  0.2612
 4986SOL    HW126591   0.446   1.279   6.789 -0.9052 -0.8362  1.1620
 4986SOL    HW226592   0.300   1.275   6.779  0.9540 -0.8322  1.9998
 4987SOL     OW26593   0.554   1.464   8.028 -0.0224  0.1762 -0.3774
 4987SOL    HW126594   0.630   1.523   8.037 -1.4396  1.8074  1.0282
 4987SOL    HW226595   0.595   1.404   7.967 -2.4547 -0.1986 -1.6381
 4988SOL     OW26596   1.366   3.126   3.921 -0.2116  0.0984 -0.8483
 4988SOL    HW126597   1.441   3.145   3.977  0.8705 -3.2823 -1.1421
 4988SOL    HW226598   1.402   3.167   3.842 -1.8118  0.7783 -1.2398
 4989SOL     OW26599   1.750   4.061   9.889 -0.2526 -0.1486  0.6213
 4989SOL    HW126600   1.830   4.081   9.840 -0.0248 -0.4530  0.8697
 4989SOL    HW226601   1.744   4.144   9.936 -1.0269  0.1195  0.0570
 4990SOL     OW26602   3.578   3.521   4.786 -0.1956 -0.0356 -0.4877
 4990SOL    HW126603   3.632   3.599   4.801 -2.3784  1.2638  0.5553
 4990SOL    HW226604   3.545   3.508   4.875  3.0758 -0.1212  0.7216
 4991SOL     OW26605   4.732   3.484   8.492  0.5648  1.5887 -0.7367
 4991SOL    HW126606   0.073   3.533   8.487 -0.8646  3.8238 -2.5802
 4991SOL    HW226607   4.740   3.440   8.576 -2.1864  1.6483 -0.4368
 4992SOL     OW26608   2.184   2.958   7.736  0.5198 -0.5146  0.0550
 4992SOL    HW126609   2.230   3.042   7.744  0.1889 -0.2525 -0.7655
 4992SOL    HW226610   2.138   2.965   7.652  0.0609 -1.3689  0.2331
 4993SOL     OW26611   1.677   1.841   5.670  0.1040  0.2143 -0.0799
 4993SOL    HW126612   1.699   1.802   5.755 -3.2016 -1.4365  0.0484
 4993SOL    HW226613   1.743   1.792   5.621 -0.8138  0.0860 -1.1862
 4994SOL     OW26614   0.593   3.983   5.999  0.3046 -0.2094  0.0275
 4994SOL    HW126615   0.625   3.902   6.038 -2.5134 -2.0621 -1.5188
 4994SOL    HW226616   0.665   4.030   5.957  3.4304 -4.0397  1.1616
 4995SOL     OW26617   0.450   0.034   7.213  0.5131  0.2552 -0.3906
 4995SOL    HW126618   0.411   4.692   7.239 -0.6926  1.0522  0.3617
 4995SOL    HW226619   0.407   0.056   7.130  2.1258  1.0642 -1.0168
 4996SOL     OW26620   4.582   0.542   0.571  0.6323 -0.0348 -1.1559
 4996SOL    HW126621   4.565   0.630   0.537 -1.7062  0.4082  1.1801
 4996SOL    HW226622   4.676   0.540   0.589  0.6123  0.4786 -0.9777
 4997SOL     OW26623   3.817   2.258   3.393  0.5766  0.3934  0.0597
 4997SOL    HW126624   3.780   2.216   3.315 -2.0904  0.6132  1.2108
 4997SOL    HW226625   3.737   2.248   3.444  0.4233 -1.3350 -0.5255
 4998SOL     OW26626   1.820   0.959  10.786  0.3355  0.1885  0.0413
 4998SOL    HW126627   1.837   0.881  10.839 -0.8339  0.4594  0.8295
 4998SOL    HW226628   1.796   1.017  10.858 -2.7701 -0.7536 -0.2174
 4999SOL     OW26629   0.098   4.700   4.469  0.5971  0.1387 -0.2027
 4999SOL    HW126630   0.040   0.028   4.437  0.7150 -0.3118 -1.3895
 4999SOL    HW226631   0.046   4.619   4.472  1.3861 -0.3954 -0.9172
 5000SOL     OW26632   2.645   0.514   2.210  0.1705 -0.0241 -0.5710
 5000SOL    HW126633   2.644   0.577   2.138 -0.4335  0.7713  0.1395
 5000SOL    HW226634   2.663   0.573   2.284  2.1908 -1.9790  0.5146
 5001SOL     OW26635   0.588   3.491   5.568  0.3563  0.2421 -0.1538
 5001SOL    HW126636   0.609   3.554   5.637 -0.7129  0.3488  0.0718
 5001SOL    HW226637   0.676   3.471   5.535  0.0149 -0.1887 -0.8047
 5002SOL     OW26638   0.308   4.611   8.249 -0.6159 -0.4674  0.3337
 5002SOL    HW126639   0.214   4.606   8.232 -0.6142  0.9668 -0.0739
 5002SOL    HW226640   0.342   4.553   8.180 -1.2865  0.8100 -1.0527
 5003SOL     OW26641   2.176   1.022  12.657 -0.4878  0.4936 -0.4831
 5003SOL    HW126642   2.212   1.036  12.744  0.8954 -0.0901 -0.9697
 5003SOL    HW226643   2.151   1.112  12.637  2.5882  2.1230  3.1577
 5004SOL     OW26644   2.903   3.194   2.507  0.2369 -0.0223  0.0550
 5004SOL    HW126645   2.855   3.112   2.495 -1.2179  0.8556 -0.1680
 5004SOL    HW226646   2.847   3.272   2.505  2.3176  1.5492  2.2006
 5005SOL     OW26647   4.594   1.675   6.144 -0.6004 -0.4289  0.4813
 5005SOL    HW126648   4.572   1.662   6.052 -2.0093  0.0706  0.7518
 5005SOL    HW226649   4.598   1.584   6.173  0.3269  0.2430  2.4771
 5006SOL     OW26650   1.208   1.836   7.367  0.4375  0.5097  0.2436
 5006SOL    HW126651   1.266   1.778   7.318 -1.0081 -1.7628  1.2207
 5006SOL    HW226652   1.150   1.880   7.305  0.3416 -0.8925 -0.6423
 5007SOL     OW26653   1.292   2.689   0.455  0.3071  0.2849  0.2485
 5007SOL    HW126654   1.358   2.649   0.511  0.3708 -0.0455 -0.0624
 5007SOL    HW226655   1.275   2.777   0.487 -1.2451  0.4186 -0.9614
 5008SOL     OW26656   1.014   2.564  13.418 -0.2889  0.4009  0.2399
 5008SOL    HW126657   0.961   2.522  13.486  2.4378 -0.0922  2.0297
 5008SOL    HW226658   0.968   2.645  13.399 -2.1822 -1.3213 -2.5676
 5009SOL     OW26659   1.458   0.106  16.791  0.1014  0.7666  0.5977
 5009SOL    HW126660   1.405   0.089  16.868  0.0383 -2.0501 -0.0806
 5009SOL    HW226661   1.396   0.151  16.733 -3.3101 -3.7832  0.7421
 5010SOL     OW26662   1.158   4.094   2.988 -0.3456  0.5181  0.0027
 5010SOL    HW126663   1.073   4.109   3.028 -0.3560  0.4618  0.0011
 5010SOL    HW226664   1.161   4.173   2.935 -0.6501 -0.7856 -1.9687
 5011SOL     OW26665   1.700   3.560   1.447 -0.5049  0.5079  1.0793
 5011SOL    HW126666   1.752   3.569   1.527  2.6566 -0.2085 -0.8776
 5011SOL    HW226667   1.624   3.519   1.488 -0.7176  0.2787  0.4604
 5012SOL     OW26668   0.295   4.604   2.028  0.0388  0.0845 -0.3245
 5012SOL    HW126669   0.310   4.561   1.944  0.9811 -0.0750 -0.0786
 5012SOL    HW226670   0.386   4.620   2.053  0.2728  0.8939 -1.7073
 5013SOL     OW26671   1.581   0.135  14.124 -0.6467  0.3406 -0.3373
 5013SOL    HW126672   1.580   0.122  14.219 -2.3408  0.1119 -0.3780
 5013SOL    HW226673   1.514   0.203  14.123 -0.8968  0.1067  0.1895
 5014SOL     OW26674   2.426   4.663   4.808  0.2498  0.6572 -0.1788
 5014SOL    HW126675   2.393   4.666   4.898 -0.1459 -0.6753 -0.2857
 5014SOL    HW226676   2.344   4.633   4.768  0.6262 -0.4331 -0.1292
 5015SOL     OW26677   1.271   4.075   6.739 -0.1318 -0.2112 -0.1879
 5015SOL    HW126678   1.228   4.093   6.822 -0.2812  0.9133 -0.5038
 5015SOL    HW226679   1.351   4.033   6.769  0.6604  1.0518 -0.5158
 5016SOL     OW26680   4.638   0.848   2.331 -0.0498 -0.0062 -0.4391
 5016SOL    HW126681   4.714   0.838   2.274  0.8240 -0.3805  0.7961
 5016SOL    HW226682   4.677   0.861   2.418 -0.2877 -1.2409 -0.1482
 5017SOL     OW26683   4.175   3.042   3.742  0.6520  0.2527 -0.5179
 5017SOL    HW126684   4.116   3.108   3.777  0.5933 -0.3130  0.4729
 5017SOL    HW226685   4.185   3.076   3.653 -0.4386 -1.3872 -1.2677
 5018SOL     OW26686   3.085   1.522   6.998  0.0409  0.0812  0.5032
 5018SOL    HW126687   3.035   1.476   7.066  2.3305  0.5010  2.4285
 5018SOL    HW226688   3.034   1.603   6.996 -0.2371 -0.1704 -2.5582
 5019SOL     OW26689   0.751   1.045   2.928  0.4873 -0.3515 -0.1807
 5019SOL    HW126690   0.737   1.016   2.838 -1.8371 -1.1629  0.4441
 5019SOL    HW226691   0.693   0.987   2.979  0.7947  0.1945  0.7760
 5020SOL     OW26692   0.276   2.099   7.337 -0.1602 -0.0035  0.4926
 5020SOL    HW126693   0.316   2.020   7.373  0.7106  0.6858  1.0535
 5020SOL    HW226694   0.194   2.064   7.302 -0.1387  0.1331  0.3018
 5021SOL     OW26695   1.307   4.232   6.198 -0.0488 -0.2594 -0.1002
 5021SOL    HW126696   1.242   4.234   6.268  1.6369 -0.2048  1.4772
 5021SOL    HW226697   1.312   4.321   6.164 -1.4997  0.8548  2.6444
 5022SOL     OW26698   2.926   1.795  16.449  0.4107 -0.3310 -0.3560
 5022SOL    HW126699   3.014   1.823  16.424 -0.1727  0.8069 -1.1393
 5022SOL    HW226700   2.910   1.841  16.531  0.9091 -1.0979  0.1780
 5023SOL     OW26701   3.756   3.131   5.818 -0.1736  0.2188  0.2716
 5023SOL    HW126702   3.681   3.184   5.791 -0.4095 -0.6893 -0.8722
 5023SOL    HW226703   3.765   3.071   5.744  0.6478 -1.2071  1.5161
 5024SOL     OW26704   2.094   3.380   5.105  0.3428  0.6721  0.0231
 5024SOL    HW126705   2.057   3.468   5.100 -0.6822  0.2768  0.5489
 5024SOL    HW226706   2.045   3.351   5.182  0.0921  2.6287  0.5987
 5025SOL     OW26707   2.895   1.718   7.304  0.1266  0.1414 -0.4257
 5025SOL    HW126708   2.814   1.747   7.262  0.6107  2.0605  0.0103
 5025SOL    HW226709   2.920   1.660   7.232 -0.4068  0.0948 -0.5799
 5026SOL     OW26710   3.767   3.956  17.263  0.9988 -0.6572 -0.0277
 5026SOL    HW126711   3.812   4.034  17.295 -0.5526 -0.0589  0.6875
 5026SOL    HW226712   3.677   3.978  17.237  1.6180  1.2215 -0.6063
 5027SOL     OW26713   3.527   1.433   9.374 -0.1103  0.1232 -0.1960
 5027SOL    HW126714   3.481   1.468   9.451  1.1306  1.8733 -0.2380
 5027SOL    HW226715   3.610   1.479   9.380  0.7188 -1.1908 -1.6548
 5028SOL     OW26716   0.415   4.179   6.153  0.0951  0.2147  0.2243
 5028SOL    HW126717   0.476   4.125   6.102  2.3365  1.4970  1.5391
 5028SOL    HW226718   0.337   4.123   6.152 -0.2740  0.7208  0.6768
 5029SOL     OW26719   3.137   1.724   3.766 -0.0409 -0.8755  0.0411
 5029SOL    HW126720   3.141   1.712   3.861 -0.1981  0.7051  0.2570
 5029SOL    HW226721   3.060   1.781   3.765  0.2187 -0.5196  0.0963
 5030SOL     OW26722   2.565   3.465   4.733 -0.3156 -0.3752  0.2440
 5030SOL    HW126723   2.555   3.510   4.650 -0.8958  0.6297  0.8642
 5030SOL    HW226724   2.530   3.531   4.792 -1.5502  2.0402 -3.1828
 5031SOL     OW26725   2.130   2.942  15.433  0.1371 -0.6449  0.1203
 5031SOL    HW126726   2.161   2.871  15.488  2.0938  0.1611  0.0736
 5031SOL    HW226727   2.158   2.909  15.348 -1.9470 -2.1201  0.0333
 5032SOL     OW26728   3.842   0.829   7.577  0.0086  0.0452 -0.3328
 5032SOL    HW126729   3.876   0.871   7.656 -1.2426  0.2136  0.1272
 5032SOL    HW226730   3.845   0.901   7.514  0.7133 -1.3086 -1.8341
 5033SOL     OW26731   4.364   0.813   6.588  0.5868  0.4921 -0.5916
 5033SOL    HW126732   4.326   0.874   6.651  1.8766  1.4705 -0.7581
 5033SOL    HW226733   4.454   0.817   6.622  0.9297  0.2335 -1.4745
 5034SOL     OW26734   1.060   3.106   9.976  0.4348 -0.8004  0.8442
 5034SOL    HW126735   0.988   3.133  10.033  2.3299  0.8182  2.4426
 5034SOL    HW226736   1.010   3.058   9.909  1.1345 -2.2592  1.3534
 5035SOL     OW26737   3.036   0.902   6.245 -0.4091  0.0163 -0.0389
 5035SOL    HW126738   2.945   0.890   6.220 -0.4101  1.1392 -0.5438
 5035SOL    HW226739   3.052   0.993   6.222  1.6426 -0.3541 -0.0810
 5036SOL     OW26740   2.837   4.520  14.327 -0.1068 -0.4278  0.2613
 5036SOL    HW126741   2.880   4.581  14.267 -2.0703  1.3063  0.6420
 5036SOL    HW226742   2.753   4.565  14.327  0.1947  0.1601  1.7444
 5037SOL     OW26743   0.699   1.537   2.002  0.0974 -0.1730  0.4115
 5037SOL    HW126744   0.786   1.516   2.036  0.6830  0.9808 -0.3609
 5037SOL    HW226745   0.650   1.455   1.991 -0.1607  0.1317 -0.7650
 5038SOL     OW26746   1.146   0.281   4.088  0.0269  0.5684 -0.0967
 5038SOL    HW126747   1.059   0.295   4.050 -0.6611  0.1680  1.3364
 5038SOL    HW226748   1.208   0.324   4.029 -0.0887  1.7084  0.6050
 5039SOL     OW26749   4.347   0.920   8.732 -0.1370  0.1355  0.2537
 5039SOL    HW126750   4.312   0.989   8.677 -1.3221 -2.0100 -1.7048
 5039SOL    HW226751   4.349   0.847   8.670 -1.5401 -1.2081  1.7528
 5040SOL     OW26752   3.106   0.967   1.226  0.5691  0.4606  0.1222
 5040SOL    HW126753   3.036   0.902   1.229  1.2496 -0.3105 -0.7092
 5040SOL    HW226754   3.116   0.983   1.132  2.5042  0.1165  0.2638
 5041SOL     OW26755   3.977   4.307   7.540 -0.5404  0.5095  0.4165
 5041SOL    HW126756   3.970   4.364   7.464  0.1815 -1.0709 -0.8191
 5041SOL    HW226757   4.048   4.246   7.519  0.4622  1.6376  0.5627
 5042SOL     OW26758   1.853   3.146   5.231  0.5823 -0.5438  0.0867
 5042SOL    HW126759   1.880   3.214   5.293 -0.4620 -0.0997  0.0422
 5042SOL    HW226760   1.780   3.188   5.186 -0.4457 -3.3301 -0.8315
 5043SOL     OW26761   2.616   1.022  16.116  0.6373 -0.0719  0.0264
 5043SOL    HW126762   2.540   1.054  16.164  0.9473  1.1283 -0.2879
 5043SOL    HW226763   2.562   0.977  16.052  2.6153 -2.3686 -0.0350
 5044SOL     OW26764   0.569   3.625   2.145  0.1214  0.4682  0.0273
 5044SOL    HW126765   0.590   3.652   2.235 -1.8049 -1.3370  1.0137
 5044SOL    HW226766   0.649   3.649   2.098  0.2465  0.1027  0.0536
 5045SOL     OW26767   2.579   3.347   1.657  0.2052  0.1430  0.1101
 5045SOL    HW126768   2.526   3.270   1.634 -0.5718  1.0733 -1.1931
 5045SOL    HW226769   2.634   3.303   1.722  0.2765 -0.9801 -0.7019
 5046SOL     OW26770   0.396   3.240   2.011  0.3153 -0.1021  0.3161
 5046SOL    HW126771   0.360   3.327   1.997  0.8244 -0.2704 -1.9886
 5046SOL    HW226772   0.393   3.247   2.107 -0.1543 -0.4281  0.3253
 5047SOL     OW26773   2.705   0.792   7.506  0.3811 -0.4330  0.0196
 5047SOL    HW126774   2.739   0.736   7.436 -0.8298 -1.6997  0.4427
 5047SOL    HW226775   2.683   0.866   7.449  1.2882  0.7974  1.2679
 5048SOL     OW26776   4.066   2.445   9.067  0.5558 -0.2930  0.5445
 5048SOL    HW126777   4.021   2.506   9.009  2.0196  2.5822  2.4464
 5048SOL    HW226778   4.135   2.428   9.003 -1.4007  2.3494 -2.2550
 5049SOL     OW26779   3.945   4.526   4.954 -0.4163 -0.1877  0.1128
 5049SOL    HW126780   3.924   4.485   4.870  1.9424 -2.3124  0.5820
 5049SOL    HW226781   3.865   4.511   5.005  1.3787 -1.9991  2.4085
 5050SOL     OW26782   4.647   3.985  10.169 -0.5824 -0.2896  0.6020
 5050SOL    HW126783   4.622   3.930  10.243 -0.9922 -0.6721  0.1730
 5050SOL    HW226784   4.574   3.974  10.109  0.2747  2.6788 -0.9807
 5051SOL     OW26785   2.731   4.123  15.912  0.1931  0.4384 -0.1265
 5051SOL    HW126786   2.734   4.154  16.003 -0.2355  1.7030 -0.5496
 5051SOL    HW226787   2.784   4.192  15.871 -0.8359  1.4765  0.2930
 5052SOL     OW26788   1.713   0.413  16.596  0.1461  0.2237 -0.2169
 5052SOL    HW126789   1.673   0.429  16.682 -0.5475  0.0093 -0.4978
 5052SOL    HW226790   1.787   0.364  16.632  0.8639 -0.2490 -2.3393
 5053SOL     OW26791   0.303   1.529   5.445 -0.2538 -0.0516 -0.4901
 5053SOL    HW126792   0.362   1.545   5.371  0.5309  1.4699  0.4590
 5053SOL    HW226793   0.232   1.590   5.426 -0.8090 -0.1262  1.3353
 5054SOL     OW26794   3.365   0.467   7.670  0.7894  0.2738 -0.4312
 5054SOL    HW126795   3.322   0.432   7.749  1.6612  1.0070  0.3677
 5054SOL    HW226796   3.342   0.558   7.691 -3.1412 -1.2767  1.9490
 5055SOL     OW26797   0.285   1.685  16.828  0.1695 -0.3766  0.4762
 5055SOL    HW126798   0.367   1.725  16.800 -0.1694  1.6963  2.4366
 5055SOL    HW226799   0.325   1.617  16.882  2.0364  0.6311  0.3679
 5056SOL     OW26800   2.269   4.094   2.919  0.1135  0.2254  1.4937
 5056SOL    HW126801   2.200   4.113   2.983 -1.8706  0.4875 -0.7270
 5056SOL    HW226802   2.296   4.182   2.895 -0.8216 -0.1942 -1.0909
 5057SOL     OW26803   3.513   1.268   6.515  0.1369 -0.2358 -0.1656
 5057SOL    HW126804   3.518   1.363   6.531  1.9931 -0.4688  0.6766
 5057SOL    HW226805   3.495   1.231   6.602  0.7296  2.4915  1.1348
 5058SOL     OW26806   2.207   0.659  16.992  0.4439  0.0185  0.4284
 5058SOL    HW126807   2.206   0.727  17.060 -1.1444 -0.8637  1.2914
 5058SOL    HW226808   2.114   0.642  16.977  0.4689  0.8236 -0.6778
 5059SOL     OW26809   3.229   0.644   5.543 -0.2816  0.0709  0.0363
 5059SOL    HW126810   3.230   0.690   5.627 -1.1989  0.1377  0.0089
 5059SOL    HW226811   3.319   0.650   5.510 -0.1565  1.4987  0.6361
 5060SOL     OW26812   3.540   0.593   8.046 -0.1182  0.3566  0.5146
 5060SOL    HW126813   3.595   0.572   8.121 -0.7011 -0.6457  0.6760
 5060SOL    HW226814   3.564   0.515   7.996 -0.9737 -0.2024  0.9700
 5061SOL     OW26815   3.635   2.710   8.304 -0.3395 -0.3030  0.2464
 5061SOL    HW126816   3.582   2.635   8.332  0.3805 -0.8928  0.0498
 5061SOL    HW226817   3.712   2.669   8.264  0.3885 -0.6608  1.9984
 5062SOL     OW26818   0.799   3.104   2.317  0.1600 -0.2170  0.0795
 5062SOL    HW126819   0.783   3.106   2.412 -0.8004 -0.3615 -0.0817
 5062SOL    HW226820   0.895   3.104   2.310  0.3878 -0.4349  3.1356
 5063SOL     OW26821   3.363   2.359   7.617 -0.0715 -0.5028  0.5857
 5063SOL    HW126822   3.277   2.377   7.656  0.6654 -2.3107  3.0718
 5063SOL    HW226823   3.416   2.437   7.632 -0.7640 -0.0572  0.6922
 5064SOL     OW26824   3.470   4.273   4.379  0.4017 -0.5097 -0.0483
 5064SOL    HW126825   3.550   4.327   4.380 -0.6201  0.9497  2.9273
 5064SOL    HW226826   3.400   4.336   4.393  0.6857  0.1722 -1.6801
 5065SOL     OW26827   2.397   2.670   6.368 -0.0919 -0.1070 -0.7307
 5065SOL    HW126828   2.403   2.615   6.290  1.4880 -0.9112 -0.0482
 5065SOL    HW226829   2.309   2.705   6.355 -0.3387  0.0129  1.2495
 5066SOL     OW26830   3.520   0.901   6.923 -0.1956  0.9504 -0.2344
 5066SOL    HW126831   3.585   0.852   6.975 -1.6427  0.4124  1.0626
 5066SOL    HW226832   3.451   0.835   6.924  0.9010 -0.1421  2.8693
 5067SOL     OW26833   3.427   2.379  16.845 -0.0744 -0.3303  0.2539
 5067SOL    HW126834   3.492   2.410  16.782  0.1641 -1.0100  0.1649
 5067SOL    HW226835   3.355   2.349  16.789  1.1248  1.0600 -2.0227
 5068SOL     OW26836   0.954   2.368   8.422 -0.0240  0.9771 -0.0784
 5068SOL    HW126837   0.924   2.430   8.356  1.1268 -0.7554 -2.2673
 5068SOL    HW226838   0.954   2.432   8.493  1.7468  1.4484 -0.4927
 5069SOL     OW26839   3.527   4.114   7.655  0.3949 -0.0443 -0.1597
 5069SOL    HW126840   3.564   4.178   7.716 -0.3835  1.5356 -1.3666
 5069SOL    HW226841   3.437   4.107   7.687  0.3786 -3.2600 -0.9275
 5070SOL     OW26842   4.089   2.472   5.676  0.3739  0.5984 -0.0030
 5070SOL    HW126843   4.102   2.565   5.695  0.2915  0.9694 -1.7373
 5070SOL    HW226844   4.139   2.427   5.744  0.6176  2.2808  0.9549
 5071SOL     OW26845   2.319   0.997   4.670  0.1213 -0.1343 -0.0493
 5071SOL    HW126846   2.352   0.977   4.758  1.4999  0.7587 -0.3669
 5071SOL    HW226847   2.401   1.009   4.622  0.7921 -0.0712  1.0853
 5072SOL     OW26848   4.138   3.689   0.272  0.2938 -0.0358 -0.7161
 5072SOL    HW126849   4.127   3.605   0.227  0.6607 -0.8858  0.7831
 5072SOL    HW226850   4.083   3.671   0.348  0.7867 -0.8283 -0.5468
 5073SOL     OW26851   4.151   2.321   7.051 -0.3763 -0.4966  0.2173
 5073SOL    HW126852   4.232   2.272   7.035 -1.0887 -0.6611 -3.0319
 5073SOL    HW226853   4.151   2.372   6.969  0.8222 -0.0876  0.4616
 5074SOL     OW26854   3.060   0.820   2.593 -0.2391  0.3945 -0.0928
 5074SOL    HW126855   2.982   0.781   2.631 -0.4884  0.7668 -0.2248
 5074SOL    HW226856   3.046   0.820   2.499 -0.4420  0.2819 -0.0606
 5075SOL     OW26857   2.028   2.988   7.489 -0.1025  1.0472  0.4516
 5075SOL    HW126858   1.938   3.011   7.512 -0.9890 -0.8354 -1.1973
 5075SOL    HW226859   2.056   3.067   7.441 -1.6812  0.1180 -1.9892
 5076SOL     OW26860   0.648   2.976   1.416 -0.3382 -0.4375  0.1093
 5076SOL    HW126861   0.616   2.896   1.458  0.1225 -0.0944  1.1175
 5076SOL    HW226862   0.670   3.037   1.487  0.3324  0.0920 -0.5544
 5077SOL     OW26863   0.784   3.786   7.803  0.2835  0.6439  0.2132
 5077SOL    HW126864   0.751   3.839   7.729  0.8428  1.0903  0.2870
 5077SOL    HW226865   0.857   3.838   7.836  0.7187 -0.0208  0.2739
 5078SOL     OW26866   3.515   3.496   2.180  0.6587  0.1650 -0.2586
 5078SOL    HW126867   3.553   3.474   2.265 -0.8417 -1.4058  0.0010
 5078SOL    HW226868   3.584   3.546   2.138 -0.9102  0.9449 -1.9100
 5079SOL     OW26869   4.217   3.713  15.693 -0.0230 -0.5517  0.5820
 5079SOL    HW126870   4.214   3.739  15.785 -3.0766 -0.7065  0.5151
 5079SOL    HW226871   4.148   3.647  15.688  1.1625 -1.7854  0.4910
 5080SOL     OW26872   2.306   3.613   4.632  0.4443  0.3266 -0.2774
 5080SOL    HW126873   2.294   3.558   4.554  0.4760 -0.6656  0.4192
 5080SOL    HW226874   2.396   3.637   4.612  0.9205 -1.4770 -0.2580
 5081SOL     OW26875   2.891   3.835   2.312  0.1616 -0.2553  0.2990
 5081SOL    HW126876   2.962   3.809   2.372 -0.4026  1.3616  1.6500
 5081SOL    HW226877   2.844   3.898   2.366 -1.7974  0.0339 -1.7524
 5082SOL     OW26878   0.735   2.816   2.239 -0.6250 -0.6540  0.1168
 5082SOL    HW126879   0.778   2.901   2.245  1.1687 -1.5474  0.1091
 5082SOL    HW226880   0.661   2.839   2.183 -1.4483  1.8866  2.2857
 5083SOL     OW26881   1.676   3.662   8.589 -0.6394  0.7217 -0.3801
 5083SOL    HW126882   1.741   3.603   8.551  2.5247  3.5180  0.7481
 5083SOL    HW226883   1.686   3.630   8.678 -1.0319 -0.6765 -0.8418
 5084SOL     OW26884   4.659   0.556   1.374  0.0524  0.0453  0.0400
 5084SOL    HW126885   4.616   0.614   1.437  2.8865  0.3295  1.7068
 5084SOL    HW226886   4.630   0.586   1.288  0.4143  0.3064  0.0089
 5085SOL     OW26887   4.347   4.194   2.375 -0.2560  0.1273 -0.1204
 5085SOL    HW126888   4.315   4.267   2.429 -1.0401 -0.0391 -0.3570
 5085SOL    HW226889   4.308   4.128   2.432 -0.7278  1.5637  1.2478
 5086SOL     OW26890   1.673   3.507   9.191 -0.1456 -0.0336 -0.1217
 5086SOL    HW126891   1.656   3.564   9.266 -0.2611 -1.5722  1.0052
 5086SOL    HW226892   1.758   3.467   9.211 -0.6732 -1.7402 -1.3305
 5087SOL     OW26893   0.324   0.190   4.643  0.2712 -0.3442 -0.3511
 5087SOL    HW126894   0.416   0.183   4.667  0.2237 -0.9961 -0.3687
 5087SOL    HW226895   0.282   0.265   4.686 -0.1050 -1.5230  1.3504
 5088SOL     OW26896   2.135   4.472   2.409  0.1623  0.1630 -0.5057
 5088SOL    HW126897   2.201   4.458   2.342  0.4341 -1.6857  0.1631
 5088SOL    HW226898   2.054   4.474   2.358  0.7955  0.4630 -1.4994
 5089SOL     OW26899   0.296   0.403  16.619 -0.3666  0.5754  0.2292
 5089SOL    HW126900   0.218   0.392  16.564  1.0167  0.3666 -1.6527
 5089SOL    HW226901   0.365   0.439  16.563  0.3594 -0.4720  0.4592
 5090SOL     OW26902   3.437   2.628   1.255 -0.0835 -0.6546  0.2080
 5090SOL    HW126903   3.405   2.550   1.299 -2.0641  1.9357  3.2942
 5090SOL    HW226904   3.480   2.605   1.172 -0.2031  0.8621 -0.2774
 5091SOL     OW26905   0.631   1.690   1.085 -0.3098  0.7641  0.2985
 5091SOL    HW126906   0.709   1.655   1.128 -0.1036  0.6395 -0.1776
 5091SOL    HW226907   0.640   1.784   1.103  2.0800  0.1627  2.2707
 5092SOL     OW26908   3.775   1.740   3.889  0.3007  0.1698 -0.9022
 5092SOL    HW126909   3.735   1.682   3.825  2.8245 -0.7235 -1.6442
 5092SOL    HW226910   3.817   1.805   3.832  2.5604  1.2283  1.9220
 5093SOL     OW26911   0.871   2.140   8.240 -0.5969 -0.2563 -0.4207
 5093SOL    HW126912   0.881   2.207   8.308  0.3324 -0.1119 -0.6968
 5093SOL    HW226913   0.898   2.188   8.162 -0.6900  0.0435 -0.2717
 5094SOL     OW26914   2.503   2.499   3.996  0.1176 -0.0582 -0.0708
 5094SOL    HW126915   2.574   2.437   3.981  0.0726 -0.1659  0.1596
 5094SOL    HW226916   2.547   2.573   4.037 -2.2606  1.5772 -0.4504
 5095SOL     OW26917   0.319   2.253   6.186 -0.0636 -0.5012  0.2813
 5095SOL    HW126918   0.357   2.297   6.262 -0.5543 -1.0529  0.8449
 5095SOL    HW226919   0.226   2.265   6.206  0.0158  1.4063 -0.4227
 5096SOL     OW26920   0.492   0.942   9.161 -0.5316  0.7065 -0.2709
 5096SOL    HW126921   0.435   1.014   9.187 -2.8306 -0.3060 -2.4310
 5096SOL    HW226922   0.576   0.977   9.133 -0.8918  0.9273 -1.0866
 5097SOL     OW26923   0.285   2.598   7.135  0.8335  0.1227 -0.6683
 5097SOL    HW126924   0.276   2.504   7.148  1.5094  0.0597 -0.6549
 5097SOL    HW226925   0.372   2.602   7.174  0.4907 -0.7665  0.1681
 5098SOL     OW26926   4.215   0.400  16.427  0.6736  0.5615 -0.7446
 5098SOL    HW126927   4.178   0.402  16.516 -2.5446  1.2011 -2.1172
 5098SOL    HW226928   4.309   0.411  16.446 -0.2377  4.5359  1.4065
 5099SOL     OW26929   1.487   2.442   6.726  0.3915  0.6214  0.0795
 5099SOL    HW126930   1.487   2.381   6.651  0.0538  0.5688  0.1237
 5099SOL    HW226931   1.400   2.480   6.715  0.8653  0.6360 -3.6059
 5100SOL     OW26932   0.918   1.212   4.275 -0.4211  0.2811 -0.1573
 5100SOL    HW126933   0.836   1.210   4.226  0.4653 -0.9485 -1.5755
 5100SOL    HW226934   0.979   1.259   4.219  0.5079 -0.5556  0.1616
 5101SOL     OW26935   4.081   3.857  13.180 -0.0942 -0.2320  0.4266
 5101SOL    HW126936   4.074   3.918  13.106  0.0166  0.2473  0.8102
 5101SOL    HW226937   4.050   3.913  13.251 -1.0181  1.2098 -1.1142
 5102SOL     OW26938   3.729   0.361   5.645 -0.1516 -0.0476  0.3637
 5102SOL    HW126939   3.704   0.292   5.585  1.6475 -1.1790  0.9030
 5102SOL    HW226940   3.790   0.319   5.706  1.0214 -0.1999 -0.9207
 5103SOL     OW26941   4.704   0.400   3.824 -0.6332 -0.2150  0.5552
 5103SOL    HW126942   0.021   0.447   3.885  1.4290  1.1336 -2.4038
 5103SOL    HW226943   0.022   0.375   3.752  0.7725  2.0359  0.9030
 5104SOL     OW26944   1.537   1.045   2.988 -0.2255 -0.5081  0.5850
 5104SOL    HW126945   1.627   1.058   2.960 -0.8197 -3.2358 -2.5873
 5104SOL    HW226946   1.546   1.071   3.079  0.5544  0.9733  0.0813
 5105SOL     OW26947   0.429   0.769   1.676  0.1052  0.1012 -0.7581
 5105SOL    HW126948   0.464   0.728   1.597  3.1137  2.1138 -0.4585
 5105SOL    HW226949   0.339   0.737   1.677  0.2550 -0.2590  1.1313
 5106SOL     OW26950   2.040   4.215  17.502 -0.5489 -0.7439 -0.1077
 5106SOL    HW126951   2.069   4.244  17.415  1.6442  0.2173  0.9294
 5106SOL    HW226952   1.972   4.280  17.515 -1.1828 -1.2553 -0.8995
 5107SOL     OW26953   4.613   2.285   1.692  0.0181 -0.0944  0.2066
 5107SOL    HW126954   4.566   2.332   1.760  0.3693 -0.6289  0.8250
 5107SOL    HW226955   4.599   2.325   1.606 -1.0283  0.4644  0.6461
 5108SOL     OW26956   1.386   4.262   2.648 -0.1611  0.3358  0.6302
 5108SOL    HW126957   1.438   4.342   2.643  3.6160 -2.1570 -0.0536
 5108SOL    HW226958   1.355   4.270   2.739 -4.4445 -1.2843 -0.6776
 5109SOL     OW26959   4.627   1.817   8.618 -0.3317 -0.0528 -0.1204
 5109SOL    HW126960   4.674   1.741   8.652 -0.8175 -0.0807  0.4919
 5109SOL    HW226961   4.656   1.807   8.527  0.6565 -0.8639  0.2801
 5110SOL     OW26962   1.507   4.266   3.014 -0.3339  0.2522 -0.1300
 5110SOL    HW126963   1.427   4.307   2.981 -1.0705  0.5672  2.0153
 5110SOL    HW226964   1.495   4.300   3.103  1.4364  3.5104 -1.1713
 5111SOL     OW26965   1.954   1.441   4.397  0.2530 -0.2244  0.8652
 5111SOL    HW126966   1.997   1.517   4.437 -1.9067  1.8486 -0.8038
 5111SOL    HW226967   1.997   1.426   4.312 -0.1312  1.8574  0.3053
 5112SOL     OW26968   0.284   0.563   6.874 -0.3421  0.2015  0.2737
 5112SOL    HW126969   0.293   0.656   6.894 -3.3794  0.6123 -0.3501
 5112SOL    HW226970   0.189   0.560   6.860 -0.1499 -1.0626 -0.7238
 5113SOL     OW26971   2.827   1.922   6.235  0.0266  0.9642 -0.1445
 5113SOL    HW126972   2.737   1.932   6.204 -0.9033 -0.1080  2.2433
 5113SOL    HW226973   2.839   1.829   6.213  3.0839  0.6759  2.8258
 5114SOL     OW26974   1.235   0.058   1.754 -0.1080  0.2112 -0.2781
 5114SOL    HW126975   1.208   0.128   1.694  0.0524  1.7425  1.4472
 5114SOL    HW226976   1.291   0.002   1.701  0.1618 -0.2090  0.4651
 5115SOL     OW26977   0.965   2.291   1.659  0.1999  0.4434  0.1005
 5115SOL    HW126978   0.908   2.366   1.642 -0.3992  0.0259  0.2850
 5115SOL    HW226979   1.028   2.337   1.715 -2.7032  4.5914 -0.0496
 5116SOL     OW26980   2.523   1.790  10.680  0.4591  0.2896  0.1479
 5116SOL    HW126981   2.553   1.722  10.741 -0.9945  0.6466  1.2782
 5116SOL    HW226982   2.594   1.785  10.617 -2.1236 -0.2717 -2.7048
 5117SOL     OW26983   2.719   0.166   9.721  0.0548 -0.3238 -0.1184
 5117SOL    HW126984   2.680   0.162   9.808  0.4442  4.2668  0.2698
 5117SOL    HW226985   2.785   0.099   9.739 -0.4694 -0.1979  2.2200
 5118SOL     OW26986   2.554   3.228   5.915 -0.2769  0.4217 -0.0751
 5118SOL    HW126987   2.590   3.300   5.966 -0.8023 -0.4653  1.5510
 5118SOL    HW226988   2.629   3.168   5.906  0.2085  1.1050 -0.5747
 5119SOL     OW26989   4.488   3.133   4.012 -0.0402  0.7354  0.4281
 5119SOL    HW126990   4.539   3.126   4.093 -0.3909 -1.5595  0.4603
 5119SOL    HW226991   4.531   3.063   3.964 -0.8475  1.8045 -1.8565
 5120SOL     OW26992   0.396   0.565   9.214 -0.3884  0.0982 -0.4475
 5120SOL    HW126993   0.340   0.625   9.165 -1.1064 -0.2254 -0.0312
 5120SOL    HW226994   0.427   0.620   9.287  0.3434  0.4431 -1.0184
 5121SOL     OW26995   2.659   1.246  17.001 -0.1243  0.1025  0.5374
 5121SOL    HW126996   2.698   1.330  17.025  1.8209 -0.5096 -0.4472
 5121SOL    HW226997   2.569   1.257  16.971  0.1305  1.5062  0.3022
 5122SOL     OW26998   2.704   3.944   0.714 -0.5633  0.2789  0.2153
 5122SOL    HW126999   2.727   3.889   0.639 -1.5574  1.8429 -1.2262
 5122SOL    HW227000   2.641   3.997   0.666  0.7770  2.4863  0.9033
 5123SOL     OW27001   0.634   3.042   9.821 -0.0778 -0.4942 -0.7907
 5123SOL    HW127002   0.566   3.084   9.767  0.1433 -1.7478 -2.0534
 5123SOL    HW227003   0.595   3.065   9.905 -1.2061 -0.8076 -1.2249
 5124SOL     OW27004   2.624   4.363   5.735 -0.1327  0.4680 -0.3697
 5124SOL    HW127005   2.641   4.454   5.757 -2.0833  1.1245 -1.5107
 5124SOL    HW227006   2.713   4.340   5.710  0.8469  1.4151  2.2671
 5125SOL     OW27007   3.549   2.291  13.723 -1.3016 -0.3165  0.2744
 5125SOL    HW127008   3.459   2.279  13.691 -1.5777  0.1284  0.8828
 5125SOL    HW227009   3.552   2.284  13.818 -0.2084 -0.2188  0.2495
 5126SOL     OW27010   4.610   4.030   5.961  0.0206 -0.4584  0.1673
 5126SOL    HW127011   4.565   4.030   6.045  0.0287 -2.2093  0.1582
 5126SOL    HW227012   4.670   4.102   5.982  0.7490 -0.7331 -0.9611
 5127SOL     OW27013   2.496   2.813  15.043  0.2279  0.0542  0.1453
 5127SOL    HW127014   2.571   2.773  15.087  1.0436  0.4186 -0.9298
 5127SOL    HW227015   2.465   2.881  15.103 -0.3361  2.0748 -2.4249
 5128SOL     OW27016   0.174   3.762   9.459 -0.5715 -0.6285  0.2902
 5128SOL    HW127017   0.232   3.832   9.429  2.0874 -2.9044  0.0407
 5128SOL    HW227018   0.185   3.696   9.391 -1.3685 -2.1529  1.6356
 5129SOL     OW27019   3.586   3.679   3.417 -0.3869 -0.3914  0.3930
 5129SOL    HW127020   3.582   3.588   3.387 -1.9694 -0.1133 -0.2022
 5129SOL    HW227021   3.496   3.709   3.425  0.4580  1.7372  1.9191
 5130SOL     OW27022   0.545   0.034   2.113  0.2210 -0.1826  0.4293
 5130SOL    HW127023   0.538   0.065   2.023  1.4133  0.6826  0.6344
 5130SOL    HW227024   0.639   0.019   2.122  0.5447  1.5407 -0.1055
 5131SOL     OW27025   2.407   0.804   7.420  0.1944  0.1204  0.6082
 5131SOL    HW127026   2.435   0.723   7.378 -0.8040 -0.1124  0.4005
 5131SOL    HW227027   2.428   0.869   7.353  3.8109 -1.3055  0.3527
 5132SOL     OW27028   1.565   0.042  13.836 -0.2079  0.7453  0.6168
 5132SOL    HW127029   1.481   0.084  13.817  0.8934  2.7615  0.1520
 5132SOL    HW227030   1.592   0.073  13.922  0.4506 -0.4743  0.8414
 5133SOL     OW27031   3.074   1.124   5.089  0.0977 -0.0067 -0.0183
 5133SOL    HW127032   3.116   1.209   5.081  2.7114 -1.2018  1.0274
 5133SOL    HW227033   3.024   1.118   5.007  0.1334 -0.4146 -0.0108
 5134SOL     OW27034   3.034   4.712   7.905  0.2869  0.5548 -0.1652
 5134SOL    HW127035   3.090   0.038   7.865  0.4351  0.5015 -0.0444
 5134SOL    HW227036   3.079   4.628   7.898 -2.4004 -0.6301 -3.2326
 5135SOL     OW27037   3.764   1.245   7.644  0.2791 -0.0590  0.4706
 5135SOL    HW127038   3.804   1.173   7.595 -0.3662 -1.3457  1.8208
 5135SOL    HW227039   3.719   1.293   7.574 -2.3288  1.1968  2.9922
 5136SOL     OW27040   3.909   1.549   2.395 -0.0965 -0.0386 -0.4529
 5136SOL    HW127041   3.903   1.637   2.360 -1.3238 -0.2357 -0.7339
 5136SOL    HW227042   3.817   1.522   2.384 -0.0696 -0.2415 -0.1924
 5137SOL     OW27043   4.681   0.461   0.918  0.2230  0.6419 -0.3235
 5137SOL    HW127044   4.685   0.394   0.985 -1.1736 -1.9258 -2.8071
 5137SOL    HW227045   4.648   0.403   0.849  0.3840 -0.6309  0.6855
 5138SOL     OW27046   3.303   0.544   3.606 -0.4462 -0.0708 -0.3058
 5138SOL    HW127047   3.248   0.537   3.683 -1.0665 -2.1087 -0.9222
 5138SOL    HW227048   3.304   0.634   3.575  0.5625  0.0697  0.1260
 5139SOL     OW27049   3.754   3.927   7.677 -0.3506  0.4001  0.2768
 5139SOL    HW127050   3.662   3.956   7.676 -0.1646  0.9727 -0.4382
 5139SOL    HW227051   3.768   3.959   7.766  0.4744 -1.5989  0.8622
 5140SOL     OW27052   1.125   2.771  10.292  0.0501  0.2531 -0.0659
 5140SOL    HW127053   1.178   2.844  10.326  0.4154  0.2285 -0.5661
 5140SOL    HW227054   1.046   2.784  10.343 -0.8955  0.3024 -1.5362
 5141SOL     OW27055   3.884   4.180   4.100 -0.0901  0.8063 -0.0725
 5141SOL    HW127056   3.844   4.133   4.172  2.1053 -0.3635  0.3905
 5141SOL    HW227057   3.974   4.154   4.122 -0.5737 -0.9867 -0.1892
 5142SOL     OW27058   3.804   0.294  12.402 -0.1358  0.4903 -0.1929
 5142SOL    HW127059   3.882   0.308  12.455  0.2840  1.9637 -1.2298
 5142SOL    HW227060   3.839   0.308  12.315  1.2894  0.6275  0.4042
 5143SOL     OW27061   3.443   2.871   3.151 -0.1431 -0.4036  0.2601
 5143SOL    HW127062   3.479   2.846   3.066 -0.6673  0.7803 -0.3046
 5143SOL    HW227063   3.528   2.876   3.196  0.8674  3.1756 -2.0135
 5144SOL     OW27064   0.962   3.220   2.737 -0.5135  0.2928  0.0113
 5144SOL    HW127065   0.892   3.202   2.674 -0.2861 -0.6698  0.0326
 5144SOL    HW227066   1.034   3.168   2.702  0.3317  1.3632  0.1557
 5145SOL     OW27067   3.395   3.858  11.145 -0.5650  0.2044 -0.0701
 5145SOL    HW127068   3.481   3.876  11.108 -0.1371 -0.8996  0.3944
 5145SOL    HW227069   3.358   3.942  11.120 -0.5569  0.7035  1.6118
 5146SOL     OW27070   3.745   2.109  10.774  0.2797  0.1988  0.2862
 5146SOL    HW127071   3.799   2.188  10.786  0.6010  0.4863 -3.0246
 5146SOL    HW227072   3.795   2.041  10.819  0.0377  0.3858  0.8324
 5147SOL     OW27073   0.141   0.098   3.739 -0.0316 -0.1488 -0.0998
 5147SOL    HW127074   0.189   0.053   3.670 -0.9431 -1.3601  0.0531
 5147SOL    HW227075   0.137   0.185   3.700 -0.3944 -0.1378 -0.0455
 5148SOL     OW27076   2.916   4.008   5.793 -0.2741 -0.3737 -0.7076
 5148SOL    HW127077   2.828   3.983   5.819 -0.1234 -0.8649 -0.6669
 5148SOL    HW227078   2.958   3.940   5.846  2.1288  0.9097 -0.9513
 5149SOL     OW27079   0.667   0.935   8.330 -0.3010 -0.4228  0.3565
 5149SOL    HW127080   0.725   0.969   8.397  0.6365  2.2579 -1.7941
 5149SOL    HW227081   0.735   0.909   8.268  1.7383  2.7392  1.2595
 5150SOL     OW27082   2.579   0.280   4.464  0.1861 -0.4875 -0.2048
 5150SOL    HW127083   2.563   0.196   4.421  0.1633 -0.6059  0.0368
 5150SOL    HW227084   2.532   0.347   4.412 -0.6320  1.1308  2.6450
 5151SOL     OW27085   1.959   0.435  10.345 -0.7290 -0.4090 -0.1200
 5151SOL    HW127086   1.876   0.414  10.388 -0.2067 -2.3008 -0.0514
 5151SOL    HW227087   1.942   0.524  10.313 -1.3860  0.1998  1.9243
 5152SOL     OW27088   3.825   3.570   0.026 -0.2120 -0.0606 -0.1935
 5152SOL    HW127089   3.873   3.652   0.013 -0.7904  0.2518 -0.3540
 5152SOL    HW227090   3.772   3.560  17.708  0.9670 -0.1024 -0.9795
 5153SOL     OW27091   0.180   2.181  14.621 -0.3234 -0.6023  0.1606
 5153SOL    HW127092   0.162   2.275  14.632 -1.8088 -0.9289  0.4634
 5153SOL    HW227093   0.167   2.169  14.527  2.3887 -2.2651  0.0322
 5154SOL     OW27094   4.210   3.166   9.894  0.0390  0.3463  0.8035
 5154SOL    HW127095   4.288   3.113   9.911  0.6028  0.1635 -2.2553
 5154SOL    HW227096   4.164   3.142   9.973 -0.0446  1.6904  1.1660
 5155SOL     OW27097   1.247   0.472   6.306 -0.1643 -0.0633 -0.2104
 5155SOL    HW127098   1.165   0.517   6.325 -0.2102 -0.4717  0.5545
 5155SOL    HW227099   1.274   0.529   6.235  1.7737  0.9228  1.3068
 5156SOL     OW27100   4.259   4.643   6.870 -0.1729 -0.1574 -0.1240
 5156SOL    HW127101   4.168   4.631   6.895 -0.7340  0.1235 -2.0757
 5156SOL    HW227102   4.279   4.728   6.908 -1.5562 -0.0590  0.3893
 5157SOL     OW27103   0.419   0.388  15.744  0.4955 -0.4960 -0.3095
 5157SOL    HW127104   0.388   0.361  15.658 -1.0302  2.3367 -0.6160
 5157SOL    HW227105   0.344   0.357  15.795 -1.5820  2.6227 -1.5130
 5158SOL     OW27106   2.733   0.470   9.803 -0.4457  0.3886  0.4257
 5158SOL    HW127107   2.692   0.386   9.786 -0.0606 -0.0083  1.4272
 5158SOL    HW227108   2.768   0.459   9.892 -2.3193 -1.4926  0.9202
 5159SOL     OW27109   3.807   4.302   0.627  0.3139  0.0867 -0.7338
 5159SOL    HW127110   3.802   4.356   0.548 -0.8672 -0.4452 -1.0236
 5159SOL    HW227111   3.794   4.367   0.697  0.5919  0.3170 -0.8958
 5160SOL     OW27112   3.904   4.617   8.291 -0.5783  0.9228 -0.1247
 5160SOL    HW127113   3.913   4.622   8.196  1.4202  1.2522  0.0876
 5160SOL    HW227114   3.811   4.596   8.300 -0.1023 -1.7538 -1.3183
 5161SOL     OW27115   2.233   1.523  12.425 -0.0507 -0.5309  0.2598
 5161SOL    HW127116   2.262   1.609  12.455 -2.3594  0.8107 -1.3368
 5161SOL    HW227117   2.181   1.541  12.347 -0.5100 -0.2046  0.6316
 5162SOL     OW27118   4.157   1.874   4.542 -0.4877  0.8974 -0.7493
 5162SOL    HW127119   4.145   1.789   4.584  1.1264  0.4512 -1.2020
 5162SOL    HW227120   4.241   1.902   4.579 -0.1198 -0.9377 -0.2005
 5163SOL     OW27121   2.455   0.719  17.580 -0.0960  0.5835 -0.3002
 5163SOL    HW127122   2.535   0.711  17.631 -0.7363  0.1163  0.6464
 5163SOL    HW227123   2.477   0.796  17.528  2.1595  0.2740  0.2272
 5164SOL     OW27124   3.980   1.607   0.392  0.0885 -0.4718  0.0782
 5164SOL    HW127125   3.938   1.540   0.337 -0.6476 -0.1301  0.2273
 5164SOL    HW227126   4.003   1.674   0.327  0.0363 -1.3089 -0.8136
 5165SOL     OW27127   0.559   3.697   4.910  0.3893  0.2144  0.3907
 5165SOL    HW127128   0.545   3.631   4.842  1.1717  0.9353 -0.4724
 5165SOL    HW227129   0.494   3.665   4.973 -0.9782  1.4489 -0.4095
 5166SOL     OW27130   3.936   4.104  17.443 -0.1697  0.9957 -0.2125
 5166SOL    HW127131   3.968   4.184  17.483 -0.7211  0.5653  1.0734
 5166SOL    HW227132   3.925   4.052  17.522 -1.0229  1.1095 -0.2621
 5167SOL     OW27133   3.346   1.187  13.282  0.3202  0.2440  0.0432
 5167SOL    HW127134   3.407   1.253  13.252 -0.2639  0.1702 -1.3365
 5167SOL    HW227135   3.343   1.118  13.215  1.7777  0.0790  0.1607
 5168SOL     OW27136   2.259   0.511   6.829 -0.0306 -0.1930  0.1757
 5168SOL    HW127137   2.329   0.482   6.771  0.5415  0.1154  0.7185
 5168SOL    HW227138   2.269   0.606   6.824 -0.7568 -0.1966 -1.4558
 5169SOL     OW27139   1.956   2.797  17.007  0.1643  0.8609 -0.1910
 5169SOL    HW127140   2.041   2.814  16.966  1.3590 -4.7664 -0.0076
 5169SOL    HW227141   1.977   2.794  17.100  0.2070  1.9691 -0.1623
 5170SOL     OW27142   3.314   0.376   6.371 -0.3592  0.2167  0.1929
 5170SOL    HW127143   3.240   0.324   6.404 -0.6292  0.1644 -0.4821
 5170SOL    HW227144   3.325   0.450   6.430  1.9558 -1.8988  2.4039
 5171SOL     OW27145   4.432   1.106   1.610  0.0154  0.0910  0.4983
 5171SOL    HW127146   4.367   1.152   1.557 -1.4168 -2.4842 -0.0165
 5171SOL    HW227147   4.388   1.020   1.611  0.5332 -0.1639  2.0721
 5172SOL     OW27148   3.647   2.768   1.378  0.1607 -0.0221 -0.0890
 5172SOL    HW127149   3.572   2.724   1.338 -1.0825  0.9846  1.1335
 5172SOL    HW227150   3.699   2.688   1.387  0.7742  0.5607  1.4563
 5173SOL     OW27151   4.099   0.776  12.229  0.2372  0.1111  0.2319
 5173SOL    HW127152   4.014   0.795  12.268  0.0916  0.6921 -0.3584
 5173SOL    HW227153   4.148   0.858  12.220 -0.2881  0.2703 -1.2706
 5174SOL     OW27154   3.432   2.894   5.206  0.6758  0.0867 -0.0182
 5174SOL    HW127155   3.393   2.978   5.183  0.0936 -0.8254 -2.4094
 5174SOL    HW227156   3.412   2.852   5.122  1.1245  0.7124 -0.4418
 5175SOL     OW27157   2.442   1.983   1.617  0.1102  0.0002  0.1152
 5175SOL    HW127158   2.517   1.924   1.613 -0.8112 -1.3184  1.8437
 5175SOL    HW227159   2.442   2.013   1.707  1.5054  1.1998 -0.2997
 5176SOL     OW27160   3.069   3.222   5.017 -0.5225  0.1305 -0.0256
 5176SOL    HW127161   3.080   3.191   5.106 -1.8654 -0.9646 -0.2488
 5176SOL    HW227162   3.082   3.316   5.032  0.0449  0.0206  0.1695
 5177SOL     OW27163   2.653   2.157   2.375 -0.3074 -0.1503  0.1311
 5177SOL    HW127164   2.630   2.161   2.468 -2.6464  0.6378 -0.5009
 5177SOL    HW227165   2.659   2.062   2.363 -2.4650 -0.0509 -1.7112
 5178SOL     OW27166   4.014   3.532   8.201 -0.4028 -0.4882 -0.3449
 5178SOL    HW127167   3.939   3.582   8.168  0.8541  0.0180 -2.4067
 5178SOL    HW227168   4.067   3.600   8.243 -0.5611 -1.8330  2.0438
 5179SOL     OW27169   0.875   2.689   3.756  0.2857  0.4317 -0.2819
 5179SOL    HW127170   0.794   2.647   3.784 -0.6688  2.5274  0.0751
 5179SOL    HW227171   0.923   2.610   3.731  1.5296  0.7291  1.1279
 5180SOL     OW27172   0.513   1.281   6.995 -0.0134  0.3978  0.4046
 5180SOL    HW127173   0.502   1.376   7.004 -0.3199  0.5601 -1.5849
 5180SOL    HW227174   0.526   1.258   7.087  0.2227 -4.9816 -1.0042
 5181SOL     OW27175   3.858   3.196   1.567 -0.4136 -0.3930  1.0415
 5181SOL    HW127176   3.825   3.124   1.513 -0.5446  0.3464  0.1254
 5181SOL    HW227177   3.813   3.174   1.648  0.6132 -0.5427  1.5683
 5182SOL     OW27178   1.581   1.914   2.171  0.1814  0.2758 -0.3088
 5182SOL    HW127179   1.497   1.914   2.126  1.1248 -0.4074 -2.0312
 5182SOL    HW227180   1.601   2.008   2.176  3.4111 -0.4076 -0.5459
 5183SOL     OW27181   0.644   0.305  10.087 -0.1491 -0.2623  0.0381
 5183SOL    HW127182   0.614   0.215  10.072  0.6896 -0.3795 -0.9166
 5183SOL    HW227183   0.650   0.343   9.999 -1.3167  1.6531  0.7707
 5184SOL     OW27184   4.693   2.286   0.579 -0.3600 -0.1044  0.2673
 5184SOL    HW127185   0.013   2.216   0.601 -0.8363 -1.5760 -3.0069
 5184SOL    HW227186   4.633   2.242   0.518 -0.9198  0.5845  0.3141
 5185SOL     OW27187   2.960   3.573   8.351  0.0289  0.0005 -0.7076
 5185SOL    HW127188   3.030   3.637   8.361  0.0056  0.1344 -1.3712
 5185SOL    HW227189   2.977   3.537   8.264  2.3361 -0.7759  0.0747
 5186SOL     OW27190   0.612   1.910   3.519  0.4586 -0.0197 -0.2704
 5186SOL    HW127191   0.627   1.872   3.432 -1.7335 -0.5771 -0.3979
 5186SOL    HW227192   0.592   1.828   3.563  1.5331 -0.9332 -1.4486
 5187SOL     OW27193   1.622   1.348   4.064 -0.1037  0.1878  0.7154
 5187SOL    HW127194   1.601   1.401   4.140 -2.9012 -0.5763  0.4589
 5187SOL    HW227195   1.682   1.284   4.102 -0.9970 -1.5956 -0.8776
 5188SOL     OW27196   1.976   0.662   6.696  0.1367  0.1310 -0.1226
 5188SOL    HW127197   1.941   0.720   6.764  1.6072  1.4941 -0.5162
 5188SOL    HW227198   1.919   0.682   6.623  1.5125 -0.7481 -1.4382
 5189SOL     OW27199   2.152   1.506   7.997  0.6192  0.0553 -0.8012
 5189SOL    HW127200   2.223   1.559   7.961  0.4836  0.9814  0.3200
 5189SOL    HW227201   2.187   1.506   8.086 -1.4059  0.3593 -0.0051
 5190SOL     OW27202   3.128   1.231  13.012 -0.3268  0.0424  0.2942
 5190SOL    HW127203   3.172   1.306  12.972 -0.9230  1.1484  1.6972
 5190SOL    HW227204   3.039   1.250  12.981 -0.5998 -0.7958  0.5671
 5191SOL     OW27205   0.219   2.644   8.882 -0.0577  0.2171  0.4110
 5191SOL    HW127206   0.226   2.566   8.827  0.8671  1.1937 -0.8703
 5191SOL    HW227207   0.313   2.655   8.893 -0.3812  2.2621  1.1240
 5192SOL     OW27208   2.514   4.121   9.890  0.2306 -0.2365 -0.5407
 5192SOL    HW127209   2.493   4.143   9.799 -0.9818 -2.1657 -0.7161
 5192SOL    HW227210   2.480   4.195   9.940 -1.7275 -1.4316 -0.1122
 5193SOL     OW27211   4.154   2.781  16.225 -0.8905  0.6764 -0.1206
 5193SOL    HW127212   4.059   2.792  16.231 -1.2835 -1.7472 -2.4073
 5193SOL    HW227213   4.199   2.850  16.275  0.5593 -1.2646  1.2244
 5194SOL     OW27214   2.860   2.482   0.165 -0.7720  0.4561 -0.0404
 5194SOL    HW127215   2.935   2.422   0.160 -0.7031  0.6778 -1.6938
 5194SOL    HW227216   2.800   2.451   0.097 -1.0299  0.6523  0.0982
 5195SOL     OW27217   4.539   2.933   9.784  0.3386  0.4853  0.3829
 5195SOL    HW127218   4.498   2.852   9.815  1.6734 -0.4611 -0.3443
 5195SOL    HW227219   4.628   2.903   9.770 -1.1453 -2.4392 -2.9466
 5196SOL     OW27220   3.008   4.666   1.974 -0.3412 -0.4011 -0.7742
 5196SOL    HW127221   2.987   4.576   1.998 -0.9961 -0.0579 -0.0647
 5196SOL    HW227222   3.088   4.685   2.023  0.2894 -1.9680 -1.2109
 5197SOL     OW27223   1.611   0.741   4.967 -0.7467 -0.2900  0.1524
 5197SOL    HW127224   1.617   0.715   4.876 -1.3131 -0.5907  0.2058
 5197SOL    HW227225   1.523   0.777   4.971 -0.7341 -0.2346 -0.0954
 5198SOL     OW27226   2.205   0.318  17.758  0.0926  0.2352  0.0715
 5198SOL    HW127227   2.209   0.237  17.707  0.2171  1.2491 -1.5269
 5198SOL    HW227228   2.225   0.377  17.686 -2.4559 -0.9513 -1.5718
 5199SOL     OW27229   1.482   2.203   7.560  0.0614 -0.0929  0.0468
 5199SOL    HW127230   1.472   2.296   7.540 -1.3935 -0.1772  0.4164
 5199SOL    HW227231   1.407   2.181   7.614 -0.1092 -2.2314 -1.0627
 5200SOL     OW27232   4.312   2.140   8.358 -0.4458 -0.8114 -0.4800
 5200SOL    HW127233   4.328   2.198   8.283  1.7095 -0.6595  0.0855
 5200SOL    HW227234   4.320   2.205   8.428  0.5380 -0.4249 -0.9439
 5201SOL     OW27235   0.480   4.026   5.431  0.2238  0.1531  0.8065
 5201SOL    HW127236   0.452   4.107   5.390  1.5735  0.3203  0.1883
 5201SOL    HW227237   0.503   3.972   5.355 -0.8015  2.0917 -0.8790
 5202SOL     OW27238   0.343   4.420   7.506 -0.3251  0.9108 -0.0411
 5202SOL    HW127239   0.271   4.357   7.504  1.0512 -0.7364  1.4017
 5202SOL    HW227240   0.384   4.429   7.419 -0.2151  1.1520  0.0379
 5203SOL     OW27241   0.509   3.141   3.372 -0.2747 -0.3167 -0.1024
 5203SOL    HW127242   0.573   3.075   3.345  1.6172  0.1970  3.0411
 5203SOL    HW227243   0.419   3.111   3.369  0.0597 -1.1271 -1.8897
 5204SOL     OW27244   2.986   4.343   5.193 -0.5079  0.3247  0.2177
 5204SOL    HW127245   3.032   4.273   5.240  0.3642 -0.5245 -1.9015
 5204SOL    HW227246   2.915   4.354   5.257 -0.1035  1.0122  0.5470
 5205SOL     OW27247   1.970   1.044   0.339  0.0301  0.6041  0.2990
 5205SOL    HW127248   1.972   0.967   0.282 -3.5128  1.0491 -0.4261
 5205SOL    HW227249   2.029   1.023   0.411 -1.3331  0.5107  1.3705
 5206SOL     OW27250   3.726   2.565   0.258  0.0204  0.5913  0.4304
 5206SOL    HW127251   3.668   2.635   0.287 -2.0830 -0.3635 -1.4882
 5206SOL    HW227252   3.717   2.514   0.339  0.4374 -0.0805  0.0580
 5207SOL     OW27253   2.768   1.858  10.214 -0.4428 -0.1047 -0.0501
 5207SOL    HW127254   2.728   1.855  10.127 -3.2796  1.4673  1.2079
 5207SOL    HW227255   2.740   1.947  10.237 -2.2304  0.0353 -2.7173
 5208SOL     OW27256   2.431   2.186  17.162  0.4740 -0.5632  0.0738
 5208SOL    HW127257   2.469   2.273  17.174 -2.1712  0.3434  1.6912
 5208SOL    HW227258   2.336   2.189  17.156  0.3989 -2.7580 -0.0198
 5209SOL     OW27259   1.611   0.631   1.776  0.2774 -0.0118  0.1893
 5209SOL    HW127260   1.572   0.705   1.729 -1.4786 -0.7646  0.4518
 5209SOL    HW227261   1.697   0.628   1.734  1.1242  1.4931  1.7982
 5210SOL     OW27262   2.113   3.174   4.286  0.7015 -0.1129  0.5456
 5210SOL    HW127263   2.186   3.134   4.333  3.7294  0.7558 -3.5300
 5210SOL    HW227264   2.103   3.103   4.223 -0.2076 -0.6305  1.2602
 5211SOL     OW27265   0.685   2.191  11.779 -0.2770  0.0900 -0.0698
 5211SOL    HW127266   0.709   2.233  11.697  1.6382  0.9087  0.9057
 5211SOL    HW227267   0.650   2.105  11.754 -0.5396  0.7572 -1.9742
 5212SOL     OW27268   2.639   3.143   2.830 -0.0432 -0.4769 -0.4517
 5212SOL    HW127269   2.597   3.228   2.812  0.1124 -0.5494 -1.1583
 5212SOL    HW227270   2.674   3.164   2.917  1.4805  2.3383 -1.7303
 5213SOL     OW27271   4.376   3.134   2.931 -0.1633  0.4013  0.3887
 5213SOL    HW127272   4.339   3.165   2.848  0.3117  1.3037  0.5128
 5213SOL    HW227273   4.461   3.177   2.940 -0.9026  2.0222 -0.2778
 5214SOL     OW27274   0.106   2.158  14.357  0.1625  0.7300 -0.8169
 5214SOL    HW127275   0.138   2.198  14.276  0.6572 -0.1640 -1.0657
 5214SOL    HW227276   0.029   2.111  14.324 -0.6753  1.4983  0.0653
 5215SOL     OW27277   3.136   2.667   7.257 -0.1240  0.3373  0.0374
 5215SOL    HW127278   3.198   2.740   7.263  0.6869 -0.3191 -0.3506
 5215SOL    HW227279   3.187   2.623   7.189 -1.9194 -2.7126  0.7050
 5216SOL     OW27280   2.114   0.204   6.906  0.2531 -0.0971  0.0946
 5216SOL    HW127281   2.020   0.222   6.898  0.6342  1.0707 -1.8086
 5216SOL    HW227282   2.158   0.286   6.883 -0.1342 -0.6154 -2.5200
 5217SOL     OW27283   3.139   3.397   2.650  0.0736 -0.4255 -0.3954
 5217SOL    HW127284   3.210   3.456   2.626 -1.3988  0.6168 -2.1568
 5217SOL    HW227285   3.073   3.413   2.583  1.5666  2.1513 -1.2296
 5218SOL     OW27286   3.231   1.965  13.746 -0.0300  0.0727 -0.2184
 5218SOL    HW127287   3.288   1.942  13.820 -0.8292 -3.2504 -0.6325
 5218SOL    HW227288   3.163   1.900  13.762 -0.7828  0.5960 -1.3280
 5219SOL     OW27289   1.922   0.774   1.941  0.0280  0.2920  0.3502
 5219SOL    HW127290   1.969   0.722   1.877  1.3804  0.6373  1.0600
 5219SOL    HW227291   1.927   0.861   1.901  1.2648 -0.1081 -0.3527
 5220SOL     OW27292   1.147   2.052   7.199 -0.0957  0.3184 -0.0851
 5220SOL    HW127293   1.167   2.128   7.254  3.4129 -0.5939 -0.0469
 5220SOL    HW227294   1.182   2.084   7.116  2.0181 -2.0506 -0.1317
 5221SOL     OW27295   3.102   0.472  16.132  0.2778 -0.5755 -0.2179
 5221SOL    HW127296   3.048   0.486  16.055  1.7173 -2.1200 -1.5259
 5221SOL    HW227297   3.096   0.562  16.163 -2.0947 -0.8986  0.2497
 5222SOL     OW27298   4.453   1.665  16.089 -0.3473 -0.1016 -0.7047
 5222SOL    HW127299   4.536   1.669  16.041 -0.8337 -1.5101 -1.6698
 5222SOL    HW227300   4.431   1.572  16.086  0.7378 -0.4107  0.5400
 5223SOL     OW27301   0.999   2.145   9.377  0.0216  0.6869  0.2855
 5223SOL    HW127302   0.999   2.153   9.472 -1.5160  3.6059  0.0346
 5223SOL    HW227303   0.936   2.206   9.339  0.0069  0.2024 -0.4834
 5224SOL     OW27304   0.203   1.363  17.354 -0.2973  0.1118 -0.2675
 5224SOL    HW127305   0.291   1.390  17.331  0.1670  0.7695  2.2310
 5224SOL    HW227306   0.229   1.280  17.394 -0.0643  0.2372 -0.1603
 5225SOL     OW27307   2.046   3.165   8.245  0.2883 -0.0160  0.8488
 5225SOL    HW127308   2.117   3.160   8.309  1.4380 -2.0922 -0.5813
 5225SOL    HW227309   2.048   3.084   8.194  1.3491  0.1681  0.5907
 5226SOL     OW27310   2.460   1.971  12.971  0.4380  0.3484  0.8328
 5226SOL    HW127311   2.385   1.920  13.003  0.9960 -2.1830 -1.7760
 5226SOL    HW227312   2.493   2.008  13.053  0.1713  2.8423 -0.1912
 5227SOL     OW27313   3.327   4.536   4.411 -0.3483  0.2113  0.3665
 5227SOL    HW127314   3.350   4.569   4.498 -1.3689  0.9735  0.3355
 5227SOL    HW227315   3.381   4.596   4.360  1.4193 -1.3408  0.3869
 5228SOL     OW27316   1.725   0.877   8.015  0.1921  0.2887 -0.0432
 5228SOL    HW127317   1.674   0.819   7.959  1.1923 -1.3631  0.7709
 5228SOL    HW227318   1.670   0.955   8.010  0.8690  0.7276 -0.6654
 5229SOL     OW27319   0.710   3.826   6.834  0.3122  0.1291  0.1971
 5229SOL    HW127320   0.722   3.838   6.928 -0.8839 -2.2593  0.6506
 5229SOL    HW227321   0.652   3.900   6.821  0.2919  0.0239 -0.3213
 5230SOL     OW27322   4.656   2.119   7.766 -0.6580  0.3938  0.0399
 5230SOL    HW127323   4.681   2.071   7.687 -0.6531 -0.2161  0.4085
 5230SOL    HW227324   4.563   2.134   7.749 -0.1831  2.6910 -0.4414
 5231SOL     OW27325   3.031   1.537   0.100 -0.2329  0.9182  0.8612
 5231SOL    HW127326   3.009   1.557   0.191 -0.9381 -0.8590  1.0871
 5231SOL    HW227327   3.039   1.441   0.100 -0.4307  0.9006  1.7804
 5232SOL     OW27328   3.869   3.620   3.958 -0.1086 -1.0711  0.2163
 5232SOL    HW127329   3.905   3.685   4.019 -0.4729  0.3148 -1.0320
 5232SOL    HW227330   3.775   3.624   3.975 -0.5065 -4.0461 -1.2725
 5233SOL     OW27331   2.408   2.491  17.709 -0.5606  0.5040 -0.0360
 5233SOL    HW127332   2.414   2.423  17.642  0.3424  1.2457 -0.7155
 5233SOL    HW227333   2.313   2.483  17.723 -0.5216 -2.4613 -1.5856
 5234SOL     OW27334   2.997   0.032   5.444  0.2606 -0.3071  0.6529
 5234SOL    HW127335   2.926   0.079   5.489 -0.7925  0.2801 -1.6508
 5234SOL    HW227336   2.940   4.712   5.396 -0.7242  0.9787  0.1891
 5235SOL     OW27337   2.428   4.207   7.652  0.5316  0.2380 -0.2466
 5235SOL    HW127338   2.403   4.281   7.597 -0.7333  1.3215  1.7858
 5235SOL    HW227339   2.488   4.158   7.596 -0.9714 -1.4937 -0.3367
 5236SOL     OW27340   1.275   1.254   0.506  0.7513  0.4559  0.0538
 5236SOL    HW127341   1.182   1.271   0.514  0.1251 -2.1140 -1.8441
 5236SOL    HW227342   1.304   1.343   0.485  0.5891  0.4939 -0.0094
 5237SOL     OW27343   0.238   2.493   2.812 -0.2289 -0.2369 -0.5567
 5237SOL    HW127344   0.256   2.512   2.720 -0.6683  0.7744 -0.4235
 5237SOL    HW227345   0.220   2.399   2.805  0.9449 -0.3912 -1.4034
 5238SOL     OW27346   1.987   3.818   7.783  0.1388  0.1734 -0.0707
 5238SOL    HW127347   2.053   3.757   7.817 -0.7316 -1.2652 -0.9464
 5238SOL    HW227348   2.044   3.895   7.775  1.3938 -0.7615 -0.2870
 5239SOL     OW27349   3.477   1.242   8.802  0.8156  0.8739  0.0447
 5239SOL    HW127350   3.409   1.246   8.734  1.9584 -0.2420 -1.1560
 5239SOL    HW227351   3.423   1.271   8.875 -1.8823  1.2130 -2.0552
 5240SOL     OW27352   1.830   0.462   8.978 -0.3354 -0.3177  0.3835
 5240SOL    HW127353   1.804   0.414   8.899  0.3584  1.8800 -1.1823
 5240SOL    HW227354   1.856   0.547   8.943 -1.5910 -0.2203 -0.2951
 5241SOL     OW27355   0.544   3.509   8.497  0.2245  0.6939 -0.0162
 5241SOL    HW127356   0.609   3.573   8.467 -1.4068  1.7013 -1.4179
 5241SOL    HW227357   0.583   3.423   8.482 -1.0795  0.0803  0.1854
 5242SOL     OW27358   3.305   3.701   6.969  0.2392  0.1695  0.5758
 5242SOL    HW127359   3.221   3.718   7.012 -0.7217 -1.5378 -0.6214
 5242SOL    HW227360   3.360   3.675   7.043 -0.8775  0.7576  1.6210
 5243SOL     OW27361   2.353   4.612  16.054  0.1514  0.4596 -0.0287
 5243SOL    HW127362   2.400   4.644  16.131 -0.0233  0.2885  0.1498
 5243SOL    HW227363   2.264   4.604  16.087  0.0825 -0.7217 -0.4946
 5244SOL     OW27364   3.396   1.719   1.777  0.0180 -0.3632  0.5154
 5244SOL    HW127365   3.455   1.648   1.805  0.1518 -0.6089 -0.4182
 5244SOL    HW227366   3.451   1.783   1.732  1.8764 -0.1549  3.0632
 5245SOL     OW27367   0.650   4.704  13.181  0.3785 -0.3711  0.4557
 5245SOL    HW127368   0.708   4.690  13.106  2.0960 -1.5843  2.0152
 5245SOL    HW227369   0.582   4.637  13.168 -2.2495  2.8589 -2.4987
 5246SOL     OW27370   3.403   0.079   1.659  0.6554 -0.5184 -0.3626
 5246SOL    HW127371   3.383   0.131   1.737 -0.6936 -1.1235 -0.2970
 5246SOL    HW227372   3.382   4.731   1.687  0.8359 -0.5254 -0.2496
 5247SOL     OW27373   3.306   0.504  16.836  0.5835  0.1483  0.0415
 5247SOL    HW127374   3.255   0.584  16.850  0.5496  0.1699 -0.2062
 5247SOL    HW227375   3.392   0.529  16.870  1.2325  2.7647 -3.5307
 5248SOL     OW27376   4.497   3.711   9.391 -0.0663 -0.2887  0.0736
 5248SOL    HW127377   4.509   3.653   9.316  1.5748  0.2643 -0.0940
 5248SOL    HW227378   4.585   3.742   9.411  0.5763 -1.5959 -0.7703
 5249SOL     OW27379   3.048   3.070   8.121 -0.1559  0.0639  0.5037
 5249SOL    HW127380   3.036   2.982   8.086  2.4216  0.0317 -0.3080
 5249SOL    HW227381   2.996   3.060   8.201  0.4908 -2.5369  0.6082
 5250SOL     OW27382   1.854   3.589   8.257  0.2986 -0.0531  0.1501
 5250SOL    HW127383   1.929   3.637   8.222  1.0516 -1.8252 -0.6592
 5250SOL    HW227384   1.874   3.589   8.351 -0.6924 -0.3812  0.3700
 5251SOL     OW27385   2.636   0.427   3.317  0.0267 -0.6626  0.4102
 5251SOL    HW127386   2.722   0.409   3.278 -0.0832 -0.0458 -0.1134
 5251SOL    HW227387   2.623   0.518   3.289 -0.5825 -0.4954  1.2311
 5252SOL     OW27388   1.862   0.448   7.144 -0.2791 -0.5797  0.0942
 5252SOL    HW127389   1.825   0.437   7.057  0.4731 -0.6079 -0.2258
 5252SOL    HW227390   1.951   0.450   7.108 -1.5966 -3.8199 -3.2710
 5253SOL     OW27391   3.151   4.587   5.172 -0.0016  0.0845  0.1818
 5253SOL    HW127392   3.098   4.511   5.195 -2.8104  0.9975 -3.2113
 5253SOL    HW227393   3.102   4.644   5.113  0.3147  0.2200  0.0460
 5254SOL     OW27394   1.684   0.482  10.983 -0.3532 -0.6939  0.0085
 5254SOL    HW127395   1.700   0.552  10.920  2.6371  0.4400  2.0532
 5254SOL    HW227396   1.772   0.464  11.016  0.4277 -0.0424 -1.6753
 5255SOL     OW27397   3.959   3.722   4.389 -0.1866 -0.0636 -0.2493
 5255SOL    HW127398   4.000   3.769   4.462  1.4887 -0.4239 -0.9710
 5255SOL    HW227399   3.978   3.629   4.401 -0.0297  0.0131  0.0936
 5256SOL     OW27400   3.549   4.324  11.050  1.2971  0.4827 -0.3676
 5256SOL    HW127401   3.552   4.413  11.015  0.1643  0.5780 -0.2434
 5256SOL    HW227402   3.636   4.288  11.032  0.7242 -1.3774  0.5016
 5257SOL     OW27403   1.967   0.559   7.624 -0.4697 -0.1960 -0.5346
 5257SOL    HW127404   1.909   0.526   7.556 -0.2362  1.2843 -1.4608
 5257SOL    HW227405   1.992   0.639   7.577  1.4042 -1.9834 -2.5616
 5258SOL     OW27406   0.089   1.862   5.663 -1.0163 -0.3869 -0.5099
 5258SOL    HW127407   0.026   1.924   5.627 -0.2472  1.9047  2.1003
 5258SOL    HW227408   0.091   1.880   5.757  0.0453 -3.8421  0.1454
 5259SOL     OW27409   3.537   0.603  10.107 -0.2602  0.1309 -0.0203
 5259SOL    HW127410   3.500   0.550  10.036 -1.4680 -0.1315  0.8112
 5259SOL    HW227411   3.589   0.537  10.153 -0.4667  0.6916  1.0079
 5260SOL     OW27412   2.717   4.716  17.090 -0.0160  0.0609 -0.1689
 5260SOL    HW127413   2.787   4.723  17.154 -1.1952  1.5921  0.9465
 5260SOL    HW227414   2.666   0.055  17.105 -0.9837 -0.1154 -2.4364
 5261SOL     OW27415   4.535   0.879   5.534 -0.3517 -0.7119 -0.3189
 5261SOL    HW127416   4.591   0.887   5.456 -0.4712 -0.7406 -0.4067
 5261SOL    HW227417   4.571   0.793   5.556 -0.3751 -0.0946  2.1369
 5262SOL     OW27418   1.415   4.674   1.533 -0.7024  0.7349 -0.3352
 5262SOL    HW127419   1.464   0.006   1.497  1.9538 -0.7808  0.2226
 5262SOL    HW227420   1.492   4.625   1.562 -0.8824  0.0887 -0.9490
 5263SOL     OW27421   3.897   2.891   7.679 -0.3045  0.0616 -0.4294
 5263SOL    HW127422   3.812   2.874   7.638 -0.5587  1.5952 -0.5354
 5263SOL    HW227423   3.883   2.949   7.753 -0.9343  0.1467 -0.6112
 5264SOL     OW27424   2.991   3.027  12.130  0.4020 -0.0011 -0.0028
 5264SOL    HW127425   3.003   2.934  12.149  0.6391 -0.1813 -0.9836
 5264SOL    HW227426   3.006   3.025  12.035 -0.0145  0.8037 -0.0856
 5265SOL     OW27427   4.737   1.599   5.214  0.0905 -0.0853  0.1270
 5265SOL    HW127428   4.735   1.549   5.296  0.3610  0.7800  0.6566
 5265SOL    HW227429   4.654   1.645   5.220  0.3791  0.5078 -0.4590
 5266SOL     OW27430   3.430   3.962   6.569 -0.3499 -0.4291  0.2006
 5266SOL    HW127431   3.358   3.988   6.511 -1.9483  0.4370  2.5757
 5266SOL    HW227432   3.375   3.922   6.637 -2.1330 -0.0510 -1.0104
 5267SOL     OW27433   0.395   1.945  12.743 -0.3035  0.0777 -0.2568
 5267SOL    HW127434   0.460   1.908  12.683  0.9925  0.4963  0.8810
 5267SOL    HW227435   0.402   2.039  12.726  0.5707  0.4604  2.2394
 5268SOL     OW27436   2.495   3.616   7.573 -0.1780  0.4352  0.5418
 5268SOL    HW127437   2.421   3.647   7.522  0.4081  2.2729  0.8264
 5268SOL    HW227438   2.497   3.531   7.529 -3.2520  0.9655 -0.6159
 5269SOL     OW27439   1.057   2.032  10.680 -0.2946 -0.6047  0.1350
 5269SOL    HW127440   0.998   2.105  10.697 -2.2659 -1.8782 -1.2891
 5269SOL    HW227441   1.018   1.968  10.741  0.0139  1.1258  2.1467
 5270SOL     OW27442   3.960   4.421   2.330 -0.1516  0.4674  0.4646
 5270SOL    HW127443   3.901   4.386   2.264  0.4550 -2.6331  1.5436
 5270SOL    HW227444   4.046   4.413   2.289  0.5648 -1.1873  2.2834
 5271SOL     OW27445   3.467   4.040   7.263 -0.1702  0.8648  0.2590
 5271SOL    HW127446   3.474   3.953   7.302 -3.6756  0.6788  0.4580
 5271SOL    HW227447   3.539   4.084   7.308  1.4061  1.5389 -2.9130
 5272SOL     OW27448   1.401   4.597   8.765  0.0628 -0.9317  0.4002
 5272SOL    HW127449   1.309   4.586   8.790  0.4912 -2.8187  1.2003
 5272SOL    HW227450   1.433   4.654   8.834  0.6175 -3.2635  2.0892
 5273SOL     OW27451   3.714   1.854  10.256 -0.7381  0.3083  0.3668
 5273SOL    HW127452   3.758   1.938  10.259  2.8403 -1.5052 -1.7125
 5273SOL    HW227453   3.643   1.865  10.193 -0.3745  0.0955 -0.0803
 5274SOL     OW27454   3.256   2.207   7.978  0.5003 -0.3155  0.8519
 5274SOL    HW127455   3.338   2.164   7.954  0.2345 -0.0373 -0.5280
 5274SOL    HW227456   3.196   2.138   8.006 -0.4678 -0.0539 -0.6165
 5275SOL     OW27457   1.713   4.024   3.680 -0.2973  0.2636 -0.2411
 5275SOL    HW127458   1.752   3.936   3.681 -0.0466  0.3908  0.8298
 5275SOL    HW227459   1.626   4.001   3.648  0.4131 -1.9895 -0.6035
 5276SOL     OW27460   3.137   3.065   9.117 -0.0160 -0.2628 -0.2106
 5276SOL    HW127461   3.141   2.974   9.149 -0.8289 -1.6664 -4.0760
 5276SOL    HW227462   3.047   3.071   9.085  0.1138  0.5892 -0.4075
 5277SOL     OW27463   0.557   4.274   2.803 -0.3428 -0.0252  0.4149
 5277SOL    HW127464   0.503   4.288   2.725  2.3877 -1.0770 -1.6442
 5277SOL    HW227465   0.563   4.179   2.797  0.0993  0.0182  0.1889
 5278SOL     OW27466   2.414   1.431   1.391  0.2328 -0.6681 -0.3813
 5278SOL    HW127467   2.322   1.429   1.418  0.1873  0.8177 -0.4238
 5278SOL    HW227468   2.411   1.400   1.301  0.4510 -2.8132  0.3379
 5279SOL     OW27469   2.903   4.484   9.692  0.2797  0.0580 -0.7279
 5279SOL    HW127470   2.973   4.432   9.652  0.7852  2.2828 -2.7942
 5279SOL    HW227471   2.834   4.421   9.712  0.0288  0.5520 -0.0544
 5280SOL     OW27472   3.099   4.310  14.841 -0.2826 -0.1552 -0.2999
 5280SOL    HW127473   3.017   4.334  14.799  0.3776  2.7451  0.1025
 5280SOL    HW227474   3.074   4.313  14.933  0.7942  2.0112 -0.0730
 5281SOL     OW27475   3.142   2.146   1.775  0.5588  0.1802  0.6156
 5281SOL    HW127476   3.172   2.109   1.859  0.6098  1.7403  1.2754
 5281SOL    HW227477   3.222   2.172   1.729 -1.1144  0.5605 -2.0839
 5282SOL     OW27478   3.728   2.137   3.175  0.0513  0.4544  0.4445
 5282SOL    HW127479   3.751   2.109   3.086 -0.6890  1.0925  0.0568
 5282SOL    HW227480   3.635   2.151   3.159  0.6933  1.8750 -2.0305
 5283SOL     OW27481   2.445   1.511  16.026 -0.7567 -0.2269 -0.3374
 5283SOL    HW127482   2.483   1.498  16.113 -0.2636  0.4481 -0.4456
 5283SOL    HW227483   2.480   1.440  15.972  1.5896 -0.2208  1.1457
 5284SOL     OW27484   0.442   1.291   8.859  0.7311  0.6301  0.5898
 5284SOL    HW127485   0.461   1.377   8.897 -0.5291  2.0401 -1.9980
 5284SOL    HW227486   0.426   1.313   8.767 -0.9813 -0.4492  0.6356
 5285SOL     OW27487   0.733   1.289   7.873 -0.3124  0.7643 -0.4532
 5285SOL    HW127488   0.757   1.264   7.784 -1.7111 -0.4572 -0.4678
 5285SOL    HW227489   0.749   1.217   7.933 -1.2148  0.0381 -1.0983
 5286SOL     OW27490   1.828   3.918  15.290  0.0607 -0.1090  0.2977
 5286SOL    HW127491   1.798   3.850  15.351 -2.7108  2.6520  1.9728
 5286SOL    HW227492   1.834   3.869  15.208 -0.3655 -0.2612  0.3562
 5287SOL     OW27493   2.350   1.590  15.153  0.2803 -0.0751  0.2060
 5287SOL    HW127494   2.292   1.560  15.083 -0.0578  1.8103 -0.3036
 5287SOL    HW227495   2.293   1.656  15.192 -1.3005 -1.4773  0.2529
 5288SOL     OW27496   3.653   1.232   6.901  0.1148 -1.0822 -0.7393
 5288SOL    HW127497   3.616   1.168   6.840  1.2645 -2.8747  0.4326
 5288SOL    HW227498   3.664   1.311   6.848 -1.0194  0.8343  1.9609
 5289SOL     OW27499   3.109   0.216   5.239 -0.7391 -0.1375 -0.1933
 5289SOL    HW127500   3.046   0.165   5.291 -0.2891  0.0757  0.5650
 5289SOL    HW227501   3.138   0.277   5.306 -1.8990  2.1616 -1.7948
 5290SOL     OW27502   3.715   4.286   2.766  0.4135 -0.2665 -0.3901
 5290SOL    HW127503   3.713   4.319   2.856  1.1295 -1.0051 -0.0939
 5290SOL    HW227504   3.631   4.240   2.762  0.1646  0.1385  0.2730
 5291SOL     OW27505   2.829   3.273  12.122 -0.3836  0.1489  0.3340
 5291SOL    HW127506   2.897   3.259  12.189 -1.7042 -0.5859  1.5155
 5291SOL    HW227507   2.809   3.180  12.108  0.0963  0.3178 -1.4913
 5292SOL     OW27508   1.610   3.070   7.899 -0.1382  0.5988  0.4748
 5292SOL    HW127509   1.666   3.005   7.856 -0.0585  0.5705  0.6196
 5292SOL    HW227510   1.640   3.151   7.858  1.4350 -0.9072 -1.3937
 5293SOL     OW27511   2.084   1.124   2.603 -0.2664  0.3442  0.8076
 5293SOL    HW127512   2.103   1.066   2.529  2.5222  2.7463 -0.3596
 5293SOL    HW227513   2.163   1.117   2.657  0.9173  1.2921 -0.7959
 5294SOL     OW27514   0.399   0.951   5.087  0.8738 -0.1915 -0.5153
 5294SOL    HW127515   0.406   0.992   5.174 -2.0725  1.5231 -1.0918
 5294SOL    HW227516   0.435   1.018   5.028  2.0728 -1.7883 -1.6098
 5295SOL     OW27517   0.668   2.507  12.530 -0.2226  0.0623 -0.2995
 5295SOL    HW127518   0.664   2.595  12.567 -0.7313 -0.6003  1.1963
 5295SOL    HW227519   0.724   2.523  12.454 -0.4447  1.2246 -0.2155
 5296SOL     OW27520   3.025   1.114   5.873 -0.0010 -0.3585 -0.1271
 5296SOL    HW127521   3.020   1.152   5.960  1.2591  0.2733 -0.3365
 5296SOL    HW227522   3.057   1.025   5.887 -0.8597 -0.7300 -0.4722
 5297SOL     OW27523   2.590   3.772   4.969 -0.3471  0.1766 -0.4821
 5297SOL    HW127524   2.595   3.677   4.982 -0.0292  0.4066  1.0316
 5297SOL    HW227525   2.638   3.801   5.047  2.6314 -3.0033 -1.1211
 5298SOL     OW27526   1.537   4.568   8.502  0.1317 -0.3186  0.5294
 5298SOL    HW127527   1.454   4.575   8.550  0.5027 -1.6911  1.3841
 5298SOL    HW227528   1.561   4.478   8.524 -0.4269  0.2131  3.3702
 5299SOL     OW27529   3.126   3.897  15.422 -0.3164 -0.7427  0.0249
 5299SOL    HW127530   3.087   3.861  15.342  0.1557  0.8297 -0.9249
 5299SOL    HW227531   3.046   3.895  15.474  0.2180 -1.5997  0.8055
 5300SOL     OW27532   4.275   0.237  17.027  0.2357  0.1541 -0.4566
 5300SOL    HW127533   4.260   0.320  16.982 -0.7627 -0.8676 -2.0189
 5300SOL    HW227534   4.364   0.226  16.994 -0.2224  0.9053 -1.9502
 5301SOL     OW27535   3.916   3.214   9.000  0.4291 -0.4259  0.2884
 5301SOL    HW127536   3.999   3.255   9.021  0.2450 -0.5010  1.1632
 5301SOL    HW227537   3.924   3.214   8.905  0.0759 -0.9093  0.2543
 5302SOL     OW27538   2.725   3.390   6.711  0.4462 -0.0541 -0.0820
 5302SOL    HW127539   2.815   3.415   6.729 -0.5775  3.5868 -0.1537
 5302SOL    HW227540   2.739   3.351   6.625 -0.5912  1.4133 -0.9098
 5303SOL     OW27541   4.627   3.537   4.864  0.0732  1.0117  0.3329
 5303SOL    HW127542   4.541   3.500   4.846  2.1133 -3.9064  0.7644
 5303SOL    HW227543   4.654   3.560   4.775 -0.1386 -0.2808 -0.0683
 5304SOL     OW27544   2.768   3.055   3.330  0.0377  0.3041  0.1090
 5304SOL    HW127545   2.851   3.008   3.323  0.4065  1.2045 -1.5154
 5304SOL    HW227546   2.706   2.983   3.340 -0.1562  0.0876 -2.7899
 5305SOL     OW27547   3.694   3.898   3.523  0.2602  0.1929 -0.3165
 5305SOL    HW127548   3.639   3.823   3.502 -0.1548  0.8988 -1.7701
 5305SOL    HW227549   3.743   3.872   3.601  2.0046 -1.2765 -1.9174
 5306SOL     OW27550   0.306   0.683   2.469 -0.0684  0.5464 -0.1905
 5306SOL    HW127551   0.252   0.760   2.486 -1.6564 -0.4004 -1.0501
 5306SOL    HW227552   0.393   0.714   2.443 -0.0614  1.8328  1.3163
 5307SOL     OW27553   0.025   4.382  13.616 -0.0891  0.3808  0.2631
 5307SOL    HW127554   4.678   4.415  13.599  0.3209  0.6378 -1.4539
 5307SOL    HW227555   0.029   4.309  13.554  0.9216 -0.4018  1.2689
 5308SOL     OW27556   1.694   0.898   1.279  0.3026 -0.1206 -0.0646
 5308SOL    HW127557   1.599   0.900   1.265  0.1628 -1.9468  0.6897
 5308SOL    HW227558   1.715   0.990   1.262  0.8602  0.0199  1.3641
 5309SOL     OW27559   4.675   3.512   7.122  0.3506 -0.6834 -0.5165
 5309SOL    HW127560   0.008   3.455   7.142 -0.1804 -1.8104 -1.7503
 5309SOL    HW227561   4.670   3.549   7.210 -2.1093  0.9949 -1.3672
 5310SOL     OW27562   3.610   0.547   4.523 -0.1732 -0.2780  0.0674
 5310SOL    HW127563   3.569   0.584   4.445 -2.4585 -3.1775 -0.1200
 5310SOL    HW227564   3.586   0.455   4.527  2.2593 -0.9998 -1.7761
 5311SOL     OW27565   1.972   1.719   8.014  0.1954  0.0873 -0.2485
 5311SOL    HW127566   1.927   1.668   8.080 -1.2402 -0.1803 -1.4350
 5311SOL    HW227567   2.038   1.659   7.979  0.7698  1.8843 -2.3437
 5312SOL     OW27568   2.835   1.222  14.198  0.3270  0.4293 -0.1619
 5312SOL    HW127569   2.821   1.128  14.184 -2.0211  0.6409  0.7283
 5312SOL    HW227570   2.921   1.221  14.240  0.6919  2.1223 -0.8582
 5313SOL     OW27571   4.069   0.795   7.442  0.1348  0.0941  0.5406
 5313SOL    HW127572   4.127   0.824   7.513  1.1513  0.3138 -0.3715
 5313SOL    HW227573   3.985   0.811   7.484 -1.6328 -4.3417 -1.2855
 5314SOL     OW27574   0.423   3.885   1.815 -0.1866  0.2991 -0.6391
 5314SOL    HW127575   0.342   3.892   1.765 -0.4693 -2.4418 -0.5683
 5314SOL    HW227576   0.382   3.880   1.902 -0.1975  0.4803 -0.6335
 5315SOL     OW27577   4.353   0.275   6.570 -0.0696  0.7863  0.1464
 5315SOL    HW127578   4.439   0.293   6.609  0.8667 -0.0700 -1.5538
 5315SOL    HW227579   4.296   0.264   6.646 -0.4429  1.2997 -0.0644
 5316SOL     OW27580   4.013   0.157   8.755  0.2602 -0.4238  0.5849
 5316SOL    HW127581   3.966   0.074   8.765 -1.0344  0.3284  0.7786
 5316SOL    HW227582   4.018   0.192   8.844 -0.0337 -1.6901  1.0964
 5317SOL     OW27583   2.436   1.784   4.808 -0.5152  0.0116  0.2334
 5317SOL    HW127584   2.434   1.820   4.897  0.9588 -1.1701  0.7516
 5317SOL    HW227585   2.503   1.719   4.828 -1.0513  0.2819  2.8628
 5318SOL     OW27586   1.999   3.188   6.065  0.1810  0.3421 -0.2844
 5318SOL    HW127587   2.064   3.230   6.121 -0.4952  0.1151  0.6659
 5318SOL    HW227588   1.957   3.133   6.130  0.1661  0.3735 -0.2672
 5319SOL     OW27589   0.822   0.725  11.916  0.0387 -0.1107 -0.1757
 5319SOL    HW127590   0.784   0.788  11.977 -2.9029 -0.3639 -1.7235
 5319SOL    HW227591   0.917   0.738  11.915 -0.0295  0.4033  0.0221
 5320SOL     OW27592   2.686   1.137  17.396 -0.6598  0.4847  0.6235
 5320SOL    HW127593   2.770   1.136  17.443 -0.7881 -2.1824  0.7864
 5320SOL    HW227594   2.639   1.213  17.431 -0.7291 -0.0919  1.7509
 5321SOL     OW27595   3.580   1.522  12.229 -0.5675 -0.7771 -0.0308
 5321SOL    HW127596   3.577   1.476  12.145  1.8673 -3.1379  1.2201
 5321SOL    HW227597   3.610   1.450  12.284  0.1585 -0.4976 -0.0600
 5322SOL     OW27598   2.532   4.461   9.403  0.6599 -0.2908 -0.7138
 5322SOL    HW127599   2.590   4.521   9.354  0.3769  0.9640  0.4929
 5322SOL    HW227600   2.445   4.497   9.386  0.4779  0.3216  1.5524
 5323SOL     OW27601   0.999   1.070   2.112 -0.8967 -0.5075 -0.1083
 5323SOL    HW127602   0.985   0.976   2.096  1.1221 -0.8886  0.3098
 5323SOL    HW227603   1.080   1.089   2.065 -0.5471 -0.6077  0.4440
 5324SOL     OW27604   2.791   3.766   4.235  0.1119  0.5862  0.4663
 5324SOL    HW127605   2.739   3.811   4.168  1.2304  2.2090  0.6961
 5324SOL    HW227606   2.862   3.830   4.234 -0.8356  1.6117 -1.0483
 5325SOL     OW27607   1.478   2.902   2.972 -0.1467 -0.3631 -0.6283
 5325SOL    HW127608   1.457   2.842   3.044  1.8972 -1.1594 -0.6967
 5325SOL    HW227609   1.416   2.875   2.904 -1.3743  1.4761 -0.2524
 5326SOL     OW27610   1.583   0.245   2.806  0.2051 -0.1115 -0.3724
 5326SOL    HW127611   1.596   0.311   2.739 -0.7473 -0.5167 -0.9566
 5326SOL    HW227612   1.495   0.220   2.778  0.9827 -2.0495 -1.0564
 5327SOL     OW27613   4.543   0.433  15.793  0.3313  0.4953  0.1638
 5327SOL    HW127614   4.585   0.384  15.722 -0.1451 -0.5303  0.5993
 5327SOL    HW227615   4.450   0.444  15.771 -0.1773  1.5787  2.9113
 5328SOL     OW27616   1.907   0.222   8.491  0.1218  0.0501  0.1008
 5328SOL    HW127617   1.852   0.167   8.547  2.3807  0.9254  3.1378
 5328SOL    HW227618   1.933   0.159   8.423 -1.8245 -0.9631  0.2813
 5329SOL     OW27619   1.485   1.282   2.100 -0.4843  0.0599 -0.4104
 5329SOL    HW127620   1.518   1.255   2.186 -0.7593 -0.1655 -0.3768
 5329SOL    HW227621   1.569   1.265   2.057  0.4022  1.7332  0.6303
 5330SOL     OW27622   4.406   2.696   5.222  0.1430 -0.2714  0.2019
 5330SOL    HW127623   4.383   2.771   5.277 -1.1996  0.4908 -1.3683
 5330SOL    HW227624   4.498   2.684   5.244  0.2586  0.0850 -0.0887
 5331SOL     OW27625   4.406   4.205   3.140 -0.2606  0.5443 -0.0480
 5331SOL    HW127626   4.424   4.181   3.231 -1.1398  0.1553  0.0183
 5331SOL    HW227627   4.312   4.192   3.131  0.0713  0.1329 -2.9123
 5332SOL     OW27628   0.236   4.054   4.842  0.4057  0.0326  0.1332
 5332SOL    HW127629   0.220   3.985   4.777 -1.9979  1.0539 -0.3449
 5332SOL    HW227630   0.327   4.034   4.865  0.8319 -0.5157 -2.0044
 5333SOL     OW27631   0.672   0.825  17.620 -0.1405 -0.0668 -0.5394
 5333SOL    HW127632   0.717   0.873  17.690  0.9094  0.3841 -1.5200
 5333SOL    HW227633   0.579   0.844  17.633 -0.1946  1.3163 -2.9251
 5334SOL     OW27634   0.250   0.702  14.062 -0.3170  0.5011 -0.1362
 5334SOL    HW127635   0.341   0.680  14.042 -0.9509 -1.7143 -0.5468
 5334SOL    HW227636   0.268   0.735  14.151 -1.1670 -0.2899  0.3236
 5335SOL     OW27637   2.983   3.038   6.485  0.0773 -0.0008 -0.2958
 5335SOL    HW127638   2.953   3.126   6.508 -0.0748 -0.5254  1.5423
 5335SOL    HW227639   3.076   3.057   6.474  0.1314 -1.4239 -2.2635
 5336SOL     OW27640   2.013   1.708  15.151  0.0140 -0.0726 -0.2487
 5336SOL    HW127641   1.940   1.755  15.190 -1.1319 -2.3784  0.3794
 5336SOL    HW227642   2.061   1.773  15.099 -0.0397 -0.0451 -0.2632
 5337SOL     OW27643   1.908   4.245  13.671 -0.1378  0.3692 -0.7267
 5337SOL    HW127644   1.889   4.312  13.606  0.6730 -0.4376 -1.7905
 5337SOL    HW227645   1.999   4.218  13.660 -0.1625 -0.2247  0.5346
 5338SOL     OW27646   1.627   3.627   2.363  0.2266 -0.3593 -0.3717
 5338SOL    HW127647   1.633   3.686   2.287  0.6550  0.1902  0.0832
 5338SOL    HW227648   1.574   3.680   2.422  2.8551  1.2294  0.5929
 5339SOL     OW27649   1.299   3.926   4.255  0.5735 -0.1081 -0.0434
 5339SOL    HW127650   1.293   3.976   4.336 -1.0694 -1.9509  0.9852
 5339SOL    HW227651   1.362   3.985   4.213 -0.2182  1.0642  0.4258
 5340SOL     OW27652   1.089   1.819  10.330  0.3467  0.4672  0.3096
 5340SOL    HW127653   1.001   1.811  10.293  0.7594  0.9365 -0.7658
 5340SOL    HW227654   1.105   1.725  10.342  0.8588  0.2833 -1.9169
 5341SOL     OW27655   4.702   3.281   5.748  0.1883 -0.1523 -0.2081
 5341SOL    HW127656   4.717   3.278   5.843 -0.6527 -2.5890 -0.1577
 5341SOL    HW227657   4.734   3.370   5.730 -2.7631  0.4609 -2.3180
 5342SOL     OW27658   3.279   4.062  14.492 -0.1115  0.2965 -0.4375
 5342SOL    HW127659   3.276   4.041  14.399 -2.0226 -3.4974  0.4940
 5342SOL    HW227660   3.190   4.034  14.516  0.3897  0.4208  1.6420
 5343SOL     OW27661   3.694   0.674   2.772 -0.0092 -0.5777  0.1487
 5343SOL    HW127662   3.787   0.673   2.796  0.1398 -2.6520 -0.5655
 5343SOL    HW227663   3.672   0.581   2.778  0.2124 -0.6702 -0.4331
 5344SOL     OW27664   0.096   1.125  11.534 -0.1224 -0.4146  0.4238
 5344SOL    HW127665   0.009   1.148  11.501 -0.0157  2.5558  2.2495
 5344SOL    HW227666   0.137   1.210  11.523 -0.9563  0.0484  0.8948
 5345SOL     OW27667   4.280   3.004   8.988  0.2653  0.1424 -0.2013
 5345SOL    HW127668   4.295   2.948   8.912 -1.1417 -0.9834  0.3580
 5345SOL    HW227669   4.257   3.088   8.948 -2.2424  0.0035  0.9308
 5346SOL     OW27670   1.237   4.567  10.852  0.8618  0.0722  0.3084
 5346SOL    HW127671   1.231   4.576  10.947  0.5546 -1.0696  0.3945
 5346SOL    HW227672   1.330   4.547  10.843  0.8569 -0.6822  1.8800
 5347SOL     OW27673   1.979   2.092   4.667 -0.8630 -0.7737  0.5727
 5347SOL    HW127674   1.999   2.183   4.644 -2.1260 -1.0379 -1.5922
 5347SOL    HW227675   1.916   2.070   4.598  0.3572  0.2535 -0.8954
 5348SOL     OW27676   2.349   0.622   1.363 -0.5234 -0.3227  0.3200
 5348SOL    HW127677   2.336   0.548   1.422  1.3107 -1.3692 -0.5948
 5348SOL    HW227678   2.437   0.640   1.395 -0.5254 -2.0111  1.2892
 5349SOL     OW27679   3.225   1.578   5.485 -0.4601 -0.2843 -0.0898
 5349SOL    HW127680   3.234   1.484   5.500  0.7955  0.1561  1.8907
 5349SOL    HW227681   3.216   1.581   5.390  3.5122  2.2583 -0.3878
 5350SOL     OW27682   0.261   1.218   3.755 -0.1529 -0.2228  0.2236
 5350SOL    HW127683   0.184   1.232   3.701 -0.5917 -1.8343  0.4294
 5350SOL    HW227684   0.251   1.124   3.769 -0.9881  0.0417  1.4177
 5351SOL     OW27685   4.121   1.116   6.996 -0.0183  0.3345 -0.8114
 5351SOL    HW127686   4.126   1.195   6.942 -3.6914 -0.2605 -1.9735
 5351SOL    HW227687   4.035   1.124   7.036  0.9016 -0.5402  1.3456
 5352SOL     OW27688   0.267   0.767  15.900  0.2571  0.0071 -0.2398
 5352SOL    HW127689   0.200   0.709  15.936  1.2780 -0.4003  1.0009
 5352SOL    HW227690   0.305   0.796  15.983 -0.7375 -0.7966  0.4972
 5353SOL     OW27691   3.859   3.616   3.268 -0.1735 -0.0725 -0.4994
 5353SOL    HW127692   3.834   3.525   3.285 -1.7046  0.3628 -0.3551
 5353SOL    HW227693   3.953   3.605   3.276 -0.2180 -0.4854 -0.5339
 5354SOL     OW27694   0.593   4.598  13.737 -0.3337 -0.7306  0.1368
 5354SOL    HW127695   0.618   4.505  13.729  2.0658 -0.1638  0.9958
 5354SOL    HW227696   0.563   4.610  13.648 -1.4839 -0.6312  0.5388
 5355SOL     OW27697   2.675   3.784   8.205 -0.1319 -0.0562  0.3076
 5355SOL    HW127698   2.593   3.832   8.216 -0.7504 -0.8608 -0.7715
 5355SOL    HW227699   2.723   3.860   8.172  1.2060 -1.1734 -0.3250
 5356SOL     OW27700   2.713   4.655   7.835  0.2086  0.3803  0.3653
 5356SOL    HW127701   2.650   4.629   7.768 -0.9746  1.2119  1.1683
 5356SOL    HW227702   2.783   4.651   7.769 -0.6156 -0.1557 -0.4712
 5357SOL     OW27703   0.628   0.874   5.378  0.1597  0.6466  0.1916
 5357SOL    HW127704   0.658   0.793   5.335 -0.8288 -0.5044  1.6638
 5357SOL    HW227705   0.616   0.849   5.470  0.4085  2.5530  0.7456
 5358SOL     OW27706   0.043   1.940   5.917  0.3313  0.0297 -0.1118
 5358SOL    HW127707   4.698   1.930   5.957  0.6977  2.1078  1.1858
 5358SOL    HW227708   0.097   1.876   5.964 -0.4092 -0.0583  0.6114
 5359SOL     OW27709   1.740   1.587   3.865 -0.0392 -0.1097 -0.4848
 5359SOL    HW127710   1.785   1.672   3.864  2.1967 -1.3187 -1.7766
 5359SOL    HW227711   1.669   1.602   3.927  0.3809  0.7741 -0.2143
 5360SOL     OW27712   0.897   2.948   9.836  0.3885 -0.2560  0.4861
 5360SOL    HW127713   0.811   2.989   9.835  0.5423  0.0568 -0.0121
 5360SOL    HW227714   0.911   2.904   9.753  0.5180  0.0879  0.3214
 5361SOL     OW27715   2.604   0.841   6.457 -0.1883  0.0648 -0.8135
 5361SOL    HW127716   2.516   0.826   6.490 -0.5503 -0.0838 -1.8277
 5361SOL    HW227717   2.657   0.844   6.537 -2.9563 -0.1523  1.0086
 5362SOL     OW27718   2.033   2.602  12.036 -0.9723  0.0904 -0.3647
 5362SOL    HW127719   2.045   2.512  12.066  1.4615  0.3004 -0.7040
 5362SOL    HW227720   2.019   2.648  12.119  2.1784 -0.3434  0.4006
 5363SOL     OW27721   2.702   2.249  15.214 -0.1539 -0.1423  0.0107
 5363SOL    HW127722   2.754   2.318  15.255  1.8544 -0.8863 -1.2983
 5363SOL    HW227723   2.703   2.276  15.122 -0.5158 -1.2360 -0.3165
 5364SOL     OW27724   2.568   4.152   7.216 -0.4322 -0.2830  0.0266
 5364SOL    HW127725   2.581   4.175   7.125 -0.0491 -1.8230 -0.3143
 5364SOL    HW227726   2.593   4.060   7.223  1.0131  0.1132  0.1905
 5365SOL     OW27727   1.338   0.901   5.821  0.1358 -0.2453  0.2597
 5365SOL    HW127728   1.329   0.969   5.754 -0.3441 -0.0424  0.5307
 5365SOL    HW227729   1.298   0.948   5.894 -0.1491  0.0594 -0.0929
 5366SOL     OW27730   1.792   1.494  17.254  0.6062  0.7825 -0.0432
 5366SOL    HW127731   1.877   1.535  17.269  0.2671  1.8579 -1.0475
 5366SOL    HW227732   1.785   1.488  17.159 -1.5412  0.4531  0.1385
 5367SOL     OW27733   2.116   3.743   6.320  0.4253 -0.1867  0.5467
 5367SOL    HW127734   2.024   3.764   6.339  0.3149  0.2043 -0.4275
 5367SOL    HW227735   2.161   3.816   6.362  0.9623 -0.4474  0.4197
 5368SOL     OW27736   2.940   2.782   2.121 -0.7270 -0.9933 -0.1231
 5368SOL    HW127737   2.857   2.763   2.077 -0.6135 -0.5465 -0.5266
 5368SOL    HW227738   2.918   2.762   2.212  0.0750 -1.7447 -0.0935
 5369SOL     OW27739   0.405   0.641   7.463  0.3009  0.4234 -0.3336
 5369SOL    HW127740   0.459   0.681   7.394  0.6751 -0.6118 -0.6311
 5369SOL    HW227741   0.401   0.548   7.441 -0.9681  0.5399 -0.6246
 5370SOL     OW27742   3.299   2.705   5.850 -0.0969 -0.1917  0.0143
 5370SOL    HW127743   3.336   2.626   5.888 -1.2420 -0.6416  0.2042
 5370SOL    HW227744   3.240   2.662   5.787  1.0206  1.6086 -2.2639
 5371SOL     OW27745   1.366   0.980  13.640  0.1790 -0.3540  0.5189
 5371SOL    HW127746   1.325   0.977  13.726  2.7245 -3.6016  1.6428
 5371SOL    HW227747   1.361   1.073  13.619  1.2159 -0.2909  0.5319
 5372SOL     OW27748   4.680   2.713   8.722 -0.2797  0.0973  0.1261
 5372SOL    HW127749   0.025   2.745   8.751 -0.5878  0.1664  0.9541
 5372SOL    HW227750   4.676   2.760   8.639  0.9218  0.8548  0.4907
 5373SOL     OW27751   2.957   2.159   7.431 -0.1062  0.3645  0.0619
 5373SOL    HW127752   2.907   2.238   7.453 -2.7075 -1.3760  0.4047
 5373SOL    HW227753   3.030   2.208   7.392  0.2269  0.6669  1.0520
 5374SOL     OW27754   2.607   1.186   6.529 -0.2073  0.4438 -0.3782
 5374SOL    HW127755   2.556   1.113   6.564 -1.6050  1.6100  0.0287
 5374SOL    HW227756   2.572   1.252   6.589 -0.6468 -0.8573  0.7920
 5375SOL     OW27757   3.317   2.788   2.738 -0.3237  0.1809 -0.8203
 5375SOL    HW127758   3.403   2.813   2.771 -1.1353  0.8244  0.8011
 5375SOL    HW227759   3.302   2.858   2.674 -0.7154 -0.6966 -1.6961
 5376SOL     OW27760   2.207   4.272   2.186  0.1221 -0.7412 -0.1044
 5376SOL    HW127761   2.135   4.335   2.179 -0.6758 -1.4354  1.7724
 5376SOL    HW227762   2.274   4.336   2.211 -1.2391  1.2975 -1.5903
 5377SOL     OW27763   1.803   3.424  14.573  0.2771  0.1806 -0.2697
 5377SOL    HW127764   1.708   3.424  14.583  0.3559  1.3631  0.4940
 5377SOL    HW227765   1.817   3.491  14.506 -0.5850 -0.3706 -1.0059
 5378SOL     OW27766   1.251   0.111   6.834 -0.7120  0.1870  0.0360
 5378SOL    HW127767   1.259   0.016   6.835 -1.8091  0.0836 -0.9598
 5378SOL    HW227768   1.268   0.122   6.927 -1.1211  0.8370  0.0350
 5379SOL     OW27769   3.752   2.596   6.496 -0.1764  0.0719  0.1400
 5379SOL    HW127770   3.689   2.659   6.531  0.2434  0.1024  0.8420
 5379SOL    HW227771   3.763   2.612   6.402 -2.6971 -0.2119 -0.2224
 5380SOL     OW27772   0.472   1.553   8.959  0.1602 -0.0192  0.5875
 5380SOL    HW127773   0.450   1.637   8.920  3.4531  0.5164 -0.1707
 5380SOL    HW227774   0.567   1.567   8.954  0.2645 -0.6068  0.8766
 5381SOL     OW27775   2.588   2.874   6.325  0.0426  0.6257  0.2729
 5381SOL    HW127776   2.525   2.802   6.313  1.2668 -0.3740 -0.1429
 5381SOL    HW227777   2.544   2.918   6.398  1.5681  1.1140  0.8954
 5382SOL     OW27778   1.206   0.677   5.618  0.0772  0.1634 -0.2815
 5382SOL    HW127779   1.290   0.650   5.656 -0.1089  2.1136  1.5150
 5382SOL    HW227780   1.161   0.684   5.702 -0.2573  4.5497 -0.8161
 5383SOL     OW27781   2.328   1.494   1.681  0.5945  0.2641  0.3217
 5383SOL    HW127782   2.316   1.562   1.615  0.8629  1.1078  1.1390
 5383SOL    HW227783   2.250   1.500   1.736  1.3149 -1.6591  1.5335
 5384SOL     OW27784   0.255   4.701   4.704  0.0579 -0.1356  0.2252
 5384SOL    HW127785   0.298   0.044   4.687 -1.2061  0.6528  0.8834
 5384SOL    HW227786   0.199   4.700   4.627 -1.4083  0.9458  1.2751
 5385SOL     OW27787   3.669   0.322   8.013  0.1700  0.1297  0.3219
 5385SOL    HW127788   3.580   0.309   8.045  0.1941  0.6257  0.5953
 5385SOL    HW227789   3.715   0.350   8.092  0.5310  1.6647 -0.4077
 5386SOL     OW27790   4.232   3.556   8.372 -0.1638  0.1671  0.0464
 5386SOL    HW127791   4.225   3.601   8.456 -0.7285 -0.5015  0.3669
 5386SOL    HW227792   4.325   3.556   8.353 -0.0955  0.7643  0.4017
 5387SOL     OW27793   2.336   0.931  14.682 -1.2121 -0.1366 -0.6817
 5387SOL    HW127794   2.413   0.985  14.665 -0.5293 -0.2170  2.1816
 5387SOL    HW227795   2.338   0.920  14.777 -3.9056  2.9642 -0.2752
 5388SOL     OW27796   4.342   3.696   0.620 -0.1475  0.8397  0.3062
 5388SOL    HW127797   4.278   3.627   0.604  1.0497 -0.7637  2.5001
 5388SOL    HW227798   4.292   3.774   0.595  0.1895  0.7531 -0.6311
 5389SOL     OW27799   4.268   1.871   3.583 -0.5849  0.0567 -0.4111
 5389SOL    HW127800   4.359   1.849   3.564 -0.4368  0.9682 -0.7726
 5389SOL    HW227801   4.231   1.783   3.590  0.6643 -0.4625 -0.2645
 5390SOL     OW27802   0.259   1.783   7.210  0.1385 -0.1667  0.8184
 5390SOL    HW127803   0.206   1.829   7.145  2.2525  1.6801  0.4091
 5390SOL    HW227804   0.259   1.692   7.179 -0.6536  0.5095 -1.1414
 5391SOL     OW27805   2.146   0.057   0.694  0.0946  0.4876  0.2107
 5391SOL    HW127806   2.234   0.081   0.723  0.8402 -1.7593 -0.1696
 5391SOL    HW227807   2.119   4.724   0.749  2.2877 -0.8489 -0.4941
 5392SOL     OW27808   2.003   0.537   1.766 -0.3303 -0.0001  0.6277
 5392SOL    HW127809   1.975   0.547   1.676 -0.4830 -1.9333  0.4487
 5392SOL    HW227810   2.074   0.473   1.762 -2.4800 -2.2644 -1.5468
 5393SOL     OW27811   3.351   4.339   9.249  0.1701  0.1479 -0.8605
 5393SOL    HW127812   3.394   4.262   9.287 -1.3312 -0.4290 -0.3236
 5393SOL    HW227813   3.388   4.410   9.301  1.1826 -0.2823 -1.0086
 5394SOL     OW27814   4.411   2.319   8.171  0.2208 -0.2337  0.0146
 5394SOL    HW127815   4.428   2.346   8.081  1.5252 -1.4999 -0.1140
 5394SOL    HW227816   4.495   2.340   8.212 -0.5529  0.5108  1.2405
 5395SOL     OW27817   4.247   1.258   1.140 -0.4600 -0.1264  0.0657
 5395SOL    HW127818   4.259   1.163   1.144 -1.4926 -0.2615 -0.1530
 5395SOL    HW227819   4.331   1.293   1.110 -0.4454  2.6635  3.2557
 5396SOL     OW27820   3.709   1.872   4.138 -0.0780 -0.1774  0.1827
 5396SOL    HW127821   3.717   1.814   4.062  0.8390  1.7610 -1.2058
 5396SOL    HW227822   3.738   1.956   4.102  1.1800 -0.1544  1.2537
 5397SOL     OW27823   3.671   3.083  11.562  0.3889 -0.3663 -0.4299
 5397SOL    HW127824   3.586   3.109  11.527 -0.2814 -1.8377  0.1216
 5397SOL    HW227825   3.722   3.160  11.536  1.2406 -0.9684 -0.5312
 5398SOL     OW27826   3.610   1.953   4.618 -0.0068 -0.4109 -0.8964
 5398SOL    HW127827   3.697   1.980   4.646 -0.7436  0.0789  0.9521
 5398SOL    HW227828   3.570   2.040   4.613 -1.0143 -0.7451  1.1240
 5399SOL     OW27829   1.832   2.053   4.938  0.2510  0.2547  0.2714
 5399SOL    HW127830   1.762   2.072   5.001  0.8578 -0.7054  1.2420
 5399SOL    HW227831   1.775   2.060   4.862  1.1100 -0.7130 -0.4527
 5400SOL     OW27832   1.072   3.255   8.548 -0.0535  0.5780  0.4834
 5400SOL    HW127833   1.152   3.203   8.535 -0.5178  0.0401 -0.2290
 5400SOL    HW227834   1.101   3.321   8.611  0.9815 -0.5087  1.1350
 5401SOL     OW27835   3.392   2.189   3.951 -0.0593  0.0895 -0.2689
 5401SOL    HW127836   3.351   2.250   3.890  1.0431  1.9596  0.8700
 5401SOL    HW227837   3.444   2.242   4.011 -0.1719 -2.5110  2.1249
 5402SOL     OW27838   3.267   4.206   0.105 -0.3770 -0.0314 -0.0832
 5402SOL    HW127839   3.195   4.260   0.073 -0.0656  1.3604  1.5186
 5402SOL    HW227840   3.213   4.128   0.101  0.2492 -0.3365 -2.3039
 5403SOL     OW27841   2.492   3.454   6.159 -0.5345  0.3018  0.1433
 5403SOL    HW127842   2.403   3.488   6.146 -1.5973 -1.6825  2.3136
 5403SOL    HW227843   2.480   3.409   6.242  1.4310 -0.2130  0.1473
 5404SOL     OW27844   2.530   1.503   5.997  0.1102  0.1038  0.4016
 5404SOL    HW127845   2.588   1.485   6.071 -2.2250  1.5924  2.6069
 5404SOL    HW227846   2.586   1.460   5.932 -1.9156  1.0721 -1.9590
 5405SOL     OW27847   1.401   4.269  15.515 -0.0031 -0.4573  0.3121
 5405SOL    HW127848   1.323   4.298  15.468  0.2811 -0.5995 -0.2512
 5405SOL    HW227849   1.449   4.211  15.456  1.3642  0.6232  0.3555
 5406SOL     OW27850   2.923   2.141   2.162  0.0869 -0.4477  0.0360
 5406SOL    HW127851   2.847   2.116   2.110 -0.6007  1.0644  0.3282
 5406SOL    HW227852   2.892   2.222   2.203  1.5383  0.3622 -0.4421
 5407SOL     OW27853   1.121   0.767   2.501  0.1926 -0.3672  0.2439
 5407SOL    HW127854   1.052   0.794   2.441 -1.0046  2.1156  2.6870
 5407SOL    HW227855   1.189   0.833   2.494  0.2773 -0.4334  0.4310
 5408SOL     OW27856   2.798   2.213   0.824  0.3053 -0.2560  0.0252
 5408SOL    HW127857   2.889   2.233   0.847  0.6143  0.6051 -2.0102
 5408SOL    HW227858   2.812   2.137   0.768  0.4616 -0.3257  0.1578
 5409SOL     OW27859   1.190   2.063  10.281 -0.7109  0.1967 -0.2903
 5409SOL    HW127860   1.234   2.083  10.363  1.8644  0.7532 -1.8257
 5409SOL    HW227861   1.152   1.977  10.300 -0.7569  0.5017  0.9998
 5410SOL     OW27862   0.225   2.448  14.806  0.2734  0.2933 -0.1119
 5410SOL    HW127863   0.189   2.455  14.894 -0.8348  0.0689 -0.5565
 5410SOL    HW227864   0.220   2.537  14.771 -0.7674  0.7359  1.2108
 5411SOL     OW27865   0.575   0.783  11.023 -0.5243  0.3166  0.0243
 5411SOL    HW127866   0.583   0.868  10.979 -0.0630  0.5212  0.5046
 5411SOL    HW227867   0.609   0.807  11.109  1.3935 -1.5533 -0.2280
 5412SOL     OW27868   0.449   1.760   5.983 -0.1339 -0.0674 -0.6037
 5412SOL    HW127869   0.470   1.745   5.891  2.6218 -0.1885  0.0282
 5412SOL    HW227870   0.474   1.852   5.995 -2.2180  0.1647  1.8054
 5413SOL     OW27871   0.210   3.312   3.631  0.7596 -0.2320 -0.6353
 5413SOL    HW127872   0.259   3.233   3.653 -0.2305 -1.0373 -1.3351
 5413SOL    HW227873   0.164   3.326   3.714  1.5459 -0.8529 -0.0985
 5414SOL     OW27874   1.616   4.337   6.117 -0.1605 -0.0238 -0.5948
 5414SOL    HW127875   1.668   4.263   6.148 -1.4440 -0.4877  0.4254
 5414SOL    HW227876   1.539   4.342   6.174 -0.6282 -0.5055 -1.1817
 5415SOL     OW27877   0.269   3.567   7.983  0.2011  0.3787 -0.0547
 5415SOL    HW127878   0.265   3.590   7.890 -2.6638  1.3546  0.3193
 5415SOL    HW227879   0.310   3.645   8.019  1.5278  0.0767 -0.9036
 5416SOL     OW27880   4.195   2.323   8.859 -0.4010 -0.1811  0.3417
 5416SOL    HW127881   4.118   2.348   8.807  0.3485 -0.7941 -1.0792
 5416SOL    HW227882   4.198   2.232   8.830  0.0730 -0.0801  0.0672
 5417SOL     OW27883   0.340   4.678  12.228 -0.2926  0.6254  0.5095
 5417SOL    HW127884   0.383   0.022  12.238  1.6552 -0.2424 -0.6216
 5417SOL    HW227885   0.265   4.691  12.287 -0.0531 -0.0540  0.9601
 5418SOL     OW27886   0.911   0.083  14.514  0.0232 -0.3600  0.1869
 5418SOL    HW127887   0.924   0.091  14.420  1.4808  2.6907  0.6711
 5418SOL    HW227888   0.850   0.009  14.524  1.5405 -1.8339 -1.3329
 5419SOL     OW27889   2.930   2.472   9.017 -0.4651 -0.2519  0.0914
 5419SOL    HW127890   2.987   2.457   8.942 -1.2717 -2.0919 -0.1498
 5419SOL    HW227891   2.855   2.414   9.004 -0.4818  0.2340 -1.9934
 5420SOL     OW27892   3.188   0.713   6.115 -0.2748  0.1492  0.1217
 5420SOL    HW127893   3.157   0.762   6.191 -2.0377  0.8708 -1.0569
 5420SOL    HW227894   3.178   0.773   6.041  2.8304  0.2444 -0.2022
 5421SOL     OW27895   0.892   0.233  11.760  0.3184  0.4213 -0.3960
 5421SOL    HW127896   0.799   0.218  11.772  0.5975  0.0369  1.2740
 5421SOL    HW227897   0.893   0.283  11.678 -1.3326 -0.6532 -1.0555
 5422SOL     OW27898   3.083   4.472   1.558  0.1387  0.1979 -0.3074
 5422SOL    HW127899   3.097   4.379   1.577  0.6384 -0.3203 -3.2554
 5422SOL    HW227900   3.170   4.501   1.531  0.2437  1.1140  0.9898
 5423SOL     OW27901   0.072   1.878  14.584  0.0419 -0.1687  0.0609
 5423SOL    HW127902   0.097   1.965  14.614  1.0086 -0.8719  1.3082
 5423SOL    HW227903   0.105   1.829  14.659  0.2346  0.6273  0.4960
 5424SOL     OW27904   4.069   2.306   3.305  0.3229  0.1474 -0.1621
 5424SOL    HW127905   4.072   2.316   3.210  3.3683 -1.0102 -0.1963
 5424SOL    HW227906   3.975   2.305   3.324  0.3138  0.7974 -0.1842
 5425SOL     OW27907   3.064   4.651  10.162  0.2108  0.2416 -0.0215
 5425SOL    HW127908   3.044   4.614  10.248  0.9125 -1.6329 -0.6722
 5425SOL    HW227909   3.055   4.572  10.109  0.9008 -0.0710  0.3274
 5426SOL     OW27910   3.844   4.711   4.064  0.3331 -0.9242 -0.4202
 5426SOL    HW127911   3.801   4.669   3.989 -0.7496 -1.6935  0.6061
 5426SOL    HW227912   3.935   4.681   4.063  0.2521 -1.1828  0.1118
 5427SOL     OW27913   1.115   2.119   6.165  0.0049  0.4290  0.0666
 5427SOL    HW127914   1.184   2.185   6.156  0.1902  0.0656 -1.1168
 5427SOL    HW227915   1.047   2.183   6.191 -0.5702  0.2266 -0.9372
 5428SOL     OW27916   4.279   3.518   6.055 -0.0794 -0.2486  0.4091
 5428SOL    HW127917   4.186   3.508   6.034 -0.4935 -2.3474  3.2519
 5428SOL    HW227918   4.267   3.534   6.149  1.1450 -0.2607  0.5667
 5429SOL     OW27919   2.379   3.214   3.878 -0.2192 -0.4517  0.2033
 5429SOL    HW127920   2.356   3.135   3.926  1.1083  0.0334  1.6300
 5429SOL    HW227921   2.450   3.244   3.935 -1.5923 -0.3672  1.8600
 5430SOL     OW27922   3.125   0.971  13.047 -0.6524  1.1401 -0.7803
 5430SOL    HW127923   3.034   0.956  13.021 -0.8549  2.5389 -0.8709
 5430SOL    HW227924   3.125   1.066  13.037 -1.0893  1.1551 -0.6379
 5431SOL     OW27925   0.058   1.554  11.461  0.2851 -0.4604 -0.2209
 5431SOL    HW127926   0.049   1.647  11.481  1.3210 -1.0818  3.0121
 5431SOL    HW227927   0.057   1.562  11.365  0.8603  1.3512 -0.0721
 5432SOL     OW27928   2.302   1.595   5.904 -0.5489  0.2047 -0.0479
 5432SOL    HW127929   2.330   1.563   5.818  1.3239  0.3321  0.5285
 5432SOL    HW227930   2.381   1.567   5.949  0.4939  3.5191  0.2297
 5433SOL     OW27931   1.853   3.854   6.811 -0.5641 -0.2234 -0.0674
 5433SOL    HW127932   1.807   3.907   6.746 -0.7778 -1.0493 -0.5963
 5433SOL    HW227933   1.777   3.817   6.857 -1.2085 -0.4439 -1.3141
 5434SOL     OW27934   3.100   2.606   2.717  0.0234  0.0401 -0.3628
 5434SOL    HW127935   3.158   2.682   2.712  0.6625 -0.5401 -1.9275
 5434SOL    HW227936   3.088   2.582   2.625 -0.5744 -1.5872  0.1356
 5435SOL     OW27937   1.450   1.061   6.754 -0.1506  0.0270 -0.1729
 5435SOL    HW127938   1.497   1.075   6.836  0.2085 -1.1128 -0.1939
 5435SOL    HW227939   1.480   0.971   6.743 -2.0285 -0.1395 -4.0085
 5436SOL     OW27940   1.568   0.979   0.882 -0.2527 -0.9073 -0.1253
 5436SOL    HW127941   1.557   1.032   0.804  0.2703  1.2619  1.2831
 5436SOL    HW227942   1.629   1.029   0.936 -1.2166  1.2041 -0.9919
 5437SOL     OW27943   3.992   4.062   4.551  0.8162  0.2160  0.6932
 5437SOL    HW127944   4.026   4.100   4.632  2.4386  2.3883 -0.9961
 5437SOL    HW227945   4.021   3.972   4.562 -0.9203 -0.8872 -3.7601
 5438SOL     OW27946   3.947   0.769   3.626  0.2237  0.1076  0.2701
 5438SOL    HW127947   3.862   0.763   3.581  0.3421 -1.2235  0.2487
 5438SOL    HW227948   3.923   0.812   3.708 -1.5081 -0.5285  0.0942
 5439SOL     OW27949   4.229   1.985   6.823  0.9596  0.4361  0.3413
 5439SOL    HW127950   4.139   1.977   6.853  0.6951 -1.6872 -1.0547
 5439SOL    HW227951   4.240   1.897   6.789  0.1213  1.1615 -1.8644
 5440SOL     OW27952   3.313   0.750  15.237  0.5617 -0.1860  0.4156
 5440SOL    HW127953   3.343   0.839  15.217  1.3658 -0.8205 -1.2452
 5440SOL    HW227954   3.251   0.730  15.168  0.7724  0.2295  0.1031
 5441SOL     OW27955   0.357   4.329  13.793  0.0171 -0.1067 -0.6396
 5441SOL    HW127956   0.264   4.333  13.817 -0.0013 -0.5606 -0.6356
 5441SOL    HW227957   0.364   4.303  13.701 -1.9513 -0.7134 -0.6262
 5442SOL     OW27958   2.879   1.018  11.178  0.5376  0.3417  0.3581
 5442SOL    HW127959   2.811   1.084  11.180  0.5537  0.4260 -2.8521
 5442SOL    HW227960   2.933   1.056  11.247 -0.6073 -1.2865  2.1485
 5443SOL     OW27961   4.378   3.349   4.730  0.2384  0.3846 -0.0800
 5443SOL    HW127962   4.358   3.340   4.823  0.9596 -1.2758 -0.0865
 5443SOL    HW227963   4.379   3.444   4.713  2.0012  0.2207 -0.8854
 5444SOL     OW27964   0.421   1.066   5.339 -0.4378  0.0505 -0.1687
 5444SOL    HW127965   0.353   1.066   5.406  0.8442  1.1751  1.1200
 5444SOL    HW227966   0.485   1.001   5.367 -1.2924 -0.6878  0.0912
 5445SOL     OW27967   1.433   2.267   8.529  0.1051 -1.1194  0.1868
 5445SOL    HW127968   1.440   2.362   8.531 -0.2033 -0.9939 -3.2471
 5445SOL    HW227969   1.365   2.245   8.593 -0.2042 -0.4790  0.0823
 5446SOL     OW27970   2.992   3.568   7.407  0.8669 -0.3416  0.0327
 5446SOL    HW127971   2.935   3.643   7.389  0.4576 -0.0477  2.4513
 5446SOL    HW227972   2.922   3.504   7.423  0.4160 -0.6929 -3.4919
 5447SOL     OW27973   1.678   4.096   6.184  0.1412 -0.1114 -0.2012
 5447SOL    HW127974   1.733   4.076   6.260  0.8020 -0.4724 -0.7611
 5447SOL    HW227975   1.606   4.038   6.208 -1.5999  1.6377 -1.3026
 5448SOL     OW27976   3.071   3.340   9.403  0.4342 -0.2906 -0.0831
 5448SOL    HW127977   3.102   3.356   9.492  0.4645  0.3362 -0.2047
 5448SOL    HW227978   3.028   3.255   9.412 -3.6490  2.1074  2.7612
 5449SOL     OW27979   4.307   0.037   3.810  0.0680 -0.3226  0.6897
 5449SOL    HW127980   4.395   0.066   3.833 -0.3668  1.0295  0.6180
 5449SOL    HW227981   4.336   4.693   3.778  3.4734  0.6945  1.0526
 5450SOL     OW27982   0.178   2.638  15.798 -0.2403 -0.2372  0.1997
 5450SOL    HW127983   0.134   2.719  15.825 -0.0140 -0.4145  1.0880
 5450SOL    HW227984   0.124   2.616  15.722  0.0231 -0.2955  0.0312
 5451SOL     OW27985   1.276   2.049  13.519 -0.0488 -0.0723 -0.0423
 5451SOL    HW127986   1.223   1.997  13.459 -0.1110 -1.2841  1.0749
 5451SOL    HW227987   1.222   2.055  13.598  1.1339  1.7101  0.6260
 5452SOL     OW27988   2.361   0.539   5.677  0.2523  0.3766  0.1031
 5452SOL    HW127989   2.337   0.626   5.647  1.4817  0.5917 -0.2672
 5452SOL    HW227990   2.363   0.498   5.590 -0.1258  0.5933 -0.0086
 5453SOL     OW27991   0.768   3.402   3.255 -0.3511 -0.0512  0.0764
 5453SOL    HW127992   0.799   3.339   3.189  1.1406 -0.3274  1.0472
 5453SOL    HW227993   0.855   3.417   3.293 -1.0371  2.4571  0.6266
 5454SOL     OW27994   3.955   2.448  10.973 -0.0257 -0.4543  0.2026
 5454SOL    HW127995   3.893   2.516  10.994 -0.5141 -0.0821 -2.3848
 5454SOL    HW227996   4.011   2.502  10.916  0.4216 -3.7340 -2.4994
 5455SOL     OW27997   3.378   2.744  15.211  0.5820 -0.5801  0.3092
 5455SOL    HW127998   3.375   2.800  15.133 -1.4815 -1.7003 -0.4011
 5455SOL    HW227999   3.363   2.657  15.172 -0.5245  0.9404 -2.6512
 5456SOL     OW28000   2.183   2.670   3.350 -0.6963  0.4295 -0.1523
 5456SOL    HW128001   2.243   2.659   3.276 -0.3003 -0.7154  0.3403
 5456SOL    HW228002   2.190   2.579   3.377  0.1009  0.6267  0.3152
 5457SOL     OW28003   0.728   0.339   4.585 -0.3180 -0.5946  0.1680
 5457SOL    HW128004   0.795   0.290   4.538 -0.5696  0.0169 -0.8262
 5457SOL    HW228005   0.783   0.402   4.631 -0.9772  1.2304 -1.5332
 5458SOL     OW28006   2.482   3.463   9.264  0.3571  0.0257 -0.0205
 5458SOL    HW128007   2.544   3.484   9.334 -0.2290  1.8836 -0.0669
 5458SOL    HW228008   2.542   3.459   9.189 -0.1686  1.1038 -0.4977
 5459SOL     OW28009   0.317   3.413   7.527 -0.3885  0.2053 -0.1368
 5459SOL    HW128010   0.242   3.451   7.481 -0.0700  1.5130  0.4395
 5459SOL    HW228011   0.333   3.471   7.601 -2.4523  0.1068  0.3902
 5460SOL     OW28012   2.097   1.891   3.969 -0.1580  1.0176  0.1355
 5460SOL    HW128013   2.175   1.878   3.914 -0.5479  1.4043 -0.5032
 5460SOL    HW228014   2.065   1.980   3.959 -0.0145  0.9970 -0.4799
 5461SOL     OW28015   4.594   3.463   4.278 -0.0129  0.1389 -0.3418
 5461SOL    HW128016   4.677   3.474   4.324 -0.3986 -2.9372  1.1289
 5461SOL    HW228017   4.593   3.368   4.294  0.2794  0.1138 -0.4667
 5462SOL     OW28018   1.757   2.722  10.478  0.3948 -0.2323  0.3336
 5462SOL    HW128019   1.806   2.669  10.415  0.6395  1.1426 -0.6371
 5462SOL    HW228020   1.750   2.805  10.429  0.5064 -0.3905  0.0448
 5463SOL     OW28021   2.470   2.939   3.024 -0.0277  0.6338  0.4628
 5463SOL    HW128022   2.512   2.885   3.090 -0.6859  1.2099  1.3590
 5463SOL    HW228023   2.376   2.929   3.040  0.0871  0.8671  1.2488
 5464SOL     OW28024   1.971   3.261   8.544  0.2313  0.1922  0.1623
 5464SOL    HW128025   2.030   3.201   8.499 -0.7100 -0.9520  0.4381
 5464SOL    HW228026   1.905   3.199   8.575  0.1500  0.6639  0.9341
 5465SOL     OW28027   4.436   1.106   9.151 -0.5470  0.2044 -0.1983
 5465SOL    HW128028   4.423   1.199   9.172 -2.6529 -0.1051 -0.1560
 5465SOL    HW228029   4.456   1.113   9.057 -0.1850 -0.0791 -0.1417
 5466SOL     OW28030   1.227   2.393   4.066 -0.2710 -0.2248 -0.4135
 5466SOL    HW128031   1.183   2.339   4.132  0.0602 -1.1965 -1.0053
 5466SOL    HW228032   1.180   2.477   4.073 -0.3481 -0.3057  0.0294
 5467SOL     OW28033   2.550   4.006   2.330 -0.5161  0.3481  0.2276
 5467SOL    HW128034   2.594   4.033   2.249  0.4059  0.2794  0.7069
 5467SOL    HW228035   2.458   4.006   2.304 -0.3319 -0.1768 -0.4201
 5468SOL     OW28036   3.155   4.291  13.829 -0.1141 -1.1920  0.0077
 5468SOL    HW128037   3.066   4.322  13.813 -0.4986 -2.2019  0.2038
 5468SOL    HW228038   3.189   4.368  13.873 -0.2685 -0.7567 -0.6312
 5469SOL     OW28039   1.898   2.354   4.844  0.5069  0.1727  0.2432
 5469SOL    HW128040   1.827   2.290   4.834  1.7777 -1.4017  1.3046
 5469SOL    HW228041   1.928   2.364   4.753  0.6333  2.2166  0.5166
 5470SOL     OW28042   2.678   3.918   4.423 -0.5925 -0.3012 -0.3825
 5470SOL    HW128043   2.715   3.899   4.509 -0.8712  0.1787 -0.1571
 5470SOL    HW228044   2.733   3.855   4.376 -1.7588 -2.1832  0.7763
 5471SOL     OW28045   1.764   4.236   6.459 -0.0255 -0.0922 -0.5004
 5471SOL    HW128046   1.744   4.328   6.442  1.8793  0.6647  1.3898
 5471SOL    HW228047   1.683   4.217   6.506  0.1515  0.4910  0.0337
 5472SOL     OW28048   2.614   4.413   7.949  0.0530 -0.2502 -0.5003
 5472SOL    HW128049   2.646   4.495   7.911 -0.8930  0.2750 -0.1686
 5472SOL    HW228050   2.637   4.428   8.040 -0.5812  0.5214 -0.4701
 5473SOL     OW28051   1.462   4.294   7.980  0.2690  0.2246  0.2336
 5473SOL    HW128052   1.415   4.369   7.944  0.9383  0.7123  0.3722
 5473SOL    HW228053   1.475   4.320   8.071 -0.0207  0.0712  0.3205
 5474SOL     OW28054   4.205   1.681  11.945  0.2893 -0.7025  0.0532
 5474SOL    HW128055   4.185   1.589  11.965 -0.2094 -0.0670  2.3930
 5474SOL    HW228056   4.124   1.725  11.969  0.5588  0.8966 -1.9588
 5475SOL     OW28057   3.957   3.349   2.745  0.8650 -0.1716 -0.3610
 5475SOL    HW128058   3.891   3.282   2.727 -0.8999  1.4790 -0.0541
 5475SOL    HW228059   4.001   3.354   2.661 -1.9112  2.3923 -1.6766
 5476SOL     OW28060   3.663   1.430   2.376 -0.4890  0.1846 -0.2084
 5476SOL    HW128061   3.660   1.353   2.319  0.5591 -0.0383  0.0517
 5476SOL    HW228062   3.665   1.506   2.318 -1.3108 -0.3491 -0.9429
 5477SOL     OW28063   0.499   1.094  12.698 -0.3448  0.4095 -0.1979
 5477SOL    HW128064   0.445   1.027  12.739 -1.7016  2.1778  0.9327
 5477SOL    HW228065   0.438   1.168  12.691  0.5278  1.2401  1.0229
 5478SOL     OW28066   1.075   1.850   5.683 -0.9085  0.8134 -0.6395
 5478SOL    HW128067   1.165   1.824   5.661 -1.1069 -1.3276  1.1227
 5478SOL    HW228068   1.052   1.808   5.765  1.7897  2.8323  1.1437
 5479SOL     OW28069   1.084   2.319   2.344 -0.5147  0.0524 -0.2676
 5479SOL    HW128070   1.036   2.332   2.426  0.6020 -0.2551  0.4242
 5479SOL    HW228071   1.099   2.225   2.345 -0.2539  0.1112  1.2696
 5480SOL     OW28072   3.723   2.950   2.800  0.5004  0.1432 -0.5947
 5480SOL    HW128073   3.660   2.879   2.810  0.1816  0.6020  0.6277
 5480SOL    HW228074   3.799   2.924   2.851 -0.5353  0.6578  1.2187
 5481SOL     OW28075   0.978   4.432   7.418 -0.0281 -0.3858 -0.0638
 5481SOL    HW128076   0.973   4.455   7.511  1.4899  1.4546 -0.4516
 5481SOL    HW228077   1.039   4.358   7.418  0.9557  0.4324 -1.5854
 5482SOL     OW28078   1.971   4.187   0.118 -0.3982  0.3721 -0.1561
 5482SOL    HW128079   1.938   4.140   0.042 -0.3391  1.1865 -0.6894
 5482SOL    HW228080   2.060   4.200   0.084 -1.5959  0.6516 -3.2190
 5483SOL     OW28081   1.197   3.882  11.495  0.0561  0.4553 -0.5823
 5483SOL    HW128082   1.125   3.871  11.432  1.1826 -1.2740 -1.5628
 5483SOL    HW228083   1.173   3.820  11.564  0.3676 -0.5721 -1.3893
 5484SOL     OW28084   4.487   0.776   0.288 -0.3394  0.1820  0.0626
 5484SOL    HW128085   4.504   0.789   0.381 -0.0882 -0.7806  0.1446
 5484SOL    HW228086   4.420   0.709   0.288 -1.1657  1.0079  0.6213
 5485SOL     OW28087   0.224   1.977   2.759 -0.1961  0.0657  0.0144
 5485SOL    HW128088   0.309   1.936   2.781 -0.3075  0.1478  0.6111
 5485SOL    HW228089   0.163   1.906   2.779 -2.0101  1.3693 -0.9169
 5486SOL     OW28090   2.413   1.892   3.209  0.0892  0.1981 -0.1863
 5486SOL    HW128091   2.332   1.842   3.202  0.1275  0.2913 -1.3587
 5486SOL    HW228092   2.382   1.981   3.224  0.0575  0.2926 -0.7997
 5487SOL     OW28093   3.684   2.882  16.926 -0.1142 -0.1343 -1.2533
 5487SOL    HW128094   3.635   2.813  16.881  0.4191 -0.2612 -1.6435
 5487SOL    HW228095   3.632   2.958  16.902 -0.2242 -0.2930 -1.5266
 5488SOL     OW28096   3.293   2.566  15.013  0.2207  0.3997 -0.5942
 5488SOL    HW128097   3.272   2.472  15.008 -0.0451  0.4901 -1.2166
 5488SOL    HW228098   3.291   2.579  14.918  3.5483 -1.7412 -0.9721
 5489SOL     OW28099   1.182   2.188   3.893  0.2492 -0.7928 -0.5475
 5489SOL    HW128100   1.208   2.270   3.934 -0.0966 -0.2213 -1.4822
 5489SOL    HW228101   1.088   2.205   3.899  0.5608  0.8723 -0.5422
 5490SOL     OW28102   3.918   4.099  16.005  0.1368 -0.2448 -1.0300
 5490SOL    HW128103   3.940   4.031  16.069  1.2548  2.0585  1.0184
 5490SOL    HW228104   3.910   4.050  15.923  0.8932 -1.6044 -0.2965
 5491SOL     OW28105   3.531   1.797   6.318  0.7591  0.1149 -0.2065
 5491SOL    HW128106   3.568   1.777   6.232  0.5331 -0.3375 -0.2014
 5491SOL    HW228107   3.450   1.834   6.284  1.1575  0.6011 -0.6230
 5492SOL     OW28108   3.190   2.648   4.736  0.6366  0.5303 -0.7781
 5492SOL    HW128109   3.258   2.691   4.684 -0.1374  2.3164 -0.3414
 5492SOL    HW228110   3.189   2.569   4.682 -0.3529 -0.7460  1.1250
 5493SOL     OW28111   3.992   0.078  10.451  0.0468 -0.6998  0.2627
 5493SOL    HW128112   4.011   4.741  10.502 -0.8388 -0.5508  0.8239
 5493SOL    HW228113   3.994   0.049  10.360  0.9459 -0.4636  0.2062
 5494SOL     OW28114   1.759   4.085   4.242 -0.4487 -0.0357 -0.5783
 5494SOL    HW128115   1.752   3.991   4.228  1.1132 -0.0424 -1.3021
 5494SOL    HW228116   1.779   4.082   4.336 -1.9360  0.2649 -0.2378
 5495SOL     OW28117   3.653   0.205   6.739 -0.6857  0.1091 -0.0194
 5495SOL    HW128118   3.670   0.144   6.667 -1.8598 -0.6649  0.3591
 5495SOL    HW228119   3.639   0.283   6.684 -2.0523  2.4205  3.6048
 5496SOL     OW28120   1.392   2.477   3.372  0.1631  0.5892 -0.3173
 5496SOL    HW128121   1.388   2.384   3.392 -1.5499  0.6963 -0.1944
 5496SOL    HW228122   1.485   2.482   3.346 -0.2105 -1.4413 -1.9981
 5497SOL     OW28123   1.172   3.503   6.778  0.6282  0.5748 -0.2132
 5497SOL    HW128124   1.216   3.491   6.862 -1.3199 -0.2693  0.7042
 5497SOL    HW228125   1.207   3.587   6.749  0.4542 -0.0216 -2.1036
 5498SOL     OW28126   3.661   2.331   4.649 -0.2008  0.3946 -0.3403
 5498SOL    HW128127   3.606   2.371   4.716 -0.6096  0.0435 -0.4619
 5498SOL    HW228128   3.604   2.353   4.575  0.7293  0.9948 -0.8729
 5499SOL     OW28129   2.338   1.847   6.214 -0.5003 -0.6357 -0.6107
 5499SOL    HW128130   2.265   1.828   6.273  1.4707 -1.3986  1.5985
 5499SOL    HW228131   2.308   1.829   6.125 -1.6489  1.9013 -0.7096
 5500SOL     OW28132   0.957   1.897   3.582 -0.3646  0.4266  0.2015
 5500SOL    HW128133   0.952   1.803   3.566  0.6968  0.8046 -2.3223
 5500SOL    HW228134   1.003   1.903   3.666 -0.7994  1.5468  0.3633
 5501SOL     OW28135   0.533   1.449  11.745 -0.0610 -0.1872  0.5106
 5501SOL    HW128136   0.481   1.393  11.802  0.8085 -1.2881  0.2087
 5501SOL    HW228137   0.593   1.491  11.807  0.5318 -2.9763  1.8382
 5502SOL     OW28138   0.198   4.151   3.381 -0.5363  0.5884  0.1789
 5502SOL    HW128139   0.233   4.084   3.322 -1.1949  0.2844  0.1395
 5502SOL    HW228140   0.205   4.100   3.462 -0.9243  0.0040 -0.1548
 5503SOL     OW28141   2.946   1.219   7.839  0.0776 -0.4211  0.9191
 5503SOL    HW128142   2.962   1.243   7.748 -2.1287  0.1983  0.6945
 5503SOL    HW228143   2.981   1.130   7.843  3.3158  0.6854 -2.8679
 5504SOL     OW28144   4.239   3.869   8.259 -0.0801  0.2318 -0.3206
 5504SOL    HW128145   4.294   3.854   8.336 -1.5842  1.7686  1.0505
 5504SOL    HW228146   4.152   3.887   8.296 -0.0724 -1.2564  0.4369
 5505SOL     OW28147   0.235   1.811  11.565 -0.0588  0.5894  0.3663
 5505SOL    HW128148   0.276   1.772  11.642 -1.5529 -0.7032  0.5124
 5505SOL    HW228149   0.280   1.895  11.562  0.2367  0.3877 -0.8900
 5506SOL     OW28150   1.335   3.135   7.501  0.4465  0.0999 -0.2120
 5506SOL    HW128151   1.396   3.082   7.451  1.3329  0.9963 -0.0739
 5506SOL    HW228152   1.345   3.100   7.589 -1.8111 -1.1932 -0.4547
 5507SOL     OW28153   3.120   4.266  14.221 -0.1247  0.0841  0.4593
 5507SOL    HW128154   3.122   4.316  14.303 -1.9200  0.5340  0.2344
 5507SOL    HW228155   3.099   4.336  14.159 -1.5083 -0.9699 -0.2440
 5508SOL     OW28156   2.077   1.884  12.838 -0.5086 -0.5552 -0.0267
 5508SOL    HW128157   2.040   1.905  12.752  0.3690  1.5372  0.0916
 5508SOL    HW228158   2.030   1.805  12.864  0.3207  0.1189  3.4449
 5509SOL     OW28159   2.109   0.231  16.484  0.0336  0.7810 -0.1461
 5509SOL    HW128160   2.113   0.140  16.454 -1.2618 -0.2592  2.8916
 5509SOL    HW228161   2.200   0.239  16.513  0.1287 -3.5766  0.6447
 5510SOL     OW28162   4.365   0.115   8.861 -0.5762  0.7359 -0.2550
 5510SOL    HW128163   4.327   0.174   8.796 -0.3630  1.1035 -0.0514
 5510SOL    HW228164   4.381   0.185   8.925 -0.4015 -0.7592  1.3323
 5511SOL     OW28165   0.060   0.228   7.865 -0.1135  0.1463 -0.0541
 5511SOL    HW128166   0.015   0.266   7.940  0.9835 -0.4324  0.9061
 5511SOL    HW228167   0.041   0.290   7.794  1.2348  2.7700  1.8747
 5512SOL     OW28168   2.463   0.993   1.679  0.4322  0.1217 -0.4522
 5512SOL    HW128169   2.446   1.086   1.665 -1.2547 -0.6438 -3.4290
 5512SOL    HW228170   2.439   0.959   1.593  1.0377 -2.9301  0.6054
 5513SOL     OW28171   1.827   1.413  10.887 -0.2789  0.1745 -0.3958
 5513SOL    HW128172   1.873   1.339  10.926  0.3792  0.3868 -0.7771
 5513SOL    HW228173   1.904   1.460  10.855  1.5973 -2.4074  0.3805
 5514SOL     OW28174   3.619   3.682   2.654  0.0936  1.0495 -0.4942
 5514SOL    HW128175   3.668   3.669   2.573 -3.5961  3.6617 -3.1720
 5514SOL    HW228176   3.639   3.770   2.686 -0.2638  1.7690 -2.2723
 5515SOL     OW28177   1.277   2.470   4.903 -0.1663  0.2674 -0.6307
 5515SOL    HW128178   1.253   2.416   4.978 -0.5763  2.9569  1.1752
 5515SOL    HW228179   1.210   2.447   4.838  1.7172 -3.0687 -1.3739
 5516SOL     OW28180   1.798   3.887  12.132 -0.3281  0.3406  0.1432
 5516SOL    HW128181   1.709   3.871  12.162 -0.9929 -0.7758 -2.4044
 5516SOL    HW228182   1.790   3.976  12.096 -0.0515  0.1858 -0.3025
 5517SOL     OW28183   1.957   1.350   1.684  0.2100  0.2162  0.5634
 5517SOL    HW128184   1.925   1.436   1.659 -1.9329  0.0398  2.6196
 5517SOL    HW228185   2.023   1.372   1.749  1.4139 -0.6056 -0.3823
 5518SOL     OW28186   0.437   1.900   6.434  0.2006 -0.2122 -0.2307
 5518SOL    HW128187   0.412   1.809   6.419  2.5110 -0.9929  0.6773
 5518SOL    HW228188   0.462   1.921   6.344  1.9290  0.2190  0.3520
 5519SOL     OW28189   1.545   1.658   4.694 -0.0494  0.2372 -0.4597
 5519SOL    HW128190   1.632   1.656   4.734  0.5704  0.1602 -1.8149
 5519SOL    HW228191   1.491   1.632   4.768 -0.9894  3.2253 -0.1044
 5520SOL     OW28192   1.814   1.184  11.467  0.4336 -0.0937  0.0956
 5520SOL    HW128193   1.795   1.092  11.454 -0.0420  0.2974 -1.8594
 5520SOL    HW228194   1.883   1.168  11.532  0.2528 -0.9609  0.0698
 5521SOL     OW28195   0.561   3.440   4.407 -0.3300 -0.2515 -0.1970
 5521SOL    HW128196   0.549   3.436   4.312 -2.3921 -3.9900  0.2119
 5521SOL    HW228197   0.494   3.377   4.432  0.0306 -0.2823  0.6729
 5522SOL     OW28198   4.196   3.350   4.250  0.0683 -0.0003  0.3146
 5522SOL    HW128199   4.208   3.436   4.289  0.3122 -0.1334  0.5328
 5522SOL    HW228200   4.168   3.374   4.162  1.5528  1.6257  0.3004
 5523SOL     OW28201   3.285   4.345   2.873 -0.3174 -0.7487 -0.7394
 5523SOL    HW128202   3.225   4.403   2.827  1.2021  1.4880  0.0680
 5523SOL    HW228203   3.249   4.344   2.962 -2.0447 -1.9562 -1.4584
 5524SOL     OW28204   1.410   3.678   0.648 -0.2867 -0.2019  0.2138
 5524SOL    HW128205   1.332   3.641   0.608  1.0010 -2.3529 -0.2972
 5524SOL    HW228206   1.399   3.649   0.739 -0.4145  1.9911  0.9179
 5525SOL     OW28207   1.983   4.357   1.164  0.3097 -0.2168  0.0089
 5525SOL    HW128208   2.078   4.361   1.178  0.2205  0.4501  0.4439
 5525SOL    HW228209   1.980   4.263   1.152 -1.5750 -0.1665  0.1209
 5526SOL     OW28210   0.420   2.464  12.109 -0.6135  0.1033  0.3552
 5526SOL    HW128211   0.506   2.477  12.149 -1.3592  1.2091  1.5857
 5526SOL    HW228212   0.435   2.375  12.077 -1.8068  0.5691 -1.4634
 5527SOL     OW28213   0.090   4.279   4.746  0.8011  0.0628 -0.4679
 5527SOL    HW128214   0.098   4.232   4.663  1.5419 -0.5585 -0.0535
 5527SOL    HW228215   0.158   4.228   4.791 -0.7629 -2.0713 -0.5292
 5528SOL     OW28216   0.515   0.945   3.283 -0.0186 -0.1084 -0.5254
 5528SOL    HW128217   0.485   0.876   3.224 -0.1251  0.2240 -0.8593
 5528SOL    HW228218   0.520   1.014   3.216 -1.7534  2.1653  1.6430
 5529SOL     OW28219   1.618   0.307   0.308  0.3701 -0.2103 -0.0218
 5529SOL    HW128220   1.558   0.234   0.324  0.5458 -0.6848 -1.5167
 5529SOL    HW228221   1.552   0.371   0.282  1.3544  0.9522  0.3364
 5530SOL     OW28222   4.450   3.779   9.720  0.0202 -0.5688  0.0155
 5530SOL    HW128223   4.516   3.789   9.652 -1.9393 -2.2470 -2.1532
 5530SOL    HW228224   4.446   3.867   9.757 -0.7936 -0.8126  0.5211
 5531SOL     OW28225   4.575   4.033   2.387 -1.0947  0.0053 -0.0836
 5531SOL    HW128226   4.504   4.097   2.383 -0.7829  0.2773 -1.2789
 5531SOL    HW228227   4.595   4.026   2.294 -1.3184  2.6577 -0.3308
 5532SOL     OW28228   2.240   3.118   5.216 -0.3260  0.2514  0.1019
 5532SOL    HW128229   2.324   3.146   5.178 -0.2363  1.0092  0.8675
 5532SOL    HW228230   2.184   3.144   5.143  0.3030  0.2001 -0.4008
 5533SOL     OW28231   1.555   0.459   1.977 -0.1386  0.3189  0.3686
 5533SOL    HW128232   1.547   0.532   1.915  0.1283  0.2103  0.2035
 5533SOL    HW228233   1.649   0.442   1.989 -0.3139 -0.3040  0.8778
 5534SOL     OW28234   1.425   1.815   9.985 -0.0124  0.1058 -0.1731
 5534SOL    HW128235   1.413   1.909   9.996 -1.1943 -0.1338  0.5971
 5534SOL    HW228236   1.403   1.790  10.075  1.4450  0.0220  0.1712
 5535SOL     OW28237   4.446   4.637   2.391  0.5751  0.3419  0.1726
 5535SOL    HW128238   4.449   4.722   2.347 -0.9093 -0.4343 -1.4463
 5535SOL    HW228239   4.483   4.583   2.321 -0.4029 -0.1467  0.0270
 5536SOL     OW28240   0.530   2.234   1.732  0.3893  0.0427  0.3440
 5536SOL    HW128241   0.495   2.147   1.749 -0.5205  0.8513  2.6576
 5536SOL    HW228242   0.612   2.219   1.685  0.4499  0.7353  0.2234
 5537SOL     OW28243   4.578   3.436  10.312 -0.3992 -0.7636  0.8038
 5537SOL    HW128244   4.644   3.506  10.315  0.1587 -1.2647  0.3691
 5537SOL    HW228245   4.499   3.485  10.287  0.9291  0.9728 -0.0547
 5538SOL     OW28246   4.118   4.157   9.493  0.0603  0.2608 -0.0454
 5538SOL    HW128247   4.181   4.092   9.462  0.6696  1.0861 -0.5320
 5538SOL    HW228248   4.125   4.227   9.428 -1.3262  0.4357 -0.0144
 5539SOL     OW28249   2.029   1.306   0.541 -0.9167  0.1011  0.0333
 5539SOL    HW128250   1.995   1.277   0.456 -1.2527 -1.7854  0.7984
 5539SOL    HW228251   2.003   1.397   0.526 -2.3788  0.0300  2.2443
 5540SOL     OW28252   2.059   2.744   8.449 -0.2372  0.7175  0.4367
 5540SOL    HW128253   1.969   2.735   8.481 -0.9443  0.0209 -1.7755
 5540SOL    HW228254   2.044   2.708   8.362  2.1962 -1.0387  0.7367
 5541SOL     OW28255   2.089   3.964  17.450 -0.0519  0.5195  0.4693
 5541SOL    HW128256   2.166   3.938  17.500 -0.9681 -0.6237  1.2885
 5541SOL    HW228257   2.088   4.058  17.471 -0.5378  0.5247  0.4183
 5542SOL     OW28258   2.736   3.926   0.985  0.6571  0.3572  0.1705
 5542SOL    HW128259   2.694   3.840   0.985  1.8572 -0.2377  1.0149
 5542SOL    HW228260   2.734   3.939   0.890  2.1901  1.4382  0.2861
 5543SOL     OW28261   0.024   0.044   7.467 -0.7153 -0.1670 -0.0331
 5543SOL    HW128262   0.102   0.084   7.505 -2.6835  3.1528  0.5240
 5543SOL    HW228263   4.710   0.049   7.545 -1.8371  0.0709 -0.8357
 5544SOL     OW28264   3.597   3.647   5.979  0.2826 -0.0095 -0.1853
 5544SOL    HW128265   3.615   3.567   6.028  1.2706  1.7747  2.3429
 5544SOL    HW228266   3.636   3.625   5.894 -0.1009 -0.4711 -0.2389
 5545SOL     OW28267   0.745   2.682  13.385 -0.2728 -0.1286  0.3835
 5545SOL    HW128268   0.723   2.620  13.315 -2.9839 -1.2076  2.2169
 5545SOL    HW228269   0.719   2.766  13.347 -2.1043 -0.9068 -0.0687
 5546SOL     OW28270   0.047   4.538   5.900  0.5199 -0.1902 -0.1437
 5546SOL    HW128271   4.700   4.571   5.885  0.0286 -0.4728  2.1253
 5546SOL    HW228272   0.033   4.495   5.984  2.5359 -0.1555  0.2068
 5547SOL     OW28273   0.717   1.630   2.579 -0.3356  0.2074  0.3060
 5547SOL    HW128274   0.728   1.661   2.489  1.4399 -1.3189 -0.0052
 5547SOL    HW228275   0.739   1.537   2.583 -1.1067 -0.0090 -0.7098
 5548SOL     OW28276   4.695   2.188   7.406  0.4859 -0.0917  0.1836
 5548SOL    HW128277   0.018   2.237   7.457  0.4133 -0.6266  0.7821
 5548SOL    HW228278   4.639   2.262   7.384 -0.7428 -0.9267  0.5246
 5549SOL     OW28279   0.557   3.117   3.913 -0.0523 -0.2057  0.0725
 5549SOL    HW128280   0.576   3.128   3.820 -3.2396 -0.7516 -0.6594
 5549SOL    HW228281   0.639   3.105   3.962  1.6205  0.0965 -2.6771
 5550SOL     OW28282   3.472   1.960   4.840  0.2241  0.7221 -0.2558
 5550SOL    HW128283   3.529   1.935   4.913 -0.4666 -0.0864  0.0039
 5550SOL    HW228284   3.522   1.930   4.765  2.1954 -1.8800  2.0748
 5551SOL     OW28285   1.643   0.021  15.955 -0.4900  0.0224  0.0767
 5551SOL    HW128286   1.679   0.110  15.957 -0.0456 -0.1873  1.9311
 5551SOL    HW228287   1.659   0.001  15.863  0.2908  2.0384 -0.2268
 5552SOL     OW28288   0.163   3.624  15.771 -0.6327  0.2645  0.1617
 5552SOL    HW128289   0.241   3.657  15.726  0.7282 -0.7565  1.7976
 5552SOL    HW228290   0.184   3.645  15.862  0.8634 -1.0564  0.1185
 5553SOL     OW28291   1.113   0.708   5.267  0.4226 -0.1940  0.0008
 5553SOL    HW128292   1.045   0.645   5.291  0.4725 -0.1574  0.2441
 5553SOL    HW228293   1.135   0.662   5.187  1.0721  0.5071 -0.2151
 5554SOL     OW28294   4.735   2.481  14.304 -0.3948 -0.0339 -0.2185
 5554SOL    HW128295   4.707   2.449  14.390 -1.2648 -2.0741 -1.2627
 5554SOL    HW228296   4.694   2.416  14.246  2.0279 -1.5816 -0.1892
 5555SOL     OW28297   0.110   4.123   0.900  0.0612  0.2046 -0.1981
 5555SOL    HW128298   0.050   4.186   0.860  0.0295 -0.4505 -1.2072
 5555SOL    HW228299   0.126   4.167   0.983  2.1885 -0.8844 -0.0142
 5556SOL     OW28300   2.550   0.709   2.800  0.3674  0.4069  0.3176
 5556SOL    HW128301   2.494   0.763   2.856 -1.5229 -0.9795 -0.2617
 5556SOL    HW228302   2.500   0.687   2.722  0.2902 -0.8755  0.7363
 5557SOL     OW28303   1.160   3.184   3.532 -0.0682 -0.0851  0.0939
 5557SOL    HW128304   1.198   3.271   3.542 -0.0553 -0.1900  0.8907
 5557SOL    HW228305   1.210   3.147   3.459  1.1141  1.9331 -0.1144
 5558SOL     OW28306   3.093   3.047   9.406 -0.7824  0.3657  0.0952
 5558SOL    HW128307   3.059   2.977   9.351 -0.9934 -0.3183  1.0905
 5558SOL    HW228308   3.161   3.088   9.353  0.9340 -2.3249  0.2265
 5559SOL     OW28309   3.759   1.688   5.873  0.0914 -0.4212  0.8148
 5559SOL    HW128310   3.848   1.664   5.898  0.7023  3.1717  1.9643
 5559SOL    HW228311   3.764   1.780   5.848 -1.5370 -0.2406  1.1781
 5560SOL     OW28312   1.379   2.039  13.221 -0.1064 -0.2137 -0.3151
 5560SOL    HW128313   1.324   1.998  13.287  2.9414 -2.4026  0.8940
 5560SOL    HW228314   1.406   1.970  13.159 -1.8076 -1.7061  0.6335
 5561SOL     OW28315   0.390   3.843   6.350  0.4936 -0.6218 -0.7627
 5561SOL    HW128316   0.446   3.889   6.413  2.3345  0.8644 -3.4758
 5561SOL    HW228317   0.458   3.809   6.292  1.9168  0.3076  0.3656
 5562SOL     OW28318   0.121   0.802   7.137  0.5750  0.3347  0.3904
 5562SOL    HW128319   0.117   0.872   7.203 -0.7849  0.6473 -0.0154
 5562SOL    HW228320   0.044   0.747   7.155  0.6768  0.1085  0.1234
 5563SOL     OW28321   3.246   4.100   5.637  0.5886 -0.0875  0.3212
 5563SOL    HW128322   3.230   4.183   5.682 -1.6679 -0.4351  0.1372
 5563SOL    HW228323   3.330   4.125   5.598  1.1425  0.4124  1.8386
 5564SOL     OW28324   4.275   1.082   4.747 -0.1727  0.5954  0.1385
 5564SOL    HW128325   4.246   1.166   4.783 -1.5227  1.1938 -2.3110
 5564SOL    HW228326   4.315   1.044   4.825  2.5298  1.9858 -0.5642
 5565SOL     OW28327   3.591   1.391   7.839  0.2527 -0.4670 -0.3735
 5565SOL    HW128328   3.505   1.404   7.801  0.4752  1.6276 -0.1241
 5565SOL    HW228329   3.630   1.321   7.786  1.9243 -0.5028  0.9129
 5566SOL     OW28330   3.102   1.736   4.049  0.6390 -1.0227 -0.8276
 5566SOL    HW128331   3.163   1.711   4.118 -0.4411 -1.7787 -0.1536
 5566SOL    HW228332   3.122   1.828   4.031 -0.3224 -0.5676  0.4731
 5567SOL     OW28333   1.208   1.088   0.877 -0.4720 -0.0234  0.5494
 5567SOL    HW128334   1.148   1.060   0.808  0.2402  0.1289 -0.1344
 5567SOL    HW228335   1.273   1.018   0.867  0.4359  0.7500  0.9840
 5568SOL     OW28336   3.068   1.605   1.034  0.0653 -0.2069 -0.0333
 5568SOL    HW128337   3.085   1.697   1.055  1.0352 -0.1215 -1.1785
 5568SOL    HW228338   3.073   1.565   1.120 -1.5885  2.4409  1.3069
 5569SOL     OW28339   4.309   3.431   2.793 -0.5758 -0.1194  0.0440
 5569SOL    HW128340   4.239   3.461   2.735 -1.9375 -0.4469  1.5538
 5569SOL    HW228341   4.383   3.458   2.738 -0.6862  0.4616  0.1758
 5570SOL     OW28342   2.964   3.184  12.342 -0.3493 -0.3060 -0.1725
 5570SOL    HW128343   2.964   3.112  12.278  0.1188 -2.4499  2.2542
 5570SOL    HW228344   3.035   3.169  12.403 -0.7554 -0.8782  0.1611
 5571SOL     OW28345   3.143   4.149   1.890 -0.2398  0.0052 -0.0292
 5571SOL    HW128346   3.238   4.155   1.890 -0.2873  0.7940 -0.2802
 5571SOL    HW228347   3.129   4.144   1.984 -0.6384  2.7011  0.0557
 5572SOL     OW28348   2.758   4.688  10.713 -0.2388 -0.6048  0.7601
 5572SOL    HW128349   2.774   4.733  10.796 -0.0358  1.0786 -0.2106
 5572SOL    HW228350   2.751   4.599  10.749  1.1965 -0.5231  1.2165
 5573SOL     OW28351   1.796   1.971  16.884 -0.6563 -0.0464 -0.3687
 5573SOL    HW128352   1.717   2.025  16.887 -0.1063  0.7563 -0.3914
 5573SOL    HW228353   1.810   1.955  16.791 -1.2967 -1.1149 -0.2814
 5574SOL     OW28354   1.777   4.557   6.197  0.2765  0.1160 -0.2380
 5574SOL    HW128355   1.871   4.543   6.185 -0.1240 -0.5570 -2.5104
 5574SOL    HW228356   1.736   4.491   6.142  0.4340  0.2554 -0.5240
 5575SOL     OW28357   1.462   2.581  11.508 -0.0343 -0.3074 -0.2106
 5575SOL    HW128358   1.490   2.493  11.483  0.6233 -0.0618 -0.3419
 5575SOL    HW228359   1.375   2.600  11.472 -0.6656 -1.1400  0.8772
 5576SOL     OW28360   2.070   2.792   5.925  0.0355 -0.3075  0.3636
 5576SOL    HW128361   2.123   2.853   5.977 -1.2738  1.6905 -0.6665
 5576SOL    HW228362   2.039   2.850   5.855 -1.3563 -0.5060  0.8019
 5577SOL     OW28363   2.206   3.539   6.621 -0.2877 -0.5658 -0.4966
 5577SOL    HW128364   2.115   3.565   6.633 -1.0490 -2.0875 -3.0339
 5577SOL    HW228365   2.240   3.616   6.577  0.7562 -0.1582  1.0195
 5578SOL     OW28366   0.061   0.159   9.877 -0.3761  0.4243  0.2332
 5578SOL    HW128367   0.026   0.247   9.862 -2.6170 -0.3807  0.7924
 5578SOL    HW228368   0.030   0.139   9.965 -0.5375 -0.1397  0.0464
 5579SOL     OW28369   0.092   2.841   6.337 -0.2267  0.1512  0.2619
 5579SOL    HW128370   4.741   2.833   6.361 -0.3538  1.9954  0.3754
 5579SOL    HW228371   0.088   2.934   6.316 -2.4312 -0.0042 -0.0218
 5580SOL     OW28372   1.014   2.773   8.379  0.5550  0.6395 -0.1228
 5580SOL    HW128373   0.993   2.706   8.313 -0.1124  0.6912  0.0327
 5580SOL    HW228374   1.099   2.812   8.361  0.7729  0.8543  1.4300
 5581SOL     OW28375   0.785   1.998   5.328 -0.1287  0.5242 -0.1487
 5581SOL    HW128376   0.810   1.952   5.408  0.2796 -1.3820 -1.3608
 5581SOL    HW228377   0.801   2.086   5.361 -1.4240  0.6270  0.2033
 5582SOL     OW28378   3.093   4.635  12.017  0.0394  0.1623 -0.1199
 5582SOL    HW128379   3.120   4.635  11.925  0.5506  2.3705  0.0287
 5582SOL    HW228380   3.002   4.648  11.993  0.1243 -0.5785 -0.8511
 5583SOL     OW28381   3.309   2.087   2.593 -0.7268 -0.0861 -0.2529
 5583SOL    HW128382   3.379   2.035   2.552 -1.3805 -1.4753  0.3932
 5583SOL    HW228383   3.343   2.087   2.683 -2.4254 -1.6563  0.3873
 5584SOL     OW28384   4.691   2.762   4.944 -0.3666  0.0473 -0.0812
 5584SOL    HW128385   4.696   2.760   5.039 -0.9481  3.1656  0.0040
 5584SOL    HW228386   0.004   2.836   4.916  1.9421 -1.7022 -0.1819
 5585SOL     OW28387   2.741   0.311  10.926 -0.3810  0.2533 -0.2576
 5585SOL    HW128388   2.695   0.336  10.845  0.5184  2.9744  0.0576
 5585SOL    HW228389   2.754   0.395  10.970  2.3830 -0.0139 -0.5754
 5586SOL     OW28390   0.672   2.849   8.194  0.2496 -0.2461  0.2521
 5586SOL    HW128391   0.752   2.897   8.174 -1.7299  2.1048 -2.0571
 5586SOL    HW228392   0.682   2.831   8.288 -0.6341 -1.6815  0.0743
 5587SOL     OW28393   0.724   0.086   7.132  0.1725 -0.4506  0.2272
 5587SOL    HW128394   0.768   0.050   7.209 -1.6011  1.5266  2.1549
 5587SOL    HW228395   0.631   0.087   7.155  0.1052  0.8463 -0.0902
 5588SOL     OW28396   3.760   3.064   4.971  0.2843 -0.2298 -0.3487
 5588SOL    HW128397   3.697   3.123   5.013  1.7298  0.0300  1.4948
 5588SOL    HW228398   3.771   2.993   5.035 -1.6895 -0.3144 -0.1106
 5589SOL     OW28399   1.551   1.602  12.641  0.2113 -0.2246  0.0282
 5589SOL    HW128400   1.583   1.657  12.712  0.4251  0.1439 -0.3597
 5589SOL    HW228401   1.521   1.520  12.680  0.8975 -1.4148 -1.9261
 5590SOL     OW28402   0.770   1.086  13.238 -0.3046 -0.2610 -0.1707
 5590SOL    HW128403   0.730   1.062  13.154 -1.6734 -2.4364  1.1140
 5590SOL    HW228404   0.749   1.013  13.295  0.5864  0.2187  0.7594
 5591SOL     OW28405   4.568   4.505  11.627  0.3818  0.3483  0.0618
 5591SOL    HW128406   4.498   4.553  11.585  1.5352  1.4079 -0.6339
 5591SOL    HW228407   4.648   4.533  11.583  0.4226 -0.0058 -0.0960
 5592SOL     OW28408   4.545   1.344  11.232  0.8110  0.4119  0.0283
 5592SOL    HW128409   4.567   1.318  11.321  0.3906 -2.7211 -0.7666
 5592SOL    HW228410   4.595   1.282  11.178  1.3925  0.8349  0.0711
 5593SOL     OW28411   2.243   1.922   6.868  0.1666  0.1999  0.3686
 5593SOL    HW128412   2.293   1.914   6.787  0.4164 -0.8767  0.6270
 5593SOL    HW228413   2.171   1.863   6.846 -0.4562  0.9747  0.3446
 5594SOL     OW28414   3.272   2.415   1.411  0.1797  0.0771 -0.5059
 5594SOL    HW128415   3.189   2.461   1.401 -0.8770 -2.0333 -1.5972
 5594SOL    HW228416   3.247   2.336   1.363 -1.1949 -1.0722  2.0940
 5595SOL     OW28417   1.750   1.651   8.722 -0.5624 -0.0365 -0.7474
 5595SOL    HW128418   1.670   1.675   8.675 -0.1353  0.0889 -1.4018
 5595SOL    HW228419   1.715   1.625   8.808 -0.5605 -1.6330 -1.2211
 5596SOL     OW28420   1.642   0.116   8.040 -0.8120  0.1475  0.6508
 5596SOL    HW128421   1.729   0.154   8.055 -1.5040  2.7963 -2.0385
 5596SOL    HW228422   1.635   0.077   8.127  1.3436  0.5154  1.0100
 5597SOL     OW28423   1.422   0.438  10.431 -0.2025  0.0568  0.0425
 5597SOL    HW128424   1.412   0.419  10.338 -0.5417  1.2847 -0.1744
 5597SOL    HW228425   1.351   0.388  10.470 -0.5845  0.0958 -0.6123
 5598SOL     OW28426   3.865   0.824   3.888  0.1091  0.2777 -0.0834
 5598SOL    HW128427   3.797   0.777   3.935 -0.5856  0.9314 -0.4412
 5598SOL    HW228428   3.926   0.862   3.952  2.1971 -0.9034 -1.3468
 5599SOL     OW28429   3.662   1.572   7.074 -0.0614 -0.6084 -0.6347
 5599SOL    HW128430   3.653   1.554   6.980 -1.9412  0.2175 -0.6191
 5599SOL    HW228431   3.630   1.492   7.117 -1.0960  0.7512  1.1677
 5600SOL     OW28432   0.629   3.759   2.386  0.5222  0.0527  0.1206
 5600SOL    HW128433   0.634   3.713   2.470 -1.6845 -1.6264 -0.6647
 5600SOL    HW228434   0.714   3.802   2.390  0.1771  0.8756 -1.6663
 5601SOL     OW28435   1.645   4.231  12.325 -0.5554  0.9980  0.1275
 5601SOL    HW128436   1.684   4.183  12.252 -0.2507  3.7579 -1.4998
 5601SOL    HW228437   1.672   4.182  12.403  0.7687 -1.1034 -1.6492
 5602SOL     OW28438   3.757   3.475   5.222  0.0616 -0.0217 -0.6949
 5602SOL    HW128439   3.807   3.410   5.271  0.4169  0.0379 -0.9769
 5602SOL    HW228440   3.708   3.518   5.293  0.4594  2.8591 -2.1766
 5603SOL     OW28441   2.503   0.403  17.330 -0.0187 -0.1237 -0.2411
 5603SOL    HW128442   2.533   0.315  17.349  0.7169 -0.0568 -1.1128
 5603SOL    HW228443   2.507   0.405  17.235  0.6766 -0.4743 -0.2137
 5604SOL     OW28444   4.605   1.846   5.058 -0.2257 -0.9566 -0.8512
 5604SOL    HW128445   4.686   1.801   5.034  2.1494  2.1535  1.3355
 5604SOL    HW228446   4.566   1.863   4.972  0.2195 -1.2930 -1.1197
 5605SOL     OW28447   0.530   1.331   2.268  0.1637  0.4139 -0.1405
 5605SOL    HW128448   0.626   1.334   2.265  0.2068 -1.4207 -0.7714
 5605SOL    HW228449   0.518   1.272   2.342  2.1179  0.0757 -0.0922
 5606SOL     OW28450   1.417   2.378   8.256  0.0846  0.4419 -0.5824
 5606SOL    HW128451   1.367   2.384   8.337 -1.1278 -0.7025 -1.2485
 5606SOL    HW228452   1.387   2.290   8.232  1.7784 -0.5221  0.8583
 5607SOL     OW28453   4.382   3.600  10.211 -0.2056 -0.0868 -0.7231
 5607SOL    HW128454   4.383   3.598  10.116 -0.5240 -1.6299 -0.7034
 5607SOL    HW228455   4.288   3.620  10.211  0.6674  3.8714 -0.0690
 5608SOL     OW28456   2.676   2.618   4.166  0.0704  0.7331 -0.1621
 5608SOL    HW128457   2.761   2.646   4.135 -0.3219  2.7079  0.5484
 5608SOL    HW228458   2.703   2.582   4.251 -1.0783  1.1806  0.3968
 5609SOL     OW28459   3.065   2.411  15.084  0.2979 -0.3443 -0.0207
 5609SOL    HW128460   3.071   2.506  15.094  0.1563 -0.4387  0.9836
 5609SOL    HW228461   3.009   2.389  15.158  0.5930 -0.1651  0.2570
 5610SOL     OW28462   1.648   4.219  17.469 -0.5652 -0.7198  0.2029
 5610SOL    HW128463   1.663   4.309  17.441 -1.9685 -0.0079  1.7843
 5610SOL    HW228464   1.660   4.222  17.564  1.7708  2.0335 -0.1782
 5611SOL     OW28465   3.416   0.670  10.538  0.1856 -0.0633 -0.0688
 5611SOL    HW128466   3.380   0.715  10.461 -0.7293  1.1115  1.0484
 5611SOL    HW228467   3.441   0.747  10.589  2.3156  1.3857 -3.2876
 5612SOL     OW28468   1.350   2.595   1.916 -0.0850 -0.3701 -0.7023
 5612SOL    HW128469   1.288   2.663   1.944 -0.6205 -1.9961  2.0702
 5612SOL    HW228470   1.415   2.654   1.878  1.3574 -1.2446  0.4021
 5613SOL     OW28471   1.258   0.017   2.745 -0.4542  0.5235 -0.5988
 5613SOL    HW128472   1.217   0.049   2.826  1.8641 -0.2177  0.8726
 5613SOL    HW228473   1.283   0.102   2.710 -0.4570  1.5654  1.8899
 5614SOL     OW28474   4.093   3.986  12.386 -0.2892 -0.2373 -0.8288
 5614SOL    HW128475   4.182   3.986  12.421 -0.6051 -0.5008 -0.0274
 5614SOL    HW228476   4.042   3.976  12.467  0.7920  0.1055 -0.1036
 5615SOL     OW28477   3.961   0.994   7.766  0.1145 -0.6438  0.2414
 5615SOL    HW128478   3.977   1.087   7.783 -0.4200 -0.3426 -0.8951
 5615SOL    HW228479   3.910   0.968   7.843  0.7779 -0.8680  0.6092
 5616SOL     OW28480   3.929   3.636  13.050 -0.2973  0.3006  0.0069
 5616SOL    HW128481   3.981   3.626  12.970 -1.4597  1.3084 -0.8722
 5616SOL    HW228482   3.978   3.705  13.094 -0.5320  0.1794  0.4577
 5617SOL     OW28483   0.913   2.720  12.183 -0.7193 -0.1270  0.6178
 5617SOL    HW128484   0.917   2.679  12.270  0.9749  1.4395  1.2728
 5617SOL    HW228485   0.819   2.741  12.176 -1.3244 -2.7217  0.7906
 5618SOL     OW28486   2.832   0.350   4.162  0.1783 -0.1750  0.1850
 5618SOL    HW128487   2.834   0.296   4.241 -0.3228 -0.6058 -0.0972
 5618SOL    HW228488   2.796   0.285   4.102 -0.6341  0.3685  0.0781
 5619SOL     OW28489   1.594   4.132   1.298 -0.0716 -0.0322 -0.4131
 5619SOL    HW128490   1.570   4.092   1.381 -0.3637 -0.8043 -0.8619
 5619SOL    HW228491   1.541   4.100   1.225 -1.7058 -0.0604  0.8140
 5620SOL     OW28492   3.752   2.739   5.420  0.0470  0.3946  0.4828
 5620SOL    HW128493   3.821   2.799   5.448  0.9356 -0.7312  0.7000
 5620SOL    HW228494   3.716   2.777   5.341 -0.4369  1.5653  1.2639
 5621SOL     OW28495   2.149   4.572   7.161  0.0142 -0.7232  0.1446
 5621SOL    HW128496   2.127   4.554   7.252 -3.3688  0.9484 -0.3459
 5621SOL    HW228497   2.066   4.613   7.135 -0.0376 -0.2312  1.1106
 5622SOL     OW28498   3.894   4.054   2.750 -0.2130 -0.6489 -0.4886
 5622SOL    HW128499   3.848   4.138   2.755  0.8306 -0.2866  3.1395
 5622SOL    HW228500   3.933   4.054   2.837  0.2322 -0.0717 -0.6898
 5623SOL     OW28501   0.014   3.256   6.038  0.4657  0.0864 -0.3899
 5623SOL    HW128502   4.676   3.263   6.092  0.7122 -0.0491 -0.0142
 5623SOL    HW228503   0.043   3.170   6.067 -1.0279 -0.3933 -0.3263
 5624SOL     OW28504   2.204   3.795  15.233 -0.2196 -0.3781 -0.2028
 5624SOL    HW128505   2.127   3.741  15.252 -1.8415  1.3922 -1.6523
 5624SOL    HW228506   2.265   3.729  15.202 -0.0352 -0.6065  0.6641
 5625SOL     OW28507   4.681   1.990   5.273 -0.1772 -0.0671  0.3141
 5625SOL    HW128508   4.650   1.916   5.220 -1.8862  1.0126 -0.2002
 5625SOL    HW228509   4.731   2.035   5.205 -0.4572  0.3512  0.3885
 5626SOL     OW28510   1.846   1.576   8.280 -0.2037 -0.7319 -0.5295
 5626SOL    HW128511   1.887   1.660   8.301 -0.1829 -0.6677 -0.8229
 5626SOL    HW228512   1.903   1.511   8.323 -0.4433 -0.4362  0.2247
 5627SOL     OW28513   4.152   3.706   5.271  0.6182 -0.5844  0.1638
 5627SOL    HW128514   4.067   3.717   5.229 -0.2676  0.2225  2.1751
 5627SOL    HW228515   4.143   3.616   5.303  0.4656 -0.0276  1.6846
 5628SOL     OW28516   3.553   3.253   2.935 -0.3337  0.2566 -0.1069
 5628SOL    HW128517   3.616   3.201   2.885 -0.3061  1.0092 -0.8466
 5628SOL    HW228518   3.498   3.177   2.957  1.2307 -1.3322 -1.7155
 5629SOL     OW28519   2.965   4.334   2.354 -0.0762  0.1309 -0.4772
 5629SOL    HW128520   2.944   4.317   2.446  1.8076  0.6781  0.0741
 5629SOL    HW228521   2.936   4.425   2.350 -0.4288 -0.0887 -2.6121
 5630SOL     OW28522   4.716   3.564   3.104  0.2957 -0.4385  0.2963
 5630SOL    HW128523   0.010   3.591   3.019 -2.4446  1.9653 -0.0946
 5630SOL    HW228524   0.039   3.498   3.131 -0.0836 -0.9821 -0.1151
 5631SOL     OW28525   3.603   0.823   2.271  0.1237 -0.3122 -0.0936
 5631SOL    HW128526   3.590   0.780   2.187 -0.2695 -0.4666  0.0467
 5631SOL    HW228527   3.698   0.833   2.275  0.1932 -1.2733  0.5490
 5632SOL     OW28528   2.813   0.394   7.869  0.9109 -0.1424  0.4906
 5632SOL    HW128529   2.755   0.453   7.822  0.3857  0.8347  2.3856
 5632SOL    HW228530   2.754   0.325   7.901 -0.2475 -0.1491 -1.6558
 5633SOL     OW28531   4.046   1.287   1.313 -0.1915  0.3434 -0.7007
 5633SOL    HW128532   3.995   1.335   1.248 -0.7618  0.7811  0.0750
 5633SOL    HW228533   4.124   1.272   1.260  0.9434 -0.2026  1.1097
 5634SOL     OW28534   1.258   4.054   6.481  0.7035 -0.4357 -0.1937
 5634SOL    HW128535   1.249   4.060   6.576  1.1335  0.5866 -0.2148
 5634SOL    HW228536   1.200   4.122   6.446  0.8644  1.2747  2.8621
 5635SOL     OW28537   1.131   3.135   1.788 -0.1034  0.4484 -0.1925
 5635SOL    HW128538   1.196   3.124   1.858 -1.5074  2.7413  1.4773
 5635SOL    HW228539   1.056   3.090   1.827  1.0252 -0.4330  0.9601
 5636SOL     OW28540   0.963   2.413   7.275  0.6815 -0.1300  0.1817
 5636SOL    HW128541   0.954   2.443   7.185  1.0607  0.2635  0.2735
 5636SOL    HW228542   0.876   2.374   7.283 -0.4206  2.2105 -0.4850
 5637SOL     OW28543   2.766   3.775  12.389 -0.0573 -0.0871  0.1294
 5637SOL    HW128544   2.754   3.814  12.303 -3.5562 -1.9481 -0.2349
 5637SOL    HW228545   2.835   3.835  12.419 -1.8056  2.2558 -0.4886
 5638SOL     OW28546   4.017   3.119   4.805 -0.0886 -0.0318  0.3817
 5638SOL    HW128547   3.934   3.074   4.820 -0.6060  0.1875 -1.8693
 5638SOL    HW228548   4.047   3.122   4.896 -0.6417 -1.0450  0.6000
 5639SOL     OW28549   2.066   2.532   7.440 -0.2115 -0.3292  0.1118
 5639SOL    HW128550   2.108   2.451   7.410  2.6821  0.9252  0.7872
 5639SOL    HW228551   2.110   2.595   7.384 -0.6338  0.4467  0.6523
 5640SOL     OW28552   2.005   4.436   9.931  0.2409 -0.0704  0.0597
 5640SOL    HW128553   1.977   4.355   9.888 -0.1200  0.4995 -0.7989
 5640SOL    HW228554   2.086   4.403   9.969 -0.4169  1.8630  3.1679
 5641SOL     OW28555   0.510   1.962  13.915  0.1876  0.1067 -0.0426
 5641SOL    HW128556   0.450   1.941  13.986 -1.0243 -0.1000 -1.1365
 5641SOL    HW228557   0.474   1.905  13.847  2.5195 -0.9962 -0.3810
 5642SOL     OW28558   0.669   2.858   3.156 -0.0022  0.3073 -0.0853
 5642SOL    HW128559   0.700   2.772   3.129 -0.1867 -0.4580  2.1857
 5642SOL    HW228560   0.639   2.837   3.244  3.5636 -1.0751  0.7924
 5643SOL     OW28561   3.693   0.929   8.279  0.0547  0.5268 -0.0021
 5643SOL    HW128562   3.655   0.870   8.345  0.0514 -1.5561 -1.8766
 5643SOL    HW228563   3.670   0.896   8.192  0.7561  0.7634 -0.2698
 5644SOL     OW28564   3.141   2.370   4.948  0.1421 -0.3385 -0.6422
 5644SOL    HW128565   3.167   2.292   4.898 -0.2346 -0.7620 -0.1806
 5644SOL    HW228566   3.220   2.423   4.953 -0.9472  1.1248  1.0156
 5645SOL     OW28567   4.102   1.807   0.262  0.0537  0.5905  0.1547
 5645SOL    HW128568   4.099   1.820   0.167  0.9206  1.0500  0.1908
 5645SOL    HW228569   4.197   1.801   0.273 -0.0321  1.2660  1.1669
 5646SOL     OW28570   0.305   1.931  11.888 -0.2896  0.2880 -0.4552
 5646SOL    HW128571   0.386   1.926  11.837 -0.1503  0.3696 -0.2402
 5646SOL    HW228572   0.261   1.997  11.834 -1.8358 -1.1170 -0.9115
 5647SOL     OW28573   1.471   0.353  16.181 -0.0623  0.3096  0.1752
 5647SOL    HW128574   1.542   0.300  16.218  1.5291  3.3227  1.4489
 5647SOL    HW228575   1.524   0.383  16.107  0.8921 -0.6975  0.4500
 5648SOL     OW28576   3.231   0.067   4.102  0.6951 -0.6823  0.2380
 5648SOL    HW128577   3.239   0.142   4.044 -0.8535 -0.6774  0.0326
 5648SOL    HW228578   3.323   0.053   4.123  0.8065 -0.4011 -0.0730
 5649SOL     OW28579   2.323   0.904  13.329  0.8303  0.4341 -0.0164
 5649SOL    HW128580   2.313   0.811  13.350  3.0460  0.3056  0.5255
 5649SOL    HW228581   2.234   0.937  13.331  0.5556 -0.1488 -3.1493
 5650SOL     OW28582   2.980   3.443   2.152 -0.1991  0.0827 -0.5013
 5650SOL    HW128583   2.924   3.365   2.149  0.4639 -0.3145 -2.1427
 5650SOL    HW228584   2.934   3.503   2.094 -0.4910  0.8662  0.5309
 5651SOL     OW28585   1.507   4.347   6.983 -0.8311 -0.1511 -0.5092
 5651SOL    HW128586   1.456   4.336   6.903 -2.5155  0.4925  0.4656
 5651SOL    HW228587   1.439   4.368   7.047  0.3549 -2.2821  1.4490
 5652SOL     OW28588   1.654   3.058   4.873 -0.5829  0.4133  0.0246
 5652SOL    HW128589   1.719   3.063   4.803 -1.0137 -0.4547 -0.4431
 5652SOL    HW228590   1.657   2.963   4.885  2.4308  0.7252  1.7114
 5653SOL     OW28591   1.727   4.520   6.459  0.2794  0.3849 -0.2366
 5653SOL    HW128592   1.687   4.596   6.502 -0.1264  0.6707 -1.1102
 5653SOL    HW228593   1.729   4.553   6.369  1.8353 -0.8811 -0.6593
 5654SOL     OW28594   4.393   2.146   6.985  0.3401  0.4556 -0.3857
 5654SOL    HW128595   4.380   2.112   6.897 -0.1941  0.4235 -0.2956
 5654SOL    HW228596   4.452   2.081   7.023  2.1322  1.2244 -1.8883
 5655SOL     OW28597   3.496   1.978   1.682 -0.3411  0.0085  0.0410
 5655SOL    HW128598   3.557   2.021   1.622 -0.0609  0.0706  0.3670
 5655SOL    HW228599   3.420   2.028   1.650 -0.0126  0.4586 -0.0469
 5656SOL     OW28600   4.460   1.265   8.637 -0.4962  0.0999 -0.1758
 5656SOL    HW128601   4.506   1.192   8.596  0.3717  1.2302 -1.2429
 5656SOL    HW228602   4.368   1.238   8.634 -0.4472 -0.2187  1.4148
 5657SOL     OW28603   2.595   2.056  15.964 -0.0594  1.0668 -0.5055
 5657SOL    HW128604   2.576   2.014  15.881  1.2722  1.2589 -0.9030
 5657SOL    HW228605   2.531   2.128  15.965 -2.2426 -0.8428 -0.8261
 5658SOL     OW28606   4.004   4.522   8.858  0.0805  0.0097  0.2258
 5658SOL    HW128607   3.989   4.500   8.766  3.1487  1.2838 -0.5852
 5658SOL    HW228608   4.013   4.431   8.886  1.8000 -0.1654 -0.8846
 5659SOL     OW28609   0.197   1.181   0.890  0.2388 -0.5953 -0.1326
 5659SOL    HW128610   0.283   1.221   0.876 -0.0497 -0.5958 -2.0103
 5659SOL    HW228611   0.223   1.130   0.967 -0.7461  0.1327  0.6800
 5660SOL     OW28612   0.524   2.647   8.022  0.6917 -0.5451 -0.2667
 5660SOL    HW128613   0.554   2.735   8.046 -1.2705 -0.7377  2.9359
 5660SOL    HW228614   0.537   2.604   8.106  0.3976 -0.1357 -0.0082
 5661SOL     OW28615   1.577   2.461  12.878  0.2302  0.0008  0.9228
 5661SOL    HW128616   1.493   2.466  12.925 -0.2256  1.3683 -0.0485
 5661SOL    HW228617   1.564   2.373  12.842 -1.2588  0.7203 -0.2964
 5662SOL     OW28618   3.376   2.017   1.104  0.4061  0.4765  0.2018
 5662SOL    HW128619   3.462   2.045   1.073  1.0880 -1.4712  0.2917
 5662SOL    HW228620   3.338   1.966   1.032 -0.9951  3.4106 -1.1562
 5663SOL     OW28621   0.262   2.176  12.440 -0.2538  0.4975 -0.7819
 5663SOL    HW128622   0.289   2.258  12.481  0.9292  0.4200 -1.3979
 5663SOL    HW228623   0.322   2.104  12.456 -0.5584  0.9650  2.3433
 5664SOL     OW28624   0.503   1.720  12.388 -0.0412 -0.0846 -0.3234
 5664SOL    HW128625   0.562   1.648  12.364  0.1952  0.0486 -0.1436
 5664SOL    HW228626   0.547   1.742  12.471 -1.7021 -0.2913  0.6110
 5665SOL     OW28627   1.539   1.851  15.385 -0.3375 -0.3827 -0.5710
 5665SOL    HW128628   1.544   1.947  15.382 -3.0558 -0.3524 -3.7592
 5665SOL    HW228629   1.629   1.822  15.373 -0.5882 -1.2677 -0.3379
 5666SOL     OW28630   2.641   2.230  16.866  0.2380  0.3074  0.8131
 5666SOL    HW128631   2.712   2.175  16.900  1.6566  1.7061  0.0736
 5666SOL    HW228632   2.615   2.277  16.946 -0.2995  1.4899 -0.0584
 5667SOL     OW28633   3.858   2.941   9.073  0.4813  0.5897 -0.3960
 5667SOL    HW128634   3.952   2.926   9.079  0.4238  0.4635  0.1650
 5667SOL    HW228635   3.846   3.032   9.047  0.9344  0.6940 -0.2395
 5668SOL     OW28636   0.151   2.772  17.507  0.0409 -0.1272 -0.4939
 5668SOL    HW128637   0.072   2.823  17.524 -0.6746 -0.6940 -2.0840
 5668SOL    HW228638   0.217   2.818  17.559  0.0148  0.0848 -0.6469
 5669SOL     OW28639   2.528   2.953   1.944 -0.1058 -0.2345  0.2721
 5669SOL    HW128640   2.518   2.922   2.034  1.3103  0.7647  0.7826
 5669SOL    HW228641   2.520   2.874   1.891  1.1913 -0.0832 -0.1452
 5670SOL     OW28642   4.357   0.100   5.867 -0.1171  0.2134 -0.2369
 5670SOL    HW128643   4.356   0.178   5.921 -0.5359  0.3617 -0.4582
 5670SOL    HW228644   4.274   0.114   5.822  0.6497  1.1948 -1.3518
 5671SOL     OW28645   2.834   3.429  12.987  0.0951  0.2569  0.0788
 5671SOL    HW128646   2.761   3.380  12.949 -0.4060  2.2492 -1.5814
 5671SOL    HW228647   2.840   3.507  12.932 -0.0485 -0.2987 -0.7284
 5672SOL     OW28648   2.764   0.044   1.916 -0.1218  0.3331 -0.1678
 5672SOL    HW128649   2.701   4.713   1.915 -0.2165  0.4207 -0.5590
 5672SOL    HW228650   2.845   4.734   1.922 -0.7839 -0.5750  0.9707
 5673SOL     OW28651   4.418   0.648   2.574 -0.4427  0.5313 -0.0960
 5673SOL    HW128652   4.421   0.736   2.614  1.1124  0.4118  0.0550
 5673SOL    HW228653   4.509   0.618   2.582 -0.0294  1.4587 -1.3143
 5674SOL     OW28654   2.813   3.923   4.674  1.1249  0.0026 -0.3920
 5674SOL    HW128655   2.786   3.939   4.765 -0.0187  0.2057 -0.7576
 5674SOL    HW228656   2.900   3.887   4.693  0.6180 -0.0099  1.9878
 5675SOL     OW28657   3.242   1.068  14.146  0.1815 -0.2972  0.0136
 5675SOL    HW128658   3.173   1.006  14.167  0.2717 -0.2223  0.5178
 5675SOL    HW228659   3.316   1.008  14.138  0.4379  0.0095  0.0721
 5676SOL     OW28660   1.102   0.711   8.436 -0.5576  0.2228 -0.0480
 5676SOL    HW128661   1.139   0.788   8.392 -0.6955  1.7287  2.4451
 5676SOL    HW228662   1.076   0.749   8.520 -1.0710  0.5449 -0.3582
 5677SOL     OW28663   0.311   4.636   1.679  0.1703  0.2724 -0.1807
 5677SOL    HW128664   0.311   4.642   1.584  0.1903 -0.6269 -0.2380
 5677SOL    HW228665   0.294   4.544   1.699  2.0902 -0.2216 -0.8810
 5678SOL     OW28666   3.807   2.409   4.364  0.4445 -0.1793  0.2093
 5678SOL    HW128667   3.897   2.436   4.346  0.7378 -0.5316  1.1577
 5678SOL    HW228668   3.753   2.483   4.336  0.7082  0.4429  1.3587
 5679SOL     OW28669   4.698   2.735   6.743 -0.4669  0.4376 -0.1597
 5679SOL    HW128670   0.028   2.771   6.690  0.2550  1.0766  1.2364
 5679SOL    HW228671   4.734   2.730   6.831  0.6364 -0.2071 -0.6485
 5680SOL     OW28672   2.750   0.120   7.213 -0.6749  0.0841 -0.3586
 5680SOL    HW128673   2.708   0.108   7.128  0.1829  2.1359 -1.0785
 5680SOL    HW228674   2.694   0.186   7.254  0.1320 -1.0071  2.5417
 5681SOL     OW28675   1.755   0.687   2.121 -0.1214 -0.5610 -0.6061
 5681SOL    HW128676   1.815   0.717   2.052  0.8947  0.6121  0.8132
 5681SOL    HW228677   1.692   0.759   2.123 -0.6582 -0.9742 -1.8224
 5682SOL     OW28678   0.731   0.056   4.933  0.0710  0.7294  0.1551
 5682SOL    HW128679   0.755   4.705   4.918  1.7545  1.1074  0.5091
 5682SOL    HW228680   0.685   0.050   5.017 -1.0637  0.2829 -0.4979
 5683SOL     OW28681   2.825   3.731  13.398 -0.3344 -0.1542 -0.2766
 5683SOL    HW128682   2.857   3.773  13.318 -1.7699 -1.2360 -1.4080
 5683SOL    HW228683   2.907   3.723  13.447  0.8799  1.6434 -1.9878
 5684SOL     OW28684   4.653   3.045   5.525 -0.2433 -0.0914  0.2497
 5684SOL    HW128685   4.713   3.068   5.454 -0.2272  0.0417  0.3066
 5684SOL    HW228686   4.712   3.051   5.600  0.6382 -0.5753 -0.4110
 5685SOL     OW28687   0.084   3.925   8.771 -0.7802 -0.2450  0.1797
 5685SOL    HW128688   0.084   3.857   8.704  1.9335  0.8815 -0.9453
 5685SOL    HW228689   4.736   3.960   8.770 -0.5498  0.2293 -2.2713
 5686SOL     OW28690   1.635   0.075   6.230 -0.6292  0.2727 -0.0330
 5686SOL    HW128691   1.668   4.729   6.210  2.0773  1.5393 -1.1150
 5686SOL    HW228692   1.705   0.131   6.196 -0.0131  0.6770  1.9180
 5687SOL     OW28693   1.210   1.281  10.447 -1.3528  0.6166 -0.3658
 5687SOL    HW128694   1.278   1.272  10.514 -1.4470  2.2247 -0.0528
 5687SOL    HW228695   1.166   1.201  10.473  0.5216 -0.2994 -0.0185
 5688SOL     OW28696   1.820   4.708  17.592 -0.1080 -0.5924  0.6552
 5688SOL    HW128697   1.859   0.053  17.609  1.9642 -1.0268 -1.8487
 5688SOL    HW228698   1.808   4.673  17.681 -2.9665  1.0526  0.9197
 5689SOL     OW28699   2.056   3.070  13.399 -0.1404 -0.0542  0.6888
 5689SOL    HW128700   1.970   3.111  13.383  1.3855  2.7015 -0.5045
 5689SOL    HW228701   2.116   3.134  13.360  0.5181 -0.8900  0.3350
 5690SOL     OW28702   2.850   0.271   8.534 -0.0253  0.6260 -0.4979
 5690SOL    HW128703   2.793   0.250   8.608  0.0922 -0.3187 -0.6747
 5690SOL    HW228704   2.938   0.286   8.567 -0.2586 -1.6930  1.1277
 5691SOL     OW28705   4.425   1.422  11.014  0.3108 -0.0690 -0.0272
 5691SOL    HW128706   4.495   1.360  11.031 -0.4665 -1.4466 -1.8582
 5691SOL    HW228707   4.397   1.448  11.102 -0.0912  1.2072 -0.5215
 5692SOL     OW28708   1.334   4.301  16.459  0.4086  0.5725  0.7282
 5692SOL    HW128709   1.354   4.243  16.532 -0.3636 -0.3027  0.2309
 5692SOL    HW228710   1.305   4.241  16.392 -2.0496  1.7401  0.7374
 5693SOL     OW28711   1.589   4.400  16.492 -0.2599  0.9328 -0.5848
 5693SOL    HW128712   1.499   4.388  16.461 -0.7621 -0.4589  1.3619
 5693SOL    HW228713   1.615   4.309  16.505  0.8796  1.3802  0.2089
 5694SOL     OW28714   0.226   4.625   7.265  0.4334  0.2715 -0.0377
 5694SOL    HW128715   0.156   4.674   7.308 -2.8762 -3.0652 -1.5478
 5694SOL    HW228716   0.178   4.572   7.201  0.5870  0.4157 -0.2737
 5695SOL     OW28717   0.013   0.075  10.179  0.5116  1.0108 -0.0255
 5695SOL    HW128718   0.002   4.723  10.160  1.4242  0.9909 -0.4501
 5695SOL    HW228719   4.695   0.100  10.250 -1.2052  0.9909 -1.4483
 5696SOL     OW28720   0.828   2.042   4.485 -0.1091  0.1174  0.1286
 5696SOL    HW128721   0.797   2.010   4.400  2.6965  1.3327 -1.3492
 5696SOL    HW228722   0.767   2.114   4.497  1.1091  0.8637  1.7936
 5697SOL     OW28723   3.391   0.275  12.094  0.7640 -0.1598  0.0044
 5697SOL    HW128724   3.413   0.351  12.039 -0.5471  1.1837  1.3271
 5697SOL    HW228725   3.300   0.259  12.069  0.7162  2.4672 -1.6390
 5698SOL     OW28726   4.156   0.057  14.032 -0.4493 -0.4094  0.1014
 5698SOL    HW128727   4.156   0.094  13.944  0.2119 -1.4040 -0.3066
 5698SOL    HW228728   4.251   0.057  14.043 -0.3707  0.7790 -0.5708
 5699SOL     OW28729   2.650   2.779   4.616 -0.8290 -0.0579 -0.2031
 5699SOL    HW128730   2.714   2.725   4.661 -0.2390 -0.7100 -1.8260
 5699SOL    HW228731   2.642   2.852   4.677 -2.1027 -1.0716  0.8397
 5700SOL     OW28732   0.721   3.054  14.700 -0.3579 -0.0680 -0.3421
 5700SOL    HW128733   0.663   3.129  14.710  0.2342  0.4167 -0.5114
 5700SOL    HW228734   0.705   3.015  14.785 -1.1498  1.7629  0.3449
 5701SOL     OW28735   0.402   2.831   3.982 -0.3343  0.0239  0.0640
 5701SOL    HW128736   0.479   2.887   3.971 -1.4436  1.7529  1.1154
 5701SOL    HW228737   0.412   2.769   3.909 -1.8204  0.0735 -0.1787
 5702SOL     OW28738   1.810   2.516  11.661 -0.1100  0.3493  0.1060
 5702SOL    HW128739   1.822   2.597  11.710 -0.8093  0.5833 -0.1094
 5702SOL    HW228740   1.902   2.502  11.637 -0.8196 -2.6688 -0.9624
 5703SOL     OW28741   2.828   0.950  16.511  0.8247 -0.0020 -0.3062
 5703SOL    HW128742   2.796   1.036  16.486 -0.2388 -0.1597  0.4979
 5703SOL    HW228743   2.830   0.911  16.423  1.4076 -0.5452 -0.0598
 5704SOL     OW28744   4.106   3.568   9.058  0.0564  0.2256  0.1442
 5704SOL    HW128745   4.095   3.523   9.142  1.0249 -0.2464  0.0167
 5704SOL    HW228746   4.190   3.530   9.033 -0.4285 -0.9082  0.2577
 5705SOL     OW28747   4.571   0.825   0.555 -0.2859 -0.0167  0.4553
 5705SOL    HW128748   4.538   0.824   0.645 -1.6133  2.5303 -0.0030
 5705SOL    HW228749   4.583   0.919   0.540  1.6233 -0.1761  1.0241
 5706SOL     OW28750   0.933   0.881   8.653  0.5408 -0.2556  0.7341
 5706SOL    HW128751   0.972   0.954   8.605 -1.9511  0.8134  0.3097
 5706SOL    HW228752   0.854   0.866   8.601  2.1330 -0.9432 -1.4515
 5707SOL     OW28753   1.592   3.164  16.633 -0.4227 -0.4627 -0.1347
 5707SOL    HW128754   1.599   3.258  16.648 -0.3075 -0.7733  1.6956
 5707SOL    HW228755   1.679   3.149  16.596  0.7957  1.6870  1.9150
 5708SOL     OW28756   0.965   3.600   6.594  0.3285  0.2416 -0.0485
 5708SOL    HW128757   1.017   3.532   6.638  0.0571 -0.9996 -1.6600
 5708SOL    HW228758   0.958   3.564   6.506  0.5426  4.3148 -1.7505
 5709SOL     OW28759   3.326   1.179   3.483 -0.1380  0.1359 -0.5870
 5709SOL    HW128760   3.234   1.158   3.496 -0.1749  0.5967 -0.1266
 5709SOL    HW228761   3.315   1.268   3.451  1.8010  0.4131 -0.4744
 5710SOL     OW28762   2.479   4.351   4.274  0.3019 -0.1147  0.0393
 5710SOL    HW128763   2.558   4.322   4.230  0.5640  0.0624  0.3840
 5710SOL    HW228764   2.419   4.290   4.232 -0.0326  0.3987 -0.2226
 5711SOL     OW28765   3.670   0.559  12.191  0.6386 -0.1167 -0.0245
 5711SOL    HW128766   3.634   0.510  12.265 -1.4748  0.1620 -0.8847
 5711SOL    HW228767   3.749   0.509  12.175  0.7044 -0.2939  0.8153
 5712SOL     OW28768   1.392   3.100   9.190 -0.0112 -0.2199 -0.8511
 5712SOL    HW128769   1.473   3.093   9.241 -0.6863  1.4074  0.4173
 5712SOL    HW228770   1.429   3.130   9.107  0.4502  0.0382 -0.5556
 5713SOL     OW28771   3.792   1.058   7.413  0.3595  0.4773 -0.0218
 5713SOL    HW128772   3.798   1.113   7.335 -2.1085  0.6918 -0.0621
 5713SOL    HW228773   3.698   1.057   7.432  0.2144 -0.3951 -0.7994
 5714SOL     OW28774   4.659   4.688  14.206 -0.6198  0.3483 -0.4055
 5714SOL    HW128775   4.711   4.676  14.286  0.1117 -0.6687 -1.0364
 5714SOL    HW228776   4.667   4.603  14.164 -0.6420 -0.0290  0.3608
 5715SOL     OW28777   3.978   2.891   7.129 -0.4846 -0.8923 -0.8229
 5715SOL    HW128778   4.049   2.871   7.068 -0.0168 -2.2421  0.1423
 5715SOL    HW228779   4.027   2.932   7.200  1.2868  0.4799 -2.8713
 5716SOL     OW28780   1.237   0.014   4.082  0.0232 -0.4010  0.0965
 5716SOL    HW128781   1.256   0.002   3.989 -0.9219 -1.8910  0.1114
 5716SOL    HW228782   1.181   0.092   4.084  1.7190  0.8208 -0.0953
 5717SOL     OW28783   3.166   4.279  15.881 -0.2391  0.5148  0.4493
 5717SOL    HW128784   3.209   4.355  15.843  1.2611  0.2395  1.5802
 5717SOL    HW228785   3.224   4.205  15.861 -0.4844  0.1569  1.0348
 5718SOL     OW28786   2.641   4.261  13.007 -0.3575  0.2552 -0.7725
 5718SOL    HW128787   2.555   4.301  12.995 -0.7755  0.2788  2.2966
 5718SOL    HW228788   2.663   4.282  13.097 -0.0450  2.9012 -1.4754
 5719SOL     OW28789   0.981   3.520   0.976 -0.3501 -0.8041  0.4169
 5719SOL    HW128790   0.979   3.586   0.907 -2.7469  0.3690  1.5770
 5719SOL    HW228791   0.999   3.578   1.050 -2.7859  2.1908 -1.3187
 5720SOL     OW28792   3.282   0.743   3.071  0.3649 -0.3309 -0.7464
 5720SOL    HW128793   3.326   0.714   2.991 -0.4608  0.9835 -1.6759
 5720SOL    HW228794   3.335   0.702   3.139 -0.7588 -0.8059 -0.1664
 5721SOL     OW28795   3.335   2.600   1.991  0.7882 -0.2591 -0.4754
 5721SOL    HW128796   3.395   2.553   2.049 -1.1033 -0.6672  1.1243
 5721SOL    HW228797   3.283   2.640   2.060  2.6380  1.2402  0.0316
 5722SOL     OW28798   2.257   2.482   3.152  0.2627 -0.4382  0.3069
 5722SOL    HW128799   2.334   2.496   3.098 -0.1149  0.3859 -0.0111
 5722SOL    HW228800   2.230   2.391   3.138 -0.1528 -0.5681  1.9142
 5723SOL     OW28801   1.629   3.758  16.155 -0.1822  0.7828 -0.0234
 5723SOL    HW128802   1.724   3.766  16.163 -0.3969  2.6312  0.5966
 5723SOL    HW228803   1.615   3.669  16.123 -0.6628  0.9853 -0.3948
 5724SOL     OW28804   3.420   3.419  15.346  0.3126 -0.9933  0.0099
 5724SOL    HW128805   3.486   3.360  15.310  1.0118  0.7161 -1.5145
 5724SOL    HW228806   3.337   3.377  15.320 -0.0893 -0.2970  0.1585
 5725SOL     OW28807   0.696   2.364   4.778 -0.0136  0.0275 -0.3806
 5725SOL    HW128808   0.784   2.338   4.806  0.3318  0.8699 -0.6841
 5725SOL    HW228809   0.647   2.285   4.800 -1.1886  0.9935  0.4513
 5726SOL     OW28810   3.549   4.697  11.697  0.1769 -0.2313  0.1024
 5726SOL    HW128811   3.640   4.720  11.713  0.0284 -0.0748  0.6882
 5726SOL    HW228812   3.519   4.719  11.785 -0.0195  0.0761 -0.0413
 5727SOL     OW28813   0.363   0.302   9.223 -0.2058  0.2925  0.1631
 5727SOL    HW128814   0.376   0.397   9.228 -1.2465  0.4847 -0.5544
 5727SOL    HW228815   0.322   0.301   9.136 -0.1069 -0.4698  0.1285
 5728SOL     OW28816   4.190   4.027   5.603  0.0545 -0.2161  0.0107
 5728SOL    HW128817   4.275   4.055   5.639  0.9549 -1.9203 -0.8129
 5728SOL    HW228818   4.192   3.947   5.655  0.4370 -1.4222 -1.8507
 5729SOL     OW28819   0.902   1.609   9.286  0.0354  0.6890 -0.7939
 5729SOL    HW128820   0.851   1.690   9.294 -0.7630  0.1371 -0.2776
 5729SOL    HW228821   0.847   1.546   9.241  1.3384 -1.1084  0.1271
 5730SOL     OW28822   1.060   1.506   8.082 -0.1440  0.2119 -0.2260
 5730SOL    HW128823   1.119   1.566   8.037 -0.0532  0.9383  0.8761
 5730SOL    HW228824   0.975   1.536   8.051 -0.3008 -0.2160 -0.2158
 5731SOL     OW28825   3.326   2.962  10.003 -0.0486  0.1576 -0.6072
 5731SOL    HW128826   3.346   2.969  10.097 -2.9431  0.5277 -0.0109
 5731SOL    HW228827   3.273   3.041   9.992  1.3005  1.1558  0.1281
 5732SOL     OW28828   2.490   1.797   5.123  0.7325 -0.1981  0.1168
 5732SOL    HW128829   2.431   1.867   5.094  1.0633 -0.0429 -0.1823
 5732SOL    HW228830   2.466   1.784   5.215  0.5362 -1.0593 -0.0567
 5733SOL     OW28831   3.884   3.537   4.629  0.3268 -0.5039  0.0643
 5733SOL    HW128832   3.875   3.461   4.572 -2.7144  0.1531 -0.3379
 5733SOL    HW228833   3.871   3.494   4.713  3.1667  0.0004  0.7646
 5734SOL     OW28834   3.942   0.140  14.169 -0.5449 -0.1451  0.0794
 5734SOL    HW128835   3.987   0.058  14.146  1.6888  0.3989  2.4828
 5734SOL    HW228836   4.001   0.166  14.239  0.6662 -1.1549 -0.5544
 5735SOL     OW28837   2.524   4.180  16.500 -0.0644  0.2673 -0.1334
 5735SOL    HW128838   2.569   4.262  16.520  0.9924  0.2177 -2.2612
 5735SOL    HW228839   2.434   4.187  16.532 -1.1371 -1.7095 -2.6709
 5736SOL     OW28840   0.458   4.305  14.713  0.0216 -0.3578 -0.2991
 5736SOL    HW128841   0.476   4.214  14.687 -0.0210 -0.8179  1.2455
 5736SOL    HW228842   0.476   4.292  14.807 -1.2690 -0.4958 -0.0743
 5737SOL     OW28843   2.957   1.669   5.645  0.0239 -0.1641 -0.4300
 5737SOL    HW128844   2.986   1.606   5.579  0.2105 -0.7227  0.1915
 5737SOL    HW228845   3.032   1.659   5.703 -0.6061 -0.0842  0.3939
 5738SOL     OW28846   1.657   4.735   7.625 -0.1073 -0.0508  0.3681
 5738SOL    HW128847   1.752   4.733   7.609 -0.0797  1.2050  0.4000
 5738SOL    HW228848   1.626   0.029   7.542  0.8883 -0.7071 -0.2904
 5739SOL     OW28849   2.636   1.583   4.765 -0.6152  0.5097  0.2442
 5739SOL    HW128850   2.666   1.539   4.844 -1.4730  0.4181  0.5228
 5739SOL    HW228851   2.696   1.658   4.766  1.0261 -0.8359  1.5517
 5740SOL     OW28852   4.376   3.732  12.979 -0.1852  0.3381 -0.4662
 5740SOL    HW128853   4.352   3.651  13.023 -1.8843  0.9369 -0.2748
 5740SOL    HW228854   4.307   3.723  12.913 -0.9832 -0.1181  0.4246
 5741SOL     OW28855   2.333   0.266   8.520 -0.3931  0.5666 -0.1860
 5741SOL    HW128856   2.282   0.325   8.464  1.8967 -0.3258 -3.2320
 5741SOL    HW228857   2.375   0.333   8.574 -0.4796 -0.0340  0.6247
 5742SOL     OW28858   1.862   3.338   4.125  0.5732 -0.6653  0.2486
 5742SOL    HW128859   1.841   3.404   4.059 -0.3326 -1.7362 -0.5388
 5742SOL    HW228860   1.944   3.378   4.157 -0.4674  1.1326  0.6548
 5743SOL     OW28861   1.203   0.315  12.361 -0.1795 -0.3282 -0.0179
 5743SOL    HW128862   1.146   0.352  12.293  1.3943  0.7292 -0.7714
 5743SOL    HW228863   1.276   0.282  12.308 -1.3927 -0.5308 -1.5662
 5744SOL     OW28864   1.123   3.676  17.688  0.2011  0.6532 -0.2182
 5744SOL    HW128865   1.064   3.615  17.731  0.6496  0.5229  0.2146
 5744SOL    HW228866   1.192   3.615  17.661 -0.8677 -0.7620  0.2794
 5745SOL     OW28867   3.864   4.523   6.022 -0.2841  0.3719  0.0043
 5745SOL    HW128868   3.936   4.475   6.062  0.0460  0.0415 -1.0098
 5745SOL    HW228869   3.919   4.589   5.980 -0.6455  0.3374 -0.5190
 5746SOL     OW28870   2.141   3.312   8.766 -0.5592  0.0061 -0.1103
 5746SOL    HW128871   2.185   3.227   8.776  1.8589  1.3600  0.6831
 5746SOL    HW228872   2.073   3.296   8.700  1.8739  0.8399 -2.8242
 5747SOL     OW28873   3.066   1.310   4.199 -0.5121  0.6018  0.1325
 5747SOL    HW128874   2.996   1.339   4.141  1.1949  1.6817 -1.3717
 5747SOL    HW228875   3.020   1.353   4.272 -0.8024  1.3854 -0.5074
 5748SOL     OW28876   4.368   0.957   4.507  0.0253  0.3593  0.4325
 5748SOL    HW128877   4.379   1.042   4.466 -2.6264  0.2646 -0.5071
 5748SOL    HW228878   4.356   0.972   4.601  1.1044  0.7607  0.5061
 5749SOL     OW28879   0.513   0.923   5.825  0.3966 -0.1934  0.2644
 5749SOL    HW128880   0.458   0.876   5.887  1.1000  0.1951  1.1712
 5749SOL    HW228881   0.529   1.010   5.861 -1.0223  0.2757 -0.2302
 5750SOL     OW28882   1.878   3.240   2.525  0.5725 -0.1074  0.1471
 5750SOL    HW128883   1.834   3.285   2.453  1.5350 -0.9839 -0.9950
 5750SOL    HW228884   1.935   3.185   2.472 -0.4435 -1.1805  0.1871
 5751SOL     OW28885   4.483   2.575   6.747 -0.3271 -0.1319 -0.6077
 5751SOL    HW128886   4.568   2.619   6.758 -0.9801  1.2114 -0.9887
 5751SOL    HW228887   4.492   2.547   6.656  1.5436  0.7104 -0.6883
 5752SOL     OW28888   0.031   2.726   1.243  0.3278 -0.5535 -0.2498
 5752SOL    HW128889   4.736   2.814   1.234  1.4383  0.0998  1.6831
 5752SOL    HW228890   4.734   2.701   1.327  0.1433  3.3067  0.8356
 5753SOL     OW28891   2.364   0.266  16.543  0.1260  0.6086 -0.5228
 5753SOL    HW128892   2.423   0.337  16.517 -1.2363  2.1863  0.7066
 5753SOL    HW228893   2.424   0.200  16.579  1.7096  0.8002 -2.7812
 5754SOL     OW28894   0.158   0.714  14.551  0.7531 -0.3658  0.0215
 5754SOL    HW128895   0.076   0.755  14.579  0.6473  0.3898 -1.3886
 5754SOL    HW228896   0.204   0.700  14.634 -1.0024  1.7334  1.3475
 5755SOL     OW28897   3.096   4.168  11.909 -0.3898  0.1016  0.3747
 5755SOL    HW128898   3.071   4.181  12.000 -0.0003  0.3498  0.4422
 5755SOL    HW228899   3.183   4.207  11.911 -0.1431 -0.2676 -3.8955
 5756SOL     OW28900   2.195   0.248   6.006 -0.8797  0.4394  0.4072
 5756SOL    HW128901   2.133   0.192   5.960 -1.2375  1.8489 -0.8391
 5756SOL    HW228902   2.188   0.332   5.959 -0.3635  0.0616 -0.3420
 5757SOL     OW28903   1.623   2.557   3.630 -0.3739  1.2573 -0.0542
 5757SOL    HW128904   1.606   2.651   3.623  0.3735  1.3434 -0.6652
 5757SOL    HW228905   1.558   2.544   3.699 -1.2115  1.2675 -0.8442
 5758SOL     OW28906   1.533   0.717   8.863  0.0868  0.7130 -0.0762
 5758SOL    HW128907   1.495   0.766   8.936  0.0201 -0.3549  0.5997
 5758SOL    HW228908   1.463   0.652   8.861  0.6458  0.0511  2.4111
 5759SOL     OW28909   4.648   3.250   2.849 -0.4626 -0.0907  0.1017
 5759SOL    HW128910   4.679   3.163   2.824  1.1708  0.5651 -0.1678
 5759SOL    HW228911   4.700   3.274   2.926 -2.2547 -1.6128  1.7636
 5760SOL     OW28912   1.019   0.520   2.109  0.5531 -0.5955 -0.5573
 5760SOL    HW128913   1.087   0.513   2.176  0.8798  1.7173 -0.6558
 5760SOL    HW228914   1.071   0.527   2.029 -1.4129  2.0712 -1.6118
 5761SOL     OW28915   2.485   4.059   5.551 -0.4064  0.2970 -0.0223
 5761SOL    HW128916   2.511   3.975   5.514  1.6873  0.5023  1.0008
 5761SOL    HW228917   2.393   4.065   5.524  0.3935  3.8588 -1.9057
 5762SOL     OW28918   0.320   4.673  13.741  0.7224 -0.1596 -0.0236
 5762SOL    HW128919   0.403   4.644  13.778  0.6985  0.6771  0.7070
 5762SOL    HW228920   0.316   0.019  13.783  0.8575  0.1720 -0.6964
 5763SOL     OW28921   2.514   1.095   8.799 -0.2998  0.4902 -0.4085
 5763SOL    HW128922   2.585   1.140   8.753 -0.0297  0.8773  0.3768
 5763SOL    HW228923   2.554   1.021   8.846 -3.8986 -1.4733 -0.4658
 5764SOL     OW28924   0.213   4.157   6.392  0.2258  0.3334  0.1137
 5764SOL    HW128925   0.193   4.188   6.480 -1.1207  0.6874 -0.3165
 5764SOL    HW228926   0.194   4.064   6.404 -1.0757  0.8973  2.3730
 5765SOL     OW28927   3.304   0.107   7.468 -0.0138  0.0068  0.0256
 5765SOL    HW128928   3.374   0.059   7.512  1.1154  2.6518  1.0940
 5765SOL    HW228929   3.340   0.119   7.380  1.2043  1.0341  0.6681
 5766SOL     OW28930   1.849   4.184   3.290  0.5295  0.0512  0.8017
 5766SOL    HW128931   1.841   4.191   3.385  1.2581  1.0537  0.7837
 5766SOL    HW228932   1.765   4.145   3.263  1.0766  0.5583 -1.6202
 5767SOL     OW28933   3.763   2.511   3.648 -0.0620  0.0887  0.6988
 5767SOL    HW128934   3.783   2.528   3.740 -0.0101  0.6654  0.5809
 5767SOL    HW228935   3.705   2.437   3.668  0.3350 -0.4076 -0.0027
 5768SOL     OW28936   2.928   2.916  15.462 -0.5795  0.2209  0.5773
 5768SOL    HW128937   3.002   2.963  15.422 -0.0583 -0.3425  0.8788
 5768SOL    HW228938   2.873   2.993  15.475 -1.9291 -0.6473 -0.1010
 5769SOL     OW28939   3.570   0.011   3.879  0.4399  0.0975  0.1532
 5769SOL    HW128940   3.500   4.733   3.942 -0.3174  1.8254 -0.1649
 5769SOL    HW228941   3.592   0.097   3.915 -0.0494  0.4186 -0.3194
 5770SOL     OW28942   3.800   1.158   8.386 -0.5038 -0.3781  0.1958
 5770SOL    HW128943   3.773   1.119   8.470 -2.6358 -1.6679 -1.1055
 5770SOL    HW228944   3.762   1.086   8.336 -0.4802  0.4024 -0.9238
 5771SOL     OW28945   2.703   1.477   1.261  0.2062 -0.3021 -0.5841
 5771SOL    HW128946   2.709   1.458   1.168 -0.6317 -0.8016 -0.5356
 5771SOL    HW228947   2.612   1.472   1.288  0.9906 -0.2324  2.0991
 5772SOL     OW28948   2.867   1.914   2.563  0.2052 -0.1699  0.1916
 5772SOL    HW128949   2.924   1.982   2.598 -1.8046  1.5871  0.0501
 5772SOL    HW228950   2.913   1.893   2.482  0.4836 -0.5585  0.4481
 5773SOL     OW28951   3.046   1.808   6.692 -0.3396  0.0219 -0.3169
 5773SOL    HW128952   2.991   1.843   6.622  0.0205 -0.3634 -0.7923
 5773SOL    HW228953   3.025   1.716   6.680  1.8037 -0.4461 -0.4412
 5774SOL     OW28954   0.104   2.169   8.714  0.2899  0.5990 -0.2565
 5774SOL    HW128955   0.110   2.124   8.630 -0.0735 -1.8791  1.0525
 5774SOL    HW228956   0.048   2.105   8.759 -0.2186 -1.5328 -3.9622
 5775SOL     OW28957   0.605   2.088   7.431 -0.5119 -0.3839  0.0312
 5775SOL    HW128958   0.693   2.061   7.458 -0.5505  0.0811  0.6278
 5775SOL    HW228959   0.578   2.004   7.394  0.2014 -0.3256 -0.6229
 5776SOL     OW28960   3.836   1.313   5.826  0.5571  0.6426  0.5215
 5776SOL    HW128961   3.834   1.238   5.766  2.2911 -0.3977  1.7507
 5776SOL    HW228962   3.826   1.386   5.765  3.9218  2.5308  2.1856
 5777SOL     OW28963   1.627   1.257   4.447 -0.6548  0.1249  0.0979
 5777SOL    HW128964   1.532   1.267   4.455 -0.8883 -1.6564 -0.4771
 5777SOL    HW228965   1.638   1.223   4.358  1.3037 -1.0301  0.7834
 5778SOL     OW28966   2.132   2.241  17.130  0.0062 -0.1168 -0.1162
 5778SOL    HW128967   2.104   2.232  17.222  0.5425  1.0582  0.1613
 5778SOL    HW228968   2.129   2.336  17.119  0.4428 -0.2452 -1.2703
 5779SOL     OW28969   0.474   3.080   5.694  0.4015 -0.0343  0.4861
 5779SOL    HW128970   0.557   3.043   5.725  1.4309  1.8010 -0.1014
 5779SOL    HW228971   0.420   3.073   5.773  0.8677 -0.9133  0.7257
 5780SOL     OW28972   2.110   0.745   9.134 -0.1877 -0.2146 -0.2944
 5780SOL    HW128973   2.029   0.788   9.162  0.7081  2.9650 -2.4997
 5780SOL    HW228974   2.108   0.662   9.181  1.4453  0.2844  0.6695
 5781SOL     OW28975   3.467   0.673   5.436  0.4482 -0.4193  0.1232
 5781SOL    HW128976   3.512   0.717   5.363 -0.5192  1.5658  0.7423
 5781SOL    HW228977   3.543   0.645   5.487  1.3967  2.8401  0.4860
 5782SOL     OW28978   3.835   2.547   8.230 -0.0653  0.5411 -0.7156
 5782SOL    HW128979   3.848   2.453   8.218  1.2609  0.4922  1.1714
 5782SOL    HW228980   3.904   2.582   8.174  1.0745 -0.6792 -0.0473
 5783SOL     OW28981   3.810   2.057   6.058 -0.2897 -0.1951 -0.6211
 5783SOL    HW128982   3.813   1.990   6.126 -1.9430 -1.4198 -1.7603
 5783SOL    HW228983   3.890   2.101   6.089 -1.1206  0.5261  0.4827
 5784SOL     OW28984   1.299   3.499   4.855 -0.0782 -0.1440  0.1029
 5784SOL    HW128985   1.231   3.441   4.891  2.4082 -3.0545  0.1214
 5784SOL    HW228986   1.316   3.482   4.763  0.7123  1.2828 -0.0098
 5785SOL     OW28987   4.352   0.458  13.112 -0.2087 -0.4958 -0.0689
 5785SOL    HW128988   4.352   0.542  13.159  1.4813 -0.6389  0.1854
 5785SOL    HW228989   4.346   0.485  13.020 -0.1617 -2.0288 -0.5267
 5786SOL     OW28990   0.387   2.657   6.817 -0.4398 -0.5054  0.0288
 5786SOL    HW128991   0.353   2.640   6.905  0.3219  2.9014  0.9799
 5786SOL    HW228992   0.318   2.716   6.784 -1.5306 -2.5859 -1.4105
 5787SOL     OW28993   4.120   2.843   9.145  0.2586 -0.6452 -0.3306
 5787SOL    HW128994   4.182   2.898   9.097  2.0004 -1.8916  0.4768
 5787SOL    HW228995   4.181   2.823   9.217  2.1099 -0.6129 -1.8990
 5788SOL     OW28996   1.410   0.644   2.129 -0.0903  0.2204  0.2324
 5788SOL    HW128997   1.467   0.568   2.116  0.0415  0.8474 -2.6578
 5788SOL    HW228998   1.470   0.708   2.167 -1.0508  1.4137 -0.2395
 5789SOL     OW28999   4.347   0.506   4.936  0.4557 -0.6829  0.0938
 5789SOL    HW129000   4.383   0.565   5.002  0.2961 -1.5588  0.9644
 5789SOL    HW229001   4.411   0.505   4.865  1.0628 -2.7538  0.6565
 5790SOL     OW29002   3.877   1.869   5.018 -0.8647 -0.1336  0.2965
 5790SOL    HW129003   3.803   1.812   5.000 -0.6588 -0.5119  0.6582
 5790SOL    HW229004   3.842   1.953   4.988  2.6037  0.7963 -1.1391
 5791SOL     OW29005   2.912   1.489   1.799  0.7624 -0.3532  0.2138
 5791SOL    HW129006   2.912   1.538   1.717  0.9074  0.0147  0.4328
 5791SOL    HW229007   2.827   1.515   1.833  1.7246  0.0928  2.2432
 5792SOL     OW29008   3.477   1.714   6.668 -0.0453  0.1071  0.0953
 5792SOL    HW129009   3.399   1.767   6.653 -0.6866 -0.3109  1.9191
 5792SOL    HW229010   3.519   1.757   6.743  3.2029 -1.1738 -0.9868
 5793SOL     OW29011   2.209   3.498   9.274  0.5807 -0.8882  0.0314
 5793SOL    HW129012   2.194   3.556   9.348  0.9639 -0.8317  0.0651
 5793SOL    HW229013   2.301   3.472   9.285  1.3009  1.5774 -0.2315
 5794SOL     OW29014   0.134   2.138   6.713 -0.2831 -0.1343 -0.0720
 5794SOL    HW129015   0.115   2.214   6.658  2.3547  0.5126 -0.0873
 5794SOL    HW229016   0.108   2.069   6.652 -0.6779 -1.1078  1.2075
 5795SOL     OW29017   1.211   1.926   3.384 -0.2127 -0.5512 -0.1795
 5795SOL    HW129018   1.181   1.973   3.461  1.1703 -1.9062  1.1890
 5795SOL    HW229019   1.273   1.864   3.423 -0.7713 -0.3915  0.9643
 5796SOL     OW29020   3.982   0.020  10.191 -0.1434 -0.0419 -0.6783
 5796SOL    HW129021   4.075   0.043  10.188 -0.4904  1.3034 -1.2168
 5796SOL    HW229022   3.949   0.086  10.131 -0.6562  0.0940 -0.2491
 5797SOL     OW29023   0.769   0.946   1.433  0.3519  0.2194  0.0310
 5797SOL    HW129024   0.786   0.861   1.474 -0.4250  0.2174  0.3486
 5797SOL    HW229025   0.854   0.985   1.416  1.5450 -1.7494  1.3744
 5798SOL     OW29026   2.597   0.495   0.049 -0.7961 -0.5170 -0.0679
 5798SOL    HW129027   2.645   0.572   0.018 -0.1687 -0.2453  1.5442
 5798SOL    HW229028   2.625   0.425  17.752  2.2448 -0.1762  0.9685
 5799SOL     OW29029   1.136   2.133   2.677  0.3157  0.7747  0.4219
 5799SOL    HW129030   1.204   2.136   2.610  0.8077  0.5634  0.9186
 5799SOL    HW229031   1.177   2.094   2.754  0.7154 -3.0141 -1.6607
 5800SOL     OW29032   0.735   2.560   1.857  0.2357 -0.2202 -0.1885
 5800SOL    HW129033   0.650   2.518   1.846 -1.5035  2.5151  2.7009
 5800SOL    HW229034   0.763   2.547   1.767  2.7276  3.2985  0.0741
 5801SOL     OW29035   0.192   1.086   7.260 -0.4739  0.5068 -0.3570
 5801SOL    HW129036   0.192   1.179   7.235  0.3550  0.4229 -0.6309
 5801SOL    HW229037   0.173   1.091   7.354 -1.4252 -1.6515 -0.4443
 5802SOL     OW29038   0.372   1.807   8.871  0.0239 -0.0214  0.3481
 5802SOL    HW129039   0.388   1.855   8.790  2.0594 -1.8975 -0.3747
 5802SOL    HW229040   0.279   1.786   8.864  0.7467 -3.0642 -0.3877
 5803SOL     OW29041   2.114   3.962   9.342 -0.3518 -0.2824 -0.2695
 5803SOL    HW129042   2.080   3.883   9.386  1.0972 -0.8740 -0.2303
 5803SOL    HW229043   2.037   3.981   9.288  0.1157  1.1568 -0.4260
 5804SOL     OW29044   1.694   2.991  15.996  0.5620  0.0562  0.0863
 5804SOL    HW129045   1.637   3.062  16.027  1.0995  0.7896 -0.5818
 5804SOL    HW229046   1.670   2.912  16.044  0.6780 -1.1369 -1.8111
 5805SOL     OW29047   4.130   2.232   2.169 -0.2206  0.1680  0.4395
 5805SOL    HW129048   4.184   2.294   2.218  0.7687  0.5916 -1.2289
 5805SOL    HW229049   4.056   2.212   2.227 -1.1476 -0.7606 -1.0880
 5806SOL     OW29050   2.593   2.193   3.032  0.8025 -0.5189  0.6465
 5806SOL    HW129051   2.605   2.099   3.022 -0.8537 -0.8514  1.7333
 5806SOL    HW229052   2.638   2.228   2.955 -1.6002  1.9412  0.3399
 5807SOL     OW29053   1.202   3.996   3.600  0.4229 -0.1715 -0.4086
 5807SOL    HW129054   1.251   3.918   3.574  0.3914 -0.4963  0.4906
 5807SOL    HW229055   1.265   4.051   3.647 -0.3448  0.7986 -0.5181
 5808SOL     OW29056   4.464   1.473   4.974  0.6955 -0.3839  0.4110
 5808SOL    HW129057   4.544   1.423   4.957  1.2880  0.8127 -0.3206
 5808SOL    HW229058   4.431   1.471   4.884 -0.3814  0.5009  0.7797
 5809SOL     OW29059   4.392   4.364   4.185  0.3960  0.0214  0.4104
 5809SOL    HW129060   4.358   4.387   4.098  0.1948 -0.6865  0.3000
 5809SOL    HW229061   4.395   4.268   4.192  1.4920  0.0675  0.5194
 5810SOL     OW29062   4.127   0.134   5.722  0.1592 -0.0469 -0.5109
 5810SOL    HW129063   4.135   0.107   5.631 -1.0507 -3.2655  0.3270
 5810SOL    HW229064   4.099   0.223   5.705  0.0130  0.2221  1.0899
 5811SOL     OW29065   2.293   2.511  10.877  0.2521  0.3782 -0.4958
 5811SOL    HW129066   2.306   2.438  10.937  0.5581  0.5053 -0.4071
 5811SOL    HW229067   2.209   2.543  10.911  0.0922 -2.2494  1.6414
 5812SOL     OW29068   4.386   0.827  17.223  0.3694 -0.1893 -0.3380
 5812SOL    HW129069   4.292   0.843  17.227  0.1470 -1.7152  0.2308
 5812SOL    HW229070   4.399   0.752  17.281  3.7989 -0.4350 -1.3963
 5813SOL     OW29071   4.500   3.820   2.561 -0.4781  0.2601 -0.0694
 5813SOL    HW129072   4.538   3.901   2.528  0.6074 -0.6726 -1.0807
 5813SOL    HW229073   4.580   3.768   2.571  0.0022  1.2792  1.5502
 5814SOL     OW29074   1.355   2.512   7.224 -0.1650 -0.3238  0.6618
 5814SOL    HW129075   1.327   2.540   7.137  1.3561  1.4730  0.7676
 5814SOL    HW229076   1.271   2.518   7.271 -0.9482 -0.1635 -0.7391
 5815SOL     OW29077   3.031   4.428   3.884 -0.1698 -0.2372 -0.0287
 5815SOL    HW129078   2.988   4.407   3.801  0.2196 -1.2560  0.0261
 5815SOL    HW229079   3.010   4.352   3.937  2.2969 -1.4901 -0.8266
 5816SOL     OW29080   1.213   2.559   6.616 -0.3119  0.2035 -0.0487
 5816SOL    HW129081   1.263   2.640   6.609  2.8731 -1.6214  1.5493
 5816SOL    HW229082   1.154   2.589   6.685 -0.3307  1.2306 -0.5130
 5817SOL     OW29083   1.999   0.897   0.105  0.4264 -1.1718 -0.3230
 5817SOL    HW129084   2.090   0.918   0.082  0.4767  0.7960  1.7085
 5817SOL    HW229085   2.009   0.803   0.090  1.3791 -1.2252  0.6296
 5818SOL     OW29086   2.816   4.025   8.018  0.2909 -0.1676 -0.6803
 5818SOL    HW129087   2.802   4.088   8.089 -0.4042 -0.6277 -0.4077
 5818SOL    HW229088   2.742   4.041   7.959 -0.4635  0.3996  0.3961
 5819SOL     OW29089   0.755   1.470   6.534 -0.0863  0.3313 -0.6710
 5819SOL    HW129090   0.784   1.420   6.457  1.3297 -1.2881  0.9259
 5819SOL    HW229091   0.675   1.421   6.552  1.3769 -1.6872  0.3086
 5820SOL     OW29092   3.260   1.293   4.741  0.2096 -0.1112 -0.0980
 5820SOL    HW129093   3.167   1.315   4.730  0.2191 -0.1676 -0.2805
 5820SOL    HW229094   3.285   1.278   4.650 -0.3175 -1.2347 -0.0605
 5821SOL     OW29095   0.840   4.114   5.146 -0.3952  0.2862 -0.0350
 5821SOL    HW129096   0.745   4.107   5.140 -0.3895 -0.2930  0.4669
 5821SOL    HW229097   0.860   4.122   5.053  1.5022  2.7097  0.5972
 5822SOL     OW29098   3.160   3.297   8.933  0.0799  0.2558  0.1688
 5822SOL    HW129099   3.228   3.261   8.989  0.9753 -1.0829 -1.7945
 5822SOL    HW229100   3.211   3.305   8.852  1.1217 -0.8172  0.7319
 5823SOL     OW29101   0.561   2.216  13.847 -0.0912 -0.2929  0.0692
 5823SOL    HW129102   0.620   2.241  13.918 -0.7555  1.8571 -0.1421
 5823SOL    HW229103   0.554   2.122  13.867 -0.1815 -0.4174 -0.5422
 5824SOL     OW29104   0.089   3.108   8.965 -0.8540  0.1994  0.2661
 5824SOL    HW129105   0.183   3.128   8.970 -0.8617  0.5119 -0.8470
 5824SOL    HW229106   0.073   3.105   8.871  0.7238  1.8341 -0.0713
 5825SOL     OW29107   1.311   1.070   4.070  0.2511 -0.0112 -0.6320
 5825SOL    HW129108   1.224   1.107   4.056 -0.6009 -1.2543  1.4072
 5825SOL    HW229109   1.343   1.057   3.980  2.1406 -0.8219  0.1442
 5826SOL     OW29110   3.441   2.664   9.557  0.8008 -0.3515 -0.5107
 5826SOL    HW129111   3.391   2.635   9.480 -0.6507 -0.1890  0.3823
 5826SOL    HW229112   3.417   2.590   9.612 -0.0561  0.4198  0.1337
 5827SOL     OW29113   3.877   4.115   8.170 -0.4791 -0.0014  0.1896
 5827SOL    HW129114   3.830   4.196   8.149 -2.7832 -1.6618 -1.1180
 5827SOL    HW229115   3.930   4.152   8.240  0.3988  1.1190 -1.0719
 5828SOL     OW29116   0.131   1.484   6.125  0.6579  0.2430  0.0420
 5828SOL    HW129117   0.037   1.484   6.146  1.0121 -2.1091  1.5296
 5828SOL    HW229118   0.157   1.406   6.173 -0.6345 -0.6696 -0.7599
 5829SOL     OW29119   0.384   2.537  13.526 -0.1764  0.2170  0.1260
 5829SOL    HW129120   0.422   2.487  13.597 -0.8013  2.0053  1.7312
 5829SOL    HW229121   0.317   2.478  13.491  0.1705 -0.1372  0.0694
 5830SOL     OW29122   3.593   1.537   1.246  0.0180  0.0234  0.3954
 5830SOL    HW129123   3.522   1.601   1.250  0.3221  0.3477  0.6343
 5830SOL    HW229124   3.548   1.455   1.264  1.2061 -0.5469  0.7745
 5831SOL     OW29125   0.859   3.175   3.992  0.6747  0.1233 -0.6879
 5831SOL    HW129126   0.942   3.128   3.985  0.4092 -1.0754  3.7778
 5831SOL    HW229127   0.858   3.197   4.085 -0.5443 -2.3468 -0.1183
 5832SOL     OW29128   4.043   3.118   5.831  0.0312  0.0793  0.7321
 5832SOL    HW129129   3.951   3.141   5.823  0.2906  0.1659 -1.9536
 5832SOL    HW229130   4.032   3.031   5.870  3.9348 -0.0272  1.5849
 5833SOL     OW29131   4.082   2.267  17.306 -0.2234  0.3793  0.1401
 5833SOL    HW129132   4.092   2.269  17.402 -2.0770  0.1902  0.3268
 5833SOL    HW229133   4.061   2.358  17.288 -0.2394 -0.0351 -1.9052
 5834SOL     OW29134   0.759   0.146   3.359  0.0293  0.0487  0.1091
 5834SOL    HW129135   0.811   0.065   3.354 -0.2767 -0.2158  1.0583
 5834SOL    HW229136   0.754   0.174   3.268  0.1534  1.4118  0.5310
 5835SOL     OW29137   2.340   4.320   7.316 -0.0527 -0.1948 -0.4565
 5835SOL    HW129138   2.409   4.270   7.273 -0.0303  0.6349 -1.3981
 5835SOL    HW229139   2.280   4.329   7.242 -0.2177 -3.2106 -0.6637
 5836SOL     OW29140   2.144   2.503  17.049  0.2604 -0.3270  0.6146
 5836SOL    HW129141   2.066   2.553  17.073 -0.1719 -0.7865  0.1545
 5836SOL    HW229142   2.205   2.571  17.020  0.1889 -1.4094 -2.0251
 5837SOL     OW29143   0.129   1.474  14.878 -0.2576  0.3447 -0.2228
 5837SOL    HW129144   0.156   1.517  14.797  2.0937 -1.8899 -0.6084
 5837SOL    HW229145   0.082   1.395  14.850 -1.0307  1.0688 -0.9818
 5838SOL     OW29146   1.850   0.134  11.780  0.1893  0.1734  0.0658
 5838SOL    HW129147   1.901   0.062  11.816 -0.3407 -1.0165 -1.5447
 5838SOL    HW229148   1.807   0.085  11.710 -1.0823 -0.4262  1.2795
 5839SOL     OW29149   4.097   0.473   1.643  0.1059  0.1851 -0.1937
 5839SOL    HW129150   4.116   0.519   1.725 -2.4137  0.2749  0.3201
 5839SOL    HW229151   4.151   0.395   1.654  0.5511  0.7472  1.7389
 5840SOL     OW29152   0.811   1.060   7.388  0.4517 -0.1921 -0.1505
 5840SOL    HW129153   0.769   1.058   7.302 -0.1805  0.7254  0.1435
 5840SOL    HW229154   0.892   1.013   7.366 -2.0731 -4.6849  0.0955
 5841SOL     OW29155   4.574   3.493   2.725 -0.0347  0.3983  0.1460
 5841SOL    HW129156   4.581   3.403   2.757 -1.7203  1.2296  2.8169
 5841SOL    HW229157   4.650   3.537   2.762  0.6602 -1.1370  0.5419
 5842SOL     OW29158   2.065   3.995   3.465  0.0237  0.1942 -0.3867
 5842SOL    HW129159   2.004   4.015   3.394 -0.6779 -1.6171 -0.3097
 5842SOL    HW229160   2.084   4.087   3.484 -2.2969  0.1680  2.0783
 5843SOL     OW29161   0.928   3.142   7.566  0.5159 -0.2650 -0.3021
 5843SOL    HW129162   0.850   3.180   7.526  1.0605 -0.9903 -2.0648
 5843SOL    HW229163   0.997   3.172   7.506 -0.1992  0.6398 -0.6729
 5844SOL     OW29164   1.042   0.556  12.789 -0.1964 -0.2088  0.2605
 5844SOL    HW129165   1.114   0.561  12.727  0.7656 -0.0788  1.3790
 5844SOL    HW229166   1.072   0.593  12.873  0.3428  1.1734 -0.5433
 5845SOL     OW29167   0.172   1.577  14.625  0.0298 -0.2938  0.2010
 5845SOL    HW129168   0.096   1.573  14.567  0.1499  0.6623 -0.0337
 5845SOL    HW229169   0.242   1.590  14.561 -1.1411 -1.1945 -1.2496
 5846SOL     OW29170   3.305   3.028   0.495  0.1131 -0.0555  0.1986
 5846SOL    HW129171   3.264   2.944   0.474  0.5422 -0.4976  1.1158
 5846SOL    HW229172   3.247   3.056   0.566 -0.2353  0.6286 -0.3575
 5847SOL     OW29173   4.656   2.574  11.605 -0.1535 -0.3249  0.0216
 5847SOL    HW129174   4.625   2.608  11.689  0.8383  1.6028 -0.4121
 5847SOL    HW229175   4.684   2.650  11.555 -0.6006 -0.9490 -1.1722
 5848SOL     OW29176   1.804   3.435   4.715 -0.1436 -0.6781 -0.1220
 5848SOL    HW129177   1.881   3.378   4.714  0.0284 -0.4680  1.0501
 5848SOL    HW229178   1.771   3.396   4.635  0.7719  2.5136 -2.0308
 5849SOL     OW29179   4.141   1.117   5.126  0.2988  0.7563 -0.4884
 5849SOL    HW129180   4.179   1.201   5.099  2.0783 -0.0091 -0.3560
 5849SOL    HW229181   4.209   1.056   5.098  0.7503  0.7728  0.5559
 5850SOL     OW29182   0.420   0.315   1.452 -0.2921  0.5569  0.0575
 5850SOL    HW129183   0.476   0.238   1.454  0.9033  1.4422  1.1603
 5850SOL    HW229184   0.414   0.329   1.358  2.0378 -1.2859 -0.3494
 5851SOL     OW29185   3.668   3.569   1.819 -0.0078  0.1478 -0.2122
 5851SOL    HW129186   3.637   3.521   1.742  2.6980  0.7455 -1.6484
 5851SOL    HW229187   3.664   3.660   1.789 -1.7312  0.0555 -0.2471
 5852SOL     OW29188   0.657   2.025   9.982 -0.5079 -0.3667 -0.5704
 5852SOL    HW129189   0.659   1.982  10.068 -1.3192  1.0348  0.1625
 5852SOL    HW229190   0.711   1.962   9.934 -0.2290  1.3797 -2.5420
 5853SOL     OW29191   1.220   1.457   7.249 -0.4338  0.6427  0.1274
 5853SOL    HW129192   1.167   1.380   7.230  1.8665 -1.0399  0.4534
 5853SOL    HW229193   1.251   1.440   7.338  3.3188  3.5936 -0.5747
 5854SOL     OW29194   2.338   0.089   3.396  0.2403 -0.6424  0.6100
 5854SOL    HW129195   2.353   0.122   3.484  2.3257 -1.3174  0.5123
 5854SOL    HW229196   2.350   0.169   3.344 -0.4081 -1.1751 -0.3597
 5855SOL     OW29197   3.146   1.366   5.044  0.7791  1.0375 -0.5277
 5855SOL    HW129198   3.217   1.358   4.981  0.2633  2.2122 -1.2583
 5855SOL    HW229199   3.176   1.435   5.103 -1.2636  0.4916  1.1822
 5856SOL     OW29200   0.388   1.462   2.564 -0.6646  0.1227  0.4731
 5856SOL    HW129201   0.375   1.369   2.549  0.7387  0.2893 -1.9138
 5856SOL    HW229202   0.424   1.464   2.653  1.2596 -0.6217 -0.2810
 5857SOL     OW29203   2.384   3.812   8.466 -0.1326  0.1599 -0.4144
 5857SOL    HW129204   2.288   3.816   8.460 -0.1456  1.3746  0.5053
 5857SOL    HW229205   2.409   3.897   8.428 -1.1980  0.1017 -1.2293
 5858SOL     OW29206   1.070   2.531   2.189  0.3669  0.2229 -0.0499
 5858SOL    HW129207   0.976   2.539   2.172  0.3347  2.2365  1.0980
 5858SOL    HW229208   1.079   2.448   2.235  0.5161  0.9301  1.1927
 5859SOL     OW29209   4.138   3.814   9.259 -0.1294 -0.6976 -0.2782
 5859SOL    HW129210   4.133   3.720   9.243  0.8859 -1.1092  1.7658
 5859SOL    HW229211   4.047   3.837   9.242  0.1805 -0.6766 -1.8955
 5860SOL     OW29212   2.282   0.487   3.784  0.4877 -0.0723 -0.4023
 5860SOL    HW129213   2.238   0.403   3.772  1.9290 -0.6672 -1.4466
 5860SOL    HW229214   2.210   0.548   3.768  0.1687 -0.3043  0.1364
 5861SOL     OW29215   2.108   2.903   1.536 -0.1854 -0.0442 -0.2923
 5861SOL    HW129216   2.075   2.978   1.587  1.3397  0.1124  0.4539
 5861SOL    HW229217   2.105   2.835   1.602 -0.2173  0.5912  0.3648
 5862SOL     OW29218   2.930   0.629   6.408  0.4768 -0.5190  0.4194
 5862SOL    HW129219   2.948   0.693   6.339  0.9331  0.7414  1.6990
 5862SOL    HW229220   2.985   0.654   6.482  0.8598 -0.1681  0.0132
 5863SOL     OW29221   0.609   0.444   9.558 -0.7941  1.0073  0.6236
 5863SOL    HW129222   0.656   0.510   9.507  1.3551  0.1314  1.4426
 5863SOL    HW229223   0.527   0.482   9.589 -0.2938  0.8941  2.0719
 5864SOL     OW29224   1.109   3.742   5.718  0.0750  0.1016  0.4967
 5864SOL    HW129225   1.193   3.742   5.672 -0.9391 -0.2235 -1.3190
 5864SOL    HW229226   1.101   3.837   5.721 -0.3486  0.0868 -0.4367
 5865SOL     OW29227   2.074   0.285   8.857 -0.1066 -0.1119 -0.6108
 5865SOL    HW129228   2.040   0.349   8.794 -0.2103  1.1029  0.6705
 5865SOL    HW229229   2.128   0.227   8.804  0.2217 -0.7899  0.4777
 5866SOL     OW29230   3.860   0.806  12.279 -0.3087 -0.2350 -0.4390
 5866SOL    HW129231   3.788   0.813  12.216  0.9356  0.4564 -1.7771
 5866SOL    HW229232   3.806   0.758  12.342  0.7276 -2.6096 -1.3512
 5867SOL     OW29233   4.322   3.368   7.742 -0.1264 -0.4373 -0.1556
 5867SOL    HW129234   4.230   3.352   7.724 -0.5158  3.2168 -1.4133
 5867SOL    HW229235   4.313   3.404   7.831  1.4125 -1.9350  0.6169
 5868SOL     OW29236   2.270   0.784   5.637  0.7853  0.5293  0.1116
 5868SOL    HW129237   2.186   0.798   5.594  0.4948 -0.9029  0.2088
 5868SOL    HW229238   2.327   0.841   5.585 -0.4988  1.6523 -0.0419
 5869SOL     OW29239   0.222   0.617   6.587 -0.0340 -0.2545 -0.4025
 5869SOL    HW129240   0.314   0.597   6.569  0.8242  2.2384  1.1273
 5869SOL    HW229241   0.206   0.553   6.657 -0.2703  0.7128  0.4357
 5870SOL     OW29242   4.401   0.522   8.118 -0.7526 -0.2991  0.0460
 5870SOL    HW129243   4.419   0.429   8.105 -0.7624 -0.2871 -0.0532
 5870SOL    HW229244   4.367   0.512   8.207  3.3036 -1.1586  1.5260
 5871SOL     OW29245   2.652   0.063   6.973 -0.2779  0.2295  0.3907
 5871SOL    HW129246   2.618   4.723   6.935 -2.5835  1.3800 -0.0399
 5871SOL    HW229247   2.743   0.064   6.945 -1.1379 -0.5794 -2.4282
 5872SOL     OW29248   3.170   3.880  12.272  0.1971 -0.2014 -0.3308
 5872SOL    HW129249   3.183   3.874  12.177  0.0126  1.9487 -0.5029
 5872SOL    HW229250   3.250   3.833  12.297  0.1339 -0.3431 -0.3968
 5873SOL     OW29251   0.685   1.762   4.847  0.0460 -0.3916  0.0679
 5873SOL    HW129252   0.759   1.807   4.805  1.1291 -0.8069  1.5703
 5873SOL    HW229253   0.684   1.804   4.933 -0.4492  2.3092 -1.2333
 5874SOL     OW29254   2.210   2.431   6.387  0.0052 -0.5655 -0.1931
 5874SOL    HW129255   2.141   2.417   6.322  0.5630 -1.2575 -0.6405
 5874SOL    HW229256   2.288   2.432   6.332  0.6628 -0.9642  0.7366
 5875SOL     OW29257   0.292   4.381  12.231 -0.8275 -0.5399  0.0047
 5875SOL    HW129258   0.299   4.473  12.257  1.2464 -0.8671  0.6413
 5875SOL    HW229259   0.284   4.391  12.137 -1.7728 -0.4119  0.0926
 5876SOL     OW29260   3.236   1.150   6.843  0.8609 -0.4291 -0.3535
 5876SOL    HW129261   3.194   1.117   6.923  0.0774  0.3344 -0.4467
 5876SOL    HW229262   3.184   1.226   6.817 -2.7996 -2.1479  1.8285
 5877SOL     OW29263   4.562   4.316  10.949 -1.0565  0.0274  0.1036
 5877SOL    HW129264   4.576   4.408  10.970 -0.7001 -0.2245  0.9689
 5877SOL    HW229265   4.505   4.325  10.872 -0.2379 -0.3979 -0.5473
 5878SOL     OW29266   1.213   0.891   6.289  0.1981 -0.3206  0.3549
 5878SOL    HW129267   1.281   0.860   6.348  1.2742  3.4575  1.0531
 5878SOL    HW229268   1.207   0.981   6.321 -0.4396 -0.0100 -0.6281
 5879SOL     OW29269   3.191   2.053   4.612  0.3034 -0.1113  0.3589
 5879SOL    HW129270   3.153   2.122   4.557  0.8335  0.6231  0.8985
 5879SOL    HW229271   3.209   2.112   4.686  0.5764  0.4285 -0.1389
 5880SOL     OW29272   0.118   0.911   2.516  0.5301  0.4602  0.8438
 5880SOL    HW129273   0.165   0.977   2.567 -1.8592  1.4826  1.7243
 5880SOL    HW229274   0.075   0.975   2.459 -0.1015  0.1198  0.9441
 5881SOL     OW29275   1.167   2.704   3.041  0.1932  0.0186 -0.2354
 5881SOL    HW129276   1.118   2.761   3.100 -0.1806 -0.0436 -0.4806
 5881SOL    HW229277   1.225   2.757   2.987 -3.1149  2.5599 -1.3592
 5882SOL     OW29278   0.954   1.077  13.693 -0.4006  0.0768  0.6823
 5882SOL    HW129279   0.880   1.016  13.692 -1.2105  1.0313  3.2241
 5882SOL    HW229280   0.977   1.093  13.784  1.9934  1.2951 -0.1545
 5883SOL     OW29281   3.915   2.513   1.914 -0.6132 -0.2154 -0.6986
 5883SOL    HW129282   3.847   2.447   1.929 -0.1429  0.1275  2.9338
 5883SOL    HW229283   3.882   2.557   1.836  0.6265 -0.3789 -1.3077
 5884SOL     OW29284   1.290   1.307   3.439  0.1307  0.1992 -0.0004
 5884SOL    HW129285   1.267   1.226   3.484 -0.4687 -0.0213 -0.6999
 5884SOL    HW229286   1.383   1.297   3.422  0.0037  0.4443 -0.8695
 5885SOL     OW29287   3.124   2.513   6.895 -0.2417  0.2965  0.1971
 5885SOL    HW129288   3.147   2.564   6.816  1.0823  0.8849  0.9614
 5885SOL    HW229289   3.192   2.540   6.956 -0.9696 -2.3739  2.1637
 5886SOL     OW29290   3.281   4.151   7.426 -0.0042  0.6113 -0.1294
 5886SOL    HW129291   3.325   4.235   7.441  0.3760  0.7174 -1.9083
 5886SOL    HW229292   3.354   4.101   7.390 -0.0919  0.6878 -0.4093
 5887SOL     OW29293   4.479   1.574  10.800  0.1862 -0.5531 -0.0317
 5887SOL    HW129294   4.438   1.522  10.868  1.5259  0.7088  1.7347
 5887SOL    HW229295   4.517   1.510  10.740  1.4156 -0.4865  0.6750
 5888SOL     OW29296   4.145   2.387   6.144  0.1992  0.1714  0.0172
 5888SOL    HW129297   4.157   2.445   6.069 -2.4128  0.2479 -0.3665
 5888SOL    HW229298   4.212   2.423   6.202 -0.1615 -1.2372  1.3334
 5889SOL     OW29299   3.518   4.521  15.577 -0.3363 -0.3701  0.7380
 5889SOL    HW129300   3.505   4.443  15.524 -2.0846 -1.2646  2.4715
 5889SOL    HW229301   3.557   4.581  15.513 -0.0902 -0.6128  0.6644
 5890SOL     OW29302   2.394   1.376   4.800 -0.0788  0.1273 -0.2012
 5890SOL    HW129303   2.442   1.448   4.760  0.5089  0.9912  2.0643
 5890SOL    HW229304   2.326   1.356   4.736 -0.6171 -0.0320  0.4136
 5891SOL     OW29305   1.517   3.483   1.672 -0.3529 -0.1196 -0.0340
 5891SOL    HW129306   1.444   3.427   1.697 -1.7715  1.8360  0.1923
 5891SOL    HW229307   1.576   3.452   1.741 -0.1459 -1.7799 -0.9631
 5892SOL     OW29308   0.411   1.139   4.677 -0.2567 -0.1049  0.2492
 5892SOL    HW129309   0.496   1.173   4.649 -0.5822 -0.0502 -0.6693
 5892SOL    HW229310   0.430   1.074   4.745 -0.7036 -0.0002  0.4750
 5893SOL     OW29311   3.653   0.528   5.208 -0.0520  0.5093  0.1992
 5893SOL    HW129312   3.686   0.538   5.298  1.9764  0.0185 -0.4897
 5893SOL    HW229313   3.568   0.485   5.221 -0.8087  1.8550 -0.2912
 5894SOL     OW29314   3.068   4.187   1.640 -0.6209 -0.1241 -0.0998
 5894SOL    HW129315   3.108   4.178   1.727 -1.4555  0.5106  0.3523
 5894SOL    HW229316   2.983   4.147   1.658 -1.5868  1.5992 -0.8488
 5895SOL     OW29317   2.554   4.561   5.186  0.1136 -0.0136 -0.1051
 5895SOL    HW129318   2.545   4.490   5.123 -2.1179  0.9485 -0.9067
 5895SOL    HW229319   2.510   4.531   5.265  1.3426 -0.1251  0.5392
 5896SOL     OW29320   4.053   2.777   8.401  0.3755 -0.7411 -0.4504
 5896SOL    HW129321   3.962   2.794   8.426  0.0089 -1.0289 -1.6123
 5896SOL    HW229322   4.077   2.728   8.480  0.8090  0.7585  0.3636
 5897SOL     OW29323   1.189   3.795   1.014 -0.1584  0.0725  0.3923
 5897SOL    HW129324   1.226   3.707   1.021  1.8339  0.6961 -2.0812
 5897SOL    HW229325   1.231   3.842   1.085  1.3765  0.6340 -0.8739
 5898SOL     OW29326   3.648   2.772   2.022  0.0152 -0.2803 -0.3024
 5898SOL    HW129327   3.599   2.850   1.993 -1.5853 -1.6208 -1.2195
 5898SOL    HW229328   3.574   2.712   2.021  0.1733 -0.4600 -1.4854
 5899SOL     OW29329   2.064   1.623   6.896 -0.1253 -0.1290  0.1155
 5899SOL    HW129330   2.014   1.655   6.971 -1.1071 -1.7441  0.1386
 5899SOL    HW229331   2.041   1.677   6.821  0.4827 -2.3910 -1.6917
 5900SOL     OW29332   0.338   1.781   0.752 -0.2350  0.4028 -0.0225
 5900SOL    HW129333   0.321   1.766   0.659  3.9986 -0.7921 -0.6232
 5900SOL    HW229334   0.341   1.694   0.791 -1.7456  0.1023 -0.5906
 5901SOL     OW29335   0.874   1.044   6.901  0.7936 -0.2257 -0.0731
 5901SOL    HW129336   0.962   1.081   6.906  0.7163 -0.0289 -0.1728
 5901SOL    HW229337   0.889   0.964   6.951  0.4226  0.0884  0.5399
 5902SOL     OW29338   2.392   3.377   2.912  0.0552  0.2704 -0.9687
 5902SOL    HW129339   2.379   3.340   3.000  1.1068  0.2900 -0.8110
 5902SOL    HW229340   2.484   3.400   2.911  0.5521 -1.6855 -0.3631
 5903SOL     OW29341   3.715   2.186   7.285  0.1883  0.2722  0.0252
 5903SOL    HW129342   3.743   2.161   7.373  0.1485 -0.9089 -0.3014
 5903SOL    HW229343   3.796   2.202   7.236  1.1574 -0.6049  1.3661
 5904SOL     OW29344   2.672   3.910   7.228  0.3862 -0.1848  0.2470
 5904SOL    HW129345   2.578   3.898   7.217  0.7245 -1.7167 -0.9354
 5904SOL    HW229346   2.682   3.844   7.297 -2.2581 -0.4521  0.3718
 5905SOL     OW29347   1.298   1.811   8.315 -0.4504  0.1461 -0.3552
 5905SOL    HW129348   1.383   1.811   8.360 -1.1833 -1.6604  1.0453
 5905SOL    HW229349   1.270   1.719   8.312 -1.1516  0.3325  0.4835
 5906SOL     OW29350   3.494   0.050   5.337 -0.1942  0.8461  0.4849
 5906SOL    HW129351   3.511   4.714   5.283  3.0600  1.8366  0.0934
 5906SOL    HW229352   3.407   0.033   5.374  0.4742 -0.1699  1.5837
 5907SOL     OW29353   2.010   2.124   3.880 -0.0872 -0.4797  0.3082
 5907SOL    HW129354   2.044   2.212   3.896  0.6338 -1.1236  2.3274
 5907SOL    HW229355   1.915   2.139   3.886  0.4206  3.1427 -0.8500
 5908SOL     OW29356   2.542   0.782  13.996 -0.0361 -0.0166  0.4796
 5908SOL    HW129357   2.558   0.875  13.977  0.7946 -0.6878 -2.0985
 5908SOL    HW229358   2.497   0.756  13.916  0.9454  1.7524 -0.6632
 5909SOL     OW29359   0.956   3.517   5.015  0.3035 -0.0554  0.1643
 5909SOL    HW129360   0.909   3.597   4.993 -1.2468 -1.8801 -3.2327
 5909SOL    HW229361   0.990   3.544   5.100 -0.2258 -0.9003  0.6371
 5910SOL     OW29362   3.719   2.815   3.221  0.3872  0.7943  0.2420
 5910SOL    HW129363   3.799   2.803   3.170 -1.4951 -0.3252 -2.4594
 5910SOL    HW229364   3.761   2.796   3.304  1.9152  2.1256 -0.2207
 5911SOL     OW29365   2.973   0.092   9.331 -0.0050 -0.5161  0.1511
 5911SOL    HW129366   2.880   0.095   9.353 -0.4774  1.5277 -2.2394
 5911SOL    HW229367   3.016   0.066   9.413 -0.1148  2.1144  1.0243
 5912SOL     OW29368   4.672   1.643   2.643  0.1444 -0.2271  0.2614
 5912SOL    HW129369   4.659   1.551   2.666  1.5819 -1.0630 -2.2564
 5912SOL    HW229370   0.026   1.646   2.630  0.1396 -0.3836  0.1912
 5913SOL     OW29371   0.953   4.177   4.736  0.0141 -0.4707 -0.9455
 5913SOL    HW129372   0.928   4.256   4.688  0.6803 -0.2840 -0.9783
 5913SOL    HW229373   1.044   4.162   4.709  0.5323  2.6835 -0.9745
 5914SOL     OW29374   3.720   2.496   9.004 -0.1095  0.3443  0.0964
 5914SOL    HW129375   3.748   2.405   8.989 -1.1607  0.5059 -2.9693
 5914SOL    HW229376   3.794   2.527   9.056 -1.0302  1.9698  0.4342
 5915SOL     OW29377   3.092   3.045   0.713  0.3799  0.2052  0.4645
 5915SOL    HW129378   3.000   3.017   0.711  0.6463 -0.5318 -1.4215
 5915SOL    HW229379   3.089   3.109   0.785 -4.3979 -1.0543  1.3598
 5916SOL     OW29380   2.985   1.237   4.587  0.1777  0.2443 -0.1581
 5916SOL    HW129381   3.021   1.274   4.507  0.2741 -0.9251 -0.6681
 5916SOL    HW229382   3.002   1.142   4.589 -3.1168 -0.3137  2.1911
 5917SOL     OW29383   0.013   4.599  11.463  0.5688  0.6249  0.1574
 5917SOL    HW129384   0.089   4.645  11.429  0.4020  0.3605 -0.5692
 5917SOL    HW229385   4.709   4.683  11.457 -0.2890  0.1863  0.4368
 5918SOL     OW29386   1.697   1.587  16.775  0.2419 -0.5343 -0.1771
 5918SOL    HW129387   1.630   1.518  16.769  0.4202 -0.7266  0.0170
 5918SOL    HW229388   1.731   1.587  16.686 -0.2582 -1.3362 -0.3676
 5919SOL     OW29389   4.031   2.760   5.704 -0.1831  0.2890 -0.2091
 5919SOL    HW129390   4.050   2.795   5.791 -1.5194  1.2948 -0.3111
 5919SOL    HW229391   4.113   2.784   5.662 -0.1239 -0.5288 -0.5627
 5920SOL     OW29392   2.411   4.239   7.925 -0.5186 -0.4610  0.3313
 5920SOL    HW129393   2.412   4.220   7.831  3.5298  1.0200  0.1012
 5920SOL    HW229394   2.484   4.298   7.941 -1.1495  0.6006 -0.6895
 5921SOL     OW29395   2.892   3.054  12.775  0.3507 -0.1055  0.2416
 5921SOL    HW129396   2.893   3.016  12.688 -1.4208 -0.4008  0.3578
 5921SOL    HW229397   2.798   3.048  12.792  0.2766  1.5067  0.4047
 5922SOL     OW29398   0.392   0.228   2.239 -0.2775 -0.0039 -0.2555
 5922SOL    HW129399   0.341   0.174   2.179 -1.1178  0.8869 -0.3411
 5922SOL    HW229400   0.470   0.174   2.254  0.1048  0.3605 -0.9507
 5923SOL     OW29401   1.006   2.783   8.004 -0.5954 -0.1437 -0.2113
 5923SOL    HW129402   1.013   2.851   8.072 -0.1295  0.2410 -0.6388
 5923SOL    HW229403   1.100   2.767   7.994 -0.6256 -2.3995  3.2085
 5924SOL     OW29404   0.320   2.746  11.824  0.0544  0.0804  0.9219
 5924SOL    HW129405   0.279   2.662  11.847  0.3950 -0.4395 -0.3975
 5924SOL    HW229406   0.410   2.715  11.826 -0.0716 -0.3930 -0.5830
 5925SOL     OW29407   0.754   1.041  12.617  0.1051 -0.5093  0.1615
 5925SOL    HW129408   0.739   1.006  12.529  2.6539  0.0750 -0.5042
 5925SOL    HW229409   0.664   1.049  12.649  0.7570  1.6756  1.4457
 5926SOL     OW29410   3.824   3.843   5.609 -0.3248 -0.4254 -0.1586
 5926SOL    HW129411   3.896   3.892   5.569  2.2190 -2.3298  2.0432
 5926SOL    HW229412   3.756   3.852   5.543  0.4430 -0.3158 -0.9367
 5927SOL     OW29413   3.095   0.388   4.151 -0.5682  0.0441  0.5625
 5927SOL    HW129414   3.013   0.344   4.127 -0.9092  0.5321  0.8347
 5927SOL    HW229415   3.089   0.479   4.119 -2.0149  0.7030  2.7777
 5928SOL     OW29416   2.723   4.629   6.644 -0.0794  0.6986  0.0096
 5928SOL    HW129417   2.664   4.668   6.709 -1.1171  0.5557 -0.8500
 5928SOL    HW229418   2.747   4.707   6.595  0.0672  0.0711 -0.9105
 5929SOL     OW29419   0.190   2.730   4.504  0.0883  0.3438 -0.9621
 5929SOL    HW129420   0.185   2.768   4.417  0.2376  0.2332 -1.0191
 5929SOL    HW229421   0.256   2.662   4.488  1.6601  1.8220 -0.7504
 5930SOL     OW29422   0.903   2.099   2.827 -0.0257 -0.3160 -0.0638
 5930SOL    HW129423   0.858   2.066   2.749  0.0195  0.3124 -0.3553
 5930SOL    HW229424   0.990   2.102   2.787 -1.3666 -2.1041 -3.1150
 5931SOL     OW29425   4.009   1.561   6.172  0.0216  0.3110  0.3634
 5931SOL    HW129426   3.940   1.510   6.128  0.0816  1.1156 -0.6733
 5931SOL    HW229427   4.040   1.626   6.109 -2.7174 -1.1302 -2.5260
 5932SOL     OW29428   3.364   2.743   8.695 -0.3172 -0.6786 -0.2020
 5932SOL    HW129429   3.368   2.801   8.772  0.6921  0.6416 -1.2448
 5932SOL    HW229430   3.378   2.659   8.739 -0.0460  0.0146  1.0397
 5933SOL     OW29431   2.117   1.070  17.464 -0.1624 -0.1469 -0.0661
 5933SOL    HW129432   2.197   1.078  17.516  0.2846 -1.4678 -0.5624
 5933SOL    HW229433   2.153   1.093  17.379  0.7130  0.8435  0.5801
 5934SOL     OW29434   0.769   0.484   4.917 -0.4575  0.6434  0.4984
 5934SOL    HW129435   0.728   0.426   4.981 -0.9420  0.4334 -0.0020
 5934SOL    HW229436   0.791   0.565   4.963  0.6516  0.1993  0.7563
 5935SOL     OW29437   4.342   3.936  10.480  0.0542  0.0350  0.1023
 5935SOL    HW129438   4.303   4.008  10.430  1.4548  0.8140  0.1505
 5935SOL    HW229439   4.260   3.897  10.511  0.0023  0.6673  0.7610
 5936SOL     OW29440   2.524   2.194   7.003  0.0036 -0.5715 -0.4820
 5936SOL    HW129441   2.495   2.111   7.041  0.3495 -1.0208 -1.1894
 5936SOL    HW229442   2.618   2.186   7.016  0.2413  1.9689 -0.5971
 5937SOL     OW29443   1.811   1.659   6.254  0.0314 -0.5189 -0.0091
 5937SOL    HW129444   1.747   1.632   6.189  0.5339  0.0759 -0.7500
 5937SOL    HW229445   1.793   1.610   6.334  2.0350  0.1511  0.8660
 5938SOL     OW29446   3.329   0.503   1.503 -0.2052 -0.4057  0.6875
 5938SOL    HW129447   3.374   0.481   1.585  0.8680 -1.6810 -0.2416
 5938SOL    HW229448   3.360   0.421   1.465  2.9918  1.4500 -0.7111
 5939SOL     OW29449   1.270   1.220   8.268 -0.7630  0.0958  0.2372
 5939SOL    HW129450   1.209   1.212   8.195 -1.2962  0.6772  0.6192
 5939SOL    HW229451   1.347   1.253   8.221 -1.0474  2.5820  1.5319
 5940SOL     OW29452   2.521   0.471   5.878  0.0295 -0.1576  0.1845
 5940SOL    HW129453   2.459   0.484   5.806  2.7943  1.0406 -1.9708
 5940SOL    HW229454   2.491   0.530   5.946 -1.3435  0.2271 -0.7587
 5941SOL     OW29455   2.356   1.062   6.610  0.8707  0.1167 -0.5579
 5941SOL    HW129456   2.299   1.109   6.549  0.4094 -0.8382 -0.8558
 5941SOL    HW229457   2.286   1.006   6.642  0.2269  0.9218 -0.5789
 5942SOL     OW29458   2.718   1.220  16.539 -0.9996 -0.1838 -0.5341
 5942SOL    HW129459   2.626   1.213  16.512 -1.2507 -0.8402  0.4974
 5942SOL    HW229460   2.752   1.278  16.472 -1.2335 -0.4315 -0.8688
 5943SOL     OW29461   1.874   1.408   3.039  0.2551 -0.3275  0.1412
 5943SOL    HW129462   1.857   1.453   2.956 -1.3947 -2.1334 -0.5150
 5943SOL    HW229463   1.956   1.448   3.066 -0.2409  1.4475 -0.9445
 5944SOL     OW29464   3.515   3.084   0.864 -0.0310  0.6625  0.1540
 5944SOL    HW129465   3.457   3.150   0.825 -0.5907  0.0754  0.0003
 5944SOL    HW229466   3.564   3.139   0.926  4.0025 -1.2627 -1.3256
 5945SOL     OW29467   3.712   4.324   8.155 -0.3856 -0.6694 -0.5165
 5945SOL    HW129468   3.688   4.405   8.200 -0.7693 -0.6206 -0.8066
 5945SOL    HW229469   3.696   4.353   8.065 -0.9251  1.6845  0.3267
 5946SOL     OW29470   4.134   1.658   8.731  0.0200 -0.4973 -0.0862
 5946SOL    HW129471   4.116   1.564   8.730  1.8925 -0.8680  2.3227
 5946SOL    HW229472   4.186   1.670   8.811 -2.5563  3.2067  1.0516
 5947SOL     OW29473   4.172   1.184  15.414 -0.0935 -0.0067 -0.4452
 5947SOL    HW129474   4.250   1.191  15.359  1.1493  0.0545  1.3137
 5947SOL    HW229475   4.116   1.132  15.357 -1.9634 -0.1188  1.4892
 5948SOL     OW29476   2.687   4.557   3.747 -0.2095 -0.2368 -0.1016
 5948SOL    HW129477   2.617   4.621   3.737 -0.6564 -0.6016  0.6936
 5948SOL    HW229478   2.752   4.604   3.799  1.7120 -1.9325 -0.9884
 5949SOL     OW29479   1.945   1.988   1.441 -0.3160  0.1950  0.2149
 5949SOL    HW129480   1.990   1.908   1.416  1.7932  0.8914  1.7038
 5949SOL    HW229481   2.021   2.038   1.470  0.5184 -1.7625  1.3926
 5950SOL     OW29482   3.488   2.073   3.664  0.1704 -0.5839 -0.3208
 5950SOL    HW129483   3.478   1.978   3.669 -1.6740 -0.4050 -0.3884
 5950SOL    HW229484   3.402   2.109   3.686  0.8162  0.6820  0.1370
 5951SOL     OW29485   4.235   0.204   2.647 -0.1872 -0.7507  0.3644
 5951SOL    HW129486   4.247   0.233   2.737 -2.9181 -1.1976  0.8676
 5951SOL    HW229487   4.140   0.214   2.635 -0.4221 -1.4232  1.6873
 5952SOL     OW29488   1.445   3.989   3.128 -0.0522 -0.3987  0.5623
 5952SOL    HW129489   1.371   3.977   3.069  1.9341 -0.5190 -1.9241
 5952SOL    HW229490   1.477   4.078   3.115 -0.8145 -0.2649 -0.4280
 5953SOL     OW29491   0.066   3.587  10.349  0.1062 -0.8588 -0.3688
 5953SOL    HW129492   0.061   3.646  10.273  0.2019 -0.5985 -0.1743
 5953SOL    HW229493   0.106   3.641  10.417 -0.7427 -0.9486  0.2050
 5954SOL     OW29494   2.079   0.261  15.415 -0.0934 -0.6010 -0.2597
 5954SOL    HW129495   2.135   0.194  15.376  0.3809 -0.2831 -0.1217
 5954SOL    HW229496   2.011   0.198  15.442 -1.5198  0.5385 -1.2055
 5955SOL     OW29497   0.598   4.527   8.939  0.1540  0.3388 -0.6397
 5955SOL    HW129498   0.523   4.529   8.880 -0.8518  1.4891  0.6954
 5955SOL    HW229499   0.591   4.620   8.960 -2.6956  0.0665 -0.4195
 5956SOL     OW29500   2.977   0.361  17.719  0.2636  0.0462  0.0551
 5956SOL    HW129501   3.062   0.380  17.679  0.6633  0.7320  1.2333
 5956SOL    HW229502   2.909   0.381  17.655  0.9661  0.1187 -0.6649
 5957SOL     OW29503   0.308   4.412   2.352  0.5299  0.6079  0.0292
 5957SOL    HW129504   0.400   4.438   2.342 -0.3938  3.8219 -0.1278
 5957SOL    HW229505   0.310   4.328   2.307  0.5144  0.3583  0.4882
 5958SOL     OW29506   3.017   3.180   3.720 -0.4036 -0.0563  0.0667
 5958SOL    HW129507   2.979   3.264   3.746  0.1082 -0.6330  2.6522
 5958SOL    HW229508   3.070   3.208   3.645 -0.0431 -0.8440  0.0249
 5959SOL     OW29509   0.341   2.919   1.304 -0.5246 -0.3861  0.2421
 5959SOL    HW129510   0.303   2.873   1.378 -2.4001  1.1288  0.2279
 5959SOL    HW229511   0.346   2.851   1.237 -1.9431 -2.0464  1.8392
 5960SOL     OW29512   0.025   3.394  11.230 -0.1280  0.2351 -0.8580
 5960SOL    HW129513   0.033   3.396  11.326  1.4092  0.3480 -0.9874
 5960SOL    HW229514   0.029   3.488  11.215  1.6947  0.3927  0.5459
 5961SOL     OW29515   2.531   0.989   3.080 -0.3612  0.2593  0.4215
 5961SOL    HW129516   2.554   1.080   3.101  0.6560  0.2084 -0.5000
 5961SOL    HW229517   2.616   0.949   3.100 -0.8808 -0.8659  0.3747
 5962SOL     OW29518   3.579   3.288   5.386  0.2703  0.1680  0.2179
 5962SOL    HW129519   3.617   3.353   5.445  3.4629 -2.1227  0.6841
 5962SOL    HW229520   3.652   3.230   5.367  0.5549  0.4202  0.5314
 5963SOL     OW29521   3.466   1.301   1.254 -0.0735 -0.7428 -0.2056
 5963SOL    HW129522   3.395   1.249   1.292 -0.6007  1.8224  2.3605
 5963SOL    HW229523   3.542   1.261   1.296  0.3530  1.3054  0.9990
 5964SOL     OW29524   0.171   2.527  11.886  0.0096  0.1232 -0.1721
 5964SOL    HW129525   0.196   2.442  11.923 -0.0443 -0.8629 -2.3916
 5964SOL    HW229526   0.079   2.510  11.865  0.0996  2.5319 -2.4511
 5965SOL     OW29527   0.383   2.074   2.458 -0.4447  0.1482 -0.0300
 5965SOL    HW129528   0.303   2.126   2.461 -1.3942 -1.2905 -1.0024
 5965SOL    HW229529   0.431   2.098   2.538 -1.2190  0.7780  0.2397
 5966SOL     OW29530   1.484   0.575   9.786 -0.4075 -0.4931  0.0566
 5966SOL    HW129531   1.562   0.523   9.766  1.3609  1.8528  0.9208
 5966SOL    HW229532   1.481   0.642   9.718  1.3126  0.4467  0.9178
 5967SOL     OW29533   0.912   4.204   3.091  0.0354  0.1116  0.1855
 5967SOL    HW129534   0.953   4.289   3.109 -0.7441  0.6786 -0.7020
 5967SOL    HW229535   0.851   4.222   3.019 -0.0662  0.6396  0.3992
 5968SOL     OW29536   3.360   0.931   0.193  0.1627  0.7111 -1.0112
 5968SOL    HW129537   3.368   0.887   0.278 -0.3933  2.6021  0.0158
 5968SOL    HW229538   3.276   0.893   0.169  1.7514 -2.7236 -1.1591
 5969SOL     OW29539   2.291   3.538  13.107  0.1381 -0.1632  0.7085
 5969SOL    HW129540   2.375   3.497  13.127  0.7245 -0.3587 -2.2328
 5969SOL    HW229541   2.327   3.614  13.062 -2.9924  0.4430 -0.7681
 5970SOL     OW29542   1.467   2.095   6.027 -0.3047  0.2503  0.1219
 5970SOL    HW129543   1.464   2.078   5.933 -1.0037  0.6724  0.0616
 5970SOL    HW229544   1.543   2.045   6.055 -1.4212 -1.0483  0.8416
 5971SOL     OW29545   4.547   0.426   2.887 -0.4478 -0.0917 -0.8533
 5971SOL    HW129546   4.588   0.343   2.862  1.2871  0.1766  1.0462
 5971SOL    HW229547   4.457   0.404   2.911  0.1827  0.0658  1.6173
 5972SOL     OW29548   3.071   4.052  15.150  0.2576 -0.0914 -0.1408
 5972SOL    HW129549   3.007   4.117  15.120  0.8304  0.9374  0.8428
 5972SOL    HW229550   3.106   4.026  15.065 -0.5896  1.3782 -0.9320
 5973SOL     OW29551   1.127   3.897  16.713  0.4676  0.0747 -0.0996
 5973SOL    HW129552   1.051   3.939  16.672  0.6819  1.0200  0.4889
 5973SOL    HW229553   1.090   3.826  16.765 -0.8720  1.4909  0.8751
 5974SOL     OW29554   0.700   0.943  13.683 -0.2044 -0.3518 -0.2401
 5974SOL    HW129555   0.620   0.995  13.693 -1.1521 -1.5509 -1.6255
 5974SOL    HW229556   0.694   0.875  13.750  3.4857  0.3430  0.8378
 5975SOL     OW29557   1.616   1.332   3.356  0.4290  0.4133  0.4219
 5975SOL    HW129558   1.616   1.350   3.450 -0.7657 -0.5698  0.6095
 5975SOL    HW229559   1.700   1.368   3.326  0.5154  1.7263  2.2250
 5976SOL     OW29560   0.789   1.372   5.817  0.2293 -0.0385  0.4004
 5976SOL    HW129561   0.766   1.441   5.755  0.8457  1.6032  2.0210
 5976SOL    HW229562   0.863   1.329   5.774 -0.2215  0.5872 -1.0018
 5977SOL     OW29563   3.253   3.907   2.895  0.1022  0.2998  0.0540
 5977SOL    HW129564   3.267   3.926   2.802  1.2815  1.1046  0.3947
 5977SOL    HW229565   3.310   3.833   2.918 -2.3089 -1.4493  0.4195
 5978SOL     OW29566   0.137   3.447  10.807 -0.0524 -0.7086  0.3657
 5978SOL    HW129567   0.048   3.431  10.838  0.5859 -1.0587  2.0339
 5978SOL    HW229568   0.181   3.400  10.879 -0.4456 -0.0509  1.0381
 5979SOL     OW29569   2.861   4.041   1.769 -0.4077  0.2684  0.6225
 5979SOL    HW129570   2.804   4.071   1.698  0.4384  2.5874  0.9135
 5979SOL    HW229571   2.855   3.948   1.747 -0.3093  0.1945  0.9064
 5980SOL     OW29572   1.517   2.245  10.215  0.2986 -0.5157 -0.1039
 5980SOL    HW129573   1.602   2.289  10.221 -0.0902 -0.5472  5.2808
 5980SOL    HW229574   1.486   2.268  10.302  0.5107  1.4766 -0.5487
 5981SOL     OW29575   3.574   0.395  15.859  0.5842 -0.0228  0.1652
 5981SOL    HW129576   3.560   0.391  15.765 -1.8466  1.4559  0.4620
 5981SOL    HW229577   3.641   0.327  15.868  0.0689 -0.9509 -2.9568
 5982SOL     OW29578   1.780   4.514   5.246  0.0192 -0.9832 -0.0201
 5982SOL    HW129579   1.758   4.536   5.155 -2.8991 -1.1281  0.6223
 5982SOL    HW229580   1.711   4.454   5.277  0.2904 -0.1599  2.2168
 5983SOL     OW29581   2.521   3.221   8.303 -0.3939 -0.5592  0.4881
 5983SOL    HW129582   2.470   3.208   8.383  1.0800  1.4691  1.7690
 5983SOL    HW229583   2.609   3.233   8.338 -0.3197 -0.4170  0.2558
 5984SOL     OW29584   3.181   4.009   3.608 -0.1786 -0.3669  0.2950
 5984SOL    HW129585   3.116   3.983   3.543  0.8665 -2.0608 -0.0637
 5984SOL    HW229586   3.190   4.104   3.597  2.2595 -0.5262  0.8651
 5985SOL     OW29587   4.697   0.340  17.278  0.2577 -0.2162  0.0582
 5985SOL    HW129588   4.646   0.360  17.200 -1.1263 -3.3719  0.1777
 5985SOL    HW229589   4.635   0.381  17.340  1.8346 -0.5408  1.8518
 5986SOL     OW29590   0.269   0.221  16.311 -0.5257 -0.0416  0.1681
 5986SOL    HW129591   0.364   0.211  16.299 -0.8133 -1.9978 -0.4232
 5986SOL    HW229592   0.237   0.222  16.220  1.3646 -3.2143 -0.5584
 5987SOL     OW29593   1.784   2.668   1.191 -0.9546  0.1433 -0.6677
 5987SOL    HW129594   1.809   2.576   1.181  0.1235  0.1622  1.9857
 5987SOL    HW229595   1.854   2.707   1.138  0.5428 -0.4037  0.9261
 5988SOL     OW29596   3.643   1.371   7.422 -0.4537  0.0669  0.3186
 5988SOL    HW129597   3.563   1.384   7.371 -0.7634  0.2384  0.8538
 5988SOL    HW229598   3.699   1.446   7.402  2.0314 -2.0678 -0.7484
 5989SOL     OW29599   0.635   4.044   2.055  0.1938  0.4910 -0.0900
 5989SOL    HW129600   0.660   4.127   2.095 -0.9591  0.0070  1.6607
 5989SOL    HW229601   0.569   4.015   2.119 -0.5596  0.0601 -1.0692
 5990SOL     OW29602   1.952   2.937   8.041 -0.6382  0.3750  0.5931
 5990SOL    HW129603   2.017   2.869   8.058 -0.9634 -0.0029  0.3129
 5990SOL    HW229604   1.882   2.899   8.093 -0.6874 -0.2949  0.0304
 5991SOL     OW29605   3.588   1.304   7.144  0.0234  0.7655 -0.1406
 5991SOL    HW129606   3.549   1.226   7.183  0.5164 -0.1048 -1.3838
 5991SOL    HW229607   3.599   1.275   7.053  0.6246 -0.8345  0.4348
 5992SOL     OW29608   4.690   3.730   3.936  0.0585 -0.4573  0.0547
 5992SOL    HW129609   4.617   3.791   3.927 -0.9605 -1.2918  2.5672
 5992SOL    HW229610   4.649   3.647   3.961  1.2341 -1.0246  0.0988
 5993SOL     OW29611   4.573   3.293   6.921 -0.3865 -0.1528  0.0672
 5993SOL    HW129612   4.663   3.281   6.890 -0.3556  4.0142 -1.4350
 5993SOL    HW229613   4.575   3.371   6.977  0.3193  0.9536 -1.4883
 5994SOL     OW29614   0.908   0.524   5.345  0.5656  0.1867 -0.9078
 5994SOL    HW129615   0.891   0.571   5.427  1.9684  2.7051 -2.0666
 5994SOL    HW229616   0.863   0.444   5.373  2.7518 -1.1021 -1.0663
 5995SOL     OW29617   0.723   1.124  14.697  0.1066  0.1383  0.3730
 5995SOL    HW129618   0.810   1.131  14.660  0.5653  0.0781  1.4405
 5995SOL    HW229619   0.669   1.079  14.632  0.0500  0.9405 -0.1285
 5996SOL     OW29620   3.129   1.968   5.332  0.3961  0.2333  0.0158
 5996SOL    HW129621   3.110   1.941   5.422  0.1172 -1.6305 -0.5953
 5996SOL    HW229622   3.072   1.904   5.290  0.7925 -1.5163  2.1615
 5997SOL     OW29623   3.539   2.324   8.630 -0.0557  0.6778  0.2726
 5997SOL    HW129624   3.490   2.307   8.710 -0.4341  1.3689  0.1878
 5997SOL    HW229625   3.616   2.367   8.666 -1.3072  1.0350  2.5406
 5998SOL     OW29626   0.715   0.577   3.546 -0.1209  0.4888 -0.3083
 5998SOL    HW129627   0.730   0.672   3.544  0.2182  0.4456  0.4689
 5998SOL    HW229628   0.709   0.565   3.451 -0.7934 -1.3387 -0.0387
 5999SOL     OW29629   4.576   3.184   4.296  0.3175  0.2720 -0.1905
 5999SOL    HW129630   4.484   3.157   4.293  0.5304 -0.3238 -1.1749
 5999SOL    HW229631   4.614   3.104   4.333  0.7782 -0.9846 -3.3944
 6000SOL     OW29632   4.432   2.859   7.807  0.4467 -0.3010 -0.2171
 6000SOL    HW129633   4.406   2.951   7.806 -0.7844 -0.6460 -0.2022
 6000SOL    HW229634   4.444   2.844   7.901  1.4745  0.2053 -0.2600
 6001SOL     OW29635   0.437   0.039  14.542  0.5634  0.0425 -0.6198
 6001SOL    HW129636   0.399   4.704  14.586  1.8667 -1.8406 -2.7311
 6001SOL    HW229637   0.522   0.011  14.507  1.2814  1.2416  0.1265
 6002SOL     OW29638   0.312   3.137   6.108 -0.0890  0.9627 -0.2890
 6002SOL    HW129639   0.262   3.086   6.171  1.3544  0.5585  0.5302
 6002SOL    HW229640   0.270   3.223   6.118 -1.6582  0.1423  0.1609
 6003SOL     OW29641   3.641   4.740   4.512 -0.1682  0.0143 -0.1449
 6003SOL    HW129642   3.677   0.032   4.430 -0.4611 -1.6448 -0.9368
 6003SOL    HW229643   3.676   0.065   4.572 -1.4112 -1.2082  1.9167
 6004SOL     OW29644   0.926   1.652   3.497  0.6343 -0.1214  0.2463
 6004SOL    HW129645   0.987   1.584   3.527 -0.4912 -1.8504 -1.4140
 6004SOL    HW229646   0.852   1.592   3.484  1.1539 -0.4815 -0.9993
 6005SOL     OW29647   0.248   2.167  10.758 -0.1324 -0.3583 -0.1678
 6005SOL    HW129648   0.294   2.086  10.738  0.1595  0.0607 -1.1768
 6005SOL    HW229649   0.294   2.203  10.834  0.3605  1.7987 -1.4744
 6006SOL     OW29650   1.625   0.108  14.399  0.2449 -0.1529  0.4674
 6006SOL    HW129651   1.671   0.191  14.413 -0.1703  0.1915 -0.2133
 6006SOL    HW229652   1.572   0.100  14.478 -1.8158 -0.2796 -0.9497
 6007SOL     OW29653   1.765   4.063  13.791  0.1660  0.0747 -0.9054
 6007SOL    HW129654   1.817   4.139  13.766 -0.7867  1.3269  0.9527
 6007SOL    HW229655   1.835   3.997  13.799  1.7515  1.9217  0.5718
 6008SOL     OW29656   3.963   2.159   2.723 -0.4138 -0.3006  0.1682
 6008SOL    HW129657   3.948   2.252   2.741 -2.1026 -0.4367 -0.4687
 6008SOL    HW229658   4.057   2.167   2.711 -0.2901  0.4879  1.6408
 6009SOL     OW29659   2.096   4.521  14.098  0.1193 -0.5309  0.2556
 6009SOL    HW129660   2.033   4.594  14.102  1.9468  1.1833 -2.6048
 6009SOL    HW229661   2.048   4.453  14.051  2.1939 -0.9166 -1.3059
 6010SOL     OW29662   3.954   3.527   7.048  0.1442 -0.5330 -0.2126
 6010SOL    HW129663   3.975   3.565   7.133 -1.2641 -0.4381  0.1012
 6010SOL    HW229664   4.004   3.446   7.056  0.3907 -0.4688 -1.1182
 6011SOL     OW29665   1.511   0.455   1.373 -0.2850  0.4246  0.1281
 6011SOL    HW129666   1.595   0.410   1.363 -0.3166  0.4871 -0.3981
 6011SOL    HW229667   1.513   0.448   1.468  0.0247 -1.2052  0.0172
 6012SOL     OW29668   3.742   1.675   5.398 -0.2353  0.6290 -0.3272
 6012SOL    HW129669   3.822   1.691   5.347  0.3287 -2.5923 -0.4653
 6012SOL    HW229670   3.786   1.652   5.480  0.6954  0.3588 -0.8949
 6013SOL     OW29671   1.301   3.085   6.910 -0.6048  0.3014 -0.2116
 6013SOL    HW129672   1.210   3.113   6.921 -1.6040 -3.3845  0.8079
 6013SOL    HW229673   1.341   3.149   6.968  0.8561 -0.3378 -0.4954
 6014SOL     OW29674   2.865   2.602   8.688  0.6355  0.6976 -0.0344
 6014SOL    HW129675   2.958   2.624   8.695  0.8285 -0.6260  1.5984
 6014SOL    HW229676   2.870   2.519   8.736 -0.5450 -0.1499 -1.3929
 6015SOL     OW29677   0.502   3.524   7.369  0.2329 -0.6008  0.2497
 6015SOL    HW129678   0.430   3.477   7.411 -0.6876  0.5187 -0.0710
 6015SOL    HW229679   0.461   3.560   7.290 -0.4891 -1.0489  0.4204
 6016SOL     OW29680   1.552   4.499   0.319  0.5136 -0.4523  0.2623
 6016SOL    HW129681   1.578   4.408   0.303  1.7674  0.2745 -1.8933
 6016SOL    HW229682   1.638   4.523   0.354 -0.2959  1.2593  1.0713
 6017SOL     OW29683   4.537   1.001   5.984  0.1284  0.0770  0.4471
 6017SOL    HW129684   4.477   1.023   6.055 -0.6111  3.6217 -1.2387
 6017SOL    HW229685   4.618   0.979   6.030  0.7298 -1.0107 -1.1327
 6018SOL     OW29686   3.789   3.115   3.342 -0.4648  1.1070 -0.3117
 6018SOL    HW129687   3.760   3.186   3.284  0.6021  1.6861 -0.1202
 6018SOL    HW229688   3.813   3.156   3.425 -1.8353  1.1101  0.0968
 6019SOL     OW29689   4.475   3.594   7.997  0.2886 -0.2483 -0.9192
 6019SOL    HW129690   4.401   3.651   8.018  0.2274 -1.0102  0.9681
 6019SOL    HW229691   4.553   3.647   8.012 -0.3356  0.5171 -0.3532
 6020SOL     OW29692   0.298   1.583   7.884 -0.1868  0.1651 -0.0533
 6020SOL    HW129693   0.359   1.620   7.820  1.4854  1.2218  2.1263
 6020SOL    HW229694   0.352   1.591   7.962  2.3003  2.3464 -2.0056
 6021SOL     OW29695   0.008   2.186   4.707 -0.6062 -0.4417 -0.3538
 6021SOL    HW129696   4.661   2.176   4.669 -1.7809  1.9442  1.7496
 6021SOL    HW229697   0.065   2.123   4.664  1.7721  1.2618  0.3409
 6022SOL     OW29698   0.578   0.834   2.408  0.0556  0.8189  1.4306
 6022SOL    HW129699   0.590   0.839   2.314 -1.0080  0.0244  1.2401
 6022SOL    HW229700   0.629   0.911   2.433  1.3836  0.6062 -0.6375
 6023SOL     OW29701   4.265   2.815   4.337 -0.5126 -0.0137 -0.2175
 6023SOL    HW129702   4.334   2.772   4.287 -0.2270 -0.1492  0.2929
 6023SOL    HW229703   4.288   2.908   4.332 -2.6590  0.5000 -0.4797
 6024SOL     OW29704   3.527   2.628   6.720  0.4654  0.1801 -0.3669
 6024SOL    HW129705   3.489   2.679   6.648 -1.5515 -1.5322 -0.5034
 6024SOL    HW229706   3.480   2.547   6.699 -0.0404  0.0876  1.0900
 6025SOL     OW29707   1.271   3.048  10.182  0.1913  0.0420 -0.0052
 6025SOL    HW129708   1.188   3.053  10.135 -0.4868 -3.5999  0.8141
 6025SOL    HW229709   1.250   3.053  10.275  1.5228 -2.2181  0.4198
 6026SOL     OW29710   1.285   0.284   5.983 -0.3425 -0.0107 -0.7523
 6026SOL    HW129711   1.319   0.236   5.908  0.0216  0.8623 -1.1436
 6026SOL    HW229712   1.351   0.352   5.999 -0.5751 -0.1151  0.6764
 6027SOL     OW29713   1.138   3.188   5.970  0.0365 -0.2472  0.3467
 6027SOL    HW129714   1.155   3.201   6.063 -0.6759  1.4108  0.2478
 6027SOL    HW229715   1.070   3.123   5.985  0.8217 -0.6222  2.2584
 6028SOL     OW29716   2.977   3.983   4.174  0.0021  0.8011  0.1567
 6028SOL    HW129717   3.018   3.974   4.260  0.0491 -0.9769 -0.0337
 6028SOL    HW229718   2.966   4.078   4.171  3.4203  1.1645 -0.8316
 6029SOL     OW29719   0.197   1.035   5.863  0.4101  0.4172  0.3329
 6029SOL    HW129720   0.165   1.075   5.944  1.4934 -1.2350  1.5808
 6029SOL    HW229721   0.262   1.096   5.827 -0.8462  0.6017 -1.6118
 6030SOL     OW29722   0.022   3.991  14.844 -0.4702  0.0926  0.1386
 6030SOL    HW129723   4.736   4.055  14.778 -2.8546 -1.5472 -0.4925
 6030SOL    HW229724   4.719   4.026  14.922 -2.4417 -1.5589 -0.2035
 6031SOL     OW29725   1.889   1.694  12.694 -0.2783  0.6673 -0.8979
 6031SOL    HW129726   1.940   1.762  12.651 -2.2258  1.3161 -2.2013
 6031SOL    HW229727   1.821   1.744  12.738  0.1684  0.5891 -0.1294
 6032SOL     OW29728   4.684   0.867  14.653 -0.4820 -0.4724  0.6458
 6032SOL    HW129729   4.595   0.832  14.655 -1.2023  1.1517 -2.4704
 6032SOL    HW229730   4.703   0.868  14.747  1.8572 -2.1046  0.1918
 6033SOL     OW29731   2.930   2.292   3.048  0.2560 -0.5620  0.7194
 6033SOL    HW129732   2.838   2.319   3.040  0.2680 -0.6163  0.4161
 6033SOL    HW229733   2.926   2.203   3.015  1.9340 -0.2385 -0.3333
 6034SOL     OW29734   1.214   4.081   7.026  0.0210 -0.5087 -0.1082
 6034SOL    HW129735   1.225   4.164   7.071 -2.6190 -0.9178  1.2767
 6034SOL    HW229736   1.295   4.039   7.057  0.5676  1.7633  1.5301
 6035SOL     OW29737   0.332   3.179  11.975  0.5621 -0.0506  0.1480
 6035SOL    HW129738   0.344   3.273  11.963 -0.8618 -0.0125 -1.0593
 6035SOL    HW229739   0.422   3.151  11.988  0.0426 -1.5758  0.4967
 6036SOL     OW29740   2.945   0.480   8.171 -0.5756  0.8553  0.7212
 6036SOL    HW129741   2.900   0.535   8.235  1.1902  0.4527  2.3233
 6036SOL    HW229742   2.942   0.396   8.216 -1.7484 -0.4699 -1.8193
 6037SOL     OW29743   4.131   3.940   7.692  0.2439 -0.3043  0.3583
 6037SOL    HW129744   4.103   3.966   7.780  2.5648  0.2784  0.9377
 6037SOL    HW229745   4.084   4.009   7.645 -1.5816 -0.2770  2.2382
 6038SOL     OW29746   0.589   3.485   6.059  0.3935  0.9989 -0.3042
 6038SOL    HW129747   0.516   3.547   6.057 -0.7974 -0.4468 -2.1193
 6038SOL    HW229748   0.651   3.539   6.107  1.5220  0.0332 -0.6851
 6039SOL     OW29749   3.086   3.969  11.097  0.3947  0.1252  0.1193
 6039SOL    HW129750   3.138   4.048  11.110 -0.5697  0.6897  0.5790
 6039SOL    HW229751   3.086   3.976  11.001  2.3960 -1.6520  0.0008
 6040SOL     OW29752   3.518   4.506   5.305  0.3676  0.3493 -0.2684
 6040SOL    HW129753   3.568   4.469   5.377 -1.5901 -0.0524  0.9069
 6040SOL    HW229754   3.430   4.512   5.342  0.1638  0.3709 -0.7477
 6041SOL     OW29755   4.687   0.289   3.355  0.1837 -0.2842 -0.3656
 6041SOL    HW129756   4.606   0.340   3.356  0.4970  0.2054 -0.4817
 6041SOL    HW229757   4.656   0.206   3.394 -1.9463  1.8983  2.6244
 6042SOL     OW29758   2.898   3.695  12.800 -0.5771 -0.3349 -0.5081
 6042SOL    HW129759   2.908   3.624  12.736  0.5838  1.2157 -2.0194
 6042SOL    HW229760   2.852   3.758  12.745  0.0493  0.4155 -0.1590
 6043SOL     OW29761   1.714   0.448   9.693  0.0759  0.2061  0.0034
 6043SOL    HW129762   1.766   0.522   9.660 -1.2704  0.1573 -2.2383
 6043SOL    HW229763   1.771   0.405   9.756 -1.6567 -2.4343 -0.2283
 6044SOL     OW29764   3.131   1.793  14.509 -0.0005 -0.1301  0.5531
 6044SOL    HW129765   3.193   1.835  14.451  1.0613  1.1903  2.6741
 6044SOL    HW229766   3.054   1.784  14.451  1.4111 -2.1305 -1.0323
 6045SOL     OW29767   0.790   0.934   4.804 -0.1685 -0.1451 -0.6332
 6045SOL    HW129768   0.696   0.914   4.798 -0.0853 -0.6639 -0.1752
 6045SOL    HW229769   0.800   1.010   4.747  0.8731  2.9484  3.6449
 6046SOL     OW29770   3.700   0.672   1.530  0.2504  0.4083  0.1342
 6046SOL    HW129771   3.735   0.588   1.558  0.6824  0.7882  0.7301
 6046SOL    HW229772   3.622   0.653   1.478  0.5052  0.8023 -0.3940
 6047SOL     OW29773   3.689   4.547   2.174  0.3327  0.0453  0.1736
 6047SOL    HW129774   3.702   4.615   2.239  2.3158 -1.6200  1.5296
 6047SOL    HW229775   3.668   4.600   2.097 -2.5586  1.2397  1.8093
 6048SOL     OW29776   1.900   3.042   2.159  0.3680  0.0086 -0.4974
 6048SOL    HW129777   1.928   3.132   2.175  1.5004 -0.2788 -0.8291
 6048SOL    HW229778   1.947   3.005   2.084  2.4104 -1.5255  1.5558
 6049SOL     OW29779   4.371   1.285   8.313 -0.8126 -0.3074  0.7188
 6049SOL    HW129780   4.360   1.196   8.347 -0.3892 -0.5067  0.3396
 6049SOL    HW229781   4.385   1.339   8.391 -0.4479 -1.8470  1.7308
 6050SOL     OW29782   3.093   4.172   5.370 -0.1087  0.3352 -0.2236
 6050SOL    HW129783   3.085   4.169   5.466  2.2050 -2.1732 -0.1010
 6050SOL    HW229784   3.179   4.135   5.349  0.4792  1.6392 -0.1087
 6051SOL     OW29785   2.524   3.331   9.710 -0.3153  0.3115 -0.0273
 6051SOL    HW129786   2.507   3.267   9.778 -1.6407  1.3439  0.6158
 6051SOL    HW229787   2.575   3.277   9.650 -3.0882 -2.8192  0.4301
 6052SOL     OW29788   2.046   0.477   2.314  0.1887  0.4538  0.1374
 6052SOL    HW129789   2.055   0.404   2.253 -0.3221 -0.8222  1.5900
 6052SOL    HW229790   2.054   0.552   2.255  0.1752 -0.1539 -0.6270
 6053SOL     OW29791   3.877   2.051  11.040  0.4815  0.1219  0.0022
 6053SOL    HW129792   3.791   2.094  11.036 -0.5593 -1.9570 -0.4759
 6053SOL    HW229793   3.866   1.965  10.999 -2.3975 -0.4513  1.9532
 6054SOL     OW29794   0.716   0.670   5.207 -0.8680 -0.2745 -0.1022
 6054SOL    HW129795   0.786   0.620   5.249  1.0248  0.4785 -2.3386
 6054SOL    HW229796   0.762   0.681   5.123  0.6404  1.3091  0.9244
 6055SOL     OW29797   1.548   3.316   2.731  0.0997  0.0255 -0.3974
 6055SOL    HW129798   1.474   3.334   2.789 -1.6656 -2.0901 -1.9973
 6055SOL    HW229799   1.588   3.403   2.734 -2.2008  1.0344  1.1084
 6056SOL     OW29800   2.366   0.384  13.850  0.4866 -0.5851 -0.1087
 6056SOL    HW129801   2.275   0.411  13.834  0.1605 -2.1325 -0.9090
 6056SOL    HW229802   2.376   0.315  13.785  0.2999  0.1179 -0.8826
 6057SOL     OW29803   0.573   0.067   7.962 -0.1128 -0.4233  0.0756
 6057SOL    HW129804   0.510   0.091   8.029 -1.1330  2.3681 -1.8850
 6057SOL    HW229805   0.592   0.147   7.913 -0.8979 -0.8024 -0.8482
 6058SOL     OW29806   4.621   1.476   1.238 -0.2636 -0.3742 -0.0466
 6058SOL    HW129807   4.649   1.390   1.208  0.0846 -0.2478 -0.0861
 6058SOL    HW229808   4.687   1.541   1.211 -0.6591 -0.6217 -1.6327
 6059SOL     OW29809   3.174   0.054   9.122 -0.0730 -0.2031  0.4696
 6059SOL    HW129810   3.087   0.062   9.161 -0.4783 -0.3268 -0.4024
 6059SOL    HW229811   3.196   0.142   9.093 -1.4291 -0.0328 -0.0335
 6060SOL     OW29812   1.007   2.887   7.589 -0.5522 -0.1282 -0.0303
 6060SOL    HW129813   0.996   2.846   7.503 -0.9244 -1.4120  0.6274
 6060SOL    HW229814   0.966   2.971   7.568  1.9766  0.4302 -2.7120
 6061SOL     OW29815   3.818   4.367   3.379 -0.3721 -0.3523 -0.0219
 6061SOL    HW129816   3.747   4.417   3.337 -0.4780 -0.2936  0.2256
 6061SOL    HW229817   3.883   4.437   3.384 -1.2072  0.4969 -0.9345
 6062SOL     OW29818   3.720   2.921   7.110  0.6120  0.5249 -0.1335
 6062SOL    HW129819   3.815   2.917   7.102  0.5054  0.6151 -1.4254
 6062SOL    HW229820   3.698   2.853   7.046 -0.3608 -1.1618  1.9820
 6063SOL     OW29821   0.084   2.940   8.037  0.3544 -0.7157  0.0385
 6063SOL    HW129822   0.109   2.977   8.122  2.0150  0.8884 -1.1206
 6063SOL    HW229823   0.057   3.012   7.979  2.0452  0.2356  0.4199
 6064SOL     OW29824   1.995   4.418   9.548 -0.3114 -0.2062 -0.3033
 6064SOL    HW129825   2.060   4.393   9.483  1.6295 -0.5745  1.7933
 6064SOL    HW229826   1.916   4.419   9.494  1.0646  0.3084 -2.2981
 6065SOL     OW29827   0.027   0.312   5.288 -0.0826  0.4276 -0.1407
 6065SOL    HW129828   0.029   0.273   5.375 -0.9674  0.4503 -0.1081
 6065SOL    HW229829   0.102   0.264   5.254  0.4921  2.0823 -1.1804
 6066SOL     OW29830   0.408   3.175  14.794  0.5497 -0.3276 -0.0152
 6066SOL    HW129831   0.498   3.203  14.806  0.6095  0.4616 -2.5265
 6066SOL    HW229832   0.383   3.233  14.722 -1.0163 -1.3084 -0.2730
 6067SOL     OW29833   0.969   0.266   4.467 -0.4280 -0.5028  0.0770
 6067SOL    HW129834   1.030   0.226   4.529  0.3507 -0.3426 -0.5752
 6067SOL    HW229835   1.023   0.333   4.424 -1.5276 -0.0877 -0.6590
 6068SOL     OW29836   4.138   2.137   9.504 -0.4358 -0.0750 -0.1745
 6068SOL    HW129837   4.146   2.072   9.434  0.3868  0.8087 -0.8885
 6068SOL    HW229838   4.219   2.186   9.506 -1.6041  1.8546 -0.4936
 6069SOL     OW29839   0.434   3.621   5.149 -0.0705 -0.3588 -0.3524
 6069SOL    HW129840   0.353   3.587   5.112 -1.2196  1.1810  0.7284
 6069SOL    HW229841   0.440   3.553   5.217 -1.0537  1.1687  1.2698
 6070SOL     OW29842   1.102   3.462   5.632 -0.4336  0.0821  0.3035
 6070SOL    HW129843   1.106   3.556   5.650  0.2353  0.0466  0.3224
 6070SOL    HW229844   1.185   3.423   5.657 -1.0631  0.2435  2.6613
 6071SOL     OW29845   4.638   4.655  13.902  0.6935 -0.1543  0.2626
 6071SOL    HW129846   4.552   4.638  13.863  1.7362  0.7250 -2.3890
 6071SOL    HW229847   4.697   4.582  13.884  2.4657  1.1879  0.7003
 6072SOL     OW29848   1.979   1.922   1.063  0.0842 -0.0885 -0.5658
 6072SOL    HW129849   2.074   1.911   1.060  0.2283  0.0817  3.8704
 6072SOL    HW229850   1.958   1.833   1.091 -0.1722  0.4424  0.9174
 6073SOL     OW29851   0.843   1.352   1.033 -0.6953  0.3718 -0.0081
 6073SOL    HW129852   0.801   1.395   0.959 -1.4719  0.9325  0.7661
 6073SOL    HW229853   0.803   1.402   1.104  2.3711  0.5273  1.6339
 6074SOL     OW29854   1.490   4.327   7.431 -0.0520 -0.4157 -0.1108
 6074SOL    HW129855   1.481   4.282   7.515 -0.7344  0.6886  0.4103
 6074SOL    HW229856   1.474   4.415   7.464 -0.2785 -0.2270 -0.7124
 6075SOL     OW29857   0.322   0.754   9.025 -0.1940  0.1218 -0.6978
 6075SOL    HW129858   0.389   0.809   9.066 -0.4577 -0.2939  0.2786
 6075SOL    HW229859   0.280   0.812   8.962  0.0526 -0.2388 -1.2004
 6076SOL     OW29860   2.493   3.081   3.600  0.9252  0.2678  0.3045
 6076SOL    HW129861   2.472   3.149   3.664 -3.1800 -1.0889  0.3886
 6076SOL    HW229862   2.533   3.017   3.659 -0.2250 -0.1911  0.5741
 6077SOL     OW29863   3.523   1.319   6.223  0.0841 -0.6776 -0.4475
 6077SOL    HW129864   3.583   1.392   6.235  2.4889 -2.7630  0.1520
 6077SOL    HW229865   3.516   1.274   6.307  0.1844  1.5595  0.7382
 6078SOL     OW29866   0.996   3.189   9.592 -0.0360  0.2432  0.1474
 6078SOL    HW129867   1.063   3.197   9.524 -0.2846 -0.3302 -0.1651
 6078SOL    HW229868   0.978   3.095   9.594  0.4684  0.1655  1.5202
 6079SOL     OW29869   0.583   3.195   8.418 -0.0634  0.3510  0.2153
 6079SOL    HW129870   0.638   3.117   8.407 -1.9539 -0.8898 -0.3380
 6079SOL    HW229871   0.589   3.239   8.334 -0.7524  0.1675  0.0687
 6080SOL     OW29872   2.377   0.507   3.071  0.2631 -0.5678  0.1943
 6080SOL    HW129873   2.307   0.571   3.087 -0.9010 -1.6971 -0.4217
 6080SOL    HW229874   2.365   0.490   2.978  1.0290 -0.1713  0.0197
 6081SOL     OW29875   2.661   0.396   8.810 -0.4318  0.0453  0.5253
 6081SOL    HW129876   2.688   0.307   8.832  3.1616  1.2526  1.0667
 6081SOL    HW229877   2.739   0.452   8.807  0.4581 -1.2136  0.0763
 6082SOL     OW29878   1.119   0.227   7.132 -0.7583 -0.6088 -0.7597
 6082SOL    HW129879   1.196   0.278   7.108 -1.2846 -0.2802 -1.7459
 6082SOL    HW229880   1.112   0.253   7.224  1.5046 -2.2630 -0.1358
 6083SOL     OW29881   1.780   0.335  15.301 -0.4561 -0.0028 -0.4328
 6083SOL    HW129882   1.863   0.348  15.348 -1.8204  3.0092  1.1664
 6083SOL    HW229883   1.735   0.417  15.281 -2.1174 -0.6999  0.4674
 6084SOL     OW29884   3.119   3.880   1.889 -0.6109  0.4165  0.5444
 6084SOL    HW129885   3.047   3.847   1.835  0.4822 -2.2906  0.6969
 6084SOL    HW229886   3.096   3.970   1.868  0.8950  0.8654  0.8128
 6085SOL     OW29887   2.216   3.573  15.955 -1.0034 -0.2463  0.1081
 6085SOL    HW129888   2.252   3.657  15.928 -0.6225  0.9749  4.3371
 6085SOL    HW229889   2.255   3.558  16.041  0.0306 -1.1482 -0.5085
 6086SOL     OW29890   2.008   1.985   2.040 -0.5643  0.1213  0.8102
 6086SOL    HW129891   1.948   1.999   1.966 -2.5326  0.7902  2.5412
 6086SOL    HW229892   2.033   1.893   2.034 -0.2997  0.1580  1.3619
 6087SOL     OW29893   1.394   3.948   4.894 -0.3087 -0.0512  0.0794
 6087SOL    HW129894   1.399   4.042   4.883 -2.0936 -0.1519 -1.6980
 6087SOL    HW229895   1.481   3.922   4.924 -1.3029 -0.3341  2.7536
 6088SOL     OW29896   2.870   4.336   6.322 -0.2293 -0.0353 -0.0646
 6088SOL    HW129897   2.913   4.369   6.401  0.2879  0.0770 -0.3869
 6088SOL    HW229898   2.877   4.407   6.258 -1.4326 -1.2221 -1.5283
 6089SOL     OW29899   1.335   3.125   1.966  0.1407  0.1151 -0.0157
 6089SOL    HW129900   1.333   3.206   2.018  3.3188  0.4939 -0.4382
 6089SOL    HW229901   1.413   3.083   2.003 -1.8380 -2.3546  1.2839
 6090SOL     OW29902   2.164   0.510   7.358  0.1239 -0.2879 -0.6273
 6090SOL    HW129903   2.140   0.542   7.271  1.0613  3.5377  0.5278
 6090SOL    HW229904   2.117   0.427   7.361 -0.3741  0.0611  0.9847
 6091SOL     OW29905   4.337   3.947   5.320 -0.3970  0.3036  0.2759
 6091SOL    HW129906   4.405   3.895   5.362 -0.1860 -1.2074 -1.9194
 6091SOL    HW229907   4.263   3.889   5.336 -0.6313  0.6414  0.4022
 6092SOL     OW29908   3.644   1.718   4.987  0.7811 -0.6904  0.4705
 6092SOL    HW129909   3.612   1.668   5.062  3.0769 -1.0856  1.2056
 6092SOL    HW229910   3.656   1.640   4.932 -0.9130 -0.2784 -0.4667
 6093SOL     OW29911   2.243   0.870   2.058 -0.1244  0.1593 -0.0500
 6093SOL    HW129912   2.327   0.861   2.012 -1.1258 -2.2315 -1.4356
 6093SOL    HW229913   2.222   0.960   2.035  0.3700  0.5216  0.9173
 6094SOL     OW29914   4.467   0.167   9.877  0.3127  0.4661 -0.3489
 6094SOL    HW129915   4.497   0.170   9.786 -1.1216 -0.5852 -0.8473
 6094SOL    HW229916   4.536   0.122   9.927 -1.1200 -1.5578 -0.1875
 6095SOL     OW29917   0.281   2.585   6.186 -0.0953  0.3363  0.1727
 6095SOL    HW129918   0.344   2.514   6.184 -0.4609  0.0617 -1.6621
 6095SOL    HW229919   0.316   2.646   6.121  1.3130 -0.5711  0.0831
 6096SOL     OW29920   4.312   1.668   7.127  0.5292  0.1044 -0.6373
 6096SOL    HW129921   4.399   1.685   7.165  0.4763 -0.3741 -0.3092
 6096SOL    HW229922   4.261   1.709   7.197  0.7347 -1.9046  0.7034
 6097SOL     OW29923   4.446   2.773   0.815  0.2844  0.2046  0.0935
 6097SOL    HW129924   4.356   2.792   0.841  0.1022 -1.4905  0.6935
 6097SOL    HW229925   4.451   2.791   0.721 -2.1329  3.4762  0.6123
 6098SOL     OW29926   4.124   2.801   3.278  0.1961  0.0734 -1.3446
 6098SOL    HW129927   4.121   2.887   3.236 -1.2616  0.7561  0.1832
 6098SOL    HW229928   4.032   2.777   3.288  0.6790 -1.6615 -1.0047
 6099SOL     OW29929   3.527   2.685   5.534  0.0248 -0.2982  0.0894
 6099SOL    HW129930   3.615   2.704   5.502 -0.0327 -1.3533 -0.6745
 6099SOL    HW229931   3.530   2.592   5.558  1.1546 -0.8359 -2.1563
 6100SOL     OW29932   4.649   4.138   2.982 -0.3846 -0.2028 -0.0089
 6100SOL    HW129933   4.672   4.124   3.074 -0.8557 -1.6625 -0.1132
 6100SOL    HW229934   4.576   4.077   2.978  0.1750 -0.8184 -1.0451
 6101SOL     OW29935   4.223   1.124   8.590  0.2100  0.4238  0.2047
 6101SOL    HW129936   4.141   1.130   8.640 -0.1753 -4.0008  0.0616
 6101SOL    HW229937   4.190   1.155   8.505 -0.0010  0.5207  0.3196
 6102SOL     OW29938   3.356   0.746  10.258 -0.1052 -0.1709  0.3333
 6102SOL    HW129939   3.399   0.682  10.200  0.3541  1.9282 -1.6404
 6102SOL    HW229940   3.335   0.813  10.193  1.2108 -0.4702 -0.3930
 6103SOL     OW29941   1.887   0.749   5.747  0.1301  0.3481  0.2523
 6103SOL    HW129942   1.863   0.719   5.660  1.6532  3.8853 -1.3580
 6103SOL    HW229943   1.852   0.674   5.796  2.7774 -1.3314 -0.4050
 6104SOL     OW29944   1.807   0.884   2.441 -0.3774 -0.5299 -0.2883
 6104SOL    HW129945   1.828   0.792   2.456 -0.3551 -0.5582 -0.4957
 6104SOL    HW229946   1.838   0.894   2.351  2.1893 -0.0301  0.6423
 6105SOL     OW29947   1.828   1.861   6.883 -0.4027  1.2322 -0.2233
 6105SOL    HW129948   1.762   1.928   6.865 -0.6744  0.9191 -0.3962
 6105SOL    HW229949   1.820   1.851   6.977 -0.0227  0.1393 -0.3095
 6106SOL     OW29950   1.101   1.365  13.760  0.4212  0.0814 -0.4048
 6106SOL    HW129951   1.138   1.444  13.720  0.4873 -0.2942 -1.0840
 6106SOL    HW229952   1.118   1.301  13.692  3.2359  1.2626 -0.8046
 6107SOL     OW29953   2.260   0.853   2.887 -0.1389  0.1486  0.0865
 6107SOL    HW129954   2.186   0.818   2.839 -0.0857  2.1334 -1.4364
 6107SOL    HW229955   2.277   0.927   2.829 -1.9883  1.9006  1.7878
 6108SOL     OW29956   4.297   2.619   2.663  0.2748 -0.8990  0.3309
 6108SOL    HW129957   4.307   2.710   2.692 -2.0800 -0.5879  0.1550
 6108SOL    HW229958   4.387   2.606   2.633  0.7975  2.6250  0.2629
 6109SOL     OW29959   0.603   3.838  16.836 -0.1290  0.2109 -0.3378
 6109SOL    HW129960   0.560   3.815  16.918  0.4773 -0.2101 -0.1379
 6109SOL    HW229961   0.532   3.833  16.772 -0.1546 -0.1079 -0.2843
 6110SOL     OW29962   1.234   3.055   8.760  0.1496  0.2910 -0.0339
 6110SOL    HW129963   1.192   3.034   8.844 -0.4827 -0.4973 -0.5466
 6110SOL    HW229964   1.225   3.150   8.757  2.0721  0.3523 -3.2352
 6111SOL     OW29965   2.774   3.221   4.043  0.1635 -0.0438  0.2905
 6111SOL    HW129966   2.861   3.257   4.062  0.1450  0.1180  0.0687
 6111SOL    HW229967   2.717   3.297   4.031 -0.9612 -0.0858  5.2106
 6112SOL     OW29968   3.433   4.685   3.530  0.2154  0.5592 -0.3291
 6112SOL    HW129969   3.414   4.738   3.607 -0.2580  0.6277 -0.4942
 6112SOL    HW229970   3.346   4.648   3.515 -0.2445  2.4938 -2.4658
 6113SOL     OW29971   4.698   4.106   8.022 -0.4495  0.4502 -0.6922
 6113SOL    HW129972   4.616   4.059   8.039  0.0330 -0.3634 -0.6283
 6113SOL    HW229973   4.700   4.169   8.093  0.3016 -0.1971 -0.1448
 6114SOL     OW29974   3.055   4.278   8.718  0.0540  0.0134  0.1594
 6114SOL    HW129975   2.977   4.298   8.770 -0.1011 -0.8697  0.2716
 6114SOL    HW229976   3.012   4.235   8.644  0.6264  0.9462 -0.7133
 6115SOL     OW29977   1.351   0.245   3.537  0.5871  0.1700 -0.4399
 6115SOL    HW129978   1.445   0.231   3.527  0.6098  0.1465 -0.2028
 6115SOL    HW229979   1.339   0.250   3.632  1.0571  1.2423 -0.4382
 6116SOL     OW29980   2.070   1.548   2.290 -0.2263  0.4691  0.0616
 6116SOL    HW129981   2.137   1.573   2.355 -0.6688  0.5872  0.4711
 6116SOL    HW229982   2.099   1.581   2.205 -1.4725  0.2662 -0.4337
 6117SOL     OW29983   4.218   1.273   0.850  0.1186 -0.1534 -1.1791
 6117SOL    HW129984   4.256   1.267   0.938 -0.4859  0.6571 -0.8633
 6117SOL    HW229985   4.215   1.183   0.818 -0.9661 -0.4633 -0.1918
 6118SOL     OW29986   3.863   3.254   6.124  0.1829 -0.3271 -0.2433
 6118SOL    HW129987   3.871   3.188   6.193  1.6520  0.7095  0.5746
 6118SOL    HW229988   3.811   3.209   6.057 -0.9641  2.0369 -0.9398
 6119SOL     OW29989   4.662   2.332   2.213  0.0289 -0.4687 -0.1401
 6119SOL    HW129990   4.612   2.398   2.261 -0.5449 -0.4038 -0.8162
 6119SOL    HW229991   4.592   2.286   2.166 -0.3550  0.1173 -0.1352
 6120SOL     OW29992   1.204   3.265   6.655 -0.3087  0.3483  0.0732
 6120SOL    HW129993   1.169   3.190   6.704  0.2507 -0.4673 -0.7722
 6120SOL    HW229994   1.201   3.339   6.716  0.7122  0.0363  0.4927
 6121SOL     OW29995   0.158   4.303   8.111 -0.1565 -0.0088  0.5642
 6121SOL    HW129996   0.200   4.222   8.083  1.6348  0.7975  0.9386
 6121SOL    HW229997   0.196   4.373   8.057  1.7340 -0.9898  0.6272
 6122SOL     OW29998   0.006   1.752   9.026  0.0499 -0.3067  0.2768
 6122SOL    HW129999   4.673   1.807   9.053  0.1139  0.0339 -0.2576
 6122SOL    HW230000   0.051   1.749   9.110 -0.6881  2.0299  0.7422
 6123SOL     OW30001   0.152   3.633   0.877 -0.0547 -0.3095  0.3552
 6123SOL    HW130002   0.149   3.615   0.783 -0.6689  2.2497 -0.0982
 6123SOL    HW230003   0.163   3.728   0.874  0.4499 -0.3394  1.5026
 6124SOL     OW30004   3.291   1.449   4.023 -0.6591 -0.2184  0.4610
 6124SOL    HW130005   3.221   1.446   4.088 -1.1541 -2.8812 -0.2287
 6124SOL    HW230006   3.233   1.435   3.948  1.3635 -3.7652 -0.4326
 6125SOL     OW30007   1.175   3.054  10.439  0.1139  0.3428  0.0911
 6125SOL    HW130008   1.190   3.138  10.484 -1.4382  0.2887  0.7207
 6125SOL    HW230009   1.146   3.006  10.517  0.0849 -0.5939 -0.4999
 6126SOL     OW30010   3.407   3.971  13.611  0.2172 -0.3539 -0.9863
 6126SOL    HW130011   3.405   3.877  13.630  1.1879  0.1483  1.6067
 6126SOL    HW230012   3.488   3.997  13.655  0.9587 -0.8934 -2.0315
 6127SOL     OW30013   0.077   0.329   8.596  0.1066  0.7087  0.3592
 6127SOL    HW130014   0.056   0.317   8.689 -1.3151  0.5667  0.0157
 6127SOL    HW230015   4.740   0.376   8.566 -0.0880  0.9060  1.1772
 6128SOL     OW30016   0.528   1.076   1.499  0.3037  0.1386 -0.4698
 6128SOL    HW130017   0.534   1.121   1.414 -2.8975 -1.7698 -1.7013
 6128SOL    HW230018   0.604   1.017   1.505  0.8721  0.8627 -0.4725
 6129SOL     OW30019   0.341   2.836  11.554  0.0236 -0.1980  0.1214
 6129SOL    HW130020   0.330   2.787  11.635  2.6186  1.5480  1.5260
 6129SOL    HW230021   0.279   2.909  11.557  3.0894  2.2982  2.4574
 6130SOL     OW30022   4.473   1.221   2.178 -0.0338  0.3909 -0.1287
 6130SOL    HW130023   4.452   1.135   2.143 -0.2704  1.5962 -2.9249
 6130SOL    HW230024   4.536   1.251   2.113 -0.6574  0.4978 -0.6778
 6131SOL     OW30025   3.115   2.744   8.941 -0.2050  0.2854 -0.4628
 6131SOL    HW130026   3.123   2.755   8.847  0.9668  1.3444 -0.2371
 6131SOL    HW230027   3.025   2.712   8.945  0.0340 -0.2879  0.4464
 6132SOL     OW30028   3.325   4.576   1.771 -0.5091 -0.2958  0.4561
 6132SOL    HW130029   3.280   4.507   1.818 -2.0242 -0.4375 -1.1999
 6132SOL    HW230030   3.337   4.532   1.686  0.7163 -0.8800  0.9272
 6133SOL     OW30031   4.596   2.013   2.541  0.7385 -0.4443  0.4863
 6133SOL    HW130032   4.579   1.962   2.619 -3.0902 -0.8404 -0.6272
 6133SOL    HW230033   4.546   1.969   2.473  1.0869  1.7701 -1.2149
 6134SOL     OW30034   4.184   2.020   2.397  0.6507  0.1208 -0.6170
 6134SOL    HW130035   4.150   2.106   2.423 -1.3079 -0.5428 -0.9811
 6134SOL    HW230036   4.195   1.979   2.482  1.9389 -0.4326 -1.0509
 6135SOL     OW30037   4.190   2.710  13.551  0.1198 -0.3064  0.7902
 6135SOL    HW130038   4.225   2.731  13.638  1.3229 -0.7066  0.4062
 6135SOL    HW230039   4.104   2.751  13.547 -0.0541 -0.6230  1.3243
 6136SOL     OW30040   1.710   2.616  12.337 -0.3777  0.1895  0.2317
 6136SOL    HW130041   1.694   2.631  12.431  1.1828  0.1121  0.4993
 6136SOL    HW230042   1.620   2.625  12.306 -0.3134  2.9637  0.8280
 6137SOL     OW30043   2.066   1.627  11.735  0.0485 -0.2512 -0.5990
 6137SOL    HW130044   2.035   1.586  11.654 -2.4225 -1.4067  0.9205
 6137SOL    HW230045   2.107   1.706  11.701 -0.0908 -0.8159 -2.0568
 6138SOL     OW30046   2.379   3.320  16.840 -0.3057 -0.1131 -0.1422
 6138SOL    HW130047   2.376   3.228  16.814  2.4310 -0.2876  0.1705
 6138SOL    HW230048   2.474   3.334  16.844 -0.5918  2.4880 -2.3052
 6139SOL     OW30049   0.225   1.843   1.981  0.1040  0.6751 -0.3995
 6139SOL    HW130050   0.232   1.754   2.016  1.4772  1.2810  0.8553
 6139SOL    HW230051   0.226   1.902   2.056 -2.1670  0.1151  0.0712
 6140SOL     OW30052   2.797   0.793   1.014 -0.8489 -0.0897  0.2484
 6140SOL    HW130053   2.801   0.731   1.087 -0.6960 -1.4187 -0.9047
 6140SOL    HW230054   2.889   0.818   1.002 -0.8557 -0.6201 -0.8857
 6141SOL     OW30055   2.101   3.121   5.833 -0.4702  0.5611  0.1174
 6141SOL    HW130056   2.072   3.145   5.921  1.3795 -0.3942  0.9861
 6141SOL    HW230057   2.144   3.204   5.815 -0.3517  0.4490 -0.1260
 6142SOL     OW30058   4.504   0.482   6.749 -0.1157 -0.2224  0.1279
 6142SOL    HW130059   4.418   0.501   6.713 -0.0905  2.9783  1.7852
 6142SOL    HW230060   4.484   0.518   6.836 -0.0170  0.0574  0.0347
 6143SOL     OW30061   2.714   4.073  13.286  0.4376  0.0459 -0.6301
 6143SOL    HW130062   2.792   4.085  13.340  0.2482  1.7626 -0.7615
 6143SOL    HW230063   2.734   4.003  13.223 -0.1049  0.4146 -1.2012
 6144SOL     OW30064   1.674   4.222   3.847 -0.2266 -0.1568 -0.3396
 6144SOL    HW130065   1.700   4.148   3.792 -1.0830 -0.3938 -0.4286
 6144SOL    HW230066   1.753   4.263   3.882 -0.3073 -0.0662 -0.2628
 6145SOL     OW30067   0.171   3.009   7.679 -0.2439  0.1212  0.5138
 6145SOL    HW130068   0.178   2.920   7.713 -0.8225 -0.5866 -1.2058
 6145SOL    HW230069   0.087   3.045   7.708  1.2525  2.0720  2.4297
 6146SOL     OW30070   1.106   2.241   0.929  0.2672 -0.1278 -0.2402
 6146SOL    HW130071   1.073   2.185   0.858 -0.4042 -0.3726  0.2620
 6146SOL    HW230072   1.185   2.193   0.952 -0.5839 -1.6008 -0.4512
 6147SOL     OW30073   1.755   0.919   3.907 -0.6501  0.3760 -0.4143
 6147SOL    HW130074   1.673   0.958   3.877 -0.7860 -0.2889 -0.9148
 6147SOL    HW230075   1.740   0.825   3.899 -2.2048  0.5900  0.1493
 6148SOL     OW30076   1.255   2.795   6.808  0.1994 -0.4534  0.4086
 6148SOL    HW130077   1.295   2.803   6.721  0.2827 -0.6981  0.4229
 6148SOL    HW230078   1.273   2.884   6.837  1.2602 -0.0932 -1.3475
 6149SOL     OW30079   0.290   1.956   9.274 -0.0139 -0.1249 -0.2947
 6149SOL    HW130080   0.325   2.031   9.322  0.7257  1.1525 -2.8305
 6149SOL    HW230081   0.215   2.002   9.236 -0.1067  0.1089  0.1690
 6150SOL     OW30082   2.427   1.873  16.149 -0.0136  0.4493 -0.2683
 6150SOL    HW130083   2.420   1.962  16.116  1.3565  0.0594 -1.6099
 6150SOL    HW230084   2.515   1.848  16.122 -0.0757 -0.8415  0.6688
 6151SOL     OW30085   4.209   4.479  16.327 -0.2436  0.0061  0.8543
 6151SOL    HW130086   4.179   4.560  16.288  1.7859 -0.0551 -0.8661
 6151SOL    HW230087   4.182   4.415  16.261  1.2458  0.4544 -0.1860
 6152SOL     OW30088   2.865   0.835   1.620  0.0093 -0.2719  0.6551
 6152SOL    HW130089   2.939   0.807   1.567  0.7533 -0.8953  2.0318
 6152SOL    HW230090   2.871   0.783   1.700 -0.1494  1.0312  1.5264
 6153SOL     OW30091   2.096   2.361   3.865  0.0744  0.6337 -0.0646
 6153SOL    HW130092   2.035   2.413   3.814  0.4330  2.5998  1.5096
 6153SOL    HW230093   2.136   2.428   3.920  0.6135 -0.3266  0.7259
 6154SOL     OW30094   1.352   1.070   4.856 -0.1233 -0.4475 -0.6610
 6154SOL    HW130095   1.312   1.065   4.769  0.9188 -0.7919 -1.1157
 6154SOL    HW230096   1.440   1.102   4.835 -0.2190 -0.9633 -1.8470
 6155SOL     OW30097   2.520   4.574   2.785 -0.9704 -0.7472 -0.0075
 6155SOL    HW130098   2.433   4.614   2.787  0.6814  2.9769 -2.5039
 6155SOL    HW230099   2.542   4.581   2.878 -0.4883 -0.0661 -0.1701
 6156SOL     OW30100   0.508   2.144   2.718  0.0766  0.2495 -0.7053
 6156SOL    HW130101   0.490   2.228   2.761  0.2289  0.3395 -0.8162
 6156SOL    HW230102   0.495   2.078   2.787  0.0450  1.3575  0.3470
 6157SOL     OW30103   2.323   2.571   5.158  0.0319 -0.3031 -0.7248
 6157SOL    HW130104   2.274   2.628   5.098 -2.5683 -2.3079 -0.4851
 6157SOL    HW230105   2.268   2.493   5.147  0.1315 -0.4756  0.0506
 6158SOL     OW30106   1.866   1.418   3.421 -0.4239 -0.0556  0.0893
 6158SOL    HW130107   1.832   1.495   3.467  0.2667  1.0688 -1.2937
 6158SOL    HW230108   1.938   1.397   3.481 -0.1527 -0.1983 -0.2924
 6159SOL     OW30109   4.438   2.697   9.878 -0.1070  0.0774  0.2062
 6159SOL    HW130110   4.470   2.609   9.899 -0.5149  0.4974  2.5749
 6159SOL    HW230111   4.355   2.679   9.833  0.8119 -2.4173 -0.5364
 6160SOL     OW30112   4.218   2.607   8.547  0.2042 -0.4474 -0.3417
 6160SOL    HW130113   4.211   2.528   8.601  1.9132  0.3191  0.9724
 6160SOL    HW230114   4.207   2.565   8.462  1.2858 -0.3088 -0.5462
 6161SOL     OW30115   0.286   1.423   7.646 -0.0969 -0.1838  0.1656
 6161SOL    HW130116   0.292   1.449   7.737 -0.2829 -3.1594  1.0280
 6161SOL    HW230117   0.215   1.482   7.621  0.2951  0.3981  0.4267
 6162SOL     OW30118   3.165   2.001   3.610  0.2533 -0.6150 -0.6244
 6162SOL    HW130119   3.212   1.919   3.628  0.1958  0.2887  3.6895
 6162SOL    HW230120   3.087   1.985   3.663 -0.0098 -0.6676 -1.0319
 6163SOL     OW30121   0.257   4.529   9.048 -0.3286 -0.0006 -0.1607
 6163SOL    HW130122   0.304   4.461   9.096  0.2672 -0.3793 -1.2905
 6163SOL    HW230123   0.312   4.537   8.970  1.3560 -0.4634  0.9954
 6164SOL     OW30124   4.082   0.526   8.588  0.0900  0.3780  0.2992
 6164SOL    HW130125   4.062   0.557   8.500  2.1176  2.4648  0.5959
 6164SOL    HW230126   4.053   0.434   8.585 -0.4424  0.5499  0.1487
 6165SOL     OW30127   2.833   2.809   6.166 -0.2607 -0.1817  0.5502
 6165SOL    HW130128   2.750   2.849   6.194 -0.9582 -0.3008 -1.3155
 6165SOL    HW230129   2.884   2.791   6.244 -1.8557  2.4706  2.2243
 6166SOL     OW30130   1.517   2.429   2.842  0.5019 -0.0337 -0.1407
 6166SOL    HW130131   1.565   2.347   2.857 -0.2712 -0.7896 -1.7372
 6166SOL    HW230132   1.495   2.421   2.749 -1.3003 -0.1762  0.3030
 6167SOL     OW30133   4.414   4.042   2.752 -0.2217  0.0937 -0.1695
 6167SOL    HW130134   4.450   3.966   2.798  1.7327  2.6103  2.3934
 6167SOL    HW230135   4.347   4.003   2.695  0.9345 -1.2546 -0.6028
 6168SOL     OW30136   0.532   4.063   8.355  0.5770 -0.3662  0.1136
 6168SOL    HW130137   0.621   4.029   8.345  0.6217  0.1609 -1.1679
 6168SOL    HW230138   0.500   4.011   8.429  0.0381  0.3136  0.3496
 6169SOL     OW30139   0.963   0.079  12.679 -0.2733 -0.1791  0.2876
 6169SOL    HW130140   0.917   4.735  12.681 -1.7220  0.6261  1.7045
 6169SOL    HW230141   0.935   0.113  12.595  1.4778 -1.8366 -0.9710
 6170SOL     OW30142   2.493   2.458   8.179  0.0013  0.2224  0.2935
 6170SOL    HW130143   2.494   2.479   8.086 -1.5796 -1.1527 -0.0380
 6170SOL    HW230144   2.552   2.526   8.211  2.1809 -1.4732 -0.1771
 6171SOL     OW30145   0.754   2.877   8.461  0.2710  1.0883  0.5330
 6171SOL    HW130146   0.839   2.865   8.420  0.1032 -0.0222  0.5006
 6171SOL    HW230147   0.773   2.926   8.541 -0.8802  0.3782  1.2554
 6172SOL     OW30148   3.093   2.379   8.548 -0.1341 -0.2812  0.4679
 6172SOL    HW130149   3.029   2.314   8.518 -0.0525 -0.1216 -0.0478
 6172SOL    HW230150   3.115   2.429   8.470  0.1162 -1.6162 -0.3055
 6173SOL     OW30151   3.646   3.598  17.575  0.4207  0.2012 -0.1346
 6173SOL    HW130152   3.617   3.689  17.563  1.5065  0.3392 -1.6944
 6173SOL    HW230153   3.690   3.576  17.493 -0.7421 -1.8735 -0.2000
 6174SOL     OW30154   3.002   0.932   3.645  0.1304  0.1257  0.2322
 6174SOL    HW130155   3.054   0.907   3.569 -0.8736 -2.2669  0.3292
 6174SOL    HW230156   3.055   0.898   3.717 -0.6078  0.7891  1.0902
 6175SOL     OW30157   3.431   3.947   4.775 -0.3309 -0.0795  0.2521
 6175SOL    HW130158   3.427   3.950   4.680 -2.2667 -1.9291  0.2613
 6175SOL    HW230159   3.366   3.881   4.799 -0.1800  0.0406  1.0025
 6176SOL     OW30160   1.353   0.680  13.688 -0.2560  0.0530  0.2396
 6176SOL    HW130161   1.419   0.706  13.751 -1.8327  1.2686  1.4007
 6176SOL    HW230162   1.276   0.703  13.740  1.6401  1.8355  2.2565
 6177SOL     OW30163   3.547   2.229   6.952 -0.2007 -0.1994 -0.1424
 6177SOL    HW130164   3.536   2.285   7.029  1.1913 -1.8601  1.2622
 6177SOL    HW230165   3.575   2.145   6.989  1.7775 -0.3245 -1.9382
 6178SOL     OW30166   0.998   4.559   4.933  0.1069 -0.3944 -0.4195
 6178SOL    HW130167   0.908   4.544   4.904  0.0236 -1.0557  0.1593
 6178SOL    HW230168   1.015   4.639   4.885  2.4799  0.2824  1.5688
 6179SOL     OW30169   0.511   0.073   0.427  0.1731  0.2672 -0.8474
 6179SOL    HW130170   0.559   0.093   0.347 -0.5833 -1.1045 -1.6499
 6179SOL    HW230171   0.507   0.163   0.460 -1.5335 -0.4579  0.9456
 6180SOL     OW30172   0.663   1.010   7.945  0.1508 -0.2785 -0.0357
 6180SOL    HW130173   0.638   0.918   7.951  0.8751 -0.4896 -0.2596
 6180SOL    HW230174   0.626   1.035   7.861  0.5756 -3.1318 -1.0851
 6181SOL     OW30175   2.086   1.851  17.114  0.0999 -0.3980  0.6299
 6181SOL    HW130176   2.019   1.919  17.121 -0.7645 -1.2909  0.9741
 6181SOL    HW230177   2.023   1.792  17.074  1.0253 -0.7112 -0.3701
 6182SOL     OW30178   3.474   4.199  11.753 -0.0784 -0.5833 -0.6939
 6182SOL    HW130179   3.538   4.267  11.773 -0.5127 -0.4611  0.2674
 6182SOL    HW230180   3.397   4.230  11.800  0.4089  0.8011 -0.8054
 6183SOL     OW30181   4.481   2.377   7.334  0.4933 -0.0488 -0.1949
 6183SOL    HW130182   4.441   2.464   7.333  0.9453  0.1828  0.8560
 6183SOL    HW230183   4.503   2.361   7.242  0.4893  1.5862 -0.4787
 6184SOL     OW30184   3.231   2.724   1.576 -0.2619  0.4275  0.6327
 6184SOL    HW130185   3.203   2.643   1.532  4.5597 -1.4537  1.1041
 6184SOL    HW230186   3.260   2.775   1.501  0.4667  0.8965  1.2394
 6185SOL     OW30187   2.906   3.299  13.426  0.1602 -0.3913  0.3052
 6185SOL    HW130188   2.888   3.205  13.429  0.3324 -0.4578 -0.6811
 6185SOL    HW230189   2.987   3.302  13.478  0.1210 -0.1144  0.3461
 6186SOL     OW30190   2.335   2.174   3.195  0.0109 -0.2708 -0.6586
 6186SOL    HW130191   2.416   2.196   3.149  1.2476 -1.9979  0.6899
 6186SOL    HW230192   2.271   2.218   3.139 -1.2541 -1.2391  0.0316
 6187SOL     OW30193   1.424   0.639   7.018 -0.3848 -0.2498 -0.1952
 6187SOL    HW130194   1.492   0.693   7.056 -0.0264 -0.0996 -1.0566
 6187SOL    HW230195   1.384   0.689   6.947 -0.5628 -0.2593 -0.1016
 6188SOL     OW30196   2.897   1.355   5.106  0.6308 -0.3647 -0.4485
 6188SOL    HW130197   2.986   1.371   5.074  1.5885 -0.1934  2.2921
 6188SOL    HW230198   2.876   1.272   5.063 -0.5227 -0.1470 -0.3224
 6189SOL     OW30199   0.197   1.440   6.541 -0.0900 -1.0239 -0.2909
 6189SOL    HW130200   0.239   1.409   6.621 -0.8966  0.0899  0.5675
 6189SOL    HW230201   0.129   1.502   6.568  0.6285 -1.0490  1.5521
 6190SOL     OW30202   2.672   0.594  14.126  0.0772 -0.3822 -0.1401
 6190SOL    HW130203   2.612   0.519  14.127  0.2473 -0.5210 -0.2849
 6190SOL    HW230204   2.617   0.659  14.083  0.3263  0.1539  0.3573
 6191SOL     OW30205   0.623   0.266   9.160 -0.1426  0.2631 -0.5574
 6191SOL    HW130206   0.535   0.303   9.157  1.0389  3.0722 -0.3904
 6191SOL    HW230207   0.633   0.238   9.251 -0.9706 -0.9789 -0.8362
 6192SOL     OW30208   3.802   4.045   6.677 -0.2240 -0.2264 -0.5367
 6192SOL    HW130209   3.791   4.105   6.752 -2.7124 -1.5798  0.1981
 6192SOL    HW230210   3.770   3.969   6.725 -0.7626 -0.1132 -0.7094
 6193SOL     OW30211   3.569   1.437   8.125 -0.2552 -0.4321  0.4252
 6193SOL    HW130212   3.499   1.374   8.139 -1.1954  0.3621 -0.7519
 6193SOL    HW230213   3.595   1.419   8.035  0.4224 -0.3986  0.6105
 6194SOL     OW30214   1.886   2.610   5.392 -0.0612 -0.9879  0.3755
 6194SOL    HW130215   1.820   2.657   5.443  0.0212  0.2818 -0.6975
 6194SOL    HW230216   1.952   2.678   5.405  1.2054 -1.5562 -3.2816
 6195SOL     OW30217   2.805   1.952   1.830 -0.2677 -0.3374 -0.1142
 6195SOL    HW130218   2.731   1.897   1.804 -0.2723 -0.1946 -0.3993
 6195SOL    HW230219   2.831   1.990   1.746  1.9067 -0.2535  0.5982
 6196SOL     OW30220   0.923   4.117   6.755  0.2623  0.0829 -0.1069
 6196SOL    HW130221   0.996   4.056   6.748  0.8118  0.5469  1.4442
 6196SOL    HW230222   0.966   4.189   6.803  1.6229  0.3958 -1.7835
 6197SOL     OW30223   3.338   1.594   4.883 -0.0374 -0.2951 -0.1707
 6197SOL    HW130224   3.407   1.532   4.859 -2.1036 -1.2241 -3.7125
 6197SOL    HW230225   3.289   1.599   4.801 -1.5061 -0.6119  0.6919
 6198SOL     OW30226   3.949   0.878   8.500  0.7140 -0.0109  0.1626
 6198SOL    HW130227   3.878   0.929   8.539  1.0703 -0.7805  1.7810
 6198SOL    HW230228   3.995   0.849   8.578 -1.8821 -0.8486  1.4074
 6199SOL     OW30229   1.705   1.464  12.447 -0.0408 -1.2220 -0.9639
 6199SOL    HW130230   1.648   1.519  12.501  0.7434 -1.6075  0.2354
 6199SOL    HW230231   1.638   1.414  12.399 -0.5499  0.4384 -1.9835
 6200SOL     OW30232   1.233   3.279  15.974  0.5474  0.4920  0.0563
 6200SOL    HW130233   1.161   3.341  15.972  0.7272  0.7223  0.8193
 6200SOL    HW230234   1.210   3.222  16.047  2.1551 -2.4150 -1.6758
 6201SOL     OW30235   2.078   4.584   8.730  0.0333  0.2562  0.3726
 6201SOL    HW130236   2.158   4.546   8.767 -0.4904  0.4600  1.7286
 6201SOL    HW230237   2.113   4.661   8.685  2.0300 -1.0239 -0.2596
 6202SOL     OW30238   3.243   1.160   1.345 -0.3772 -0.5400  0.0526
 6202SOL    HW130239   3.194   1.103   1.286 -2.1179  1.2149 -0.1918
 6202SOL    HW230240   3.206   1.122   1.425  0.9371 -0.8912  0.5003
 6203SOL     OW30241   4.541   2.369  13.745 -0.5367 -0.3830  0.2200
 6203SOL    HW130242   4.631   2.346  13.721 -0.9965 -1.2887 -0.6221
 6203SOL    HW230243   4.522   2.457  13.713 -2.3495 -1.0504 -0.5013
 6204SOL     OW30244   2.654   0.594   5.202  0.0777 -0.2178  0.0647
 6204SOL    HW130245   2.744   0.562   5.192 -0.1104 -1.1275  1.3145
 6204SOL    HW230246   2.608   0.510   5.209 -1.2067  0.3879 -1.1194
 6205SOL     OW30247   4.539   0.504   9.114  0.0499  0.6109 -0.4109
 6205SOL    HW130248   4.482   0.575   9.147  0.4492  0.5411  0.4143
 6205SOL    HW230249   4.621   0.524   9.159 -1.1753  0.8992  1.7580
 6206SOL     OW30250   0.557   0.506   2.999  0.4847 -0.1043 -0.2025
 6206SOL    HW130251   0.551   0.487   2.905  1.1883  0.3432 -0.3409
 6206SOL    HW230252   0.652   0.497   3.010  0.3001 -1.9338 -0.2422
 6207SOL     OW30253   4.482   4.613   5.243 -0.1710 -0.5093  0.2253
 6207SOL    HW130254   4.574   4.632   5.261 -0.2994  0.3627 -0.0616
 6207SOL    HW230255   4.487   4.544   5.177  1.3096 -1.7284  1.6216
 6208SOL     OW30256   0.368   0.326   7.383 -0.6044 -0.0876 -0.7678
 6208SOL    HW130257   0.294   0.324   7.322  0.2104  1.1189 -1.7943
 6208SOL    HW230258   0.424   0.262   7.339 -2.5106 -0.9699 -1.9017
 6209SOL     OW30259   0.140   4.242  16.961 -0.6246 -0.9226 -0.4635
 6209SOL    HW130260   0.135   4.245  16.865  0.5228  1.9186 -0.4422
 6209SOL    HW230261   0.055   4.212  16.993 -0.9810  0.5891  0.0204
 6210SOL     OW30262   1.774   1.404   4.616 -0.1011  0.6892  0.5580
 6210SOL    HW130263   1.854   1.425   4.568  0.7739  0.7791  2.0698
 6210SOL    HW230264   1.728   1.351   4.551 -0.7807 -2.1379  3.3490
 6211SOL     OW30265   0.457   1.151   3.531  0.2350 -0.6566 -0.5574
 6211SOL    HW130266   0.377   1.160   3.583  0.8589 -0.9999  0.4695
 6211SOL    HW230267   0.475   1.061   3.559  0.8818 -0.3537  0.0283
 6212SOL     OW30268   3.130   2.439   8.029  0.0971  0.1215  0.0000
 6212SOL    HW130269   3.123   2.360   7.975  0.3640 -0.0354  0.1941
 6212SOL    HW230270   3.203   2.424   8.090  0.9380  0.2155 -0.9734
 6213SOL     OW30271   2.527   2.128  13.187 -0.5547 -0.2864 -0.3298
 6213SOL    HW130272   2.453   2.184  13.210 -1.2020 -0.8800 -0.9903
 6213SOL    HW230273   2.547   2.094  13.274  0.4087 -1.3898 -0.9716
 6214SOL     OW30274   3.207   0.519   8.216 -0.1430  0.6259  0.3105
 6214SOL    HW130275   3.239   0.444   8.166  1.8907  2.1040 -0.5999
 6214SOL    HW230276   3.113   0.522   8.198  0.0759 -1.3987 -1.2102
 6215SOL     OW30277   3.323   0.657   8.423 -0.2413 -0.4952  0.4902
 6215SOL    HW130278   3.288   0.614   8.345  2.0880  0.0677 -0.8826
 6215SOL    HW230279   3.265   0.733   8.425  0.2005 -0.1602  0.5247
 6216SOL     OW30280   2.639   0.058   4.996 -0.6086 -0.2814 -0.5045
 6216SOL    HW130281   2.639   4.725   5.056  0.6896 -2.1930 -2.8867
 6216SOL    HW230282   2.654   0.019   4.911 -0.6673  1.5605 -1.3702
 6217SOL     OW30283   1.512   3.628   7.984 -0.4875 -0.0359 -0.2570
 6217SOL    HW130284   1.544   3.624   8.074 -0.0898  0.2994 -0.3857
 6217SOL    HW230285   1.584   3.677   7.944 -0.2815  1.5384  2.0689
 6218SOL     OW30286   1.271   1.789  10.844 -0.1916 -0.1563 -0.2499
 6218SOL    HW130287   1.178   1.769  10.838  0.4664 -2.6620 -1.6694
 6218SOL    HW230288   1.278   1.722  10.912 -2.8672 -0.0474  0.1256
 6219SOL     OW30289   3.614   0.177  12.198  0.3701 -0.0699  0.3204
 6219SOL    HW130290   3.532   0.217  12.169  1.4504  1.3653 -0.7767
 6219SOL    HW230291   3.618   0.199  12.291  1.4483  1.4289 -0.0765
 6220SOL     OW30292   4.680   4.566   3.208 -0.4309 -0.5685  0.6123
 6220SOL    HW130293   4.589   4.539   3.209 -1.4237  2.8218  2.3454
 6220SOL    HW230294   4.720   4.494   3.256  2.6549  0.0977 -0.9137
 6221SOL     OW30295   0.461   0.837   7.653 -0.0076 -0.0664 -0.1709
 6221SOL    HW130296   0.429   0.766   7.598  3.1813 -0.2803 -1.6816
 6221SOL    HW230297   0.543   0.854   7.608 -0.0885 -1.8729 -0.9894
 6222SOL     OW30298   0.177   0.242   6.868 -0.5328  0.5469  0.5104
 6222SOL    HW130299   0.219   0.210   6.948  0.3252  0.7309  0.1299
 6222SOL    HW230300   0.101   0.184   6.877  0.1316 -0.4656 -0.3976
 6223SOL     OW30301   4.388   3.311   3.518 -0.2912 -0.3160 -0.2486
 6223SOL    HW130302   4.322   3.247   3.490 -2.8882  1.1469  2.6318
 6223SOL    HW230303   4.394   3.367   3.440  0.6017 -1.4225 -0.9976
 6224SOL     OW30304   2.166   3.555  11.929  0.6815  0.0491 -0.1830
 6224SOL    HW130305   2.148   3.465  11.955 -1.8652 -0.2171 -2.7978
 6224SOL    HW230306   2.261   3.568  11.935  0.5462  0.5887  0.7884
 6225SOL     OW30307   4.667   3.628   9.932  0.1024 -0.6615  0.3671
 6225SOL    HW130308   4.653   3.580   9.850  0.3997  1.9038 -1.1888
 6225SOL    HW230309   4.698   3.710   9.893 -0.7687 -0.1197  0.8365
 6226SOL     OW30310   3.402   4.498  11.602 -0.0865 -0.5552  0.1033
 6226SOL    HW130311   3.458   4.421  11.592 -0.9487 -1.3981  1.7965
 6226SOL    HW230312   3.468   4.563  11.623 -0.4598  0.8589 -3.1337
 6227SOL     OW30313   1.453   2.932   7.311 -0.2989 -0.2551 -0.0681
 6227SOL    HW130314   1.431   2.840   7.326 -1.6815 -0.1824 -1.6626
 6227SOL    HW230315   1.526   2.919   7.251  1.4080  1.7356  1.5720
 6228SOL     OW30316   3.268   2.563   3.542 -0.1998 -0.6768 -0.0737
 6228SOL    HW130317   3.188   2.608   3.570  0.2636 -0.1080  0.3433
 6228SOL    HW230318   3.316   2.642   3.516 -3.2192  1.0980 -0.3164
 6229SOL     OW30319   0.891   2.739  15.544  0.1754  0.4399 -0.3073
 6229SOL    HW130320   0.969   2.684  15.542  0.7434  1.2476 -0.2359
 6229SOL    HW230321   0.940   2.814  15.578  0.7566 -1.2325  2.6246
 6230SOL     OW30322   2.261   4.595   5.761  0.0990 -0.2254 -0.2718
 6230SOL    HW130323   2.253   4.499   5.757 -0.1850 -0.2768  1.6482
 6230SOL    HW230324   2.356   4.602   5.757 -0.1488  2.7482 -1.0334
 6231SOL     OW30325   1.330   1.525   9.632  1.0887 -0.3582  0.0221
 6231SOL    HW130326   1.242   1.517   9.594  1.6127 -2.1578 -0.8441
 6231SOL    HW230327   1.356   1.433   9.631 -0.7758 -0.9112  3.2864
 6232SOL     OW30328   1.869   1.129  15.359 -0.2740  0.3739  0.3278
 6232SOL    HW130329   1.793   1.122  15.418 -0.2656  1.5739  0.4883
 6232SOL    HW230330   1.831   1.169  15.281  1.8739  1.7022 -0.0353
 6233SOL     OW30331   0.890   1.966  10.906 -0.5508  0.8438  0.9293
 6233SOL    HW130332   0.954   1.907  10.946  0.3250  0.5257 -0.9415
 6233SOL    HW230333   0.898   2.049  10.953  0.0968  1.0887  0.3826
 6234SOL     OW30334   0.671   3.010   7.716 -0.1295  0.1895  0.1839
 6234SOL    HW130335   0.585   3.001   7.757 -0.2070  0.7304  0.1342
 6234SOL    HW230336   0.700   2.919   7.719  1.9885  0.8906  0.3330
 6235SOL     OW30337   4.023   0.236   6.264  0.1300  0.4564  0.7474
 6235SOL    HW130338   4.012   0.255   6.171 -0.3640 -2.1835  0.2551
 6235SOL    HW230339   4.115   0.209   6.257 -0.5700 -1.6027 -0.6253
 6236SOL     OW30340   3.112   0.995   9.014 -0.0184  0.0579  0.4007
 6236SOL    HW130341   3.106   0.959   8.925  0.8438  0.7144  0.0660
 6236SOL    HW230342   3.137   1.087   9.006  1.1145 -0.0288  2.9161
 6237SOL     OW30343   2.746   4.503   8.175  0.5572 -0.0651 -0.2911
 6237SOL    HW130344   2.780   4.592   8.166 -0.7697  0.6200  1.5161
 6237SOL    HW230345   2.822   4.473   8.225 -0.0551 -1.3948 -0.1395
 6238SOL     OW30346   4.049   0.399   5.711 -0.0886  0.1010 -0.3559
 6238SOL    HW130347   3.997   0.450   5.649  0.8264  1.1037 -0.2991
 6238SOL    HW230348   4.130   0.450   5.710 -0.0887  0.1454  1.0446
 6239SOL     OW30349   1.730   1.750   2.978  0.1742 -0.3331 -0.0540
 6239SOL    HW130350   1.769   1.837   2.973 -2.6341  0.9493  0.3919
 6239SOL    HW230351   1.798   1.710   3.032  1.8362 -2.6969 -3.8668
 6240SOL     OW30352   3.765   1.548   9.584 -0.0095  0.1306 -0.0537
 6240SOL    HW130353   3.811   1.611   9.638 -0.4385  2.2190 -2.1385
 6240SOL    HW230354   3.764   1.580   9.494  0.6995  1.7023  0.5122
 6241SOL     OW30355   3.312   0.483   0.305 -0.0013 -0.4134  0.1642
 6241SOL    HW130356   3.220   0.466   0.284  0.6365  0.0637 -3.0135
 6241SOL    HW230357   3.362   0.486   0.223 -1.8471  0.1581 -0.9483
 6242SOL     OW30358   3.470   0.935   8.577  0.5172 -0.0726 -0.1758
 6242SOL    HW130359   3.408   0.893   8.518  0.0696  1.3519 -0.7154
 6242SOL    HW230360   3.402   0.964   8.638  1.2670  0.0140  0.6203
 6243SOL     OW30361   2.422   3.684   6.834 -0.4576  0.0218  0.3582
 6243SOL    HW130362   2.413   3.740   6.756 -0.8463  1.5718  1.5104
 6243SOL    HW230363   2.509   3.711   6.861 -0.1763  0.0893 -0.6169
 6244SOL     OW30364   3.319   3.030   2.611 -0.3550 -0.0866  0.1695
 6244SOL    HW130365   3.275   3.073   2.538  1.8701 -0.0976 -1.1746
 6244SOL    HW230366   3.410   3.052   2.588 -0.4182  0.0382  0.0453
 6245SOL     OW30367   1.255   3.243   6.215 -0.0543  0.3988  0.3439
 6245SOL    HW130368   1.344   3.211   6.225 -0.2150  0.1025  0.8811
 6245SOL    HW230369   1.208   3.195   6.284 -0.0985  2.1187  1.5061
 6246SOL     OW30370   4.081   4.055   6.598 -0.1996  0.3809  0.6277
 6246SOL    HW130371   4.107   4.037   6.507  2.3887  3.7788  0.6866
 6246SOL    HW230372   4.004   4.112   6.594  0.3978  1.1630  0.1544
 6247SOL     OW30373   1.030   1.237   5.727  0.1029  0.8801  0.4798
 6247SOL    HW130374   1.005   1.145   5.721 -0.3936  1.0931 -0.9653
 6247SOL    HW230375   1.066   1.252   5.639  0.3071 -1.0110  0.2450
 6248SOL     OW30376   0.843   1.703   1.365  0.2574 -0.2115 -0.5850
 6248SOL    HW130377   0.889   1.785   1.381  0.7317 -0.7465  0.8261
 6248SOL    HW230378   0.765   1.730   1.414 -0.7164 -1.6686 -1.3217
 6249SOL     OW30379   1.582   4.052  16.252 -0.5414  0.3753  0.0347
 6249SOL    HW130380   1.606   3.974  16.202  2.1277  0.3218  1.3681
 6249SOL    HW230381   1.517   4.091  16.194  0.0182  1.3600  0.0702
 6250SOL     OW30382   3.669   3.967   7.937  0.4142 -0.4704  0.2638
 6250SOL    HW130383   3.588   3.917   7.950 -1.6658  1.5426 -4.8286
 6250SOL    HW230384   3.701   3.971   8.027  1.3462  0.7160 -0.1178
 6251SOL     OW30385   4.610   3.810   2.215 -0.0733  0.2166  0.1910
 6251SOL    HW130386   4.679   3.865   2.177  1.2225 -0.7337  1.1811
 6251SOL    HW230387   4.614   3.735   2.156  0.8236 -0.6814  1.3787
 6252SOL     OW30388   3.187   3.995   8.606 -0.2862  0.1862  0.6069
 6252SOL    HW130389   3.138   3.965   8.683 -1.9317 -2.4139 -1.4446
 6252SOL    HW230390   3.269   4.013   8.651 -0.3189  0.4701  0.5549
 6253SOL     OW30391   2.224   1.165  16.534 -1.0036 -0.2183 -0.0012
 6253SOL    HW130392   2.242   1.120  16.617  1.1974 -0.1871 -0.4576
 6253SOL    HW230393   2.161   1.228  16.567 -1.9544 -1.0053 -0.3221
 6254SOL     OW30394   0.689   1.975   8.492 -0.0425  0.0410  0.4703
 6254SOL    HW130395   0.668   1.884   8.512 -0.2371  0.0467  0.2890
 6254SOL    HW230396   0.726   2.000   8.577 -0.5891  0.2079  0.6587
 6255SOL     OW30397   1.397   4.310  12.536 -0.1110  0.2558  0.2800
 6255SOL    HW130398   1.449   4.276  12.609 -0.1901  1.2502  0.7912
 6255SOL    HW230399   1.325   4.349  12.586 -1.3782 -0.4387 -1.0193
 6256SOL     OW30400   1.800   2.967  12.571 -0.5056 -0.1415  0.5414
 6256SOL    HW130401   1.744   2.966  12.493  2.6427 -1.4531 -1.6617
 6256SOL    HW230402   1.878   3.013  12.541 -0.1671 -1.3454 -0.4277
 6257SOL     OW30403   1.385   3.807  14.614 -0.5082 -0.2093  0.3987
 6257SOL    HW130404   1.437   3.816  14.534 -1.1740 -1.5517 -0.1884
 6257SOL    HW230405   1.450   3.852  14.668 -0.9436  0.2486  0.5417
 6258SOL     OW30406   1.159   0.101   3.187 -0.2486  0.0721 -0.2364
 6258SOL    HW130407   1.104   0.073   3.114  0.8075 -0.6679 -0.7478
 6258SOL    HW230408   1.217   0.162   3.142 -0.1273 -1.2224 -1.8158
 6259SOL     OW30409   0.725   3.635   2.592  0.0331  0.1897  0.1555
 6259SOL    HW130410   0.818   3.653   2.603 -0.2267  2.0290 -0.6123
 6259SOL    HW230411   0.740   3.566   2.528  0.2953  0.2830  0.1193
 6260SOL     OW30412   2.917   2.741   4.139  0.2356 -0.2583  0.4439
 6260SOL    HW130413   2.992   2.783   4.097 -0.2349 -1.4936 -1.6612
 6260SOL    HW230414   2.903   2.785   4.223 -0.7652  0.0266  0.1385
 6261SOL     OW30415   3.584   3.798   4.186  0.6098  0.3796  0.2811
 6261SOL    HW130416   3.568   3.892   4.194 -2.3106 -0.1698  0.9633
 6261SOL    HW230417   3.595   3.781   4.093 -0.6208  0.6931  0.0740
 6262SOL     OW30418   1.142   1.648  15.562 -0.0414  0.8538  0.0122
 6262SOL    HW130419   1.052   1.624  15.538 -0.2465  0.9410  0.7045
 6262SOL    HW230420   1.189   1.642  15.478 -0.0548  1.2035 -0.0221
 6263SOL     OW30421   2.406   3.602   2.760  0.3813 -0.3424 -0.4282
 6263SOL    HW130422   2.355   3.672   2.801 -0.2580  0.0050 -1.8112
 6263SOL    HW230423   2.377   3.529   2.815  0.5428 -1.4960 -1.8669
 6264SOL     OW30424   1.174   3.883   1.581 -0.3346 -0.5395 -0.5322
 6264SOL    HW130425   1.209   3.838   1.657 -1.3151 -1.2329 -0.4938
 6264SOL    HW230426   1.095   3.845   1.541  0.6681 -2.0909 -1.0287
 6265SOL     OW30427   4.294   1.943   3.307 -0.6503 -0.0503  0.2636
 6265SOL    HW130428   4.284   1.943   3.402 -0.6724 -1.3414  0.2618
 6265SOL    HW230429   4.357   1.871   3.295  0.1145  0.2272  2.6181
 6266SOL     OW30430   1.092   1.260   4.771  0.0882 -0.3914  0.2460
 6266SOL    HW130431   1.091   1.283   4.863 -3.4514 -1.0390  0.3946
 6266SOL    HW230432   1.019   1.198   4.777 -0.3001 -0.2162 -2.6164
 6267SOL     OW30433   4.424   4.364  10.696  1.0941 -0.1128  0.0839
 6267SOL    HW130434   4.345   4.316  10.673  0.1325  1.1986  0.6948
 6267SOL    HW230435   4.491   4.324  10.640  1.2757  1.4573 -0.8273
 6268SOL     OW30436   3.964   0.263  12.727  0.6301 -0.0980 -0.0113
 6268SOL    HW130437   4.005   0.293  12.646 -1.2412  0.6886 -0.6674
 6268SOL    HW230438   3.932   0.347  12.761  1.9957  0.1395  0.6897
 6269SOL     OW30439   0.741   1.580   8.921  0.1353  0.0025  0.5933
 6269SOL    HW130440   0.792   1.511   8.880  0.7678 -0.4408  2.1343
 6269SOL    HW230441   0.796   1.652   8.887 -0.4501  0.1822  0.0299
 6270SOL     OW30442   0.487   3.060   4.739  0.1154 -0.4494 -0.0759
 6270SOL    HW130443   0.562   3.028   4.689  1.5389  0.8587  1.2137
 6270SOL    HW230444   0.432   2.982   4.747 -1.3944  0.2005 -3.9113
 6271SOL     OW30445   4.310   1.201   8.063 -0.1815  1.1054  0.0592
 6271SOL    HW130446   4.223   1.230   8.035 -0.6865 -0.4855 -0.0365
 6271SOL    HW230447   4.324   1.261   8.136  2.4670  4.1239 -2.9081
 6272SOL     OW30448   1.841   2.099  16.119 -0.6561 -0.8495  0.4956
 6272SOL    HW130449   1.802   2.028  16.067 -0.9002 -1.6425  1.7524
 6272SOL    HW230450   1.932   2.089  16.091 -1.1050  1.4884 -1.7635
 6273SOL     OW30451   3.257   3.113   7.471  0.6666  0.5240 -0.4302
 6273SOL    HW130452   3.328   3.170   7.441  1.2570  0.1413  0.2501
 6273SOL    HW230453   3.196   3.177   7.510  0.5493  0.2348 -0.1445
 6274SOL     OW30454   4.280   0.300  10.025 -0.7410  0.0351 -0.4760
 6274SOL    HW130455   4.358   0.262   9.985  0.4777  1.0105  1.0034
 6274SOL    HW230456   4.262   0.231  10.089  1.5789  0.8282  1.0410
 6275SOL     OW30457   1.471   2.418   1.559 -0.3550  0.6888 -0.1057
 6275SOL    HW130458   1.494   2.501   1.517  1.5941  0.6300  0.9063
 6275SOL    HW230459   1.398   2.388   1.504 -0.5101 -1.5383  1.3050
 6276SOL     OW30460   2.996   1.741   2.716  0.4657 -0.0746 -0.2264
 6276SOL    HW130461   2.960   1.798   2.648  0.9761  0.2498 -0.2290
 6276SOL    HW230462   2.913   1.743   2.763 -0.6170  1.0226 -2.1909
 6277SOL     OW30463   2.737   1.736   3.826 -0.0645 -0.9145 -0.3001
 6277SOL    HW130464   2.747   1.645   3.799 -1.1200 -1.0431 -0.2489
 6277SOL    HW230465   2.712   1.730   3.918 -0.1440 -1.2987 -0.3490
 6278SOL     OW30466   1.376   4.553   7.546 -0.2617 -0.2620 -0.7006
 6278SOL    HW130467   1.385   4.596   7.631 -1.4832  0.9666 -1.1806
 6278SOL    HW230468   1.359   4.631   7.492  0.2812  0.3000 -0.0504
 6279SOL     OW30469   2.246   1.697   6.543 -0.2151 -0.6134 -0.8568
 6279SOL    HW130470   2.308   1.767   6.562  1.8143 -2.4917 -0.5495
 6279SOL    HW230471   2.167   1.727   6.589  0.9746 -1.5232  1.7641
 6280SOL     OW30472   3.821   4.496   3.872 -0.1041  0.7659  0.8665
 6280SOL    HW130473   3.738   4.514   3.828  1.5543 -2.4657 -3.5393
 6280SOL    HW230474   3.836   4.407   3.841  1.7079  1.3449  0.0637
 6281SOL     OW30475   4.086   4.127  17.683 -0.2199  0.2182  0.2590
 6281SOL    HW130476   4.167   4.178  17.685 -1.2937  1.8538  1.7811
 6281SOL    HW230477   4.122   4.039  17.696  1.2945  0.5243 -1.8325
 6282SOL     OW30478   1.319   2.992   7.756  0.0993  0.2209  0.3188
 6282SOL    HW130479   1.280   2.907   7.733 -0.7799  0.4935  0.8067
 6282SOL    HW230480   1.402   2.977   7.711  0.9208  0.7981  1.6538
 6283SOL     OW30481   4.466   4.174  13.540  0.4600  0.3558 -0.2101
 6283SOL    HW130482   4.508   4.129  13.614 -1.1724 -2.8543 -1.2445
 6283SOL    HW230483   4.481   4.264  13.568 -1.2777  0.1048  1.4778
 6284SOL     OW30484   2.890   1.723   6.990 -0.6316  0.2448  0.7044
 6284SOL    HW130485   2.798   1.728   6.967 -0.2560  1.1876 -0.5380
 6284SOL    HW230486   2.916   1.807   6.954  0.5834 -1.9683 -3.6182
 6285SOL     OW30487   2.324   3.931   3.346 -0.0906 -0.2930  0.7745
 6285SOL    HW130488   2.232   3.912   3.364 -0.2943 -0.9042 -0.8643
 6285SOL    HW230489   2.318   3.913   3.252 -1.8008 -3.4254  1.5092
 6286SOL     OW30490   1.631   4.213   4.822  0.3765  0.1278  0.1955
 6286SOL    HW130491   1.586   4.250   4.898 -2.8367 -0.7006 -1.3190
 6286SOL    HW230492   1.701   4.168   4.871 -0.2641 -0.5132  0.5287
 6287SOL     OW30493   0.034   4.474  14.100 -0.0195 -0.0151  0.1111
 6287SOL    HW130494   0.065   4.485  14.010  2.1410  2.6027  1.1746
 6287SOL    HW230495   0.121   4.491  14.135 -0.4177  0.8925  0.6426
 6288SOL     OW30496   0.938   0.771   9.166 -0.0288 -0.1965 -0.0191
 6288SOL    HW130497   0.904   0.850   9.207 -0.7577 -0.4592 -0.1181
 6288SOL    HW230498   0.863   0.727   9.126 -1.0356  2.5262 -1.1146
 6289SOL     OW30499   0.091   3.830  15.072 -0.2269 -0.1641 -0.4059
 6289SOL    HW130500   0.072   3.880  14.992  1.8010 -1.1375 -1.5075
 6289SOL    HW230501   0.160   3.882  15.113 -1.9025  1.1819  0.6664
 6290SOL     OW30502   0.590   2.244   0.591  0.3342 -0.3936 -0.2477
 6290SOL    HW130503   0.618   2.206   0.508 -0.0514 -0.4337 -0.3564
 6290SOL    HW230504   0.500   2.227   0.565  0.0069  1.6345 -0.4951
 6291SOL     OW30505   4.304   2.672   6.925 -0.0536 -0.5852 -0.1545
 6291SOL    HW130506   4.369   2.697   6.990 -2.0947  1.0008  1.2589
 6291SOL    HW230507   4.355   2.601   6.886 -0.5844 -0.1360 -1.6909
 6292SOL     OW30508   2.895   0.230   8.283  0.1844  0.1916 -0.2546
 6292SOL    HW130509   2.892   0.145   8.239  2.8002  0.3187 -0.6789
 6292SOL    HW230510   2.874   0.208   8.374 -4.0417 -0.1305 -1.3109
 6293SOL     OW30511   2.298   2.700   1.951  0.0134 -0.4725 -0.7423
 6293SOL    HW130512   2.302   2.615   1.996  0.3844 -0.7460 -1.2921
 6293SOL    HW230513   2.378   2.702   1.897 -1.0498 -2.4321 -2.3991
 6294SOL     OW30514   2.604   1.879   7.543  0.2553 -0.3471  0.3384
 6294SOL    HW130515   2.633   1.951   7.599  1.5552 -0.1534 -0.5884
 6294SOL    HW230516   2.652   1.889   7.460 -0.1904  0.1126  0.1393
 6295SOL     OW30517   3.570   0.472  10.625 -0.1168 -0.0725  0.3086
 6295SOL    HW130518   3.595   0.521  10.704  1.4489  0.5060 -0.5435
 6295SOL    HW230519   3.509   0.540  10.595 -0.0834 -0.0940  0.1923
 6296SOL     OW30520   2.266   1.437   4.541  0.4512  0.0018 -0.2119
 6296SOL    HW130521   2.320   1.501   4.494  0.2196  1.9679  2.1839
 6296SOL    HW230522   2.179   1.472   4.524  0.1597 -0.9341 -0.6387
 6297SOL     OW30523   1.284   2.308   1.339 -0.5196 -0.5663 -0.0271
 6297SOL    HW130524   1.277   2.382   1.279 -0.7347 -1.8366 -1.5534
 6297SOL    HW230525   1.346   2.247   1.301 -0.1089 -0.2823  0.1812
 6298SOL     OW30526   2.531   2.096   5.794 -0.1938  0.6253 -0.1853
 6298SOL    HW130527   2.478   2.144   5.731  0.2883  0.0503 -1.0317
 6298SOL    HW230528   2.598   2.059   5.736  0.4593 -0.6880  1.4050
 6299SOL     OW30529   4.074   4.259   4.749 -0.6699  0.5280  0.0490
 6299SOL    HW130530   4.016   4.323   4.708 -0.6264 -1.9026 -3.8329
 6299SOL    HW230531   4.127   4.313   4.806  1.5591  1.1660 -2.6488
 6300SOL     OW30532   3.900   2.249   6.329  0.2202 -0.4161 -0.3527
 6300SOL    HW130533   3.945   2.183   6.276  0.9260  0.7411 -1.1945
 6300SOL    HW230534   3.918   2.210   6.414  0.6813  0.1995 -0.1778
 6301SOL     OW30535   4.255   3.258   8.882  0.1750 -0.0658 -0.3163
 6301SOL    HW130536   4.185   3.275   8.819  0.0986 -1.5856 -0.6462
 6301SOL    HW230537   4.286   3.346   8.903  0.2820 -0.4333  1.1280
 6302SOL     OW30538   0.169   0.687   1.608 -0.2653  0.3463  0.0828
 6302SOL    HW130539   0.085   0.733   1.606  0.2914  1.3961  1.2215
 6302SOL    HW230540   0.140   0.599   1.584 -0.7575  0.4432  0.3099
 6303SOL     OW30541   1.907   4.177   6.046 -0.7282 -0.1133 -0.0534
 6303SOL    HW130542   1.836   4.151   6.105 -3.0964 -0.2386 -2.9665
 6303SOL    HW230543   1.932   4.087   6.026 -1.6351 -0.3989  0.0698
 6304SOL     OW30544   2.979   1.250   2.147  0.2484  0.2562  0.1777
 6304SOL    HW130545   2.904   1.272   2.092  0.3336  1.7690  0.6566
 6304SOL    HW230546   3.029   1.326   2.119  0.2259 -0.5695 -2.0802
 6305SOL     OW30547   1.936   0.307  16.285 -0.1386 -0.3621  0.3882
 6305SOL    HW130548   1.980   0.285  16.367 -1.2915 -2.0017  0.5776
 6305SOL    HW230549   1.935   0.226  16.234 -1.1845 -2.8664  4.3891
 6306SOL     OW30550   0.886   3.777   1.694 -0.0449 -0.1209  0.1012
 6306SOL    HW130551   0.806   3.739   1.730  1.1392 -1.4925  1.2989
 6306SOL    HW230552   0.909   3.842   1.761  2.1137 -0.8062  0.0440
 6307SOL     OW30553   4.446   1.746   8.846 -0.4740 -0.0495 -0.3732
 6307SOL    HW130554   4.453   1.652   8.829 -0.3953 -0.1618  0.2574
 6307SOL    HW230555   4.493   1.783   8.771 -0.2191  0.1678 -0.1077
 6308SOL     OW30556   3.997   3.969   8.828 -0.6193 -0.1062 -0.3580
 6308SOL    HW130557   3.969   3.899   8.887  0.4081 -0.3857 -0.2032
 6308SOL    HW230558   3.938   3.960   8.753 -0.4323 -0.2146 -0.4951
 6309SOL     OW30559   2.363   2.717   2.864 -0.1645 -0.5243 -0.4705
 6309SOL    HW130560   2.401   2.802   2.888 -1.3446 -0.1468  0.0959
 6309SOL    HW230561   2.276   2.749   2.839 -0.0156 -0.7618 -1.2872
 6310SOL     OW30562   4.053   3.937   3.480  0.6703 -0.6381 -0.5799
 6310SOL    HW130563   4.027   4.025   3.454  0.4402 -0.6703 -0.4585
 6310SOL    HW230564   4.001   3.895   3.412 -2.2314 -0.2120  1.3707
 6311SOL     OW30565   3.553   3.932   3.019  0.1079 -0.4283  0.8002
 6311SOL    HW130566   3.535   3.838   3.028 -0.6796  0.0796  4.4988
 6311SOL    HW230567   3.606   3.933   2.939  1.8245 -1.2682  1.9269
 6312SOL     OW30568   3.355   3.694   5.398  0.4167 -0.2241 -0.2920
 6312SOL    HW130569   3.320   3.737   5.320  1.7099 -1.1684 -1.3940
 6312SOL    HW230570   3.367   3.604   5.368  0.5897 -0.0635 -0.7032
 6313SOL     OW30571   0.860   1.963   4.082 -0.2626 -0.4679  0.1586
 6313SOL    HW130572   0.788   1.920   4.129 -0.7814 -0.1124 -0.3121
 6313SOL    HW230573   0.929   1.909   4.121 -0.3297  0.5023  1.5930
 6314SOL     OW30574   0.147   0.330   7.159 -0.2054  0.1743 -0.3223
 6314SOL    HW130575   0.118   0.402   7.214  1.4461  0.8884 -0.3667
 6314SOL    HW230576   0.085   0.262   7.187 -2.5334  2.8048  0.8363
 6315SOL     OW30577   2.084   3.484   3.677  0.4178 -0.1909  0.2837
 6315SOL    HW130578   2.013   3.437   3.633 -1.2023  0.7174  1.9549
 6315SOL    HW230579   2.077   3.572   3.640  0.2030 -1.1310 -1.9426
 6316SOL     OW30580   0.648   4.430   8.579  0.1368  0.4035 -0.2711
 6316SOL    HW130581   0.605   4.355   8.619  0.3118  0.7322  0.5367
 6316SOL    HW230582   0.727   4.394   8.540 -0.4876 -1.8261  0.5215
 6317SOL     OW30583   2.942   3.754   1.706  0.1359 -0.1625 -0.4819
 6317SOL    HW130584   2.887   3.702   1.764 -1.2796  1.5797 -0.2696
 6317SOL    HW230585   2.950   3.691   1.634  2.1743  1.1252 -1.4022
 6318SOL     OW30586   3.045   4.688   4.603  0.1596  0.1238  0.4355
 6318SOL    HW130587   3.109   4.619   4.581 -0.6971 -0.5317 -0.0187
 6318SOL    HW230588   2.990   4.681   4.525 -0.2241 -0.5082  0.7642
 6319SOL     OW30589   3.604   3.693  10.219 -0.6201 -0.3721 -0.6995
 6319SOL    HW130590   3.597   3.633  10.144  1.9866  0.3163 -1.4779
 6319SOL    HW230591   3.572   3.633  10.287  0.1813 -2.2577 -1.9744
 6320SOL     OW30592   3.148   4.138   2.619 -0.1015  0.1393 -0.5469
 6320SOL    HW130593   3.205   4.183   2.556 -0.6551  0.2968 -0.9376
 6320SOL    HW230594   3.190   4.052   2.622  2.3535  1.4694  2.6733
 6321SOL     OW30595   0.876   3.933   1.918 -1.0260  0.6380 -0.1136
 6321SOL    HW130596   0.813   3.947   1.989 -1.0505  0.1189 -0.0336
 6321SOL    HW230597   0.958   3.971   1.948 -1.5416  0.5604  1.4036
 6322SOL     OW30598   2.179   3.158   6.740 -0.0142  0.0141 -0.0350
 6322SOL    HW130599   2.141   3.183   6.824 -0.5003 -0.9289  0.0229
 6322SOL    HW230600   2.261   3.116   6.766 -0.2395 -2.5421 -3.5225
 6323SOL     OW30601   0.505   0.174   3.809  0.4470  0.0952  0.6402
 6323SOL    HW130602   0.588   0.192   3.764  0.9557 -2.4895  0.5763
 6323SOL    HW230603   0.498   0.081   3.790  1.5040  0.1413  0.0052
 6324SOL     OW30604   1.070   1.549  12.060 -0.2261 -0.2772  0.2801
 6324SOL    HW130605   0.992   1.595  12.030 -0.3707 -1.0682 -0.5479
 6324SOL    HW230606   1.058   1.523  12.152  1.1806 -0.1471  0.5047
 6325SOL     OW30607   3.968   1.673  11.160 -0.2038 -0.5772  0.4780
 6325SOL    HW130608   3.941   1.692  11.071 -2.3501 -2.2473  0.7720
 6325SOL    HW230609   3.945   1.754  11.206 -1.1026 -0.5974  0.0426
 6326SOL     OW30610   1.410   3.968  16.606 -0.4092  0.4410  0.1163
 6326SOL    HW130611   1.369   3.984  16.521 -0.2796 -1.6751 -0.3590
 6326SOL    HW230612   1.340   3.914  16.642  1.0899 -0.2245  2.0575
 6327SOL     OW30613   1.759   3.589   6.533  0.8040 -0.3788  0.1218
 6327SOL    HW130614   1.670   3.568   6.562 -0.2108  1.4344 -1.6868
 6327SOL    HW230615   1.782   3.514   6.479 -1.4545 -0.7211 -0.3841
 6328SOL     OW30616   2.849   3.336  10.816  0.4386  0.2797  0.4213
 6328SOL    HW130617   2.757   3.359  10.802  0.0348 -0.4485  1.8599
 6328SOL    HW230618   2.893   3.394  10.754  0.9784  0.0633  0.6002
 6329SOL     OW30619   4.196   0.435   2.117  0.1633  0.3267 -0.4574
 6329SOL    HW130620   4.175   0.351   2.077 -0.2006 -0.8268  2.1632
 6329SOL    HW230621   4.277   0.420   2.165 -0.3421  0.2566  0.3739
 6330SOL     OW30622   3.972   2.074   8.619 -0.3499  0.3863 -0.0008
 6330SOL    HW130623   4.007   2.057   8.532 -2.2162  0.2510 -0.7375
 6330SOL    HW230624   3.957   1.985   8.652 -0.4268 -0.0060 -1.0986
 6331SOL     OW30625   0.186   1.460  17.720 -0.0332  0.1528 -0.5730
 6331SOL    HW130626   0.091   1.461  17.714 -0.2543 -2.6356  1.9400
 6331SOL    HW230627   0.215   1.515  17.647 -0.3474 -0.4849 -1.1816
 6332SOL     OW30628   2.933   2.348   1.822 -0.0042  0.0815  0.2252
 6332SOL    HW130629   2.993   2.423   1.819  1.9342 -1.4060  1.5687
 6332SOL    HW230630   2.988   2.283   1.778 -0.4788 -0.4007  0.3363
 6333SOL     OW30631   4.115   4.633   3.990 -0.6546 -0.0088  0.1935
 6333SOL    HW130632   4.194   4.666   4.033 -2.7374  3.0929  1.6755
 6333SOL    HW230633   4.129   4.667   3.902 -0.3293 -3.3147 -1.0341
 6334SOL     OW30634   1.603   3.032  14.007 -0.1020 -0.1674 -0.0458
 6334SOL    HW130635   1.514   3.058  13.982  0.0572  1.4605  1.1382
 6334SOL    HW230636   1.595   2.943  14.041 -1.4314 -0.0574 -0.0849
 6335SOL     OW30637   3.208   1.972   6.258 -0.0388  0.1557 -0.3260
 6335SOL    HW130638   3.258   1.984   6.177  1.3049  1.6066  0.7368
 6335SOL    HW230639   3.129   2.022   6.237 -0.2758  0.8613  2.2371
 6336SOL     OW30640   0.731   1.939   2.977 -0.0856  0.6014 -0.4417
 6336SOL    HW130641   0.813   1.920   2.931 -0.4764 -0.0459 -0.8763
 6336SOL    HW230642   0.725   2.034   2.977 -0.0559  0.6142 -1.6281
 6337SOL     OW30643   0.507   4.531   7.068  0.3483  0.0287  0.6138
 6337SOL    HW130644   0.566   4.534   6.992 -1.1141  0.8634 -0.4956
 6337SOL    HW230645   0.457   4.611   7.050 -0.0808 -0.5153 -0.6580
 6338SOL     OW30646   3.630   2.885   7.576 -0.0706  0.3963  0.5494
 6338SOL    HW130647   3.680   2.868   7.497 -0.7234 -0.5502  0.3403
 6338SOL    HW230648   3.629   2.802   7.624  2.5519 -0.9467 -1.7520
 6339SOL     OW30649   0.124   0.684   4.957  0.4696 -0.0097  0.0094
 6339SOL    HW130650   0.133   0.748   4.886 -0.7475 -0.8232 -0.8735
 6339SOL    HW230651   0.210   0.642   4.947  0.8569  0.9495 -0.7203
 6340SOL     OW30652   0.164   2.266   1.186 -0.2029 -0.2387 -0.1417
 6340SOL    HW130653   0.214   2.297   1.261  0.8606  2.6749 -2.0694
 6340SOL    HW230654   0.190   2.174   1.182  0.6934  0.0818 -1.8605
 6341SOL     OW30655   1.230   1.383  16.688  0.7530 -0.6061  0.4795
 6341SOL    HW130656   1.194   1.470  16.704 -0.1367 -0.4564 -2.2326
 6341SOL    HW230657   1.167   1.327  16.732 -1.0333  0.0961 -1.1499
 6342SOL     OW30658   4.710   0.735   3.884 -0.5268  0.3907  0.2051
 6342SOL    HW130659   4.696   0.816   3.834  2.1595  1.6570  1.5251
 6342SOL    HW230660   4.719   0.664   3.820 -0.7182 -1.9363  2.7693
 6343SOL     OW30661   4.015   2.634  15.186  0.0192  0.1133 -0.1816
 6343SOL    HW130662   4.038   2.551  15.145  3.4854  1.2048 -0.4154
 6343SOL    HW230663   4.091   2.687  15.165 -0.1421 -0.3337 -1.8753
 6344SOL     OW30664   0.734   1.660   8.061  0.1026  0.2616 -0.3504
 6344SOL    HW130665   0.732   1.689   7.970  0.6300  2.7731  0.4443
 6344SOL    HW230666   0.772   1.741   8.095 -0.6739 -0.0393  1.2392
 6345SOL     OW30667   2.214   1.739   3.331 -0.2007 -0.5259  0.7298
 6345SOL    HW130668   2.276   1.668   3.322  1.3366  1.1915 -2.1546
 6345SOL    HW230669   2.169   1.709   3.411  0.4396 -1.5629  0.6948
 6346SOL     OW30670   3.248   3.555  10.200  0.7644 -0.1823  0.0870
 6346SOL    HW130671   3.221   3.550  10.292 -0.7134 -1.1421 -0.3911
 6346SOL    HW230672   3.340   3.532  10.210  0.6665 -0.1983  0.9901
 6347SOL     OW30673   0.453   4.165   8.085 -0.2923  0.7194  0.2083
 6347SOL    HW130674   0.510   4.242   8.092 -0.0613  0.3244  2.7019
 6347SOL    HW230675   0.468   4.123   8.170 -0.5948 -0.4365 -0.3116
 6348SOL     OW30676   2.914   3.311   4.432 -0.3687  0.4896  0.3740
 6348SOL    HW130677   2.952   3.356   4.357 -0.9284  0.5887  0.1523
 6348SOL    HW230678   2.869   3.239   4.388 -1.0989  0.2201  1.5583
 6349SOL     OW30679   4.461   0.185   5.573 -0.1585 -0.3014  1.0741
 6349SOL    HW130680   4.475   0.202   5.480  0.6337  1.3873  1.4916
 6349SOL    HW230681   4.440   0.094   5.554 -1.6223  0.3924 -0.6060
 6350SOL     OW30682   3.044   1.995   2.359 -0.0612 -0.1915  0.2567
 6350SOL    HW130683   3.130   1.997   2.318 -0.0787  1.1278  0.2768
 6350SOL    HW230684   3.000   2.058   2.302  0.3261  0.0453  0.2204
 6351SOL     OW30685   0.340   2.250   8.874  0.0395 -0.1068  0.4485
 6351SOL    HW130686   0.313   2.326   8.822  0.8042 -1.0903 -1.3863
 6351SOL    HW230687   0.261   2.197   8.862 -0.8200  1.2244  0.1890
 6352SOL     OW30688   0.242   4.297   3.790  0.3953 -0.5020 -0.1003
 6352SOL    HW130689   0.158   4.325   3.753  0.8338 -0.4721 -1.0872
 6352SOL    HW230690   0.252   4.211   3.749  2.8431  1.0938 -2.8979
 6353SOL     OW30691   3.959   3.138   8.002 -1.2144 -0.9567 -0.4248
 6353SOL    HW130692   3.948   3.226   8.037 -1.7170  0.5024 -4.2527
 6353SOL    HW230693   4.000   3.089   8.073 -1.2946 -0.9723 -0.3886
 6354SOL     OW30694   3.209   4.321   6.982  0.0031 -0.4574 -0.6941
 6354SOL    HW130695   3.191   4.228   6.991  1.1501 -0.5777  0.4312
 6354SOL    HW230696   3.147   4.344   7.051  1.1572 -0.5122  0.3641
 6355SOL     OW30697   3.905   2.281   9.505  0.2399  0.7658 -0.0175
 6355SOL    HW130698   3.951   2.357   9.471  2.0319 -0.6255 -0.7306
 6355SOL    HW230699   3.975   2.222   9.533 -1.7422 -1.5241  0.1349
 6356SOL     OW30700   1.911   4.720  10.132 -0.4796 -0.3173  0.2576
 6356SOL    HW130701   1.875   4.662  10.199 -0.8173  0.2150  0.5388
 6356SOL    HW230702   2.003   4.720  10.159 -0.0403 -1.6560 -1.2363
 6357SOL     OW30703   0.471   2.459   9.421 -0.2880  0.5804  0.0814
 6357SOL    HW130704   0.428   2.539   9.452 -1.9169 -0.8792  1.6254
 6357SOL    HW230705   0.396   2.419   9.376  0.1062  1.3217 -1.2143
 6358SOL     OW30706   2.285   3.461   7.700 -0.1849 -0.3303  0.0956
 6358SOL    HW130707   2.250   3.470   7.611  1.0224  1.7339 -0.1868
 6358SOL    HW230708   2.239   3.535   7.741 -1.0870 -1.3611  0.9273
 6359SOL     OW30709   0.511   2.831   9.647  0.3943  0.2731 -0.1976
 6359SOL    HW130710   0.483   2.915   9.611 -0.9065 -0.3227 -0.5773
 6359SOL    HW230711   0.562   2.851   9.726 -1.1256 -1.0810  1.1402
 6360SOL     OW30712   3.975   2.849  13.525  0.4372  0.0953  0.4394
 6360SOL    HW130713   4.002   2.870  13.436  0.8022  0.1961  0.5722
 6360SOL    HW230714   3.884   2.876  13.513  0.7008  1.1300  0.8389
 6361SOL     OW30715   0.346   3.575   6.784 -0.6009 -0.4323  0.1823
 6361SOL    HW130716   0.409   3.538   6.846  0.8331 -0.0855 -1.0664
 6361SOL    HW230717   0.347   3.667   6.808 -1.9986 -1.0605  2.6496
 6362SOL     OW30718   3.446   3.596   3.941  0.0628 -0.7006 -0.2078
 6362SOL    HW130719   3.425   3.558   3.855 -2.9737  0.1346  0.1522
 6362SOL    HW230720   3.511   3.664   3.928 -1.1397  0.6188  0.6458
 6363SOL     OW30721   3.499   0.714   2.021 -0.1109  0.4402  0.4559
 6363SOL    HW130722   3.550   0.636   2.046 -1.4309 -0.1440  1.3023
 6363SOL    HW230723   3.417   0.695   2.067 -0.9472 -2.6154 -2.3424
 6364SOL     OW30724   3.623   1.596  16.761  0.0884  0.4441 -0.2872
 6364SOL    HW130725   3.586   1.563  16.843  0.1154  3.5506  0.9610
 6364SOL    HW230726   3.665   1.678  16.788 -1.9296  1.5544 -0.4891
 6365SOL     OW30727   2.041   4.030  16.376 -0.0043 -0.1918  0.2555
 6365SOL    HW130728   1.985   3.980  16.435  0.4473 -0.4482  0.4622
 6365SOL    HW230729   2.068   3.950  16.331  1.0281  0.5537 -0.4438
 6366SOL     OW30730   1.258   2.016   5.475  0.2403  0.8104  0.0159
 6366SOL    HW130731   1.239   1.983   5.387 -0.8726  1.5406 -0.0109
 6366SOL    HW230732   1.281   1.937   5.525  0.8336  0.6416 -0.5105
 6367SOL     OW30733   2.684   3.819   7.484  0.2013  0.2392 -0.1263
 6367SOL    HW130734   2.604   3.767   7.491  0.5669 -0.9468 -4.7744
 6367SOL    HW230735   2.697   3.839   7.577 -0.2873  1.1143 -0.2561
 6368SOL     OW30736   1.467   1.714   2.510  0.0584 -0.4029 -0.0633
 6368SOL    HW130737   1.520   1.663   2.449 -1.5565 -0.6492 -1.2588
 6368SOL    HW230738   1.520   1.789   2.539  0.9351 -0.1561 -2.2685
 6369SOL     OW30739   1.109   4.006   2.039 -0.2971 -0.1316  0.7561
 6369SOL    HW130740   1.159   3.924   2.038  0.3228  0.2691 -1.4603
 6369SOL    HW230741   1.117   4.024   2.133  1.4594 -2.5482  1.0921
 6370SOL     OW30742   1.106   3.828   8.306  0.1604  1.0947 -0.3140
 6370SOL    HW130743   1.127   3.873   8.388 -1.3085  1.0843  0.0814
 6370SOL    HW230744   1.186   3.799   8.264 -0.3897  0.1400 -0.7083
 6371SOL     OW30745   3.824   0.427   1.570 -0.2640  0.0347  0.2674
 6371SOL    HW130746   3.817   0.356   1.505  1.5430 -0.9289  1.1254
 6371SOL    HW230747   3.918   0.431   1.589 -0.7072  2.4532  1.8513
 6372SOL     OW30748   0.071   3.742  10.133  0.0335  0.1936 -0.6428
 6372SOL    HW130749   0.028   3.821  10.099 -0.5327  0.1014 -0.1261
 6372SOL    HW230750   0.026   3.680  10.076 -1.2033  0.6272 -0.1381
 6373SOL     OW30751   3.925   2.431  14.531 -0.5808 -0.1246  0.4462
 6373SOL    HW130752   3.905   2.461  14.442 -0.8035 -2.3706 -0.2566
 6373SOL    HW230753   3.985   2.500  14.561  0.5061 -0.6526 -0.5653
 6374SOL     OW30754   2.187   3.997   7.770 -0.7488 -0.5742 -0.1780
 6374SOL    HW130755   2.242   4.035   7.839  0.9141 -0.4340 -1.5791
 6374SOL    HW230756   2.227   4.029   7.688 -0.1801  0.8549  0.6463
 6375SOL     OW30757   1.755   3.588  14.337 -0.4657 -0.0372 -0.0080
 6375SOL    HW130758   1.678   3.531  14.330 -0.6962  0.3887 -1.0866
 6375SOL    HW230759   1.708   3.665  14.368  0.3154  1.1230 -1.7369
 6376SOL     OW30760   2.076   2.782  11.850 -0.2544 -0.4247 -0.8921
 6376SOL    HW130761   2.069   2.737  11.934  2.0712  1.0841  0.1060
 6376SOL    HW230762   1.994   2.750  11.812 -0.4090 -2.1088  0.8664
 6377SOL     OW30763   0.710   4.258   3.254  0.5475 -0.4573  0.5888
 6377SOL    HW130764   0.787   4.244   3.199  0.4701 -2.2263  0.9608
 6377SOL    HW230765   0.644   4.274   3.186 -0.0584 -1.9927  0.8305
 6378SOL     OW30766   2.755   0.642   2.430 -0.0465 -0.6383  0.0058
 6378SOL    HW130767   2.753   0.732   2.397  1.2170 -1.0991 -1.2890
 6378SOL    HW230768   2.770   0.650   2.524  0.0352  0.8967 -0.1424
 6379SOL     OW30769   1.148   4.186   7.377 -0.5534 -0.2762 -0.7412
 6379SOL    HW130770   1.171   4.115   7.437  2.4920 -0.2575 -1.8822
 6379SOL    HW230771   1.203   4.153   7.306  0.4573 -0.0774 -0.0482
 6380SOL     OW30772   1.312   0.423   7.156  0.4940  0.5142  0.6134
 6380SOL    HW130773   1.313   0.476   7.236  0.0153 -1.1976  1.7434
 6380SOL    HW230774   1.328   0.498   7.097 -0.3619  0.8301  0.7888
 6381SOL     OW30775   4.617   4.729   4.853  0.4911 -0.1272 -0.2629
 6381SOL    HW130776   4.572   4.651   4.822 -0.4287  0.8868 -1.4775
 6381SOL    HW230777   4.653   4.687   4.931  0.4283  1.6700  0.7413
 6382SOL     OW30778   2.170   0.065   8.620  0.4818 -0.7271 -0.2591
 6382SOL    HW130779   2.212   0.144   8.585  1.6689 -1.4521 -0.4895
 6382SOL    HW230780   2.130   0.035   8.539  0.1775 -2.1720  0.4339
 6383SOL     OW30781   4.305   1.402   7.393 -0.6250 -0.0734  0.1303
 6383SOL    HW130782   4.353   1.327   7.428  0.4645  1.3214  1.6073
 6383SOL    HW230783   4.306   1.381   7.299 -2.1799 -0.8966  0.3043
 6384SOL     OW30784   1.415   0.688   3.535  1.0842  0.1840 -0.1365
 6384SOL    HW130785   1.482   0.620   3.527  1.8389  0.9427 -0.2355
 6384SOL    HW230786   1.355   0.655   3.602 -0.4146 -1.6501 -2.3849
 6385SOL     OW30787   0.184   3.093   2.637 -0.1083 -0.1600  0.0183
 6385SOL    HW130788   0.266   3.072   2.592  1.5117 -0.4049  3.0976
 6385SOL    HW230789   0.215   3.167   2.689 -1.4232  1.9830 -2.2627
 6386SOL     OW30790   4.104   3.177   6.362 -0.1532  0.8271  0.2239
 6386SOL    HW130791   4.142   3.253   6.406  1.5349 -0.2327  0.6281
 6386SOL    HW230792   4.145   3.191   6.276 -2.7279  1.2305 -0.9256
 6387SOL     OW30793   2.529   3.854   5.954  1.4547 -0.0077  0.7027
 6387SOL    HW130794   2.505   3.922   5.891 -1.5374 -1.0241  0.7857
 6387SOL    HW230795   2.444   3.811   5.958  1.5961 -0.3539  0.0414
 6388SOL     OW30796   3.520   0.961   6.130 -0.4960 -0.1743 -0.0267
 6388SOL    HW130797   3.449   1.020   6.103 -1.1486 -0.9121  0.0868
 6388SOL    HW230798   3.470   0.900   6.184  0.5332 -2.5949 -1.8209
 6389SOL     OW30799   4.156   1.724   4.108  0.6824 -0.5833  0.3008
 6389SOL    HW130800   4.232   1.781   4.099  1.7591 -1.9514  0.7210
 6389SOL    HW230801   4.163   1.668   4.030 -0.0324  0.8015 -0.7698
 6390SOL     OW30802   0.690   3.134  11.097 -0.1568  0.2089 -0.4052
 6390SOL    HW130803   0.785   3.136  11.084 -0.0505  0.1629  0.3653
 6390SOL    HW230804   0.679   3.208  11.157  1.4943 -1.5770  2.0824
 6391SOL     OW30805   1.180   1.628   6.930  0.2910  0.4237  0.0080
 6391SOL    HW130806   1.095   1.671   6.919  0.1118  0.2458  0.7043
 6391SOL    HW230807   1.156   1.535   6.930 -1.7732  0.9547 -0.2523
 6392SOL     OW30808   3.750   4.395   5.778 -0.2079 -0.1880 -0.1857
 6392SOL    HW130809   3.679   4.453   5.750 -0.2868 -0.0941  0.2116
 6392SOL    HW230810   3.760   4.427   5.868  3.2983  0.2020 -0.7333
 6393SOL     OW30811   2.722   0.696   7.057  0.3529 -0.7903  0.7201
 6393SOL    HW130812   2.742   0.627   7.120 -0.7239 -1.3080  0.4951
 6393SOL    HW230813   2.626   0.701   7.058  0.3594 -0.4142 -3.4774
 6394SOL     OW30814   1.058   2.062   6.888 -0.0069  0.1480 -0.1081
 6394SOL    HW130815   1.154   2.062   6.897 -0.1410 -0.7308  1.2912
 6394SOL    HW230816   1.042   1.968   6.880 -0.7462  0.2781 -0.1092
 6395SOL     OW30817   1.293   4.511   7.954 -0.0536  0.0003  0.7376
 6395SOL    HW130818   1.279   4.597   7.913 -1.3754 -1.7020 -2.4191
 6395SOL    HW230819   1.238   4.515   8.032  0.9660  1.6668  1.3676
 6396SOL     OW30820   2.646   4.195   8.616  0.2426 -0.3280  0.3411
 6396SOL    HW130821   2.695   4.145   8.681 -1.7195 -0.0556  2.0216
 6396SOL    HW230822   2.561   4.177   8.657  0.5245 -2.2324  0.0973
 6397SOL     OW30823   0.922   0.545   7.141  1.0650  0.4284 -0.7317
 6397SOL    HW130824   0.962   0.466   7.104  0.2389  0.4822 -1.7434
 6397SOL    HW230825   0.828   0.530   7.134  1.1300  0.3682 -1.4435
 6398SOL     OW30826   1.531   0.857   1.607 -0.0427 -0.4528  0.7468
 6398SOL    HW130827   1.540   0.933   1.664 -1.2463  0.5051 -0.3526
 6398SOL    HW230828   1.462   0.888   1.548  0.2720 -0.3816  0.4164
 6399SOL     OW30829   2.727   1.533  15.422  0.0708 -0.1685  0.2119
 6399SOL    HW130830   2.728   1.629  15.420 -0.3624 -0.1746 -0.3637
 6399SOL    HW230831   2.802   1.509  15.367  0.2236  1.0256 -0.0958
 6400SOL     OW30832   3.210   0.002   7.059 -0.4583 -0.8670 -0.8208
 6400SOL    HW130833   3.197   4.672   6.996  0.5347 -1.3616 -0.4587
 6400SOL    HW230834   3.291   0.034   7.020 -1.6627 -1.4529 -3.8223
 6401SOL     OW30835   0.801   4.650   3.836  0.4791 -0.0391 -0.5159
 6401SOL    HW130836   0.790   4.577   3.775  0.9771  0.4958 -1.2487
 6401SOL    HW230837   0.859   4.613   3.902 -2.5308 -1.3453  1.3551
 6402SOL     OW30838   3.295   0.477   8.625 -0.0401 -0.0779 -0.0736
 6402SOL    HW130839   3.316   0.491   8.717  1.2126 -0.9572 -0.2147
 6402SOL    HW230840   3.310   0.560   8.579  0.3971 -0.9900 -1.6014
 6403SOL     OW30841   3.806   1.831   9.490 -0.0330 -0.1203  0.1137
 6403SOL    HW130842   3.866   1.788   9.551  0.2915  1.4216  0.8685
 6403SOL    HW230843   3.727   1.831   9.544  0.5279  0.0050  0.9259
 6404SOL     OW30844   3.903   4.544   1.951 -0.3741 -0.3307 -1.0671
 6404SOL    HW130845   3.951   4.611   2.000 -0.6987 -2.7045  2.4673
 6404SOL    HW230846   3.814   4.578   1.937 -0.2081  0.3362 -0.5051
 6405SOL     OW30847   4.085   4.660   8.471 -0.8652 -0.3969  0.1892
 6405SOL    HW130848   4.022   4.626   8.407 -0.5074 -0.4739 -0.1175
 6405SOL    HW230849   4.100   0.010   8.448 -0.7281 -0.8897 -1.6660
 6406SOL     OW30850   1.620   3.528  15.958  0.1539 -0.1255  0.0130
 6406SOL    HW130851   1.585   3.461  15.900  2.1875 -1.0806 -0.1220
 6406SOL    HW230852   1.714   3.526  15.941  0.3605 -0.9434  1.2051
 6407SOL     OW30853   4.105   2.125  17.677 -0.0877  0.0811  0.1268
 6407SOL    HW130854   4.120   2.214  17.645 -1.5810 -0.0679 -0.9893
 6407SOL    HW230855   4.083   2.144   0.007  2.3102  2.4237  0.1837
 6408SOL     OW30856   4.558   4.641   8.138  0.6301  0.2260 -0.3784
 6408SOL    HW130857   4.623   4.662   8.072  0.2030 -2.7231 -1.7651
 6408SOL    HW230858   4.619   4.596   8.196  1.0869  0.7846 -0.4297
 6409SOL     OW30859   0.033   3.601   3.645  0.3972  0.5443  0.2840
 6409SOL    HW130860   0.065   3.624   3.732  0.1896  2.0389 -0.0256
 6409SOL    HW230861   4.708   3.540   3.677  0.5369  0.3942  0.2832
 6410SOL     OW30862   3.605   2.586   4.289 -0.4847  0.5527 -0.7593
 6410SOL    HW130863   3.528   2.592   4.232 -0.2684  0.2117 -1.0924
 6410SOL    HW230864   3.627   2.677   4.305 -0.4279  0.3565  0.2646
 6411SOL     OW30865   0.697   0.526   5.888 -0.2618 -0.0860 -0.0293
 6411SOL    HW130866   0.605   0.539   5.909 -0.7805 -0.1314 -2.3535
 6411SOL    HW230867   0.736   0.515   5.975  1.5292  0.8353 -0.6975
 6412SOL     OW30868   3.472   3.368  17.630 -0.0512 -0.0986 -0.1562
 6412SOL    HW130869   3.552   3.419  17.614  0.7399 -2.2419 -3.2512
 6412SOL    HW230870   3.518   3.289  17.657 -1.0782 -0.5320  0.3102
 6413SOL     OW30871   0.072   4.210   2.552 -0.5901 -0.4940  0.1835
 6413SOL    HW130872   0.157   4.215   2.595  0.3971  0.5200 -1.8852
 6413SOL    HW230873   0.025   4.182   2.630 -1.2451 -0.4183 -0.1864
 6414SOL     OW30874   0.893   3.012   8.113  0.0957 -0.0133 -0.0914
 6414SOL    HW130875   0.892   3.053   8.027  1.5794 -1.0914 -0.6310
 6414SOL    HW230876   0.977   3.047   8.142  1.2759 -0.7590 -2.6194
 6415SOL     OW30877   0.334   0.218   8.663 -0.4386 -0.0657  0.3038
 6415SOL    HW130878   0.304   0.146   8.719  0.0355 -1.1556 -0.8655
 6415SOL    HW230879   0.249   0.234   8.622 -0.8349 -0.1568  1.0802
 6416SOL     OW30880   0.019   1.839   0.595 -0.6298 -0.2380 -0.0558
 6416SOL    HW130881   0.025   1.785   0.674 -0.4120  1.0450  0.8035
 6416SOL    HW230882   0.079   1.798   0.533  0.6785  0.7420  0.5661
 6417SOL     OW30883   3.109   3.148   2.775 -0.1052 -0.3046 -0.2441
 6417SOL    HW130884   3.118   3.215   2.708  2.7737 -0.4156  0.0176
 6417SOL    HW230885   3.180   3.091   2.743  0.6328 -0.2145  1.2135
 6418SOL     OW30886   0.171   1.735   0.987 -0.5627 -0.1934  0.0232
 6418SOL    HW130887   0.097   1.749   0.928 -1.4896 -1.3491  0.9199
 6418SOL    HW230888   0.247   1.756   0.933 -0.9757 -0.3191 -0.6016
 6419SOL     OW30889   0.147   1.675  15.386 -0.0332  0.0471  0.4753
 6419SOL    HW130890   0.096   1.753  15.368 -1.7234 -1.4308 -1.1254
 6419SOL    HW230891   0.238   1.702  15.402 -0.0321 -0.7552  1.8124
 6420SOL     OW30892   0.714   4.006  14.776  0.4150  0.2840  0.0877
 6420SOL    HW130893   0.621   4.026  14.762  0.3141  0.3485  0.8282
 6420SOL    HW230894   0.721   3.911  14.767 -0.6164  0.3855 -1.8493
 6421SOL     OW30895   4.203   2.947   2.996 -0.2191  0.0753  0.0868
 6421SOL    HW130896   4.255   2.912   3.068  0.7028  1.9683  0.3321
 6421SOL    HW230897   4.254   3.025   2.975  0.3144 -0.3528 -0.1827
 6422SOL     OW30898   1.342   1.659  15.358  0.3908  0.1783 -0.6236
 6422SOL    HW130899   1.420   1.610  15.332  0.9980  0.6835  0.2670
 6422SOL    HW230900   1.392   1.732  15.394 -1.7468  0.5189  1.6637
 6423SOL     OW30901   0.293   1.741   3.012  1.0353 -0.2856 -0.2117
 6423SOL    HW130902   0.355   1.792   2.961  3.4644 -1.6342  1.3964
 6423SOL    HW230903   0.345   1.715   3.088  1.8669 -1.2700 -1.1154
 6424SOL     OW30904   1.455   1.597  16.122  0.9129 -0.6002 -0.1254
 6424SOL    HW130905   1.503   1.531  16.172 -2.0104 -0.4795  2.8460
 6424SOL    HW230906   1.453   1.570  16.031  0.1231  1.0809 -0.6083
 6425SOL     OW30907   1.683   4.381   8.866  0.3923 -0.2691  0.1956
 6425SOL    HW130908   1.773   4.381   8.833  0.3518 -1.1286  0.0658
 6425SOL    HW230909   1.646   4.460   8.828  1.1236 -1.1045 -2.2737
 6426SOL     OW30910   4.634   0.258   6.706  0.3052  0.0708  0.5034
 6426SOL    HW130911   4.632   0.208   6.788 -0.2950  0.0525  0.4819
 6426SOL    HW230912   4.591   0.341   6.725  0.5003 -0.5493  3.7311
 6427SOL     OW30913   2.360   4.384   5.633  0.3890  0.1148  0.0413
 6427SOL    HW130914   2.454   4.369   5.638 -0.3152 -4.0340  0.9874
 6427SOL    HW230915   2.320   4.318   5.689 -1.0000  0.1411 -0.9139
 6428SOL     OW30916   2.512   4.456   6.624 -0.1965 -0.4491  0.2823
 6428SOL    HW130917   2.573   4.530   6.623 -0.5496 -0.1667 -2.0700
 6428SOL    HW230918   2.555   4.402   6.557  1.4932 -0.8124  1.6683
 6429SOL     OW30919   2.692   4.102   1.565 -0.0167  0.0825 -0.5144
 6429SOL    HW130920   2.615   4.149   1.598  0.3318  0.8186 -0.7662
 6429SOL    HW230921   2.652   4.018   1.543  0.7708 -0.7203  1.1488
 6430SOL     OW30922   2.733   2.015   9.372 -0.5312  0.1919 -0.2332
 6430SOL    HW130923   2.719   1.923   9.351 -0.1651  0.2038 -0.5266
 6430SOL    HW230924   2.659   2.063   9.335 -0.1776  0.6013 -0.4137
 6431SOL     OW30925   1.912   4.322   3.921  0.3575 -0.1544 -0.3901
 6431SOL    HW130926   1.951   4.249   3.969 -2.0308 -0.9002  0.3971
 6431SOL    HW230927   1.984   4.373   3.884  2.6886 -1.6126  2.1788
 6432SOL     OW30928   0.127   1.270   6.330  0.4477 -0.2618 -0.3752
 6432SOL    HW130929   0.149   1.349   6.379  3.4774 -0.8909 -0.7615
 6432SOL    HW230930   0.105   1.197   6.387  1.4541 -1.1018 -1.0765
 6433SOL     OW30931   1.418   3.397  15.792 -0.3546  0.3441  0.0546
 6433SOL    HW130932   1.353   3.416  15.724  1.1887  2.9666 -0.6845
 6433SOL    HW230933   1.362   3.369  15.865 -0.3711  0.6763  0.1693
 6434SOL     OW30934   1.048   0.927   7.334 -0.0673 -0.1699  0.2556
 6434SOL    HW130935   1.082   0.908   7.246  2.2896 -0.8858  1.3243
 6434SOL    HW230936   1.129   0.966   7.368 -0.3487 -1.1427  2.0175
 6435SOL     OW30937   1.939   0.760  11.508 -0.6560 -0.0758  0.2001
 6435SOL    HW130938   1.905   0.694  11.569  1.3761 -0.9109  0.4143
 6435SOL    HW230939   1.870   0.774  11.442  0.3386 -0.9312 -1.0239
 6436SOL     OW30940   2.693   3.071  15.065 -0.0104 -0.3055  0.4295
 6436SOL    HW130941   2.741   2.990  15.083  0.2374 -0.3069 -0.2167
 6436SOL    HW230942   2.658   3.052  14.978 -0.0840 -1.8881  0.8044
 6437SOL     OW30943   3.273   0.243   1.863 -0.3781 -0.4079 -0.5517
 6437SOL    HW130944   3.348   0.301   1.856 -1.3053  1.0696  1.8183
 6437SOL    HW230945   3.238   0.271   1.948 -0.2509 -2.3826  0.1773
 6438SOL     OW30946   3.916   4.284   6.539  0.2675 -0.1329 -0.5448
 6438SOL    HW130947   3.847   4.217   6.541 -2.5662  2.8776  3.1662
 6438SOL    HW230948   3.895   4.338   6.615 -1.5437 -0.7743 -0.5906
 6439SOL     OW30949   0.937   1.552   9.717  0.1394 -0.0225 -0.1473
 6439SOL    HW130950   0.978   1.516   9.638  2.7888  1.1552  0.6997
 6439SOL    HW230951   0.897   1.626   9.671  3.5337  1.5362 -0.5907
 6440SOL     OW30952   0.907   2.270   3.858  0.1872 -0.2512  0.3775
 6440SOL    HW130953   0.850   2.259   3.934  1.0088 -0.2370  0.9938
 6440SOL    HW230954   0.867   2.212   3.793 -0.1159  0.2335  0.1298
 6441SOL     OW30955   1.983   1.167   5.653 -0.1917  0.0423 -0.0502
 6441SOL    HW130956   1.904   1.123   5.621 -0.5533  2.0119 -1.8774
 6441SOL    HW230957   2.040   1.098   5.620  0.7352  0.3920  0.8337
 6442SOL     OW30958   3.587   3.723   6.526 -0.0166  0.5582  0.1041
 6442SOL    HW130959   3.525   3.653   6.549  1.7821 -0.9019  0.5483
 6442SOL    HW230960   3.525   3.795   6.523  1.0451  1.4370 -1.2258
 6443SOL     OW30961   0.950   2.038   7.761 -0.0583  0.1692 -0.3082
 6443SOL    HW130962   0.918   2.125   7.786 -0.2283 -0.2753  1.0058
 6443SOL    HW230963   1.042   2.039   7.789 -0.0985  0.1529 -0.1774
 6444SOL     OW30964   1.299   2.696   7.690 -0.1325 -0.0365 -0.6429
 6444SOL    HW130965   1.253   2.612   7.698 -0.4693  0.2532  0.4595
 6444SOL    HW230966   1.329   2.698   7.781  0.6483  1.5130 -0.9281
 6445SOL     OW30967   2.932   0.535   3.544  0.2004 -0.6819 -0.1192
 6445SOL    HW130968   2.962   0.466   3.485  1.0208 -0.7700  0.3948
 6445SOL    HW230969   2.930   0.617   3.496  0.0347  0.2333  1.4547
 6446SOL     OW30970   3.769   2.202   3.874 -0.5027  0.6803 -0.5542
 6446SOL    HW130971   3.839   2.139   3.859 -0.3201  0.2106  2.3303
 6446SOL    HW230972   3.751   2.196   3.968  1.3662  0.8375 -0.1805
 6447SOL     OW30973   3.903   2.959   0.442  0.1257  0.1025 -0.5411
 6447SOL    HW130974   3.817   2.998   0.423  0.3078  1.0386  0.5924
 6447SOL    HW230975   3.940   2.936   0.357  1.3301  2.5512 -0.6721
 6448SOL     OW30976   2.249   3.829   7.015  0.0901  0.0015  0.6066
 6448SOL    HW130977   2.273   3.776   6.940 -0.6491 -1.4460  1.3996
 6448SOL    HW230978   2.237   3.914   6.971  0.8298 -0.4924 -0.5448
 6449SOL     OW30979   4.583   4.096   7.382  0.2769  0.6836 -0.4535
 6449SOL    HW130980   4.661   4.071   7.432  1.5252  0.2686 -2.5492
 6449SOL    HW230981   4.571   4.022   7.321  1.3684  0.0573  0.0795
 6450SOL     OW30982   3.660   0.518   2.184 -0.1043 -0.4847  0.1388
 6450SOL    HW130983   3.621   0.438   2.220 -0.3234 -0.0422  0.8732
 6450SOL    HW230984   3.700   0.555   2.263 -0.8458  1.5722 -0.4520
 6451SOL     OW30985   0.797   3.188   9.098 -0.1765 -0.1538 -0.5606
 6451SOL    HW130986   0.850   3.153   9.170 -0.4353  0.9667  0.1801
 6451SOL    HW230987   0.847   3.266   9.072  0.8302 -0.3428  0.8134
 6452SOL     OW30988   2.850   3.776   5.448  0.5633 -0.1194  0.4036
 6452SOL    HW130989   2.862   3.685   5.478  1.5716 -0.0554  0.1834
 6452SOL    HW230990   2.919   3.815   5.501  1.0397 -0.4293  0.0094
 6453SOL     OW30991   2.808   4.269   1.949  0.4551  0.4252 -0.3047
 6453SOL    HW130992   2.837   4.195   1.896 -3.5828 -2.1320  1.0462
 6453SOL    HW230993   2.739   4.221   1.995  0.2551  0.3976 -0.6319
 6454SOL     OW30994   4.428   0.864   9.267 -0.0256 -0.9819 -0.4155
 6454SOL    HW130995   4.416   0.947   9.220 -1.4022 -1.0148 -0.1426
 6454SOL    HW230996   4.370   0.863   9.343  1.4398  0.7733  0.7111
 6455SOL     OW30997   4.595   1.099  12.361 -0.4706  0.2113 -0.2807
 6455SOL    HW130998   4.510   1.060  12.383 -1.2897  0.6862 -2.6613
 6455SOL    HW230999   4.637   1.037  12.301 -0.9102  2.0144 -2.4296
 6456SOL     OW31000   4.539   1.383   2.687  0.2667  0.1058  0.5828
 6456SOL    HW131001   4.491   1.430   2.755 -1.7155  1.6568 -1.8898
 6456SOL    HW231002   4.482   1.320   2.643  0.7512  0.7390 -0.9571
 6457SOL     OW31003   0.048   4.509   8.241  0.3054 -0.0996  0.9885
 6457SOL    HW131004   0.036   4.495   8.335 -0.1084  0.3524  1.0031
 6457SOL    HW231005   0.070   4.421   8.209  0.1182 -0.1343  0.9509
 6458SOL     OW31006   3.710   2.218  14.622 -0.5474 -0.5326 -0.2180
 6458SOL    HW131007   3.776   2.286  14.618  1.6848 -2.6984  0.0754
 6458SOL    HW231008   3.658   2.239  14.700  0.2407  0.6923 -0.0277
 6459SOL     OW31009   2.763   4.608  16.080  0.1199  0.1750  0.5577
 6459SOL    HW131010   2.763   4.698  16.114 -0.0340 -0.3735  2.0436
 6459SOL    HW231011   2.852   4.584  16.105  0.0518 -0.5944  0.0536
 6460SOL     OW31012   0.449   3.439   6.989  0.5631 -0.0182 -0.2566
 6460SOL    HW131013   0.509   3.428   7.063 -1.0688 -0.8048  0.9225
 6460SOL    HW231014   0.429   3.346   6.978  1.4276 -0.4126  1.6244
 6461SOL     OW31015   1.132   2.632   4.143  0.1348 -0.3325 -0.3023
 6461SOL    HW131016   1.071   2.666   4.077  1.0203  0.0003 -0.9530
 6461SOL    HW231017   1.103   2.692   4.212 -0.0759  0.2340 -0.8780
 6462SOL     OW31018   4.005   0.581  17.636  0.3539  0.0153  0.4106
 6462SOL    HW131019   3.999   0.677  17.628  1.1473  0.4209  4.3608
 6462SOL    HW231020   4.058   0.544  17.566 -0.5463  0.8625 -0.7303
 6463SOL     OW31021   0.668   2.162   1.479  0.2381  0.4896 -0.2797
 6463SOL    HW131022   0.668   2.072   1.446  1.5995  0.7677 -1.0361
 6463SOL    HW231023   0.634   2.211   1.404  1.8933  1.3618 -0.4567
 6464SOL     OW31024   2.189   3.684   4.866  0.0699  0.0303  0.3482
 6464SOL    HW131025   2.227   3.669   4.780 -0.9492 -1.9741  0.2553
 6464SOL    HW231026   2.221   3.602   4.904 -0.5380 -0.5686 -0.4544
 6465SOL     OW31027   4.606   1.805   8.069  0.2376 -0.3634 -0.0863
 6465SOL    HW131028   4.523   1.768   8.039  0.0962 -1.1843  1.3092
 6465SOL    HW231029   4.576   1.836   8.155  3.4159  0.6008  0.6839
 6466SOL     OW31030   2.873   0.905   5.070 -0.9324 -0.9322 -0.2404
 6466SOL    HW131031   2.910   0.821   5.094  0.2479 -0.3511 -0.0459
 6466SOL    HW231032   2.919   0.918   4.987 -0.9377  0.8005  0.0384
 6467SOL     OW31033   1.575   0.988   8.287  0.1337  0.0628 -0.0765
 6467SOL    HW131034   1.572   1.081   8.264 -1.5232  0.0886  0.2452
 6467SOL    HW231035   1.646   0.961   8.229 -0.9151  0.5228 -1.5774
 6468SOL     OW31036   0.469   4.665   9.818  0.4969  0.1288 -0.9273
 6468SOL    HW131037   0.376   4.644   9.825  0.9292 -1.3492  0.5154
 6468SOL    HW231038   0.468   4.730   9.748 -1.3540  1.2027  0.1114
 6469SOL     OW31039   3.456   1.460   6.763 -0.5333 -0.1344 -0.0500
 6469SOL    HW131040   3.543   1.491   6.789 -0.8207 -2.2273  3.5342
 6469SOL    HW231041   3.444   1.516   6.687  1.0988  2.1960  1.4250
 6470SOL     OW31042   3.086   4.230   9.192  0.4901 -0.0526  0.9290
 6470SOL    HW131043   3.032   4.271   9.259 -0.9421 -0.5230  0.0667
 6470SOL    HW231044   3.177   4.246   9.218  1.0120 -0.0610 -0.8937
 6471SOL     OW31045   3.958   0.449   2.252  0.1475 -0.1044 -1.1624
 6471SOL    HW131046   3.978   0.519   2.314 -0.1592 -1.6566  0.6985
 6471SOL    HW231047   4.032   0.447   2.191  1.8263  1.9483  0.8089
 6472SOL     OW31048   4.247   3.759   7.993  0.2033  0.0238 -0.8156
 6472SOL    HW131049   4.225   3.817   8.065  0.2300 -2.3768  1.1206
 6472SOL    HW231050   4.171   3.702   7.977  0.6059 -0.4157 -1.1753
 6473SOL     OW31051   4.030   1.643   5.905 -0.1444 -0.0851 -0.3505
 6473SOL    HW131052   4.060   1.552   5.907 -0.9156 -0.3004  1.0788
 6473SOL    HW231053   4.087   1.691   5.845 -0.7964  0.1190 -0.8031
 6474SOL     OW31054   0.776   4.039  13.349 -0.0098  0.9108 -0.3395
 6474SOL    HW131055   0.793   4.085  13.431 -2.0857 -1.8744  1.6814
 6474SOL    HW231056   0.801   3.952  13.381  0.8151  0.6172 -1.8254
 6475SOL     OW31057   2.260   0.617  15.984 -0.4001 -0.3232 -0.6987
 6475SOL    HW131058   2.191   0.578  15.929  0.9662 -2.2359 -1.0711
 6475SOL    HW231059   2.307   0.540  16.016  0.5287  2.3184  4.2382
 6476SOL     OW31060   0.606   0.131   3.108 -0.2127 -0.1975  0.1259
 6476SOL    HW131061   0.525   0.112   3.155  0.4405  0.2948  1.4512
 6476SOL    HW231062   0.601   0.225   3.088 -0.9364  0.2764  2.5304
 6477SOL     OW31063   1.595   4.556  11.519 -0.1046  0.0621 -0.3283
 6477SOL    HW131064   1.573   4.509  11.438 -0.5622 -0.3453  0.0370
 6477SOL    HW231065   1.510   4.572  11.558  0.7717  4.2816 -0.1900
 6478SOL     OW31066   0.623   0.865   8.648 -0.5522 -0.1787 -0.0221
 6478SOL    HW131067   0.615   0.952   8.610 -0.8959  0.1750  0.8346
 6478SOL    HW231068   0.540   0.824   8.625 -1.6531  0.9971  1.7650
 6479SOL     OW31069   4.159   0.614   4.248 -0.1010  0.5281  0.0144
 6479SOL    HW131070   4.108   0.533   4.239  0.3159  0.2306  0.3233
 6479SOL    HW231071   4.196   0.606   4.336 -0.7093 -0.3351  0.1962
 6480SOL     OW31072   0.094   4.183   4.476  0.2560  0.4608 -0.3922
 6480SOL    HW131073   0.157   4.118   4.447 -1.0472 -0.9449 -0.0547
 6480SOL    HW231074   0.046   4.190   4.394 -1.1001 -2.3640  0.1951
 6481SOL     OW31075   2.383   0.493   0.648  0.5507  0.3828 -0.0983
 6481SOL    HW131076   2.347   0.438   0.718  0.4398 -0.0642 -0.5016
 6481SOL    HW231077   2.363   0.436   0.574 -2.0188 -0.4019  1.1874
 6482SOL     OW31078   1.655   2.441   6.938 -0.0541  0.3759 -0.7394
 6482SOL    HW131079   1.587   2.422   6.873 -1.4944 -1.2140  1.2472
 6482SOL    HW231080   1.611   2.409   7.016  2.5859 -0.0379  0.6018
 6483SOL     OW31081   2.011   0.347   9.563  0.2550  0.0246 -0.7229
 6483SOL    HW131082   1.996   0.253   9.558 -0.1115  0.0748 -0.5473
 6483SOL    HW231083   1.984   0.370   9.474 -0.4472  0.1889 -0.4660
 6484SOL     OW31084   3.643   4.635   8.893  0.0941 -0.4586 -0.4729
 6484SOL    HW131085   3.555   4.654   8.925  0.1890 -1.1403  0.1797
 6484SOL    HW231086   3.661   4.550   8.932  2.3327 -0.5944 -1.7734
 6485SOL     OW31087   2.386   2.190  10.276 -0.5889  0.2132 -0.0737
 6485SOL    HW131088   2.347   2.104  10.290  0.6659 -0.4652 -0.8221
 6485SOL    HW231089   2.310   2.244  10.301 -1.8995 -1.2059 -0.9609
 6486SOL     OW31090   1.718   1.828   7.936  0.2098  0.1524 -0.1639
 6486SOL    HW131091   1.802   1.795   7.965 -1.1951 -1.4239  2.1139
 6486SOL    HW231092   1.743   1.863   7.850 -0.0491 -0.7872 -0.6220
 6487SOL     OW31093   2.005   1.010   6.173 -0.5026  0.0693  0.4608
 6487SOL    HW131094   1.977   1.087   6.123 -0.2432  0.8589  1.5232
 6487SOL    HW231095   2.012   0.945   6.103 -2.7717  0.7282 -0.3438
 6488SOL     OW31096   0.037   3.069   3.371  0.6810  0.9029 -0.0237
 6488SOL    HW131097   4.719   3.053   3.445 -0.7370 -0.0812 -1.3652
 6488SOL    HW231098   0.047   3.164   3.371  1.4890  0.8170  1.2955
 6489SOL     OW31099   4.283   2.763   8.808  0.4302  0.2805  0.2036
 6489SOL    HW131100   4.308   2.684   8.856  1.7347  0.1749 -0.6597
 6489SOL    HW231101   4.248   2.724   8.728 -0.2283 -0.2042  0.7236
 6490SOL     OW31102   0.945   1.035   8.995 -0.1654  0.8545 -0.1735
 6490SOL    HW131103   0.907   1.024   9.082  0.6840  0.9627  0.2147
 6490SOL    HW231104   0.865   1.021   8.945  1.3578 -1.1602 -2.0431
 6491SOL     OW31105   1.064   1.493   1.328  0.3727  0.1586  0.8063
 6491SOL    HW131106   0.993   1.556   1.330 -0.4556 -0.7854  1.3737
 6491SOL    HW231107   1.039   1.421   1.387 -0.3590 -1.4941 -1.5304
 6492SOL     OW31108   4.662   2.056   3.977  0.2621  0.1523  0.2889
 6492SOL    HW131109   4.610   2.055   4.058 -0.9083  1.1423 -0.4452
 6492SOL    HW231110   4.648   1.969   3.941 -2.0576  0.3633  0.6868
 6493SOL     OW31111   1.902   3.591   5.975 -0.1082  0.0298  0.3033
 6493SOL    HW131112   1.902   3.655   6.046 -1.8592  0.7646 -0.3760
 6493SOL    HW231113   1.844   3.625   5.907  0.3560 -0.3183 -0.2605
 6494SOL     OW31114   2.343   1.716   0.264 -0.1166 -0.2857 -0.5501
 6494SOL    HW131115   2.289   1.658   0.317 -2.7552  1.4795 -1.2884
 6494SOL    HW231116   2.323   1.679   0.178  2.6094 -1.1519 -0.7897
 6495SOL     OW31117   2.919   4.252   5.992  0.1727 -0.4708  0.9062
 6495SOL    HW131118   2.840   4.198   5.986 -0.6788  0.7768  0.7328
 6495SOL    HW231119   2.970   4.212   6.062  1.1960  0.0313  0.4466
 6496SOL     OW31120   1.990   3.663   3.232  0.0007 -0.4757  0.8311
 6496SOL    HW131121   2.072   3.634   3.272  0.4175  0.2404  0.5101
 6496SOL    HW231122   1.933   3.589   3.253 -1.1559 -0.1918 -1.3340
 6497SOL     OW31123   0.163   3.815   5.873  0.3510 -0.2597 -0.7776
 6497SOL    HW131124   0.171   3.910   5.883  0.3728 -0.6690  3.2965
 6497SOL    HW231125   0.127   3.797   5.787 -1.6893  2.0367 -0.3842
 6498SOL     OW31126   2.679   1.174  11.080  0.6030 -0.7044  0.2048
 6498SOL    HW131127   2.723   1.222  11.010 -0.1683  0.3872  0.4717
 6498SOL    HW231128   2.604   1.146  11.027  0.1229 -0.9724  1.0335
 6499SOL     OW31129   1.222   4.638   8.370  0.0538 -0.4138 -0.0172
 6499SOL    HW131130   1.285   4.581   8.413 -1.3130  1.4264  4.4246
 6499SOL    HW231131   1.229   4.712   8.431  0.7424 -1.0128  0.6330
 6500SOL     OW31132   1.757   3.645  10.106 -0.4743  0.7303 -0.2094
 6500SOL    HW131133   1.692   3.583  10.140  0.3886  0.3361  0.7600
 6500SOL    HW231134   1.706   3.692  10.040 -3.0347  1.0583  1.9946
 6501SOL     OW31135   3.996   1.848   7.519 -0.1271  0.5882 -1.0846
 6501SOL    HW131136   3.920   1.807   7.479 -1.5303  1.1033  1.0553
 6501SOL    HW231137   3.972   1.940   7.508 -1.2149  0.0886 -2.8037
 6502SOL     OW31138   3.862   2.412   7.915  0.0591 -0.3146  0.1260
 6502SOL    HW131139   3.767   2.397   7.914 -0.0398  0.2728  0.8323
 6502SOL    HW231140   3.887   2.420   7.823  0.5459  1.4451  0.4323
 6503SOL     OW31141   1.317   2.152   6.958 -0.5097 -0.7151  0.0636
 6503SOL    HW131142   1.398   2.168   7.005  0.6888 -0.2690 -2.1462
 6503SOL    HW231143   1.338   2.166   6.865  2.8435 -2.6922  0.5382
 6504SOL     OW31144   4.671   1.151  11.857  0.0247  0.2293 -0.2852
 6504SOL    HW131145   0.023   1.172  11.851 -0.1829  1.3791  0.4686
 6504SOL    HW231146   4.636   1.232  11.820 -0.0022  0.4015  0.1123
 6505SOL     OW31147   2.859   0.056   3.795 -0.1718 -0.1404  0.3877
 6505SOL    HW131148   2.845   0.081   3.886 -0.5155  1.5799 -0.1540
 6505SOL    HW231149   2.892   0.140   3.763 -2.6149  1.1887  1.4070
 6506SOL     OW31150   0.649   1.760   1.511  0.3212  0.0187  0.1052
 6506SOL    HW131151   0.677   1.806   1.589  2.3713 -1.0183 -0.0199
 6506SOL    HW231152   0.582   1.709   1.556  1.1741 -0.3135  0.9757
 6507SOL     OW31153   2.151   4.664   4.891  0.0956  0.4533 -0.0876
 6507SOL    HW131154   2.096   4.723   4.839  0.4487 -0.0746 -1.0698
 6507SOL    HW231155   2.208   4.726   4.936  0.1424  1.1017 -1.0387
 6508SOL     OW31156   3.067   3.901   3.929 -0.2039  0.4183  0.2028
 6508SOL    HW131157   3.114   3.976   3.892  1.5797 -1.0465 -0.5109
 6508SOL    HW231158   3.031   3.933   4.012  2.7834  0.2843  1.5629
 6509SOL     OW31159   0.726   4.070  13.632  0.3593  0.1021  0.1964
 6509SOL    HW131160   0.687   4.144  13.678  1.2071  1.6128 -1.5379
 6509SOL    HW231161   0.654   4.006  13.633  2.1870 -2.0519 -4.3464
 6510SOL     OW31162   3.949   3.540  11.697  0.1214  0.2138  0.5130
 6510SOL    HW131163   3.979   3.582  11.777  1.5895  0.0979  0.0185
 6510SOL    HW231164   3.902   3.610  11.652 -2.1208 -1.8222 -0.3298
 6511SOL     OW31165   1.975   3.888   3.090 -0.2040  0.3140  0.7703
 6511SOL    HW131166   2.004   3.812   3.141 -2.6580 -0.5563  0.8673
 6511SOL    HW231167   1.882   3.868   3.080 -0.4031  1.1695  0.8603
 6512SOL     OW31168   0.796   1.164  16.965  0.2561 -0.0085 -0.3812
 6512SOL    HW131169   0.830   1.083  17.003  0.2851  0.2726  0.1912
 6512SOL    HW231170   0.770   1.135  16.878  0.1310  0.1064 -0.3814
 6513SOL     OW31171   4.603   1.340  10.706  0.4728  0.6644 -0.2657
 6513SOL    HW131172   4.673   1.385  10.658  0.7255 -0.7990 -1.2772
 6513SOL    HW231173   4.614   1.247  10.685 -1.5216  0.3704  0.0141
 6514SOL     OW31174   0.050   2.047  13.869 -0.3326  0.0279 -0.2778
 6514SOL    HW131175   0.117   1.979  13.872  0.1612  0.5257 -0.1322
 6514SOL    HW231176   4.711   1.998  13.848 -0.8676  0.7267  0.1600
 6515SOL     OW31177   2.276   3.012   9.825  0.2519  0.9415 -0.6047
 6515SOL    HW131178   2.338   3.046   9.890  0.3989 -1.2076  0.3797
 6515SOL    HW231179   2.272   2.922   9.859  0.9803  0.2666 -2.3296
 6516SOL     OW31180   2.416   3.661  13.515 -0.1548  0.4232 -0.0563
 6516SOL    HW131181   2.494   3.636  13.465 -1.2056 -2.0718 -0.4476
 6516SOL    HW231182   2.383   3.739  13.471 -1.3537  0.6635  1.2454
 6517SOL     OW31183   0.988   0.227  17.692 -0.1881  0.0700  0.1362
 6517SOL    HW131184   1.046   0.167  17.645 -0.1297 -0.1984  0.5502
 6517SOL    HW231185   1.056   0.286  17.726 -0.6160  0.3760  0.4633
 6518SOL     OW31186   0.694   1.514  12.315 -0.3172  0.6645  0.0147
 6518SOL    HW131187   0.691   1.449  12.386  1.0490 -1.5917 -1.9733
 6518SOL    HW231188   0.787   1.529  12.303 -0.3776  1.5050  0.6074
 6519SOL     OW31189   1.717   0.563   5.158  0.4449 -0.0624  0.2661
 6519SOL    HW131190   1.668   0.627   5.107 -0.3378  1.0459  2.4321
 6519SOL    HW231191   1.663   0.543   5.234 -0.2268 -0.4487 -0.3149
 6520SOL     OW31192   3.673   4.126   7.403  0.4391 -0.0946 -0.0468
 6520SOL    HW131193   3.762   4.109   7.375  1.0471  0.8122  1.3271
 6520SOL    HW231194   3.654   4.061   7.471  0.6374  0.8577  0.9214
 6521SOL     OW31195   2.579   2.939   2.644  0.7369 -0.5706 -0.0137
 6521SOL    HW131196   2.524   2.987   2.581 -0.8428  0.3015  1.9847
 6521SOL    HW231197   2.575   3.001   2.717  2.8010  0.4788 -0.8085
 6522SOL     OW31198   1.820   0.531   5.893 -0.0200  0.4440  0.2727
 6522SOL    HW131199   1.786   0.537   5.982 -1.2076 -0.1375 -0.1406
 6522SOL    HW231200   1.766   0.465   5.850 -0.6398  0.0129  1.7248
 6523SOL     OW31201   0.315   1.927   7.926 -0.0003 -0.6647 -0.3100
 6523SOL    HW131202   0.326   2.000   7.986  1.5764 -2.4107  1.4997
 6523SOL    HW231203   0.263   1.864   7.976 -0.6629  0.6678  0.6707
 6524SOL     OW31204   2.861   4.706   9.818  0.5229  0.2774 -0.2039
 6524SOL    HW131205   2.784   4.671   9.863 -0.3428  0.7589 -1.3307
 6524SOL    HW231206   2.885   4.628   9.768  2.6577  0.1921  0.9514
 6525SOL     OW31207   3.310   1.531  12.191  0.2644  0.4229  0.1863
 6525SOL    HW131208   3.402   1.553  12.204  0.6266 -1.1864  0.3449
 6525SOL    HW231209   3.330   1.441  12.167  1.3261  0.7401 -0.1082
 6526SOL     OW31210   0.271   0.664   3.578 -0.3366  0.8936 -0.0210
 6526SOL    HW131211   0.222   0.610   3.517 -2.6842  1.9065  0.9514
 6526SOL    HW231212   0.356   0.619   3.572  0.0883  1.8007 -0.8637
 6527SOL     OW31213   4.670   3.105  15.032  0.2420  0.4938 -0.4674
 6527SOL    HW131214   4.693   3.050  15.107 -1.1290  0.2543 -0.2169
 6527SOL    HW231215   4.626   3.179  15.073 -1.2549  0.2326 -1.6044
 6528SOL     OW31216   0.559   0.540   1.188 -0.6337  0.1268  0.3071
 6528SOL    HW131217   0.519   0.456   1.166  0.8166 -0.8359  1.3191
 6528SOL    HW231218   0.537   0.592   1.111  1.7492  0.0617 -0.4355
 6529SOL     OW31219   4.359   2.069   6.328  0.0854  0.0908 -0.7441
 6529SOL    HW131220   4.439   2.017   6.336 -0.5355 -0.9283 -1.0455
 6529SOL    HW231221   4.331   2.076   6.419 -2.6964 -0.8623 -1.5324
 6530SOL     OW31222   3.365   0.634   7.118  0.1107  0.1949 -0.0100
 6530SOL    HW131223   3.455   0.657   7.142 -0.0566  0.9736 -0.1578
 6530SOL    HW231224   3.382   0.566   7.052 -2.0872 -0.5262  0.1668
 6531SOL     OW31225   4.212   0.496   8.960 -1.6621 -0.0367  0.0636
 6531SOL    HW131226   4.300   0.509   8.994 -2.1367 -0.7002  1.5288
 6531SOL    HW231227   4.185   0.582   8.929  0.7270  0.4675 -0.6224
 6532SOL     OW31228   3.316   1.153   7.900  0.3714 -0.2822  0.5624
 6532SOL    HW131229   3.368   1.097   7.842 -0.6846  0.1056 -0.7633
 6532SOL    HW231230   3.226   1.129   7.880 -0.5506  2.5899  1.2521
 6533SOL     OW31231   1.057   3.696   7.967 -0.3173 -0.1339 -0.8109
 6533SOL    HW131232   1.143   3.666   7.997 -0.3810  0.5138  0.0089
 6533SOL    HW231233   1.081   3.776   7.921 -0.1719 -0.7384 -1.7905
 6534SOL     OW31234   0.582   3.025   1.155  0.0013  0.0159 -0.5502
 6534SOL    HW131235   0.641   3.007   1.229  1.0063  0.8877 -1.1385
 6534SOL    HW231236   0.499   3.024   1.202  0.1139  1.7767 -0.3059
 6535SOL     OW31237   4.710   3.429   2.431 -0.1548 -0.0332  0.1537
 6535SOL    HW131238   4.654   3.377   2.489  0.0646  0.1484  0.5335
 6535SOL    HW231239   4.659   3.444   2.352  0.8632  0.5297 -0.3974
 6536SOL     OW31240   0.102   2.097   9.168 -0.3002 -0.0604  0.3511
 6536SOL    HW131241   0.050   2.108   9.088  0.3584 -1.9014 -0.3405
 6536SOL    HW231242   0.049   2.156   9.221  1.8644  2.1254  0.0881
 6537SOL     OW31243   1.711   0.417  10.449 -0.7504  0.3491 -0.8597
 6537SOL    HW131244   1.681   0.335  10.486  1.6963  0.5814  1.6277
 6537SOL    HW231245   1.625   0.455  10.429 -1.0261  0.1693  0.0115
 6538SOL     OW31246   0.430   0.991   2.076 -1.0743  0.4196  0.2538
 6538SOL    HW131247   0.498   0.942   2.122 -2.2112  0.4456  1.9807
 6538SOL    HW231248   0.490   1.035   2.016 -1.1129 -1.3411 -1.0708
 6539SOL     OW31249   2.214   4.486   8.146 -0.0770  0.3907  0.4515
 6539SOL    HW131250   2.123   4.507   8.125  0.3139  2.4557  0.8527
 6539SOL    HW231251   2.218   4.468   8.240 -1.6379  1.5742  0.7525
 6540SOL     OW31252   1.121   4.350   6.710 -0.3794 -0.0755 -0.4870
 6540SOL    HW131253   1.186   4.327   6.643  0.3326 -3.3693  1.3235
 6540SOL    HW231254   1.039   4.321   6.670 -1.2276 -0.3671  1.4580
 6541SOL     OW31255   0.741   3.623  10.440  0.3125 -0.5127  0.4581
 6541SOL    HW131256   0.646   3.640  10.436  0.3567 -0.6364 -0.8746
 6541SOL    HW231257   0.769   3.686  10.374  0.3693 -2.0194 -0.9454
 6542SOL     OW31258   1.403   1.356   7.804  0.0207 -0.2487  0.3181
 6542SOL    HW131259   1.397   1.434   7.859  0.7476 -0.5827  0.8759
 6542SOL    HW231260   1.493   1.369   7.773 -0.7004  0.1165 -1.6268
 6543SOL     OW31261   2.909   2.234   9.246 -0.1922 -0.2911 -0.4068
 6543SOL    HW131262   2.852   2.226   9.323 -0.1162 -2.7291 -0.5924
 6543SOL    HW231263   2.851   2.197   9.179  0.6893 -1.7547 -0.3766
 6544SOL     OW31264   3.523   4.612   7.285  0.3414 -0.8825  0.4009
 6544SOL    HW131265   3.504   4.524   7.253  1.6075 -0.4115 -1.7258
 6544SOL    HW231266   3.589   4.590   7.351  0.5663 -1.6138 -0.0618
 6545SOL     OW31267   0.867   3.852   1.048 -0.1506  0.3582  0.2702
 6545SOL    HW131268   0.902   3.927   1.098  0.2489  0.3348  0.0230
 6545SOL    HW231269   0.926   3.789   1.090 -0.6152 -0.7373 -0.7580
 6546SOL     OW31270   2.384   4.501   5.389  0.3974  0.0176 -0.4996
 6546SOL    HW131271   2.352   4.481   5.477  0.3146  0.3483 -0.4554
 6546SOL    HW231272   2.439   4.423   5.381 -1.1824 -1.0718 -0.7834
 6547SOL     OW31273   3.226   3.364   4.220 -0.3316 -0.1548 -0.0076
 6547SOL    HW131274   3.255   3.277   4.247  0.5683  0.1879  0.1259
 6547SOL    HW231275   3.228   3.403   4.307 -0.2520 -0.5804  0.1769
 6548SOL     OW31276   0.711   3.236   6.106 -0.8291  0.6031  0.4040
 6548SOL    HW131277   0.668   3.313   6.069  0.6082  0.5033 -1.5199
 6548SOL    HW231278   0.799   3.270   6.090  0.0750 -1.5820  0.8096
 6549SOL     OW31279   1.107   3.049   3.983 -0.1040 -0.2593 -0.2821
 6549SOL    HW131280   1.193   3.085   3.961  0.0976  0.2774  1.4643
 6549SOL    HW231281   1.105   3.070   4.076 -0.8294 -0.3468 -0.2809
 6550SOL     OW31282   0.024   0.019   6.190 -0.0844 -0.2350  0.3955
 6550SOL    HW131283   4.674   0.019   6.222 -0.6353  1.1210 -1.1520
 6550SOL    HW231284   0.032   4.664   6.190 -1.2398 -0.3402 -1.6101
 6551SOL     OW31285   3.325   2.556  15.463  0.6812  0.0610 -0.3970
 6551SOL    HW131286   3.399   2.550  15.402  1.5261  0.9402  0.5490
 6551SOL    HW231287   3.378   2.586  15.537 -0.9681  1.0342  0.3983
 6552SOL     OW31288   2.579   2.840   3.724  0.2429  0.2313 -0.5349
 6552SOL    HW131289   2.570   2.856   3.818  0.4039 -1.0841 -0.3050
 6552SOL    HW231290   2.524   2.762   3.718 -1.1531  1.1311  0.5857
 6553SOL     OW31291   4.359   2.106   8.695  0.5618 -0.1760  0.0528
 6553SOL    HW131292   4.315   2.055   8.627  0.2139 -0.6749  0.6483
 6553SOL    HW231293   4.337   2.055   8.773  1.2468 -1.1509 -0.3960
 6554SOL     OW31294   4.573   2.027   7.222  0.1452  0.0754 -0.6811
 6554SOL    HW131295   4.619   2.098   7.267 -1.5821  1.0512 -0.4250
 6554SOL    HW231296   4.493   2.031   7.275  0.9565 -1.1856  0.6252
 6555SOL     OW31297   2.040   3.134   1.638  0.5273 -0.5763  0.1246
 6555SOL    HW131298   1.970   3.182   1.594  2.2776  0.8435 -1.0958
 6555SOL    HW231299   1.992   3.120   1.720 -1.2519  0.2383 -0.7800
 6556SOL     OW31300   1.135   0.642  16.867 -0.2558 -0.1853  0.2929
 6556SOL    HW131301   1.208   0.689  16.828 -0.4359  0.7413  1.0655
 6556SOL    HW231302   1.075   0.716  16.878 -0.1069 -0.2009  1.2083
 6557SOL     OW31303   1.968   0.156   4.528  0.0961 -0.1426  0.0435
 6557SOL    HW131304   2.012   0.145   4.444  1.6712  1.1223  0.6983
 6557SOL    HW231305   2.042   0.142   4.587  0.5689 -0.3521 -0.6011
 6558SOL     OW31306   3.667   0.431  14.883 -0.4666  0.3620 -0.3046
 6558SOL    HW131307   3.583   0.423  14.838 -0.7706 -1.9365  0.6855
 6558SOL    HW231308   3.713   0.502  14.838 -0.7917  0.8191  0.0716
 6559SOL     OW31309   0.147   4.722  11.096 -0.7633  0.7571  0.2271
 6559SOL    HW131310   0.212   4.706  11.028  0.2473 -1.7430  1.7586
 6559SOL    HW231311   0.203   4.701  11.171  1.1342 -1.0146 -1.7018
 6560SOL     OW31312   0.993   4.040  17.327  0.3351 -0.0580  0.1724
 6560SOL    HW131313   1.002   4.065  17.235  0.2650  0.8443  0.4108
 6560SOL    HW231314   0.938   4.110  17.362 -0.3742 -0.1263 -0.8024
 6561SOL     OW31315   1.072   0.154   2.940 -0.2181  0.2460 -0.1164
 6561SOL    HW131316   0.985   0.151   2.901  0.4209  2.0511 -1.6732
 6561SOL    HW231317   1.085   0.247   2.956  1.2385 -0.3214  2.0078
 6562SOL     OW31318   1.484   0.421  14.500 -0.2309 -0.4855  0.0471
 6562SOL    HW131319   1.515   0.467  14.578 -1.3891  1.9022 -0.8939
 6562SOL    HW231320   1.446   0.337  14.528  0.0338 -0.7401 -0.3518
 6563SOL     OW31321   0.978   3.666  16.777 -0.3130  0.2716 -0.1236
 6563SOL    HW131322   0.990   3.630  16.689  2.1978  1.7902 -0.4077
 6563SOL    HW231323   1.004   3.590  16.829 -1.6534 -0.2237 -0.1794
 6564SOL     OW31324   1.824   0.846  11.153 -0.6873  0.2754 -0.3734
 6564SOL    HW131325   1.869   0.798  11.083 -2.0558  0.4490 -1.3638
 6564SOL    HW231326   1.897   0.875  11.208 -0.3753 -1.4278  0.1346
 6565SOL     OW31327   1.624   3.703  16.502  0.2289 -0.1498 -0.2795
 6565SOL    HW131328   1.627   3.661  16.588 -1.1252  1.2851  0.4836
 6565SOL    HW231329   1.713   3.692  16.469  1.0807  1.1456  1.5437
 6566SOL     OW31330   1.717   4.168   2.560 -0.3528  0.1858  0.4404
 6566SOL    HW131331   1.755   4.235   2.617  1.6834 -0.2493 -0.4089
 6566SOL    HW231332   1.722   4.217   2.477  0.1954  3.0688  2.1557
 6567SOL     OW31333   0.534   1.634  11.294  0.1193  0.2743  0.2363
 6567SOL    HW131334   0.574   1.655  11.379  1.4414  1.0649 -0.5783
 6567SOL    HW231335   0.444   1.665  11.302  0.2225  0.1288  1.9950
 6568SOL     OW31336   4.330   4.098   9.122 -0.4197 -0.4346  0.7487
 6568SOL    HW131337   4.420   4.129   9.135 -0.7114  0.7437 -0.0277
 6568SOL    HW231338   4.312   4.051   9.203 -0.3846 -1.4582  0.1706
 6569SOL     OW31339   3.344   0.584   8.872 -0.0149 -0.7673 -0.0973
 6569SOL    HW131340   3.396   0.614   8.947 -1.4695  0.1806  0.5401
 6569SOL    HW231341   3.324   0.669   8.832 -1.2646 -0.6379  0.7762
 6570SOL     OW31342   4.123   4.382   2.103  0.4133  0.6480  0.9027
 6570SOL    HW131343   4.218   4.395   2.092  0.0503  4.2486  2.1428
 6570SOL    HW231344   4.092   4.429   2.026  1.0179 -0.3384  0.0483
 6571SOL     OW31345   2.835   4.408   3.581 -0.1944 -0.1041 -0.2873
 6571SOL    HW131346   2.798   4.437   3.665 -2.2724 -1.0523 -0.8845
 6571SOL    HW231347   2.850   4.494   3.541 -1.3593 -0.3529 -1.2436
 6572SOL     OW31348   1.966   0.752   5.374  0.3876  0.2068 -0.1431
 6572SOL    HW131349   2.039   0.691   5.372  1.1591  1.1193  0.1056
 6572SOL    HW231350   2.013   0.827   5.410  1.1622 -0.5676  0.4574
 6573SOL     OW31351   1.369   3.252   4.205 -0.0869  0.1962 -1.2605
 6573SOL    HW131352   1.298   3.223   4.261 -0.1957  0.5582 -1.2109
 6573SOL    HW231353   1.442   3.240   4.266 -0.7804  2.4550  0.0192
 6574SOL     OW31354   3.780   2.620   9.378  0.1310  0.4744 -0.0796
 6574SOL    HW131355   3.870   2.619   9.346  0.4158  1.9233  0.6578
 6574SOL    HW231356   3.792   2.663   9.463  1.7733 -2.0285  0.9394
 6575SOL     OW31357   0.956   0.139   0.203  0.1228  0.0623  0.1265
 6575SOL    HW131358   0.865   0.158   0.226 -0.3608 -0.8786 -0.9602
 6575SOL    HW231359   0.965   0.182   0.118  1.5820 -2.4205 -0.9992
 6576SOL     OW31360   2.751   1.840  10.499 -0.1463  0.2321 -0.5437
 6576SOL    HW131361   2.843   1.822  10.518  0.0760  3.1537  1.2549
 6576SOL    HW231362   2.763   1.841  10.404  1.5987 -0.3265 -0.3235
 6577SOL     OW31363   4.538   3.238   8.792 -0.3548 -0.5102  0.2658
 6577SOL    HW131364   4.463   3.219   8.849  0.7680 -1.3844  1.4382
 6577SOL    HW231365   4.553   3.150   8.759 -0.5313 -0.3097 -0.3498
 6578SOL     OW31366   2.820   0.152  16.129 -0.6514 -0.4299  0.3881
 6578SOL    HW131367   2.833   0.184  16.219 -1.6425  0.5004  0.1862
 6578SOL    HW231368   2.824   0.234  16.081 -2.4493 -0.0583  0.8691
 6579SOL     OW31369   0.020   1.479   5.451 -0.0797  0.9056 -0.7343
 6579SOL    HW131370   0.000   1.493   5.544  2.1839 -0.0159 -0.1188
 6579SOL    HW231371   0.084   1.408   5.449 -1.5508 -0.3871 -2.4436
 6580SOL     OW31372   1.068   2.159   1.447  0.0231 -0.3130 -0.0598
 6580SOL    HW131373   1.133   2.228   1.432  0.7161 -1.3709 -1.8096
 6580SOL    HW231374   1.013   2.205   1.511 -0.0028  0.6894 -0.7936
 6581SOL     OW31375   1.747   2.711   8.751  0.1158 -0.2429 -0.2396
 6581SOL    HW131376   1.752   2.768   8.827 -1.8976  0.7423 -0.8454
 6581SOL    HW231377   1.693   2.757   8.687  0.1307 -0.0542 -0.1149
 6582SOL     OW31378   0.385   1.943   4.103 -0.5292 -0.2649 -0.3744
 6582SOL    HW131379   0.398   1.900   4.019  0.1622  2.5166 -1.6995
 6582SOL    HW231380   0.326   2.011   4.072 -1.2975 -1.0643 -0.6711
 6583SOL     OW31381   0.023   4.615   3.915 -0.2493  0.0445  0.6629
 6583SOL    HW131382   0.096   4.656   3.869 -0.9347  0.2509 -0.2476
 6583SOL    HW231383   4.695   4.677   3.894  1.4423  1.1818 -1.6081
 6584SOL     OW31384   3.641   1.617   2.178 -0.1592 -0.1687 -0.1570
 6584SOL    HW131385   3.615   1.706   2.200 -3.1595 -1.3562  1.1819
 6584SOL    HW231386   3.651   1.628   2.083 -1.9247 -1.7579 -0.5459
 6585SOL     OW31387   4.423   4.064   4.482 -0.2719 -0.3171 -0.1621
 6585SOL    HW131388   4.410   4.004   4.408  2.3685 -1.1590  0.0756
 6585SOL    HW231389   4.472   4.018   4.550 -0.6987  0.2901  0.5675
 6586SOL     OW31390   3.673   0.049   3.183 -0.1450 -0.1453  0.0295
 6586SOL    HW131391   3.761   0.060   3.146 -1.3334  3.0221 -1.8960
 6586SOL    HW231392   3.668   0.117   3.250 -0.1048 -0.4892  0.3787
 6587SOL     OW31393   3.719   0.557   7.545 -0.1089 -0.4058  0.0546
 6587SOL    HW131394   3.732   0.651   7.552 -1.3775 -0.1850 -0.5180
 6587SOL    HW231395   3.808   0.524   7.554  0.0241  0.4037  1.7420
 6588SOL     OW31396   0.913   1.082   6.620  0.0433  0.3433 -0.2521
 6588SOL    HW131397   0.900   1.163   6.571 -0.2655  0.3092 -0.2252
 6588SOL    HW231398   0.869   1.100   6.704  0.0948  3.7748 -0.9617
 6589SOL     OW31399   4.173   3.011   7.619 -0.1540 -0.6999  0.1142
 6589SOL    HW131400   4.243   3.051   7.567  1.6223 -1.8182  1.6677
 6589SOL    HW231401   4.140   3.089   7.663 -2.4349 -1.4112 -0.2957
 6590SOL     OW31402   2.468   3.865  14.672 -0.1964 -0.0517 -0.5517
 6590SOL    HW131403   2.465   3.863  14.576 -0.0773 -2.0049 -0.5258
 6590SOL    HW231404   2.487   3.957  14.688  1.2862 -0.3525 -0.5744
 6591SOL     OW31405   2.686   3.421   2.100  0.6718  0.5864  0.2251
 6591SOL    HW131406   2.600   3.382   2.111  1.1019  0.2471  2.2871
 6591SOL    HW231407   2.659   3.503   2.058  1.1661  0.0356 -1.1758
 6592SOL     OW31408   0.836   2.582  17.132  0.4368  0.1298 -0.3272
 6592SOL    HW131409   0.845   2.645  17.204  0.2947  1.0953 -1.1583
 6592SOL    HW231410   0.852   2.649  17.066  0.9698 -0.1301 -0.4607
 6593SOL     OW31411   0.059   3.374   3.887  0.4690 -0.3926  0.2007
 6593SOL    HW131412   0.107   3.413   3.960  0.8062  0.2186 -0.3476
 6593SOL    HW231413   4.714   3.409   3.908 -0.3052 -1.8116 -0.6015
 6594SOL     OW31414   2.896   3.491  17.399 -0.2240 -0.4531  0.0709
 6594SOL    HW131415   2.909   3.421  17.463 -1.4843 -1.6679 -1.0080
 6594SOL    HW231416   2.949   3.562  17.437 -1.4293  0.4874 -0.0061
 6595SOL     OW31417   2.804   3.976   9.517 -0.6780 -0.2408 -0.1209
 6595SOL    HW131418   2.715   3.999   9.489 -0.2303  0.7296 -0.7595
 6595SOL    HW231419   2.788   3.933   9.601  1.1920 -1.0172 -0.1676
 6596SOL     OW31420   1.247   4.425   1.656 -0.1050 -0.1368  0.2232
 6596SOL    HW131421   1.213   4.336   1.652  0.3851 -0.3683  1.4354
 6596SOL    HW231422   1.295   4.432   1.574 -0.5525 -0.4814 -0.0698
 6597SOL     OW31423   1.314   4.409   0.238  0.0433 -0.1158 -0.3551
 6597SOL    HW131424   1.405   4.418   0.268 -0.9444  2.9359  1.7292
 6597SOL    HW231425   1.335   4.377   0.150  1.1384 -1.0935  0.2517
 6598SOL     OW31426   0.180   3.779   4.344 -0.5673  0.1251  0.1740
 6598SOL    HW131427   0.254   3.836   4.365  0.4428 -0.5209 -1.5902
 6598SOL    HW231428   0.164   3.802   4.252 -1.2223 -1.8382 -0.2102
 6599SOL     OW31429   1.589   3.628   3.200  0.0109  0.5398 -0.0910
 6599SOL    HW131430   1.556   3.643   3.289 -0.1116  1.0354 -0.2166
 6599SOL    HW231431   1.551   3.545   3.173 -0.0583 -0.2499  2.4777
 6600SOL     OW31432   3.609   1.615  17.051 -0.0654 -0.3732 -0.1257
 6600SOL    HW131433   3.699   1.637  17.074 -0.7275  1.4487  0.7386
 6600SOL    HW231434   3.560   1.683  17.098  0.7890 -0.5003  0.9416
 6601SOL     OW31435   3.454   0.774  16.723 -0.0409  0.5232 -0.4399
 6601SOL    HW131436   3.380   0.807  16.672 -0.3647 -0.2543 -0.4793
 6601SOL    HW231437   3.493   0.858  16.744 -0.6009  0.9177 -0.9720
 6602SOL     OW31438   1.189   0.961   6.028 -0.1189  0.4582  0.3160
 6602SOL    HW131439   1.193   0.947   6.122  1.4267 -1.1266  0.0185
 6602SOL    HW231440   1.114   1.019   6.020  0.0417  0.5277 -0.6703
 6603SOL     OW31441   3.707   0.626  15.859  0.0750  0.3831 -0.6210
 6603SOL    HW131442   3.659   0.543  15.863  1.4988 -0.4872 -1.6659
 6603SOL    HW231443   3.760   0.607  15.936 -0.5661  0.4012 -0.1706
 6604SOL     OW31444   0.300   3.280   4.724  0.0791  0.0844 -0.2589
 6604SOL    HW131445   0.371   3.216   4.722 -1.0790 -1.1923 -1.3549
 6604SOL    HW231446   0.239   3.231   4.668  0.3906 -2.1201  1.3256
 6605SOL     OW31447   0.655   1.790   4.132  0.2240  0.4024  0.5084
 6605SOL    HW131448   0.697   1.723   4.079 -0.4835  1.1562 -1.0001
 6605SOL    HW231449   0.588   1.809   4.066  1.7740  4.1237 -0.0090
 6606SOL     OW31450   4.536   0.588   5.862  0.3627  0.3808  0.0988
 6606SOL    HW131451   4.542   0.610   5.769  1.3537  0.7352  0.2425
 6606SOL    HW231452   4.567   0.498   5.867 -1.6750 -0.2783  0.8219
 6607SOL     OW31453   4.705   4.541   7.128  0.3493  0.0504 -0.4908
 6607SOL    HW131454   4.671   4.519   7.215  2.1606  0.2143  0.2695
 6607SOL    HW231455   4.625   4.556   7.078  1.3103 -0.5223 -2.1820
 6608SOL     OW31456   2.441   3.906   1.224 -0.0401  0.1932 -0.1455
 6608SOL    HW131457   2.431   3.981   1.165 -1.7632  1.6537  2.0270
 6608SOL    HW231458   2.514   3.857   1.186  2.2538  1.2989  2.8165
 6609SOL     OW31459   2.502   3.718   4.097  0.1746 -0.1742 -0.5199
 6609SOL    HW131460   2.447   3.774   4.152  1.7233  0.6667  0.1570
 6609SOL    HW231461   2.519   3.772   4.020 -1.1291  1.3213  0.2537
 6610SOL     OW31462   2.216   3.497   1.366 -0.4466  0.3113  0.5808
 6610SOL    HW131463   2.137   3.541   1.395 -0.4830  1.7828 -1.8380
 6610SOL    HW231464   2.257   3.571   1.323  1.4039  1.4383  4.2076
 6611SOL     OW31465   0.645   0.191   9.446  0.1128  0.6080 -0.4402
 6611SOL    HW131466   0.580   0.137   9.490  0.8945  1.1487  1.4020
 6611SOL    HW231467   0.613   0.277   9.474 -0.6922  0.3174 -0.4840
 6612SOL     OW31468   1.984   0.167   5.035 -0.5276  0.3467 -0.0790
 6612SOL    HW131469   1.928   0.229   5.081 -1.0890 -1.0761  1.1512
 6612SOL    HW231470   2.051   0.156   5.103 -0.1074 -2.4512 -0.9562
 6613SOL     OW31471   3.090   3.192  14.873 -0.0010  0.1402  0.3941
 6613SOL    HW131472   3.027   3.150  14.814  0.8454 -1.8532  0.9241
 6613SOL    HW231473   3.091   3.282  14.840  0.8226 -0.2587 -0.6605
 6614SOL     OW31474   1.519   2.775   7.095 -0.3260 -0.3572 -0.0975
 6614SOL    HW131475   1.429   2.753   7.069 -0.3594  0.9313 -1.0494
 6614SOL    HW231476   1.565   2.775   7.011 -0.1441  0.3268  0.0066
 6615SOL     OW31477   2.302   2.342   2.801  0.6635  0.5808  0.6456
 6615SOL    HW131478   2.270   2.303   2.882 -3.9573 -0.7492 -1.7554
 6615SOL    HW231479   2.388   2.368   2.833  1.2517  0.4327 -0.8270
 6616SOL     OW31480   2.971   3.359   2.947 -0.1256 -0.1820  0.4109
 6616SOL    HW131481   2.983   3.281   2.893  1.6568 -0.6795  1.5069
 6616SOL    HW231482   2.955   3.422   2.877  0.4640  1.3780  1.6768
 6617SOL     OW31483   0.657   3.087  17.046  0.5143  0.2450  0.7095
 6617SOL    HW131484   0.608   3.012  17.080 -1.1855  1.5256  1.1044
 6617SOL    HW231485   0.627   3.085  16.955  0.9452  0.5689  0.5608
 6618SOL     OW31486   3.303   1.621   8.643 -0.0972 -0.0131  0.1805
 6618SOL    HW131487   3.305   1.716   8.651 -1.2875  0.1263 -1.2379
 6618SOL    HW231488   3.386   1.593   8.683  0.0240 -0.5801 -0.4738
 6619SOL     OW31489   2.706   0.530   1.225  0.0552 -0.6909  0.6700
 6619SOL    HW131490   2.627   0.477   1.212 -0.0641 -1.0462  2.8212
 6619SOL    HW231491   2.768   0.467   1.264  0.4078  0.3613  1.8079
 6620SOL     OW31492   3.305   4.100  16.663 -0.1311  0.5196 -0.3099
 6620SOL    HW131493   3.269   4.178  16.620  0.1261  1.1946  0.6855
 6620SOL    HW231494   3.372   4.141  16.718 -2.3004  2.0207  1.2422
 6621SOL     OW31495   1.282   3.856   7.870  0.0057  0.6052  0.0852
 6621SOL    HW131496   1.332   3.852   7.951  0.0870 -1.9008 -0.0980
 6621SOL    HW231497   1.357   3.839   7.812 -1.2797 -0.3742 -1.2881
 6622SOL     OW31498   2.279   4.421  16.399  0.0504  0.2003 -0.0135
 6622SOL    HW131499   2.235   4.457  16.476 -1.2410 -1.0913 -0.1277
 6622SOL    HW231500   2.203   4.400  16.344 -1.8353  0.9555  2.3302
 6623SOL     OW31501   2.993   2.472   5.811  0.1959 -0.4529 -0.4446
 6623SOL    HW131502   2.987   2.561   5.847 -0.7104 -1.2202  1.3062
 6623SOL    HW231503   3.051   2.480   5.736 -0.0050 -0.2812 -0.5828
 6624SOL     OW31504   1.077   0.807  11.873  0.4554  0.4651  0.0605
 6624SOL    HW131505   1.086   0.892  11.915  0.1815  1.8856 -2.7942
 6624SOL    HW231506   1.168   0.778  11.870  0.2801 -0.0352 -0.4623
 6625SOL     OW31507   3.909   0.894  16.798  0.0745  0.9934 -0.0563
 6625SOL    HW131508   3.990   0.846  16.777 -0.7967 -0.9046  0.8789
 6625SOL    HW231509   3.893   0.950  16.722 -1.3226 -0.5070 -0.8690
 6626SOL     OW31510   3.933   4.162  15.137  0.7740 -0.6384  0.5755
 6626SOL    HW131511   3.917   4.194  15.048 -1.2556 -0.4558  1.0098
 6626SOL    HW231512   3.911   4.242  15.185 -0.9100 -0.2507 -0.8516
 6627SOL     OW31513   4.550   3.207   6.231 -0.2035  0.5407 -0.5484
 6627SOL    HW131514   4.467   3.172   6.200 -1.1119  1.9807  0.2371
 6627SOL    HW231515   4.521   3.261   6.305 -2.1415  2.0521 -2.4221
 6628SOL     OW31516   4.579   2.425   2.852  0.0958  0.2602  0.1089
 6628SOL    HW131517   4.650   2.373   2.814  0.5513  1.3878 -0.6143
 6628SOL    HW231518   4.562   2.486   2.779 -1.1778  0.5264  0.6431
 6629SOL     OW31519   2.560   1.274   2.643  0.1710  0.1181  0.4055
 6629SOL    HW131520   2.465   1.277   2.636 -0.1930 -3.9674  3.5046
 6629SOL    HW231521   2.568   1.208   2.712  2.7404  0.6226  0.6018
 6630SOL     OW31522   4.232   2.357   4.996 -0.6028 -0.6360  0.3445
 6630SOL    HW131523   4.173   2.332   5.067 -1.2282  0.2056  0.1246
 6630SOL    HW231524   4.199   2.302   4.925  0.2914  0.1753 -0.7131
 6631SOL     OW31525   3.616   3.451  12.925  0.2370  0.2587 -0.0560
 6631SOL    HW131526   3.594   3.456  12.832 -0.5270  1.1405  0.1711
 6631SOL    HW231527   3.573   3.366  12.940 -0.8539  0.7088 -0.6799
 6632SOL     OW31528   1.107   1.874   9.251 -0.0959 -0.6741  0.0932
 6632SOL    HW131529   1.013   1.864   9.264  0.0458  0.8477  2.3726
 6632SOL    HW231530   1.134   1.873   9.343  0.9994 -1.6946 -0.2379
 6633SOL     OW31531   4.114   4.504   7.383  0.1326 -0.3755 -0.1247
 6633SOL    HW131532   4.133   4.464   7.468  0.1399 -1.6315 -0.7237
 6633SOL    HW231533   4.202   4.525   7.352 -0.2326 -1.8971 -2.1789
 6634SOL     OW31534   3.130   2.892   2.918 -0.1204  0.3160 -0.4946
 6634SOL    HW131535   3.043   2.868   2.886  0.0827 -1.1380  0.0289
 6634SOL    HW231536   3.189   2.838   2.865 -0.6380 -1.3312  0.6164
 6635SOL     OW31537   3.202   3.470  10.488  0.7419  0.4019  0.3877
 6635SOL    HW131538   3.271   3.498  10.549 -0.2588  1.9387  0.8225
 6635SOL    HW231539   3.199   3.375  10.499 -2.6933  0.1189 -2.9446
 6636SOL     OW31540   3.917   3.285  16.723 -0.0462 -0.5143  0.1492
 6636SOL    HW131541   3.929   3.327  16.808 -1.7849  0.9914 -0.3475
 6636SOL    HW231542   3.823   3.300  16.719  0.2657  1.1628 -0.9966
 6637SOL     OW31543   3.838   2.206   1.739 -0.3670  0.8180 -0.2796
 6637SOL    HW131544   3.855   2.123   1.782 -0.4816  0.6187 -0.6140
 6637SOL    HW231545   3.785   2.245   1.808  0.3607  2.0097 -0.3772
 6638SOL     OW31546   4.113   2.091  16.484  0.1337  0.0655  0.0667
 6638SOL    HW131547   4.107   2.022  16.417  4.2331 -1.2577  1.1062
 6638SOL    HW231548   4.131   2.160  16.420 -0.2672 -2.6043 -2.9555
 6639SOL     OW31549   2.678   1.787   6.531 -0.1855 -0.2912 -0.2871
 6639SOL    HW131550   2.658   1.879   6.512  2.3333  0.6730  1.6417
 6639SOL    HW231551   2.619   1.735   6.477  0.2401 -0.9694 -0.1011
 6640SOL     OW31552   4.444   0.526   3.819  0.2412  0.0752  0.5604
 6640SOL    HW131553   4.436   0.570   3.734 -0.3806 -1.4440 -0.1701
 6640SOL    HW231554   4.498   0.452   3.793  1.9241  1.6274 -0.4157
 6641SOL     OW31555   1.852   2.184   5.328 -0.6480 -0.3337 -0.0303
 6641SOL    HW131556   1.812   2.266   5.297  1.2046  0.4205 -0.3954
 6641SOL    HW231557   1.909   2.173   5.252 -0.8201  1.0797 -0.3754
 6642SOL     OW31558   2.370   1.323   6.172  0.5064 -0.1467  0.5676
 6642SOL    HW131559   2.344   1.259   6.107  1.5636 -1.3858  1.3678
 6642SOL    HW231560   2.373   1.403   6.119  0.3051  0.3047  1.2370
 6643SOL     OW31561   3.989   3.328   4.462  0.2978  0.4483  0.0412
 6643SOL    HW131562   4.056   3.301   4.525 -2.4851 -1.6609  2.0494
 6643SOL    HW231563   4.040   3.379   4.398 -0.4483 -0.6139 -1.3809
 6644SOL     OW31564   2.460   0.425  14.100  0.3502  0.4232  0.1197
 6644SOL    HW131565   2.411   0.420  14.018  2.2507  1.2288 -1.0386
 6644SOL    HW231566   2.425   0.351  14.151 -1.4082 -0.0409 -1.7550
 6645SOL     OW31567   2.265   3.956   1.425 -0.5845 -0.6534  0.2751
 6645SOL    HW131568   2.294   4.044   1.451  1.2104 -1.1821  0.0863
 6645SOL    HW231569   2.322   3.943   1.350  2.1601  2.0512  1.8857
 6646SOL     OW31570   2.927   0.322   2.606  0.1716  0.3287  0.2536
 6646SOL    HW131571   2.954   0.255   2.669  1.5389 -0.9259 -1.6976
 6646SOL    HW231572   2.833   0.340   2.614 -0.2838 -1.9733  0.0140
 6647SOL     OW31573   3.668   0.153   2.659 -0.1724 -0.0697 -0.2921
 6647SOL    HW131574   3.583   0.136   2.620 -0.0617  0.0028 -0.5635
 6647SOL    HW231575   3.682   0.065   2.696 -2.3386  0.6099  2.1167
 6648SOL     OW31576   0.265   2.194   4.059  0.0169 -0.4517 -0.1477
 6648SOL    HW131577   0.325   2.263   4.089 -0.9334  0.5988 -0.6819
 6648SOL    HW231578   0.213   2.175   4.137  3.0757 -0.6030  1.8796
 6649SOL     OW31579   4.233   0.913   1.579 -0.0851  0.1584  0.8807
 6649SOL    HW131580   4.147   0.953   1.595 -0.7682 -0.9171 -0.1712
 6649SOL    HW231581   4.205   0.830   1.540  1.7192  1.1682 -2.5538
 6650SOL     OW31582   2.944   4.485   6.857  0.0306 -0.0672 -0.3582
 6650SOL    HW131583   2.987   4.539   6.924 -1.2853  0.4273  0.0871
 6650SOL    HW231584   2.860   4.531   6.859 -0.3826 -0.7563 -2.2374
 6651SOL     OW31585   2.658   3.148   6.275  0.1230 -0.5062  0.2567
 6651SOL    HW131586   2.646   3.053   6.280  0.1061 -0.5654 -0.7327
 6651SOL    HW231587   2.570   3.185   6.285  0.9966  1.2985  1.1360
 6652SOL     OW31588   2.880   4.115   7.598 -0.3987 -0.4394 -0.3133
 6652SOL    HW131589   2.877   4.041   7.659  0.8346  0.2415  0.5567
 6652SOL    HW231590   2.872   4.190   7.656  2.4959  0.5328 -1.1561
 6653SOL     OW31591   2.649   0.569   3.035  0.4569  0.5982 -0.7322
 6653SOL    HW131592   2.635   0.594   2.943 -0.6441 -0.6040 -0.8978
 6653SOL    HW231593   2.558   0.564   3.065  0.8648 -0.2956  0.3503
 6654SOL     OW31594   3.335   1.759   8.118 -0.1565  0.1682 -0.3739
 6654SOL    HW131595   3.378   1.822   8.175  0.7934 -1.4678  0.7353
 6654SOL    HW231596   3.325   1.685   8.179  0.9010  1.1688  1.0140
 6655SOL     OW31597   2.901   4.343  11.453  0.3803 -0.4804  0.0175
 6655SOL    HW131598   2.962   4.297  11.510 -2.0496 -0.8201  2.2817
 6655SOL    HW231599   2.882   4.424  11.500 -0.0109 -1.2079  1.0914
 6656SOL     OW31600   4.031   0.993  15.233  0.4756 -0.1196 -0.0459
 6656SOL    HW131601   4.009   0.939  15.309  1.0434 -1.4627 -0.8429
 6656SOL    HW231602   3.954   0.968  15.182 -0.9674  1.7665  1.1982
 6657SOL     OW31603   2.928   0.346   3.736 -0.7633  0.2124  0.1563
 6657SOL    HW131604   2.907   0.411   3.803  0.1615  0.2894  0.3762
 6657SOL    HW231605   2.918   0.402   3.659  0.5095 -0.3542 -0.4138
 6658SOL     OW31606   2.258   1.939   8.591  0.4365  0.0470  0.1148
 6658SOL    HW131607   2.297   1.965   8.508  1.6764 -0.2019  0.6202
 6658SOL    HW231608   2.232   1.847   8.581 -0.0833  0.0453  1.3554
 6659SOL     OW31609   4.679   2.144   2.955 -0.0111  0.3748  0.1106
 6659SOL    HW131610   4.724   2.061   2.973 -1.2967 -0.1752  0.7558
 6659SOL    HW231611   4.732   2.174   2.881  0.2698  0.3361  0.2954
 6660SOL     OW31612   1.731   1.896   1.278  0.5966 -0.0789  0.4872
 6660SOL    HW131613   1.746   1.925   1.368  0.4465  0.3401  0.3754
 6660SOL    HW231614   1.803   1.928   1.224 -0.3056  0.3783 -0.4276
 6661SOL     OW31615   2.812   1.209   1.938  0.4348 -0.5887 -0.0727
 6661SOL    HW131616   2.764   1.144   1.886 -2.1163 -0.3733  1.9934
 6661SOL    HW231617   2.846   1.265   1.869  1.5169 -2.3966 -1.0092
 6662SOL     OW31618   2.330   0.301  11.657  0.5851 -0.1750  0.3065
 6662SOL    HW131619   2.371   0.382  11.625 -0.8336  0.3487 -0.1914
 6662SOL    HW231620   2.247   0.332  11.694 -1.5160 -1.4829 -3.3104
 6663SOL     OW31621   0.921   0.215   6.942 -0.5347  0.1880 -0.2839
 6663SOL    HW131622   0.851   0.190   7.002  0.2038 -2.6756 -0.6064
 6663SOL    HW231623   0.994   0.227   7.003 -2.0410 -0.6435  1.6591
 6664SOL     OW31624   0.534   1.571   6.156  0.0041 -0.2323  0.0865
 6664SOL    HW131625   0.501   1.634   6.093  0.4390  0.1790  0.2701
 6664SOL    HW231626   0.617   1.551   6.112  0.7996  1.4399  0.8347
 6665SOL     OW31627   2.826   4.740  16.504  0.4242  0.7769  0.1683
 6665SOL    HW131628   2.853   4.677  16.571 -0.7853  0.0433 -0.0369
 6665SOL    HW231629   2.874   4.723  16.423 -0.2901 -1.2001  0.1424
 6666SOL     OW31630   1.285   1.451   7.510  0.6662 -0.4340 -0.0150
 6666SOL    HW131631   1.231   1.516   7.556  1.9074  0.4403  0.2126
 6666SOL    HW231632   1.250   1.373   7.552  0.5056 -0.9096 -1.0290
 6667SOL     OW31633   1.640   4.019   2.790  0.7353  0.0551 -0.0548
 6667SOL    HW131634   1.625   4.077   2.865  0.3419  0.7065 -0.6308
 6667SOL    HW231635   1.662   4.068   2.711 -3.9599 -1.3829 -2.2260
 6668SOL     OW31636   1.914   1.456   7.784 -0.2534 -0.5680  0.5756
 6668SOL    HW131637   1.962   1.387   7.738 -0.2623 -1.1398  1.4287
 6668SOL    HW231638   1.978   1.526   7.794  0.5005 -1.2250  0.3402
 6669SOL     OW31639   0.891   1.131   4.973  0.1972 -0.0446 -0.1630
 6669SOL    HW131640   0.831   1.061   4.947 -1.4663  1.1193  0.5640
 6669SOL    HW231641   0.958   1.087   5.026 -1.4308 -2.3030 -0.0090
 6670SOL     OW31642   1.539   2.354   1.805  0.3884  0.3250  0.7038
 6670SOL    HW131643   1.535   2.340   1.711  2.6924 -1.4373  0.8511
 6670SOL    HW231644   1.478   2.425   1.823  0.5787  1.0286 -1.4252
 6671SOL     OW31645   3.660   1.851   9.149 -0.9843  0.2030 -0.9659
 6671SOL    HW131646   3.714   1.918   9.191  0.0815  0.1086 -2.1778
 6671SOL    HW231647   3.583   1.866   9.204  0.2935  1.0300  0.5846
 6672SOL     OW31648   2.250   0.175  13.493  0.1263  0.0871  0.7610
 6672SOL    HW131649   2.295   0.092  13.480  1.1932  0.4254  2.2664
 6672SOL    HW231650   2.159   0.156  13.471  0.3161 -0.6209  0.6094
 6673SOL     OW31651   3.196   3.503   7.630  0.0041  0.4599  0.0376
 6673SOL    HW131652   3.125   3.535   7.574  0.5643  0.3261 -0.7498
 6673SOL    HW231653   3.164   3.531   7.715  0.5057  1.3496 -0.0590
 6674SOL     OW31654   3.788   4.224   5.199 -0.6014  0.0585 -0.8230
 6674SOL    HW131655   3.830   4.275   5.268 -0.8145  1.0964 -1.4648
 6674SOL    HW231656   3.767   4.293   5.137 -0.4300  0.9853  0.1441
 6675SOL     OW31657   2.320   1.807  12.414 -0.2047  0.1568  0.2668
 6675SOL    HW131658   2.277   1.872  12.358 -0.5025 -0.8658 -0.6971
 6675SOL    HW231659   2.385   1.856  12.464  0.7357 -0.3469 -0.4566
 6676SOL     OW31660   0.459   3.064   6.404 -0.2369  0.0897 -0.1195
 6676SOL    HW131661   0.545   3.093   6.431 -0.9006 -1.0176  3.1176
 6676SOL    HW231662   0.408   3.054   6.484  2.8926  1.2142  1.9746
 6677SOL     OW31663   0.511   4.723   5.724  0.1139  0.1137 -0.1021
 6677SOL    HW131664   0.514   4.631   5.751 -0.0609  0.6825  1.8622
 6677SOL    HW231665   0.417   4.733   5.711  0.1996  0.9036 -0.1103
 6678SOL     OW31666   3.360   1.812   5.083  0.0219 -0.1859  0.5831
 6678SOL    HW131667   3.448   1.773   5.090  0.3445  0.4851  0.2338
 6678SOL    HW231668   3.335   1.793   4.992 -0.1448 -1.7090  0.9337
 6679SOL     OW31669   2.905   3.288  11.091  0.8836 -0.6685 -0.6367
 6679SOL    HW131670   2.884   3.312  11.001 -0.0456  1.3289  0.1283
 6679SOL    HW231671   2.969   3.348  11.129 -1.2559  1.5810 -0.5625
 6680SOL     OW31672   0.887   3.527   7.801  0.2432 -0.2175 -0.1770
 6680SOL    HW131673   0.928   3.599   7.849 -0.5076 -0.7155  1.2183
 6680SOL    HW231674   0.817   3.577   7.759  0.1148  1.0908  1.5980
 6681SOL     OW31675   4.409   3.738  12.647  0.3840  0.0955 -0.6633
 6681SOL    HW131676   4.496   3.758  12.613 -0.5209 -0.2261 -3.1828
 6681SOL    HW231677   4.397   3.649  12.615  1.5431 -0.9148  1.7386
 6682SOL     OW31678   2.119   1.313   9.726  0.3217  0.2043 -0.5653
 6682SOL    HW131679   2.091   1.221   9.732  0.8875 -0.0064 -1.1912
 6682SOL    HW231680   2.204   1.306   9.768 -1.1008  0.3761  2.3719
 6683SOL     OW31681   4.019   4.136   5.061  0.0421 -0.5499  0.1062
 6683SOL    HW131682   4.055   4.219   5.033 -2.4700  0.7823  0.8043
 6683SOL    HW231683   3.985   4.168   5.145 -0.7118 -0.3482 -0.2783
 6684SOL     OW31684   1.468   0.565   3.873 -0.3658 -0.6363  0.5269
 6684SOL    HW131685   1.396   0.617   3.839  1.8583  0.1435 -2.9373
 6684SOL    HW231686   1.518   0.624   3.930 -0.5627 -0.0317  0.0664
 6685SOL     OW31687   2.662   3.067   2.291 -0.0847 -0.3081  0.2800
 6685SOL    HW131688   2.697   2.997   2.346  2.9878  0.7322 -0.3554
 6685SOL    HW231689   2.631   3.131   2.356 -1.7129  0.7915 -1.5818
 6686SOL     OW31690   2.913   4.527   9.391  0.2747  0.2240 -0.1434
 6686SOL    HW131691   2.968   4.605   9.391 -1.9272  1.8063  2.1315
 6686SOL    HW231692   2.895   4.511   9.484  0.7076 -1.4260 -0.3429
 6687SOL     OW31693   1.421   3.452   5.488 -0.1954 -0.2020 -0.7518
 6687SOL    HW131694   1.380   3.448   5.574  3.5937 -0.4721  1.0022
 6687SOL    HW231695   1.347   3.432   5.430 -0.8227 -0.1909  0.0427
 6688SOL     OW31696   2.932   1.096  12.709  0.2770 -0.1285 -0.2550
 6688SOL    HW131697   2.918   1.169  12.649  1.4677  0.2225 -0.1195
 6688SOL    HW231698   2.933   1.143  12.793 -0.0771 -0.4025 -0.1001
 6689SOL     OW31699   0.155   0.450   4.010 -1.3016  0.5679  0.6003
 6689SOL    HW131700   0.179   0.359   3.992 -0.3488  1.4049 -2.3721
 6689SOL    HW231701   0.156   0.458   4.105  2.1591  1.2964  0.5190
 6690SOL     OW31702   3.787   0.564   1.189  0.1672 -0.1341  0.3578
 6690SOL    HW131703   3.799   0.470   1.175  1.0958  0.2913 -1.7600
 6690SOL    HW231704   3.707   0.575   1.139 -0.2734 -1.9790  0.6584
 6691SOL     OW31705   4.039   0.944   3.214 -0.4533  0.3721  0.1490
 6691SOL    HW131706   3.959   0.969   3.260 -0.4484  1.6534 -0.5382
 6691SOL    HW231707   4.078   0.877   3.270 -1.0334 -0.1349 -0.0695
 6692SOL     OW31708   3.411   0.069   6.838 -0.4075 -0.3290 -0.4631
 6692SOL    HW131709   3.489   0.105   6.794  0.2210  0.3312  1.1698
 6692SOL    HW231710   3.446   4.729   6.875 -0.8527 -0.3028  0.0214
 6693SOL     OW31711   2.402   1.203   7.401  0.0256 -0.1149  0.3765
 6693SOL    HW131712   2.325   1.150   7.379  1.0709 -1.2542 -0.5148
 6693SOL    HW231713   2.442   1.212   7.314 -1.8270 -3.2857 -0.8082
 6694SOL     OW31714   0.825   2.118   3.346 -0.4329  0.1562 -0.4208
 6694SOL    HW131715   0.865   2.035   3.371  0.7504 -0.1191 -3.1956
 6694SOL    HW231716   0.861   2.125   3.257  0.5645 -0.9820 -0.1079
 6695SOL     OW31717   4.290   1.666   5.125 -0.2007  0.7162 -0.2356
 6695SOL    HW131718   4.356   1.600   5.145 -0.6438  0.7643  1.4154
 6695SOL    HW231719   4.334   1.743   5.161  0.5395  0.2122 -0.0649
 6696SOL     OW31720   0.790   3.352   9.656 -0.0377  0.2432  0.0641
 6696SOL    HW131721   0.766   3.334   9.747  0.1551  1.6605  0.3982
 6696SOL    HW231722   0.864   3.293   9.641  0.3556  0.5670  0.7695
 6697SOL     OW31723   3.998   2.898   0.199 -0.7011 -0.2782  0.5728
 6697SOL    HW131724   3.958   2.860   0.121 -0.1459  0.9401 -0.3153
 6697SOL    HW231725   4.053   2.962   0.153 -1.3677  1.0425  1.6061
 6698SOL     OW31726   1.861   3.717   9.401  0.3262  0.1696 -0.2289
 6698SOL    HW131727   1.768   3.698   9.391 -0.1179  1.7700  0.9111
 6698SOL    HW231728   1.883   3.624   9.398  3.2280  0.8364  0.5006
 6699SOL     OW31729   3.605   1.057   2.031 -0.2483 -0.3215  0.1503
 6699SOL    HW131730   3.688   1.012   2.046 -0.0489 -0.0974 -0.2914
 6699SOL    HW231731   3.618   1.139   2.078 -0.4028 -0.7693  0.9786
 6700SOL     OW31732   4.005   4.075   7.887  0.2384 -0.3327 -0.0490
 6700SOL    HW131733   3.963   4.160   7.873 -0.9158 -0.8004  0.5072
 6700SOL    HW231734   3.969   4.046   7.971 -1.1531 -0.7891 -0.7985
 6701SOL     OW31735   3.584   3.373   5.758 -0.0463  0.0595  0.3246
 6701SOL    HW131736   3.650   3.439   5.735 -0.5371  1.1826  2.1668
 6701SOL    HW231737   3.508   3.427   5.739  0.4916  1.2922  1.6209
 6702SOL     OW31738   3.777   2.661   4.590 -0.2456 -0.0492 -0.1358
 6702SOL    HW131739   3.840   2.716   4.544 -0.5204 -0.3764 -0.8950
 6702SOL    HW231740   3.803   2.574   4.559 -1.6752  0.6147 -3.1985
 6703SOL     OW31741   3.848   3.328  13.891 -0.2853  0.1766 -0.1409
 6703SOL    HW131742   3.880   3.414  13.919 -0.6519 -0.1744  1.3990
 6703SOL    HW231743   3.870   3.276  13.969  4.6296  1.4109 -0.7100
 6704SOL     OW31744   0.007   2.310  13.253  0.5536  0.8635  0.4900
 6704SOL    HW131745   0.010   2.385  13.194  3.3309  3.0208  3.3810
 6704SOL    HW231746   4.690   2.248  13.209  0.9659  0.4504  0.5255
 6705SOL     OW31747   0.688   1.732   6.488  0.4024 -0.0976 -0.5802
 6705SOL    HW131748   0.595   1.711   6.478  0.3878 -0.8919  1.3056
 6705SOL    HW231749   0.724   1.652   6.524  0.1338  1.1506  2.4327
 6706SOL     OW31750   0.414   1.320   8.360  0.1357 -0.1337  0.1337
 6706SOL    HW131751   0.351   1.256   8.327  1.6654 -2.4351  1.7012
 6706SOL    HW231752   0.445   1.359   8.279 -0.0501 -0.7255 -0.2200
 6707SOL     OW31753   1.761   2.594  16.236 -0.9810  0.1451  0.4704
 6707SOL    HW131754   1.763   2.684  16.269  0.5565  0.5474 -0.6537
 6707SOL    HW231755   1.685   2.595  16.179  0.3444  0.5946 -1.3138
 6708SOL     OW31756   0.887   2.423   9.137 -0.8702  0.2753  0.2452
 6708SOL    HW131757   0.947   2.424   9.211 -2.4617 -2.4724  1.5208
 6708SOL    HW231758   0.817   2.486   9.157 -0.7268  0.4008  0.3471
 6709SOL     OW31759   4.550   4.737  12.705 -0.0425 -0.0674 -0.3067
 6709SOL    HW131760   4.479   0.048  12.668 -0.3699  1.1619  2.0096
 6709SOL    HW231761   4.599   4.726  12.623 -0.8086  2.0244 -1.0580
 6710SOL     OW31762   2.641   2.333   5.958  0.0488  0.6805  0.9296
 6710SOL    HW131763   2.597   2.359   6.040  0.8873  0.4876  1.4450
 6710SOL    HW231764   2.586   2.259   5.935 -0.0480  1.1328 -0.2817
 6711SOL     OW31765   3.345   0.337   7.901 -0.9216  0.1554 -0.3684
 6711SOL    HW131766   3.253   0.328   7.928 -0.7384 -3.9490 -1.1339
 6711SOL    HW231767   3.389   0.292   7.973 -2.1016 -1.3324 -0.5649
 6712SOL     OW31768   1.156   0.583   5.030 -0.0213  0.4985 -0.1384
 6712SOL    HW131769   1.161   0.577   4.934  0.8909  1.8640 -0.1914
 6712SOL    HW231770   1.245   0.554   5.051  0.6670  3.0409  0.4290
 6713SOL     OW31771   2.503   0.695  13.551 -0.3307 -0.1559 -0.7432
 6713SOL    HW131772   2.418   0.682  13.511 -0.8617  0.3423  0.2151
 6713SOL    HW231773   2.567   0.673  13.483  0.2854  1.3952 -0.6632
 6714SOL     OW31774   3.428   3.072   4.007  0.4560  0.9627  0.2626
 6714SOL    HW131775   3.403   3.082   4.099  3.1518  2.6305  0.8261
 6714SOL    HW231776   3.422   3.161   3.974 -1.0158  0.6233 -0.3654
 6715SOL     OW31777   3.430   0.299   8.417  0.0716  0.3717 -0.2200
 6715SOL    HW131778   3.371   0.354   8.469 -1.4263 -1.7890  0.3534
 6715SOL    HW231779   3.489   0.268   8.485  0.8483  0.0953 -1.0179
 6716SOL     OW31780   4.738   3.889   8.395 -0.0541  0.4348 -0.0927
 6716SOL    HW131781   0.089   3.875   8.370  0.3441  1.0850  1.0464
 6716SOL    HW231782   4.691   3.877   8.312 -0.7554  0.9260  0.2441
 6717SOL     OW31783   0.121   2.122   8.020 -0.2839 -0.6678  0.2388
 6717SOL    HW131784   0.040   2.106   8.068 -0.2420  2.1374  1.2435
 6717SOL    HW231785   0.084   2.137   7.932  1.1769  1.5085  0.0045
 6718SOL     OW31786   0.255   0.153   7.580  0.1528 -0.2414  0.0698
 6718SOL    HW131787   0.288   0.229   7.532 -1.8123 -0.2182 -1.2590
 6718SOL    HW231788   0.341   0.125   7.611  0.8096  1.7992  0.1241
 6719SOL     OW31789   4.586   0.895   1.857  0.5860  0.1011 -0.1125
 6719SOL    HW131790   4.553   0.979   1.889  3.2034  2.4566 -3.5702
 6719SOL    HW231791   4.507   0.841   1.865  0.3180  1.1368  4.0084
 6720SOL     OW31792   0.312   2.271   3.347 -0.3025 -0.4717 -0.1178
 6720SOL    HW131793   0.293   2.289   3.254  0.8295  0.7623 -0.1110
 6720SOL    HW231794   0.404   2.245   3.339  0.1069 -0.4092  4.6988
 6721SOL     OW31795   1.177   2.405  16.939  0.6755 -0.3412 -0.5976
 6721SOL    HW131796   1.120   2.430  16.866  2.3386  1.2561 -1.3442
 6721SOL    HW231797   1.264   2.411  16.900  0.0980  1.7525 -1.5568
 6722SOL     OW31798   4.525   3.599   6.020 -0.0336 -0.1184 -0.0612
 6722SOL    HW131799   4.560   3.580   6.107 -1.3783  1.2541  0.7813
 6722SOL    HW231800   4.438   3.562   6.036  0.1748 -0.0134  1.3015
 6723SOL     OW31801   3.036   4.741   1.432  0.5889  0.3162  0.1131
 6723SOL    HW131802   3.011   4.649   1.442 -2.4627  1.1898  0.4110
 6723SOL    HW231803   3.056   0.025   1.522  1.5879  2.2734 -0.6627
 6724SOL     OW31804   3.320   3.128   3.344 -0.4291 -0.1836 -0.7508
 6724SOL    HW131805   3.264   3.066   3.298 -1.6289  1.9557 -2.1538
 6724SOL    HW231806   3.396   3.070   3.352  0.3995  1.4617  3.6992
 6725SOL     OW31807   0.643   3.268   2.165 -0.0735 -0.2654 -0.2124
 6725SOL    HW131808   0.684   3.196   2.213 -1.3623 -0.8008  0.0658
 6725SOL    HW231809   0.689   3.249   2.084  1.0687 -1.0773  0.6263
 6726SOL     OW31810   4.328   2.652  16.569 -0.0409  0.6272  0.2785
 6726SOL    HW131811   4.316   2.580  16.631  1.9694 -1.1194 -1.3342
 6726SOL    HW231812   4.335   2.726  16.629  2.2026 -0.6354  1.5573
 6727SOL     OW31813   4.663   2.664   0.640  0.2793 -0.2555  0.5662
 6727SOL    HW131814   4.655   2.635   0.731 -0.8324 -2.0436 -0.1040
 6727SOL    HW231815   4.696   2.753   0.652  2.4897 -0.8488 -1.0929
 6728SOL     OW31816   0.464   1.181  10.708 -0.3338  0.5760 -0.0676
 6728SOL    HW131817   0.386   1.149  10.663 -0.6333  1.4805 -0.1844
 6728SOL    HW231818   0.489   1.256  10.654 -1.0236  0.1989 -0.9133
 6729SOL     OW31819   1.550   4.474   4.742  0.3689 -0.0969  0.2264
 6729SOL    HW131820   1.474   4.483   4.684 -1.5154  0.8246  2.8884
 6729SOL    HW231821   1.582   4.384   4.734  1.3085  0.3008 -0.5424
 6730SOL     OW31822   2.649   1.552   7.194 -0.3394 -0.2143  0.6643
 6730SOL    HW131823   2.560   1.517   7.201 -1.1972  1.7933 -0.0676
 6730SOL    HW231824   2.639   1.605   7.115 -2.4180  0.6305  1.4891
 6731SOL     OW31825   2.000   1.876  16.364 -0.2537  0.8922 -0.0025
 6731SOL    HW131826   1.918   1.852  16.321  2.1811 -2.0613 -3.0420
 6731SOL    HW231827   2.057   1.878  16.287 -2.0946 -3.0544 -1.4469
 6732SOL     OW31828   1.702   1.368   5.916  0.9383  0.1213  0.1965
 6732SOL    HW131829   1.796   1.353   5.930  0.1940 -3.0172  1.8949
 6732SOL    HW231830   1.676   1.276   5.910  0.4675  0.0662  2.8840
 6733SOL     OW31831   1.460   3.834   3.379  0.3489 -0.3223 -0.1809
 6733SOL    HW131832   1.494   3.851   3.291 -0.6941  0.9917 -0.3384
 6733SOL    HW231833   1.489   3.917   3.415 -2.4212  0.3064  0.6576
 6734SOL     OW31834   3.368   1.088   5.605  0.0801 -0.0792 -0.1448
 6734SOL    HW131835   3.301   1.025   5.578 -0.2123 -0.3909  1.3059
 6734SOL    HW231836   3.440   1.036   5.570 -0.6908 -0.4190 -1.2128
 6735SOL     OW31837   0.147   2.257  12.021  0.9299 -0.1886  0.8190
 6735SOL    HW131838   0.196   2.214  11.951 -0.3225  1.2360 -0.9258
 6735SOL    HW231839   0.092   2.184  12.047 -3.0780  2.9871  1.1554
 6736SOL     OW31840   1.445   0.728   0.487  0.2969 -0.3752 -0.4957
 6736SOL    HW131841   1.515   0.766   0.540 -0.3951  0.6792 -0.3303
 6736SOL    HW231842   1.376   0.788   0.516  0.1272 -0.3549 -0.9414
 6737SOL     OW31843   3.950   2.037   4.037 -1.2435 -0.0108  0.0203
 6737SOL    HW131844   4.009   1.963   4.020 -0.5980  0.3080  0.8749
 6737SOL    HW231845   3.931   2.035   4.131 -0.2101 -0.3756  0.2208
 6738SOL     OW31846   2.688   0.602   4.441  0.2926 -0.1863  0.2488
 6738SOL    HW131847   2.765   0.549   4.462 -1.6807 -2.6481  1.2831
 6738SOL    HW231848   2.677   0.583   4.348  1.5644 -0.1812  0.0959
 6739SOL     OW31849   3.574   1.555   6.435 -0.3774  0.1609  0.0959
 6739SOL    HW131850   3.562   1.630   6.377  0.0376 -1.5036 -2.1786
 6739SOL    HW231851   3.545   1.598   6.515  0.5603  0.8724  0.0611
 6740SOL     OW31852   2.867   1.459   8.597 -0.1033  0.2658  0.4163
 6740SOL    HW131853   2.906   1.432   8.681 -1.7962 -1.6592  0.5882
 6740SOL    HW231854   2.935   1.514   8.558  0.5638 -0.9625 -0.1578
 6741SOL     OW31855   3.526   1.067   7.520  0.2093  0.1819  0.5432
 6741SOL    HW131856   3.476   1.148   7.529 -0.4749 -0.0888 -0.8659
 6741SOL    HW231857   3.463   1.010   7.476  0.7547  0.6975 -0.8997
 6742SOL     OW31858   0.625   2.345   8.758 -0.3973  0.1530  0.0592
 6742SOL    HW131859   0.702   2.366   8.810  0.4523 -2.1885 -0.2562
 6742SOL    HW231860   0.567   2.317   8.829 -0.5053  0.4965  0.1053
 6743SOL     OW31861   1.205   4.384   5.844 -0.6614 -0.3397 -0.3532
 6743SOL    HW131862   1.250   4.441   5.907 -0.6584  0.4412 -1.0827
 6743SOL    HW231863   1.149   4.442   5.795 -0.5271  1.2247  1.3412
 6744SOL     OW31864   2.457   0.571  16.920  0.4972 -0.2122  0.0567
 6744SOL    HW131865   2.378   0.598  16.966  0.0355 -0.5584 -0.5298
 6744SOL    HW231866   2.436   0.600  16.831  0.8096 -0.0629  0.0290
 6745SOL     OW31867   1.961   1.357   8.377 -0.2956 -0.3557  0.1393
 6745SOL    HW131868   1.941   1.273   8.334 -0.2931 -0.9568  1.3194
 6745SOL    HW231869   1.921   1.337   8.462 -1.4159 -0.3426 -0.3829
 6746SOL     OW31870   1.261   1.036   2.359  0.1824 -0.4448 -0.9742
 6746SOL    HW131871   1.293   1.020   2.270  4.8517 -0.3475  0.6843
 6746SOL    HW231872   1.311   1.114   2.383 -0.8419 -0.0372 -0.1888
 6747SOL     OW31873   4.197   0.578   2.778  0.1468  0.3784 -0.7572
 6747SOL    HW131874   4.243   0.573   2.694 -0.1913  4.2143 -1.1683
 6747SOL    HW231875   4.213   0.486   2.802  1.2806  0.6015 -0.6847
 6748SOL     OW31876   3.824   1.310   2.661 -0.5086 -0.5538 -0.1289
 6748SOL    HW131877   3.879   1.301   2.739 -0.4237  1.0331 -0.0023
 6748SOL    HW231878   3.885   1.328   2.590 -0.0002 -1.0572  0.1749
 6749SOL     OW31879   4.408   2.623   9.176 -0.0482 -0.2538  0.0431
 6749SOL    HW131880   4.358   2.658   9.102 -0.2884  0.1284  0.3862
 6749SOL    HW231881   4.488   2.611   9.125  0.4171 -1.4624  1.0723
 6750SOL     OW31882   3.174   3.235   2.171 -0.1614 -0.2035 -0.2745
 6750SOL    HW131883   3.185   3.219   2.077 -0.3889  0.8644 -0.4940
 6750SOL    HW231884   3.112   3.308   2.168  1.4994  1.2453  0.5093
 6751SOL     OW31885   0.239   2.561  12.570 -0.4873  0.0501 -0.3577
 6751SOL    HW131886   0.144   2.554  12.557 -0.3814 -1.1849 -0.5000
 6751SOL    HW231887   0.255   2.639  12.518 -3.1291 -0.4590 -1.9448
 6752SOL     OW31888   3.855   1.985   7.884 -0.3517 -0.0143 -0.0152
 6752SOL    HW131889   3.779   1.943   7.843  1.1267 -0.6419 -2.1391
 6752SOL    HW231890   3.923   1.920   7.864  0.2920  0.7232 -0.2154
 6753SOL     OW31891   1.616   4.619  16.698  0.1754  0.3512  0.2157
 6753SOL    HW131892   1.562   4.688  16.738  1.9740  1.0358  1.4428
 6753SOL    HW231893   1.559   4.594  16.625 -0.7091  3.3119 -0.1179
 6754SOL     OW31894   0.346   1.957   8.659  0.3461  0.2750  0.0718
 6754SOL    HW131895   0.384   2.043   8.640  0.4961  0.1306 -0.2779
 6754SOL    HW231896   0.330   1.930   8.568 -0.4626 -3.1537  1.2351
 6755SOL     OW31897   2.330   2.452   4.417  0.0404  0.4030 -0.4774
 6755SOL    HW131898   2.288   2.390   4.475 -1.0584  0.6546 -1.0157
 6755SOL    HW231899   2.386   2.490   4.485  1.2012  1.0091 -1.7719
 6756SOL     OW31900   0.261   2.375   9.287 -0.3618  0.2154  0.2491
 6756SOL    HW131901   0.202   2.447   9.263  0.0873  1.1061  1.7822
 6756SOL    HW231902   0.201   2.300   9.289  1.0410 -0.9627 -1.8062
 6757SOL     OW31903   4.367   4.300   2.833  0.2487  0.2802 -0.3997
 6757SOL    HW131904   4.404   4.290   2.921  1.1345 -0.1003 -0.8272
 6757SOL    HW231905   4.391   4.216   2.795 -1.0196 -0.8234  1.2374
 6758SOL     OW31906   2.471   2.574   3.416  0.3048 -0.0622  1.1209
 6758SOL    HW131907   2.408   2.506   3.440  2.2258 -1.4233  2.4035
 6758SOL    HW231908   2.448   2.650   3.469 -4.1043 -1.1342  0.7845
 6759SOL     OW31909   2.301   0.151   9.065 -0.1822  0.2887 -0.2513
 6759SOL    HW131910   2.302   0.102   8.983 -0.3749 -0.2110  0.0429
 6759SOL    HW231911   2.228   0.100   9.102  0.1618  0.3337  0.4976
 6760SOL     OW31912   2.908   3.302   4.697  0.6580  0.5021 -0.0157
 6760SOL    HW131913   2.915   3.311   4.602  1.8244  0.7936  0.1079
 6760SOL    HW231914   2.992   3.264   4.722  2.1586  3.2799 -0.7852
 6761SOL     OW31915   2.038   4.700  11.272 -0.1306 -0.3103  0.3005
 6761SOL    HW131916   2.078   4.613  11.270  0.4310 -0.0381 -0.1773
 6761SOL    HW231917   2.012   4.716  11.182  3.1107 -0.2995 -0.6498
 6762SOL     OW31918   0.697   4.397   1.840  0.3808 -0.0745  0.9464
 6762SOL    HW131919   0.776   4.408   1.894  0.3096  1.8441  0.6686
 6762SOL    HW231920   0.701   4.305   1.815  2.1015 -0.4899  2.7536
 6763SOL     OW31921   2.359   4.210   3.226  0.1205 -0.0560 -0.0676
 6763SOL    HW131922   2.396   4.167   3.304 -0.0890 -0.9579 -0.4625
 6763SOL    HW231923   2.274   4.170   3.213 -0.2838  1.0032 -0.6083
 6764SOL     OW31924   2.854   2.451  15.985 -0.1706 -0.0598 -0.1951
 6764SOL    HW131925   2.806   2.530  15.958 -0.0358 -0.1889 -0.8073
 6764SOL    HW231926   2.794   2.407  16.045  0.9334 -0.1725  0.8390
 6765SOL     OW31927   2.300   3.812  13.046 -0.2436  0.0516  0.1628
 6765SOL    HW131928   2.214   3.843  13.075 -0.4935  1.2711 -1.9303
 6765SOL    HW231929   2.353   3.869  13.103 -0.7853  0.0766  0.6426
 6766SOL     OW31930   2.257   3.083   0.866  0.9235 -0.3461  0.2177
 6766SOL    HW131931   2.230   2.999   0.903  2.1327 -0.3898  1.0029
 6766SOL    HW231932   2.217   3.142   0.930  0.7766  1.6022 -1.6820
 6767SOL     OW31933   4.184   1.010   0.781  0.3553  0.4150  0.2020
 6767SOL    HW131934   4.166   1.006   0.687  0.6917  0.6457  0.1248
 6767SOL    HW231935   4.266   0.961   0.784 -0.4469 -1.0095 -1.0739
 6768SOL     OW31936   4.300   1.963  12.006  0.0972 -0.0367 -0.2121
 6768SOL    HW131937   4.244   2.002  11.939  1.8480  2.9259  0.0650
 6768SOL    HW231938   4.308   1.874  11.970  0.3035  0.6137 -1.8010
 6769SOL     OW31939   1.498   0.328  13.667 -0.3036 -0.0201  0.3117
 6769SOL    HW131940   1.458   0.244  13.691 -1.6458  0.8642  1.1402
 6769SOL    HW231941   1.518   0.370  13.750 -2.6828  0.3953  0.6644
 6770SOL     OW31942   3.529   1.623   5.218  0.2999 -0.2280 -0.4125
 6770SOL    HW131943   3.471   1.555   5.253 -3.0743  2.4872 -0.7726
 6770SOL    HW231944   3.548   1.670   5.299 -1.6882  1.1669 -0.7607
 6771SOL     OW31945   2.298   1.791   7.430 -0.2669  0.1457  0.1485
 6771SOL    HW131946   2.287   1.749   7.345 -1.7574  0.4740  0.1674
 6771SOL    HW231947   2.368   1.745   7.476 -0.7742  0.4480  1.2165
 6772SOL     OW31948   3.063   1.861   4.888  0.4240  0.2963 -0.3911
 6772SOL    HW131949   2.972   1.849   4.863  0.8504  0.3102 -1.9001
 6772SOL    HW231950   3.113   1.791   4.844 -0.6625 -0.4397 -0.4563
 6773SOL     OW31951   2.928   4.244  12.260  0.0762  0.1092 -0.2238
 6773SOL    HW131952   2.907   4.202  12.344 -0.3306  1.1992  0.2257
 6773SOL    HW231953   2.858   4.216  12.202 -1.4728  0.8956  1.2743
 6774SOL     OW31954   0.425   0.608   5.954  0.4453  0.0558 -0.4508
 6774SOL    HW131955   0.395   0.693   5.986  1.0241 -0.3801  1.2604
 6774SOL    HW231956   0.350   0.555   5.929  1.4645 -1.2254 -0.7770
 6775SOL     OW31957   1.092   0.422   2.955 -0.2881  0.2965 -0.4385
 6775SOL    HW131958   1.146   0.426   2.876  0.0454 -0.9246 -0.2722
 6775SOL    HW231959   1.127   0.497   3.003 -2.4476  0.3244  1.1023
 6776SOL     OW31960   4.002   3.495  15.716 -0.3698 -0.0208  0.4568
 6776SOL    HW131961   3.946   3.435  15.765  2.4475 -2.3764  0.8089
 6776SOL    HW231962   4.051   3.432  15.663  0.8432  1.9973 -0.8139
 6777SOL     OW31963   2.273   0.873   5.897 -0.3736  0.1530  0.1608
 6777SOL    HW131964   2.294   0.830   5.814 -0.9455 -0.8262  0.5239
 6777SOL    HW231965   2.182   0.852   5.918 -0.6698  1.5196  0.2545
 6778SOL     OW31966   3.896   2.307   4.781 -0.0547 -0.2103 -0.2549
 6778SOL    HW131967   3.957   2.353   4.723  0.7720 -0.9195  0.0326
 6778SOL    HW231968   3.821   2.306   4.723  1.6172 -0.5269 -2.4226
 6779SOL     OW31969   0.314   3.586  10.628  0.0180 -0.0121 -0.5975
 6779SOL    HW131970   0.239   3.644  10.609 -2.1671 -2.4648  0.5714
 6779SOL    HW231971   0.280   3.523  10.692 -1.6118  0.8462 -0.6198
 6780SOL     OW31972   0.915   4.733   3.576  0.0317 -0.2082  0.4401
 6780SOL    HW131973   0.943   4.718   3.667 -1.9610 -0.1540  1.0502
 6780SOL    HW231974   0.994   0.036   3.544 -1.2547  2.1479  0.4427
 6781SOL     OW31975   3.793   1.812  16.830 -0.2081  0.2984  0.3259
 6781SOL    HW131976   3.863   1.771  16.880  0.4689  0.6410 -0.3392
 6781SOL    HW231977   3.820   1.790  16.741 -1.4383  1.6894 -0.4142
 6782SOL     OW31978   2.139   3.625  14.483  0.1394  0.4025  0.1728
 6782SOL    HW131979   2.135   3.531  14.501  2.3537  0.5018  1.1534
 6782SOL    HW231980   2.148   3.649  14.575 -1.0007 -1.3088  0.7328
 6783SOL     OW31981   0.480   2.225   9.231  0.2564 -0.1492  0.5353
 6783SOL    HW131982   0.518   2.160   9.290 -2.5866 -1.4299  0.9065
 6783SOL    HW231983   0.410   2.264   9.283  0.4034  0.3969  0.3316
 6784SOL     OW31984   3.265   4.195  15.290 -0.1838  0.5290 -0.0049
 6784SOL    HW131985   3.198   4.131  15.266  1.2393 -0.6407 -0.8798
 6784SOL    HW231986   3.221   4.223  15.371 -2.2484 -0.2166 -0.8529
 6785SOL     OW31987   2.915   4.219   6.834  0.1256 -0.0405  0.1878
 6785SOL    HW131988   2.996   4.188   6.877 -0.6470 -2.1358  0.1243
 6785SOL    HW231989   2.930   4.314   6.836  0.6936 -0.1075 -1.0157
 6786SOL     OW31990   2.260   0.005  11.984  0.6685 -0.6299 -0.1511
 6786SOL    HW131991   2.292   4.734  12.073 -0.0185 -1.9324 -0.0841
 6786SOL    HW231992   2.323   0.067  11.947  0.6115 -0.8027 -0.5404
 6787SOL     OW31993   3.335   0.280   3.612  0.5030 -0.4884 -0.4400
 6787SOL    HW131994   3.309   0.365   3.576  0.7103  0.3660  1.4236
 6787SOL    HW231995   3.275   0.265   3.686 -0.3384  0.2275 -0.9661
 6788SOL     OW31996   3.168   0.903   5.418  0.0887  0.2355 -0.2384
 6788SOL    HW131997   3.236   0.915   5.352 -0.5146  1.9273 -0.5604
 6788SOL    HW231998   3.173   0.813   5.449 -1.0656  0.1480 -0.2949
 6789SOL     OW31999   3.410   2.000   5.400  0.2870 -0.3211  0.5757
 6789SOL    HW132000   3.399   1.918   5.449  0.2542 -0.1168  0.9084
 6789SOL    HW232001   3.316   2.014   5.393  0.2816 -0.7985 -0.2508
 6790SOL     OW32002   0.195   1.560   8.217 -0.4940  1.0066 -0.2702
 6790SOL    HW132003   0.283   1.584   8.245  0.3833  0.7748 -2.8609
 6790SOL    HW232004   0.213   1.475   8.177  0.9499  1.5762 -0.8208
 6791SOL     OW32005   2.194   1.261   0.270  0.3350  0.0770 -0.0277
 6791SOL    HW132006   2.225   1.218   0.350 -0.5346 -1.8037 -0.7103
 6791SOL    HW232007   2.193   1.190   0.205 -1.2436  1.0958 -1.1008
 6792SOL     OW32008   4.265   0.824   5.448 -0.3349  0.0846  0.2629
 6792SOL    HW132009   4.322   0.898   5.430 -0.2863  0.1085  0.5089
 6792SOL    HW232010   4.313   0.756   5.401  0.1734 -0.2280  1.2171
 6793SOL     OW32011   2.010   0.916  14.771 -0.2714 -0.1670 -0.1031
 6793SOL    HW132012   1.994   0.975  14.845 -0.6130  0.3542 -0.5904
 6793SOL    HW232013   2.035   0.968  14.694  0.5636  0.9831  0.9393
 6794SOL     OW32014   0.753   3.744  14.800  0.1969  0.5315 -0.5109
 6794SOL    HW132015   0.822   3.742  14.734  0.7777 -0.3250  0.1250
 6794SOL    HW232016   0.792   3.717  14.883 -0.9663 -1.7857 -0.7113
 6795SOL     OW32017   0.477   0.126   3.417  0.1576 -0.5870 -0.2501
 6795SOL    HW132018   0.566   0.109   3.447  0.1931 -0.4470 -0.2752
 6795SOL    HW232019   0.488   0.207   3.367  0.7171 -1.5085 -1.6080
 6796SOL     OW32020   1.417   4.358   2.319  0.0315 -0.4515 -0.1490
 6796SOL    HW132021   1.356   4.316   2.379  0.6131  0.4260  1.0585
 6796SOL    HW232022   1.368   4.429   2.277  0.0501 -0.1576  0.3297
 6797SOL     OW32023   1.019   1.905   1.469 -0.2873 -0.2224 -0.5257
 6797SOL    HW132024   1.036   1.999   1.468 -1.0255 -0.0972 -1.5073
 6797SOL    HW232025   1.073   1.876   1.395  0.2498  0.7205 -0.5030
 6798SOL     OW32026   2.170   3.628   2.958  0.2847  0.3518 -0.5478
 6798SOL    HW132027   2.220   3.554   2.992  2.0893  1.0450 -1.7407
 6798SOL    HW232028   2.081   3.597   2.974  0.6900  0.1825  1.4941
 6799SOL     OW32029   1.590   2.343  12.389  0.1945  0.0997  0.4463
 6799SOL    HW132030   1.589   2.424  12.439  0.5973  1.0171 -1.0325
 6799SOL    HW232031   1.511   2.359  12.338  1.3405 -0.0968 -1.3904
 6800SOL     OW32032   3.319   1.050   5.228 -0.8113  0.0884 -0.5896
 6800SOL    HW132033   3.289   1.127   5.276 -0.5165  1.0855 -2.0043
 6800SOL    HW232034   3.257   1.059   5.156  1.1990  0.1398 -2.3481
 6801SOL     OW32035   0.703   0.882  14.876 -0.2002  0.4628  0.3148
 6801SOL    HW132036   0.680   0.790  14.864  0.5719  0.4598 -1.1215
 6801SOL    HW232037   0.743   0.900  14.791 -1.5012  1.5747 -0.0728
 6802SOL     OW32038   0.476   2.366   7.745  0.7431  0.2087  0.6636
 6802SOL    HW132039   0.404   2.388   7.804  0.7015  1.2491  0.2422
 6802SOL    HW232040   0.443   2.297   7.688  1.3876  0.5004 -0.0778
 6803SOL     OW32041   0.593   0.096   1.487  0.0637  0.6126  0.0603
 6803SOL    HW132042   0.625   0.017   1.531  2.0435  2.1592  1.3261
 6803SOL    HW232043   0.567   0.063   1.401  0.0182 -1.4419  0.8432
 6804SOL     OW32044   2.592   1.155   1.372 -0.1231  0.8377 -0.4694
 6804SOL    HW132045   2.512   1.170   1.322 -1.6691 -1.7715  1.2572
 6804SOL    HW232046   2.658   1.120   1.311 -0.1691 -0.6534  0.3385
 6805SOL     OW32047   4.297   3.432   3.730 -0.1900 -0.1786 -0.3496
 6805SOL    HW132048   4.344   3.381   3.664 -0.5093  0.1135 -0.7971
 6805SOL    HW232049   4.344   3.406   3.809  0.6344 -1.7886 -1.3851
 6806SOL     OW32050   3.513   1.873   1.298 -0.3926 -0.1419 -0.2864
 6806SOL    HW132051   3.456   1.797   1.283 -1.0680  0.6040 -1.5262
 6806SOL    HW232052   3.489   1.930   1.225 -1.1467  0.0861  0.1445
 6807SOL     OW32053   3.823   2.671   5.988 -0.0922  0.0084 -0.2750
 6807SOL    HW132054   3.794   2.628   5.907 -0.6339  2.0911 -1.1838
 6807SOL    HW232055   3.741   2.689   6.033  0.7803 -1.6383  1.9550
 6808SOL     OW32056   3.627   0.291   0.137  0.3370  1.5987  0.4491
 6808SOL    HW132057   3.553   0.349   0.118 -0.3730  0.2255 -0.9897
 6808SOL    HW232058   3.686   0.364   0.154  2.7820  0.0771 -1.3643
 6809SOL     OW32059   3.584   4.063   5.907  0.7477  0.3250 -0.1533
 6809SOL    HW132060   3.569   4.119   5.984 -1.0965 -0.6992  0.2492
 6809SOL    HW232061   3.678   4.074   5.897  0.6571  0.3289 -0.9808
 6810SOL     OW32062   4.511   1.386   9.091  0.4126 -0.3432 -0.1806
 6810SOL    HW132063   4.539   1.426   9.008  0.4603  0.8450  0.4024
 6810SOL    HW232064   4.475   1.464   9.133  0.7756  0.3788 -1.2195
 6811SOL     OW32065   4.185   2.053  11.780  0.5868 -0.5188  0.4900
 6811SOL    HW132066   4.115   2.046  11.715  1.0453  0.3361 -0.1083
 6811SOL    HW232067   4.236   2.120  11.734  0.2453  0.3782  1.4349
 6812SOL     OW32068   4.704   2.550   0.124 -0.3092 -0.5909  0.0692
 6812SOL    HW132069   4.656   2.518   0.200  2.4217  2.1544  2.9763
 6812SOL    HW232070   4.689   2.645   0.129 -1.6687 -0.8439  0.6442
 6813SOL     OW32071   1.814   1.449  10.138 -0.0451  0.5130 -0.0758
 6813SOL    HW132072   1.847   1.377  10.083 -1.1644  1.3702 -1.8733
 6813SOL    HW232073   1.738   1.407  10.178  0.8681  0.7097  1.8801
 6814SOL     OW32074   0.127   0.338  10.232  0.8129 -0.5249 -0.1047
 6814SOL    HW132075   0.152   0.247  10.218  1.4950 -0.2006 -0.9589
 6814SOL    HW232076   0.078   0.338  10.149 -1.5180 -1.6935  1.2489
 6815SOL     OW32077   4.407   2.106   2.293  0.0255 -0.7345  0.5822
 6815SOL    HW132078   4.334   2.070   2.344 -0.8952  1.1372  0.5742
 6815SOL    HW232079   4.465   2.031   2.280  0.3882 -0.6122  1.4661
 6816SOL     OW32080   4.147   1.758   2.228 -0.2701  0.7447  0.3225
 6816SOL    HW132081   4.175   1.843   2.260  2.9175 -0.0937 -0.2341
 6816SOL    HW232082   4.059   1.758   2.265  1.0759  1.2522  3.4658
 6817SOL     OW32083   2.842   4.121   3.527 -0.0940 -0.1553  0.4991
 6817SOL    HW132084   2.929   4.126   3.565  0.6239  0.4742 -1.2271
 6817SOL    HW232085   2.819   4.214   3.528 -0.3892 -0.2066 -0.6412
 6818SOL     OW32086   2.914   1.404   4.007 -0.1108  0.0748 -0.4426
 6818SOL    HW132087   2.857   1.478   3.986  1.5812  1.9379  1.4677
 6818SOL    HW232088   2.911   1.347   3.931  0.6095 -2.7988  1.6924
 6819SOL     OW32089   1.469   3.312  17.451 -0.3017  0.5486  0.6907
 6819SOL    HW132090   1.485   3.265  17.369  1.3155  1.0263  0.7412
 6819SOL    HW232091   1.457   3.401  17.418  0.5666  0.9186  1.3797
 6820SOL     OW32092   0.840   1.118   8.128  0.3963 -0.1857 -0.2858
 6820SOL    HW132093   0.768   1.072   8.086 -1.7615  0.2658  2.8852
 6820SOL    HW232094   0.903   1.050   8.153 -0.0166 -0.2622  0.5473
 6821SOL     OW32095   0.304   3.395   4.244 -0.1608  0.1768  0.4877
 6821SOL    HW132096   0.307   3.312   4.196 -2.4916 -0.1912  0.9509
 6821SOL    HW232097   0.254   3.447   4.181  1.2261  2.4988  1.3215
 6822SOL     OW32098   3.898   1.212   5.061 -0.3726  0.0147 -0.3569
 6822SOL    HW132099   3.951   1.249   4.990 -1.6514  0.0071 -1.3143
 6822SOL    HW232100   3.969   1.168   5.108 -0.7941  0.7921  1.0272
 6823SOL     OW32101   3.040   0.001  16.322 -0.2703  0.1153  0.2246
 6823SOL    HW132102   3.050   4.666  16.265 -0.4960 -0.0185  0.3613
 6823SOL    HW232103   3.078   0.073  16.272 -2.7217  1.3417  0.1421
 6824SOL     OW32104   4.644   3.742   8.601 -0.0239 -0.3001  0.2087
 6824SOL    HW132105   4.674   3.772   8.515  0.8581  1.6673  1.2192
 6824SOL    HW232106   4.696   3.662   8.591  1.0025  0.6046 -1.5091
 6825SOL     OW32107   4.419   0.973   8.374  0.2075 -0.2483 -0.3805
 6825SOL    HW132108   4.464   1.011   8.298 -0.9054  0.4928 -0.6723
 6825SOL    HW232109   4.345   0.927   8.335 -0.4380 -1.1307  1.8944
 6826SOL     OW32110   0.785   1.428  11.870 -0.1014 -0.3180  0.5554
 6826SOL    HW132111   0.854   1.449  11.806  0.7810 -0.4087  1.4709
 6826SOL    HW232112   0.799   1.484  11.947  1.6095 -1.5059  1.1266
 6827SOL     OW32113   0.750   2.971  14.936  0.2965 -0.7510 -0.0958
 6827SOL    HW132114   0.711   2.955  15.022  1.2378  3.2808  1.0595
 6827SOL    HW232115   0.784   2.883  14.919 -0.6767 -1.1886  0.2079
 6828SOL     OW32116   1.181   1.926   6.382 -0.0958 -0.9270 -0.9324
 6828SOL    HW132117   1.140   1.972   6.455  1.5359  0.9642 -1.2284
 6828SOL    HW232118   1.173   1.995   6.316 -0.7381 -0.6481 -0.5617
 6829SOL     OW32119   2.393   2.007   3.668  0.2986 -0.8128 -0.0676
 6829SOL    HW132120   2.422   2.065   3.738 -1.8295 -0.5964  0.6260
 6829SOL    HW232121   2.303   2.040   3.664  0.9430  1.1527  1.9235
 6830SOL     OW32122   2.485   2.068   4.059  0.3708 -0.3798  0.1297
 6830SOL    HW132123   2.463   1.977   4.037 -1.8898  0.4554 -0.9358
 6830SOL    HW232124   2.464   2.068   4.153 -0.2237 -0.1496 -0.0078
 6831SOL     OW32125   2.942   4.218   2.783  0.3284 -0.1381 -0.0654
 6831SOL    HW132126   2.991   4.233   2.864 -2.2831  0.5790  1.3777
 6831SOL    HW232127   3.013   4.181   2.731 -0.2336 -1.2714 -0.0244
 6832SOL     OW32128   4.514   4.703   2.675  0.3464 -0.0465 -0.0777
 6832SOL    HW132129   4.539   4.614   2.648  0.2820  0.4853 -1.8860
 6832SOL    HW232130   4.517   0.005   2.589  0.6454  1.6915  0.8194
 6833SOL     OW32131   2.394   0.379   1.993 -0.0005  0.9383  0.1259
 6833SOL    HW132132   2.466   0.404   1.936  0.2578  0.9052  0.4408
 6833SOL    HW232133   2.429   0.313   2.054 -2.9993  0.8712  1.7871
 6834SOL     OW32134   2.130   4.047   2.496 -0.6490  0.9353 -0.7036
 6834SOL    HW132135   2.195   3.987   2.533  0.3309  1.2205 -1.9838
 6834SOL    HW232136   2.178   4.129   2.512  0.2171  0.5333 -1.2310
 6835SOL     OW32137   4.186   4.163   7.444 -0.0876  0.1486  0.0598
 6835SOL    HW132138   4.279   4.182   7.449  0.2874 -0.9186 -3.5460
 6835SOL    HW232139   4.177   4.088   7.385  1.4880  0.2015 -0.2355
 6836SOL     OW32140   1.594   2.494   8.580 -0.1674  0.2390  0.1544
 6836SOL    HW132141   1.579   2.565   8.643  0.4073  1.7214 -1.3739
 6836SOL    HW232142   1.593   2.414   8.633  0.2734 -0.3423 -0.7251
 6837SOL     OW32143   1.989   4.539   7.385 -0.5162  0.1032  0.0006
 6837SOL    HW132144   1.937   4.500   7.456  0.2114  1.2183  1.1468
 6837SOL    HW232145   2.042   4.608   7.425 -0.1350 -0.7400  0.9592
 6838SOL     OW32146   4.124   1.178   4.239  0.6025 -0.4473 -0.0691
 6838SOL    HW132147   4.101   1.267   4.212 -1.4006 -0.3254  2.1006
 6838SOL    HW232148   4.220   1.179   4.241  0.6027 -0.1330 -0.1703
 6839SOL     OW32149   3.920   0.840   7.023  0.0858 -0.6779 -0.3155
 6839SOL    HW132150   3.994   0.834   7.084 -0.9663 -2.0428  0.8123
 6839SOL    HW232151   3.955   0.800   6.943 -2.9628 -2.3124 -0.7949
 6840SOL     OW32152   3.077   3.948   3.361  0.3338 -0.7213  0.1139
 6840SOL    HW132153   3.147   3.948   3.296 -1.6813 -1.0009 -2.0271
 6840SOL    HW232154   3.038   3.863   3.344  1.2290 -1.5342  2.1130
 6841SOL     OW32155   0.896   0.718   5.017  0.5021 -0.7479  0.1720
 6841SOL    HW132156   0.968   0.673   5.061 -1.1554 -0.5613  3.1052
 6841SOL    HW232157   0.931   0.726   4.928 -0.4570 -0.7859 -0.2019
 6842SOL     OW32158   4.016   3.500   5.757 -0.2453 -0.6017 -0.3967
 6842SOL    HW132159   4.060   3.435   5.703  2.0407  2.2594 -1.9977
 6842SOL    HW232160   4.064   3.583   5.751 -0.2157 -0.6136 -0.3200
 6843SOL     OW32161   3.573   0.862  12.211  0.0118  0.2026  0.6388
 6843SOL    HW132162   3.583   0.774  12.248  1.3994  0.0584 -0.0833
 6843SOL    HW232163   3.479   0.871  12.194  0.1769  1.3670  0.3003
 6844SOL     OW32164   4.249   2.432   8.342  0.0949  0.4401  0.7154
 6844SOL    HW132165   4.294   2.400   8.264  1.1522  3.1531  0.2196
 6844SOL    HW232166   4.163   2.394   8.322  1.3492 -2.1331  0.1759
 6845SOL     OW32167   2.648   1.806   1.607  0.6884  0.1837  0.1808
 6845SOL    HW132168   2.738   1.810   1.574 -0.1694 -1.3297 -2.4245
 6845SOL    HW232169   2.627   1.713   1.600  0.9257  0.1978 -0.7351
 6846SOL     OW32170   2.441   3.223   8.568  0.2145 -0.1503 -0.8783
 6846SOL    HW132171   2.450   3.195   8.659 -0.7769  0.0549 -0.7146
 6846SOL    HW232172   2.441   3.318   8.578 -0.0708 -0.0269 -2.0271
 6847SOL     OW32173   2.478   2.905   5.121 -0.4570 -0.2331 -0.1310
 6847SOL    HW132174   2.461   2.886   5.213  0.4041  0.9724  0.2781
 6847SOL    HW232175   2.530   2.985   5.124  2.2156 -1.9835 -0.0683
 6848SOL     OW32176   2.864   3.147  14.737 -0.7114  0.1445  0.3868
 6848SOL    HW132177   2.770   3.155  14.720 -0.6450  0.8079  0.3364
 6848SOL    HW232178   2.878   3.057  14.706 -0.3327  0.5995 -0.7771
 6849SOL     OW32179   0.396   0.944   2.614  0.1417 -0.5438  0.0332
 6849SOL    HW132180   0.428   0.892   2.540  2.1256  1.2487 -0.3813
 6849SOL    HW232181   0.447   0.906   2.686  1.3679 -1.4333 -1.2984
 6850SOL     OW32182   2.643   4.442   4.860 -0.1850 -0.3022  0.3145
 6850SOL    HW132183   2.558   4.409   4.890 -0.2208 -0.3287  0.1855
 6850SOL    HW232184   2.612   4.497   4.787 -4.0266 -0.1426  2.0395
 6851SOL     OW32185   3.847   3.648   6.480 -0.0946 -0.3275  0.7269
 6851SOL    HW132186   3.858   3.743   6.474  1.1210 -0.5396 -0.3270
 6851SOL    HW232187   3.754   3.660   6.502 -0.0033 -0.5861  1.2489
 6852SOL     OW32188   0.946   3.818  14.010  0.1580 -0.3041 -0.3388
 6852SOL    HW132189   0.971   3.746  14.068  2.2065  1.3045  0.7876
 6852SOL    HW232190   0.856   3.841  14.032  0.4258  1.4366 -1.0782
 6853SOL     OW32191   2.000   1.295  14.265  0.1167  0.1289  0.2081
 6853SOL    HW132192   2.025   1.222  14.208 -0.4786 -0.1361  0.2830
 6853SOL    HW232193   1.955   1.360  14.211 -0.9265  0.3824  1.3831
 6854SOL     OW32194   2.644   3.207   4.743  0.0246 -0.4239 -0.1378
 6854SOL    HW132195   2.734   3.232   4.763  0.5110 -2.4418  0.1917
 6854SOL    HW232196   2.603   3.294   4.740  0.9384 -0.0051 -0.7712
 6855SOL     OW32197   0.156   2.188   5.937 -0.3533 -0.2385  0.4039
 6855SOL    HW132198   0.138   2.196   6.031  1.7311  0.0284  0.7938
 6855SOL    HW232199   0.126   2.097   5.933  1.0770 -0.6446 -0.9494
 6856SOL     OW32200   1.943   1.130  11.900 -0.5455  0.4736  0.2163
 6856SOL    HW132201   1.937   1.223  11.879  0.6858  0.2068 -1.3216
 6856SOL    HW232202   1.956   1.102  11.810 -1.4456  4.2103 -1.0719
 6857SOL     OW32203   0.626   3.700   1.758  0.1392  0.3168  0.1741
 6857SOL    HW132204   0.547   3.744   1.791 -0.8731 -2.2669  1.1998
 6857SOL    HW232205   0.605   3.691   1.665 -0.7751 -1.5436  0.5571
 6858SOL     OW32206   0.500   3.038  14.442  0.4733  0.0878 -0.1949
 6858SOL    HW132207   0.540   3.033  14.529  0.3626 -0.7196 -0.1865
 6858SOL    HW232208   0.563   3.094  14.397  0.1911  1.5577  1.2639
 6859SOL     OW32209   0.682   2.753   7.542 -0.0082 -1.1191 -0.3298
 6859SOL    HW132210   0.765   2.753   7.589  0.2819 -2.1378 -0.8412
 6859SOL    HW232211   0.630   2.685   7.584 -0.6232 -0.3686  0.1212
 6860SOL     OW32212   1.930   3.395  14.210  0.1471  0.7070  0.2852
 6860SOL    HW132213   1.883   3.462  14.261  1.2012  1.1399  0.7012
 6860SOL    HW232214   1.860   3.335  14.187  1.8121 -2.3635  3.2015
 6861SOL     OW32215   2.367   4.214   8.359 -0.0076 -0.4987 -0.1637
 6861SOL    HW132216   2.414   4.295   8.338 -1.4258  0.5222  0.6167
 6861SOL    HW232217   2.391   4.214   8.452 -0.1752  0.0606 -0.1239
 6862SOL     OW32218   4.073   1.533  12.703  0.1664  0.1208 -0.1082
 6862SOL    HW132219   3.986   1.546  12.665  0.2983 -2.1552 -1.1893
 6862SOL    HW232220   4.118   1.499  12.626 -0.0592 -4.2656  1.6685
 6863SOL     OW32221   1.333   3.205  17.666  0.3180  0.0302  0.3031
 6863SOL    HW132222   1.377   3.233  17.585  0.2945  0.8947  0.5881
 6863SOL    HW232223   1.269   3.276  17.674 -2.1120 -2.1285 -0.2850
 6864SOL     OW32224   1.204   0.867   9.216  0.0297 -0.4225 -0.2406
 6864SOL    HW132225   1.124   0.814   9.218 -1.5609  2.0177  0.5085
 6864SOL    HW232226   1.175   0.957   9.230  0.3710 -0.3541  0.0297
 6865SOL     OW32227   2.633   4.187  16.812 -0.5284  0.2208  0.0754
 6865SOL    HW132228   2.694   4.194  16.739  0.5869  0.2951  1.0160
 6865SOL    HW232229   2.567   4.255  16.796  0.2486  1.4920  2.2455
 6866SOL     OW32230   4.342   2.051   4.664  0.0149 -0.0439 -0.3768
 6866SOL    HW132231   4.273   2.094   4.715  0.5391 -0.7740  0.9681
 6866SOL    HW232232   4.357   2.115   4.595  2.6644 -2.0322 -1.6711
 6867SOL     OW32233   3.859   4.045  12.303  0.1955 -0.8228 -0.1398
 6867SOL    HW132234   3.858   4.122  12.360  1.5602 -0.7389 -0.2118
 6867SOL    HW232235   3.953   4.027  12.310  0.8184  1.9194 -1.4429
 6868SOL     OW32236   3.426   3.539   3.667 -0.3044  0.5672 -0.0733
 6868SOL    HW132237   3.478   3.468   3.630  1.9205  2.4670 -0.5335
 6868SOL    HW232238   3.414   3.607   3.601  0.3271  0.3468 -0.4081
 6869SOL     OW32239   2.471   3.360   6.676 -0.1368  0.2320  0.4544
 6869SOL    HW132240   2.463   3.273   6.715  0.4266  0.3267  0.7778
 6869SOL    HW232241   2.554   3.394   6.708  1.7985 -2.9403 -1.1634
 6870SOL     OW32242   1.395   0.098   7.072  0.0196 -0.5664  0.4325
 6870SOL    HW132243   1.480   0.143   7.069 -0.2089 -0.2317 -0.7956
 6870SOL    HW232244   1.417   0.030   7.136 -0.1522 -0.6562  0.3953
 6871SOL     OW32245   2.793   0.112   5.593  0.2445  0.2254  0.6796
 6871SOL    HW132246   2.827   0.152   5.673 -0.9282  0.4301  1.0701
 6871SOL    HW232247   2.756   0.036   5.638 -1.2076  0.3487 -0.2988
 6872SOL     OW32248   2.596   4.414  16.654 -0.1890 -0.3050 -0.1506
 6872SOL    HW132249   2.573   4.504  16.630  0.8092 -0.3147 -1.1439
 6872SOL    HW232250   2.691   4.426  16.652 -0.1354 -0.8099 -0.4591
 6873SOL     OW32251   4.604   3.836  10.390  1.0870  0.1946  0.0118
 6873SOL    HW132252   4.513   3.853  10.415  1.2031 -0.6650  0.9936
 6873SOL    HW232253   4.606   3.742  10.408  2.4724 -0.3991 -3.3119
 6874SOL     OW32254   1.874   0.461   8.362  0.2504  0.0743  0.1291
 6874SOL    HW132255   1.893   0.462   8.268  2.0874 -0.1766  0.5001
 6874SOL    HW232256   1.887   0.372   8.396 -1.3458 -0.3455 -0.3534
 6875SOL     OW32257   1.128   4.261   9.427  0.6538 -0.1040  0.5818
 6875SOL    HW132258   1.081   4.336   9.463 -2.0420 -0.0514 -3.1412
 6875SOL    HW232259   1.078   4.193   9.472 -1.2560  0.6297 -0.4680
 6876SOL     OW32260   2.436   3.716   0.546 -0.4725 -0.1138 -0.4507
 6876SOL    HW132261   2.414   3.750   0.633 -2.5542 -3.4843  0.3205
 6876SOL    HW232262   2.379   3.640   0.546  1.4851 -1.5968  1.3012
 6877SOL     OW32263   3.412   0.100  13.134  0.0703  0.3821 -0.1219
 6877SOL    HW132264   3.478   0.162  13.164  2.4955 -1.6997 -1.1471
 6877SOL    HW232265   3.393   0.061  13.220 -0.9085 -0.1393 -0.5731
 6878SOL     OW32266   3.122   3.099   3.972 -0.3008  0.7432  0.3003
 6878SOL    HW132267   3.044   3.047   3.954 -0.1296  0.3672  0.6083
 6878SOL    HW232268   3.124   3.140   3.886  1.6628  0.4096  0.1871
 6879SOL     OW32269   1.185   1.097   2.878  0.3076  0.0633 -0.0691
 6879SOL    HW132270   1.176   1.143   2.794 -0.8718 -0.6805 -0.3526
 6879SOL    HW232271   1.192   1.168   2.941 -0.8324  0.3781 -0.3081
 6880SOL     OW32272   3.529   3.492   5.043  0.5243  0.2995 -0.9388
 6880SOL    HW132273   3.584   3.511   5.118  0.7556  0.7481 -1.2237
 6880SOL    HW232274   3.455   3.552   5.053  1.2023  0.6327  2.0494
 6881SOL     OW32275   1.996   4.287   1.932 -0.0639 -0.0086 -0.3395
 6881SOL    HW132276   2.027   4.376   1.945  2.5343 -0.7838 -1.2791
 6881SOL    HW232277   1.973   4.284   1.839  0.1853  0.8409 -0.4302
 6882SOL     OW32278   2.190   2.441  15.323  0.4836 -0.1164 -0.4043
 6882SOL    HW132279   2.191   2.527  15.365  0.9896  0.0356 -0.7289
 6882SOL    HW232280   2.262   2.455  15.262 -0.2919 -0.0552 -1.3093
 6883SOL     OW32281   0.634   3.411   4.139 -0.2535 -0.3904 -0.0411
 6883SOL    HW132282   0.649   3.320   4.163 -0.3333 -0.4070 -0.0541
 6883SOL    HW232283   0.601   3.399   4.050 -3.7616  1.8657  0.9387
 6884SOL     OW32284   3.870   1.860   3.659 -0.6034 -0.0044 -0.0425
 6884SOL    HW132285   3.962   1.874   3.634 -1.5113  2.3035 -2.0347
 6884SOL    HW232286   3.844   1.952   3.665  0.7955  0.2690  1.8283
 6885SOL     OW32287   2.099   1.382   9.104  0.5890  0.3233 -0.7041
 6885SOL    HW132288   2.045   1.459   9.084 -2.1173 -1.4925 -0.3557
 6885SOL    HW232289   2.050   1.310   9.065 -0.7288  0.1851  1.2330
 6886SOL     OW32290   1.832   4.712  17.321 -0.3573  0.0634  0.0228
 6886SOL    HW132291   1.782   0.050  17.298 -0.0511  0.8434  2.0245
 6886SOL    HW232292   1.838   4.727  17.415  1.9209  1.8811 -0.4033
 6887SOL     OW32293   1.318   1.952   7.617 -0.4233 -0.0155  0.0741
 6887SOL    HW132294   1.379   1.884   7.643  0.1023  0.1042 -0.8172
 6887SOL    HW232295   1.267   1.917   7.544 -1.4086 -0.8585  1.1690
 6888SOL     OW32296   1.425   1.426   2.908  0.5907 -0.1130  0.1230
 6888SOL    HW132297   1.471   1.439   2.825 -0.1796 -1.4754 -0.5006
 6888SOL    HW232298   1.497   1.433   2.971  0.0076  0.1515  0.7558
 6889SOL     OW32299   3.443   2.330   4.399 -0.0398  0.3779 -0.7755
 6889SOL    HW132300   3.489   2.397   4.349 -1.4045  2.4769  0.7687
 6889SOL    HW232301   3.500   2.254   4.384 -1.2374 -0.7544  0.3746
 6890SOL     OW32302   4.707   2.691   8.010  0.3974  0.1267  0.0608
 6890SOL    HW132303   4.614   2.697   8.030  1.2517  2.1246  3.3867
 6890SOL    HW232304   0.007   2.776   8.030  0.0603  0.0073  1.2003
 6891SOL     OW32305   2.936   0.479  14.945 -0.9163 -0.4489  0.5954
 6891SOL    HW132306   2.907   0.427  14.870  0.9238 -0.5063 -0.0603
 6891SOL    HW232307   2.868   0.458  15.010 -1.1157  0.9128  0.8183
 6892SOL     OW32308   2.360   4.728  16.831 -0.2094  0.4670 -0.1119
 6892SOL    HW132309   2.453   4.707  16.826 -0.3851 -0.5967  1.3075
 6892SOL    HW232310   2.339   0.004  16.923  0.4699  0.2237  0.0850
 6893SOL     OW32311   2.661   2.351  16.139  0.0835  0.0861 -0.1789
 6893SOL    HW132312   2.571   2.363  16.107 -0.1177 -1.5735 -0.2057
 6893SOL    HW232313   2.659   2.284  16.206 -0.6733  0.1303 -0.1511
 6894SOL     OW32314   1.062   3.424   4.320  0.2497  0.0509 -0.7036
 6894SOL    HW132315   0.992   3.458   4.376  0.6588  1.0157 -0.7830
 6894SOL    HW232316   1.138   3.466   4.359 -0.5720  0.9799 -0.1244
 6895SOL     OW32317   0.677   1.959   7.118 -0.3621 -0.3501 -0.0392
 6895SOL    HW132318   0.668   2.053   7.106 -0.3711 -0.1274  1.7300
 6895SOL    HW232319   0.755   1.954   7.173 -1.2446  1.6206  1.3509
 6896SOL     OW32320   0.540   1.096  16.302 -0.4636  0.4722  0.0388
 6896SOL    HW132321   0.540   1.002  16.319  0.0341  0.3811 -0.4705
 6896SOL    HW232322   0.446   1.108  16.287 -0.8255  1.4623  3.0121
 6897SOL     OW32323   1.301   3.798   5.528  0.0212  0.8916 -0.0727
 6897SOL    HW132324   1.250   3.806   5.447 -1.0621 -1.6564  0.3845
 6897SOL    HW232325   1.364   3.869   5.513 -0.2853  1.5997  2.0205
 6898SOL     OW32326   4.375   0.218   3.072 -0.5478  0.5821  0.1447
 6898SOL    HW132327   4.426   0.228   3.152 -0.4191 -1.5523  0.3302
 6898SOL    HW232328   4.427   0.158   3.019 -2.9909 -1.3857 -0.0092
 6899SOL     OW32329   4.575   3.567   6.514  0.0338 -0.5366 -0.1448
 6899SOL    HW132330   4.491   3.612   6.520 -0.2291 -1.1632  0.8491
 6899SOL    HW232331   4.601   3.605   6.430  1.7342 -0.5787  0.3678
 6900SOL     OW32332   0.040   1.970   2.325 -0.0182 -0.0623 -0.1258
 6900SOL    HW132333   0.103   1.899   2.337 -2.3208 -1.9884  0.6287
 6900SOL    HW232334   4.723   1.945   2.397  1.5420  0.8463  1.4328
 6901SOL     OW32335   2.585   0.747   4.947 -0.2821 -0.4765  0.4420
 6901SOL    HW132336   2.626   0.749   5.033 -0.2901  1.9516  0.3812
 6901SOL    HW232337   2.645   0.703   4.887 -0.2532 -0.7950  0.7107
 6902SOL     OW32338   0.515   1.526  13.270 -0.3593 -0.4274 -0.0585
 6902SOL    HW132339   0.510   1.583  13.193 -1.2524 -1.5765 -0.8572
 6902SOL    HW232340   0.598   1.480  13.259 -0.9936 -1.3591 -0.8755
 6903SOL     OW32341   2.224   3.855   6.013  0.0102 -0.2363  0.3208
 6903SOL    HW132342   2.204   3.776   5.963  0.0215  0.3533 -0.6131
 6903SOL    HW232343   2.135   3.875   6.043 -0.6435 -0.7416 -1.3198
 6904SOL     OW32344   3.307   2.235   6.814 -0.4192  0.4421  0.3520
 6904SOL    HW132345   3.294   2.275   6.901 -0.4342 -0.2720  0.6777
 6904SOL    HW232346   3.400   2.226   6.834 -0.8445 -1.5031  1.5102
 6905SOL     OW32347   2.337   1.679   7.870 -0.3251 -0.1483  0.3302
 6905SOL    HW132348   2.432   1.680   7.867 -0.3657  1.2965 -0.8519
 6905SOL    HW232349   2.326   1.669   7.775  0.5641  1.2552  0.0848
 6906SOL     OW32350   1.928   1.708  16.940  0.8899  0.1107  0.3253
 6906SOL    HW132351   1.873   1.782  16.915  1.7172 -0.4327 -3.1487
 6906SOL    HW232352   2.010   1.720  16.892 -0.7877 -0.0646 -2.5806
 6907SOL     OW32353   0.853   0.922  11.655  0.7187 -0.2302  0.1206
 6907SOL    HW132354   0.888   0.928  11.743  1.3919  0.9304 -0.2235
 6907SOL    HW232355   0.826   1.013  11.639  1.7065  0.3895  2.0749
 6908SOL     OW32356   1.255   0.348   8.732  0.3184 -0.1776 -0.2304
 6908SOL    HW132357   1.166   0.330   8.762  0.7657  1.8478  2.3190
 6908SOL    HW232358   1.271   0.427   8.784 -1.2936 -0.8810  1.3165
 6909SOL     OW32359   0.505   0.915   3.682 -0.2180  0.7715 -0.1346
 6909SOL    HW132360   0.431   0.919   3.742  0.6271 -1.7448  1.0951
 6909SOL    HW232361   0.573   0.884   3.742  0.2350  0.4682 -0.7984
 6910SOL     OW32362   2.078   3.235   7.374  0.2842  0.1418 -0.1668
 6910SOL    HW132363   2.057   3.315   7.422 -2.1321 -0.5622 -0.0116
 6910SOL    HW232364   2.173   3.240   7.379  0.2432  1.7127 -0.8682
 6911SOL     OW32365   2.540   0.173   3.033  0.1946 -0.6539  0.4518
 6911SOL    HW132366   2.532   0.246   3.094  3.0742 -0.0712  0.1304
 6911SOL    HW232367   2.453   0.182   2.994 -0.0536 -0.6531  1.0055
 6912SOL     OW32368   4.593   2.342   7.091  0.0143  0.2402 -0.7526
 6912SOL    HW132369   4.621   2.350   7.000  1.3845 -0.9480 -0.4301
 6912SOL    HW232370   4.519   2.281   7.079 -0.7091  1.2393 -1.4059
 6913SOL     OW32371   1.916   1.597   9.028 -0.1218 -0.1864  0.0071
 6913SOL    HW132372   1.833   1.626   8.991  0.2938 -1.4990 -1.9592
 6913SOL    HW232373   1.901   1.614   9.121 -0.0201  1.3787 -0.2672
 6914SOL     OW32374   4.120   0.480  17.403  0.0824 -0.2443  0.3619
 6914SOL    HW132375   4.047   0.479  17.341  0.3441 -0.5090  0.0562
 6914SOL    HW232376   4.185   0.434  17.350 -0.6326 -2.5523  1.5125
 6915SOL     OW32377   1.232   0.794  16.446  0.1097 -0.0378  0.4334
 6915SOL    HW132378   1.263   0.877  16.481  0.0290  0.3205 -0.3501
 6915SOL    HW232379   1.320   0.757  16.434  0.8414  1.5714  0.9403
 6916SOL     OW32380   3.915   0.245  13.042 -0.1030  0.5427  0.2916
 6916SOL    HW132381   4.003   0.223  13.075 -0.0467 -1.0917 -0.9398
 6916SOL    HW232382   3.880   0.171  12.992 -2.9513  1.0059  1.6568
 6917SOL     OW32383   1.919   4.343   5.629 -0.0323 -0.0029 -0.2142
 6917SOL    HW132384   1.894   4.388   5.710  0.6811 -0.0573  0.0315
 6917SOL    HW232385   1.960   4.264   5.663 -0.8615  0.2434  1.3429
 6918SOL     OW32386   2.668   1.145   6.897  0.0339 -0.1353  0.5726
 6918SOL    HW132387   2.625   1.195   6.827 -0.1971 -0.2382  0.6391
 6918SOL    HW232388   2.755   1.183   6.887 -1.4706  2.6561 -1.8934
 6919SOL     OW32389   2.495   1.642   6.369 -0.6812  0.2467  0.3687
 6919SOL    HW132390   2.424   1.597   6.414 -0.8277 -1.5013 -1.6033
 6919SOL    HW232391   2.450   1.710   6.319 -1.5509  0.1154  0.9905
 6920SOL     OW32392   1.924   3.275   2.796  0.3373 -0.1210 -0.1519
 6920SOL    HW132393   1.958   3.364   2.784  0.7056 -0.1053  0.9462
 6920SOL    HW232394   1.893   3.255   2.708  0.5075 -1.6247  0.1256
 6921SOL     OW32395   0.791   4.019   2.898  0.1299 -0.3747 -0.0090
 6921SOL    HW132396   0.778   3.930   2.931 -0.6860 -0.0087  0.6575
 6921SOL    HW232397   0.700   4.047   2.889  0.3018  0.5334  1.1171
 6922SOL     OW32398   4.590   1.042   8.571 -0.4868 -0.0591  0.5177
 6922SOL    HW132399   4.537   0.993   8.508 -1.8279  0.3575  1.3517
 6922SOL    HW232400   4.677   1.005   8.553  1.1213  1.8102  4.6391
 6923SOL     OW32401   2.295   2.012   5.966 -0.5982 -0.3331 -0.1524
 6923SOL    HW132402   2.346   2.016   5.885 -0.7327  1.0388 -0.1559
 6923SOL    HW232403   2.211   2.026   5.923 -1.3662 -0.7946  1.1874
 6924SOL     OW32404   2.511   1.118  12.395  0.0812 -0.2001 -0.2715
 6924SOL    HW132405   2.450   1.056  12.355 -1.0694  1.2803 -0.7956
 6924SOL    HW232406   2.464   1.198  12.372  1.7639  1.0508  0.6697
 6925SOL     OW32407   3.063   3.370  13.155  0.0853 -0.6847 -0.0910
 6925SOL    HW132408   3.000   3.403  13.091 -0.0484 -0.7372  0.0148
 6925SOL    HW232409   3.014   3.319  13.219  0.1373  1.1804  1.4394
 6926SOL     OW32410   0.163   0.626   9.430  0.0772 -0.4354  0.0045
 6926SOL    HW132411   0.212   0.545   9.439 -2.1426 -1.9306 -1.1715
 6926SOL    HW232412   0.241   0.679   9.418 -1.6770  2.7915  2.8699
 6927SOL     OW32413   3.262   0.946  16.633 -0.0782  0.3632 -0.0632
 6927SOL    HW132414   3.248   1.009  16.562  0.5413  0.3094 -0.2345
 6927SOL    HW232415   3.174   0.938  16.669  1.2763 -1.2795  2.9156
 6928SOL     OW32416   3.006   2.322  16.186  0.3945 -0.2459  0.0961
 6928SOL    HW132417   2.970   2.376  16.115  1.2831 -0.8108 -0.7904
 6928SOL    HW232418   2.976   2.240  16.148 -1.5435  0.8630 -0.7620
 6929SOL     OW32419   0.279   0.401   9.494  0.0882 -0.2026 -0.3614
 6929SOL    HW132420   0.244   0.326   9.543  1.8065  0.0913  1.3167
 6929SOL    HW232421   0.281   0.355   9.409 -1.8500  1.2459 -1.1871
 6930SOL     OW32422   0.448   4.475  12.870 -0.2889  0.1270  0.5295
 6930SOL    HW132423   0.468   4.486  12.963 -0.0413  0.6281  0.4153
 6930SOL    HW232424   0.420   4.384  12.864  2.4320 -0.5643 -1.9536
 6931SOL     OW32425   0.349   1.555   0.880  0.3121  0.2908  0.3568
 6931SOL    HW132426   0.360   1.473   0.832  2.4892  0.2029  0.9996
 6931SOL    HW232427   0.362   1.520   0.968  2.0645  1.2121  0.4806
 6932SOL     OW32428   0.354   2.548   5.380  0.4473  0.7729 -0.3101
 6932SOL    HW132429   0.345   2.569   5.473 -0.1750  1.5482 -0.5408
 6932SOL    HW232430   0.439   2.505   5.386  1.3919  2.9836  1.9364
 6933SOL     OW32431   0.523   3.855  17.588 -0.2273  0.7753 -0.3834
 6933SOL    HW132432   0.454   3.866  17.523  0.1932  1.4085 -0.7193
 6933SOL    HW232433   0.546   3.945  17.611  0.1108  0.6298 -0.1436
 6934SOL     OW32434   0.876   2.709  12.473 -0.4445  0.1717 -0.6236
 6934SOL    HW132435   0.847   2.800  12.468 -0.5548  0.1888  0.4463
 6934SOL    HW232436   0.942   2.718  12.542 -2.0175  1.7663  0.6572
 6935SOL     OW32437   0.713   0.201   7.597  0.3093 -0.2913 -0.1833
 6935SOL    HW132438   0.725   0.239   7.684  1.4099 -0.6723 -0.1768
 6935SOL    HW232439   0.618   0.190   7.608  0.2316  0.8331  0.2874
 6936SOL     OW32440   2.355   0.098   6.947  0.4685  0.2895 -0.2685
 6936SOL    HW132441   2.415   0.108   6.872 -1.2956  0.2145 -1.6961
 6936SOL    HW232442   2.282   0.154   6.922  0.0622 -0.4546 -0.7394
 6937SOL     OW32443   1.557   1.724   8.936  0.0551 -0.1956 -0.1529
 6937SOL    HW132444   1.515   1.638   8.939 -2.3362  0.9137 -1.3303
 6937SOL    HW232445   1.515   1.757   9.016  1.2728  0.0215  0.3878
 6938SOL     OW32446   0.166   3.850   4.066  0.4520  1.0702  0.1625
 6938SOL    HW132447   0.156   3.940   4.033 -1.0244 -0.2065 -2.9326
 6938SOL    HW232448   0.138   3.810   3.984  1.8112 -0.7090  0.5797
 6939SOL     OW32449   0.474   1.360  12.993 -0.6568 -0.3652 -0.2774
 6939SOL    HW132450   0.446   1.323  12.910  0.6907 -2.3015  0.1252
 6939SOL    HW232451   0.566   1.334  12.999 -0.7588 -1.0455 -1.8587
 6940SOL     OW32452   2.196   0.682  14.766  0.0779  0.0384  0.5854
 6940SOL    HW132453   2.282   0.722  14.760 -1.4644  2.7524 -3.6267
 6940SOL    HW232454   2.146   0.764  14.775 -1.1465 -0.8059  1.5544
 6941SOL     OW32455   3.166   2.382   9.115  0.0602 -0.0265 -0.2434
 6941SOL    HW132456   3.174   2.341   9.030 -0.3295 -1.0032  0.1911
 6941SOL    HW232457   3.121   2.464   9.093 -0.9162 -0.5222 -0.1087
 6942SOL     OW32458   2.002   1.847   7.541  0.1702  0.5774 -0.0100
 6942SOL    HW132459   1.989   1.872   7.450 -1.0713 -1.4502 -0.3925
 6942SOL    HW232460   2.095   1.826   7.534 -0.1574 -1.1313  0.9001
 6943SOL     OW32461   2.762   4.682  13.556  0.2900 -0.2060  0.2067
 6943SOL    HW132462   2.811   4.608  13.520  0.1964 -0.5258  0.7353
 6943SOL    HW232463   2.714   4.641  13.628 -1.7447  0.5155 -0.7370
 6944SOL     OW32464   0.597   2.217   2.046 -0.0440 -0.0057 -0.5831
 6944SOL    HW132465   0.579   2.258   1.961 -1.2561 -0.3998 -0.5277
 6944SOL    HW232466   0.637   2.135   2.017  1.3662  1.1137 -1.8059
 6945SOL     OW32467   0.769   2.326   4.496 -0.1325 -0.1095  0.1949
 6945SOL    HW132468   0.679   2.347   4.473  0.5405  1.2253 -1.2088
 6945SOL    HW232469   0.763   2.329   4.592  1.6921  1.3469  0.2561
 6946SOL     OW32470   4.137   0.316   7.211  0.3894  0.5757 -0.0137
 6946SOL    HW132471   4.076   0.319   7.138  2.1224 -0.8224 -1.5211
 6946SOL    HW232472   4.130   0.405   7.245 -1.0686 -0.3834  2.1850
 6947SOL     OW32473   0.938   1.380  13.497  0.4018  0.0672  0.1326
 6947SOL    HW132474   0.999   1.306  13.503 -0.6780 -0.6398  2.4318
 6947SOL    HW232475   0.973   1.449  13.554  1.5154  1.1210 -1.8473
 6948SOL     OW32476   2.060   1.184   2.207  0.0526  0.0742 -0.4389
 6948SOL    HW132477   2.112   1.252   2.250 -2.1671 -0.2603  2.7283
 6948SOL    HW232478   2.123   1.144   2.146 -0.1093 -2.3329  0.9584
 6949SOL     OW32479   0.857   3.992  17.632 -0.2659 -0.1533 -0.3508
 6949SOL    HW132480   0.917   4.067  17.633 -0.5628  0.1021 -2.0183
 6949SOL    HW232481   0.777   4.024  17.672 -0.7220 -0.7530 -0.7815
 6950SOL     OW32482   2.423   4.615   7.139 -0.4058  0.0077  0.4476
 6950SOL    HW132483   2.419   4.704   7.102 -0.1319  0.2509  1.0007
 6950SOL    HW232484   2.332   4.604   7.166 -0.1055 -2.9384  0.1974
 6951SOL     OW32485   4.488   2.614  16.351 -0.0894 -0.4143  0.0529
 6951SOL    HW132486   4.427   2.616  16.425  1.5670  0.9678  1.3700
 6951SOL    HW232487   4.496   2.708  16.334  0.2915 -0.5004 -0.2285
 6952SOL     OW32488   0.670   0.840   3.481  0.4078 -0.1116  0.4737
 6952SOL    HW132489   0.628   0.876   3.403  4.0533 -2.8760 -2.7673
 6952SOL    HW232490   0.601   0.863   3.543  0.1026 -1.8056  0.7756
 6953SOL     OW32491   0.376   2.698   3.746 -0.2945  0.2997  0.2713
 6953SOL    HW132492   0.294   2.653   3.725 -0.0498 -0.9318  1.9279
 6953SOL    HW232493   0.368   2.773   3.688  1.4864 -0.1056 -0.4975
 6954SOL     OW32494   2.501   4.070   6.393  0.1637  0.6716  0.4735
 6954SOL    HW132495   2.501   3.975   6.377 -0.3219  0.7915 -0.2672
 6954SOL    HW232496   2.412   4.077   6.427  0.0303 -1.5744  0.6046
 6955SOL     OW32497   0.366   0.655   0.134 -0.5628  0.3232  0.4350
 6955SOL    HW132498   0.351   0.673   0.226 -0.5304  4.0209 -0.2758
 6955SOL    HW232499   0.319   0.727   0.090  1.5453  2.3389  1.4811
 6956SOL     OW32500   2.401   0.684   6.065 -0.3069 -0.5413 -0.0097
 6956SOL    HW132501   2.374   0.775   6.053 -1.1065 -0.6163  1.2610
 6956SOL    HW232502   2.320   0.633   6.068 -0.1382 -0.8840 -1.0505
 6957SOL     OW32503   4.460   3.454   2.307  0.0479 -0.0216  1.3019
 6957SOL    HW132504   4.395   3.394   2.271  1.4084  0.0225 -1.2429
 6957SOL    HW232505   4.413   3.493   2.381 -0.7797  2.5734 -0.5883
 6958SOL     OW32506   2.075   1.382  17.104 -0.0150 -0.4021  0.6114
 6958SOL    HW132507   2.051   1.389  17.011  2.5225 -0.0286 -0.0005
 6958SOL    HW232508   2.097   1.289  17.107  3.6150  0.5008  1.2477
 6959SOL     OW32509   3.020   4.068  14.598  0.2537  0.3787  0.1986
 6959SOL    HW132510   3.027   4.161  14.620 -0.2870  0.1204  1.4436
 6959SOL    HW232511   2.998   4.040  14.687 -0.7730 -0.2481 -0.2476
 6960SOL     OW32512   0.115   3.372  13.615  0.0339 -0.2558 -0.6265
 6960SOL    HW132513   0.104   3.330  13.700 -0.3855  1.1982  0.0409
 6960SOL    HW232514   0.201   3.335  13.593 -0.9429 -3.5346  1.1089
 6961SOL     OW32515   2.105   1.772   3.578  0.1190 -0.1149  0.0902
 6961SOL    HW132516   2.151   1.768   3.662 -0.7952 -2.7132  0.4554
 6961SOL    HW232517   2.099   1.868   3.576 -0.0232 -0.1234  0.1286
 6962SOL     OW32518   3.147   2.391   4.128  0.4861  0.3260  0.1470
 6962SOL    HW132519   3.182   2.468   4.084  2.0669 -0.1287  0.6286
 6962SOL    HW232520   3.135   2.416   4.220 -0.1383  1.8705 -0.3509
 6963SOL     OW32521   1.688   3.844  14.154  0.2713  0.4207  0.0871
 6963SOL    HW132522   1.715   3.752  14.158 -0.4087  0.0536 -3.6518
 6963SOL    HW232523   1.775   3.881  14.168 -0.1179  1.2484  0.2940
 6964SOL     OW32524   2.052   0.215   7.188 -0.5221  0.3176 -0.1123
 6964SOL    HW132525   1.969   0.196   7.231  0.2229  1.7935  2.0035
 6964SOL    HW232526   2.038   0.177   7.101 -2.0501 -0.6402  0.5509
 6965SOL     OW32527   2.233   2.571   5.915  0.5555  0.3145 -0.2474
 6965SOL    HW132528   2.160   2.632   5.908 -0.7758 -1.2869 -0.1873
 6965SOL    HW232529   2.190   2.488   5.898  0.7662  0.3273 -0.8339
 6966SOL     OW32530   0.074   1.820   3.704 -0.1324  0.3431 -0.1726
 6966SOL    HW132531   0.093   1.732   3.739 -2.0956 -0.6507 -1.6239
 6966SOL    HW232532   0.128   1.882   3.753  3.8291 -2.5820 -0.8061
 6967SOL     OW32533   2.835   0.062  10.954 -0.3825  0.4644  0.2262
 6967SOL    HW132534   2.816   0.155  10.945  1.0278  0.5959 -1.2916
 6967SOL    HW232535   2.919   0.069  10.998 -0.5063  4.5100 -0.1527
 6968SOL     OW32536   3.201   3.634  11.959 -0.6930  0.4010  0.2322
 6968SOL    HW132537   3.232   3.557  12.006 -0.9905  0.6019  0.7617
 6968SOL    HW232538   3.214   3.610  11.868  1.8643 -0.6563  0.8904
 6969SOL     OW32539   2.195   0.870  11.943  0.6147 -0.4574 -0.1819
 6969SOL    HW132540   2.206   0.806  12.013 -2.2167 -0.7131  0.0170
 6969SOL    HW232541   2.133   0.934  11.980  1.6540  0.2070  0.4286
 6970SOL     OW32542   2.890   2.402   4.871  0.9673 -0.4994  0.2789
 6970SOL    HW132543   2.874   2.355   4.953 -2.2097 -0.2931 -0.2307
 6970SOL    HW232544   2.986   2.406   4.869  1.0794 -2.1574  1.7767
 6971SOL     OW32545   0.362   0.773  12.461  0.1253 -0.2373 -0.0850
 6971SOL    HW132546   0.333   0.717  12.533  1.7447  0.1968  0.8984
 6971SOL    HW232547   0.347   0.860  12.499 -2.7940 -1.4618  1.4991
 6972SOL     OW32548   1.305   4.004  12.882 -0.0940  0.5599 -0.2485
 6972SOL    HW132549   1.280   3.956  12.804 -0.5282  0.0517  0.2019
 6972SOL    HW232550   1.392   3.971  12.908 -1.3593 -1.3593  1.5727
 6973SOL     OW32551   2.936   4.136  13.028  0.7189  0.8788 -0.8629
 6973SOL    HW132552   2.989   4.069  12.984  1.4498  2.5711 -2.5347
 6973SOL    HW232553   2.849   4.102  13.047  1.7281 -1.1886  0.1199
 6974SOL     OW32554   3.165   3.744   8.429  0.2552  0.0474 -0.1921
 6974SOL    HW132555   3.260   3.732   8.433  0.1528 -0.2050  1.4983
 6974SOL    HW232556   3.131   3.779   8.511 -0.1939 -0.7952 -0.0201
 6975SOL     OW32557   3.781   0.364   5.054 -0.8161  0.7813 -0.2297
 6975SOL    HW132558   3.828   0.405   4.981 -0.1750  1.6858  0.6928
 6975SOL    HW232559   3.724   0.428   5.096  0.4194  2.9087 -1.7907
 6976SOL     OW32560   2.668   1.925   7.211 -0.4207  0.0477  0.4167
 6976SOL    HW132561   2.718   1.993   7.167 -0.6924 -0.7742 -1.1650
 6976SOL    HW232562   2.578   1.937   7.180 -0.0481  0.7801 -0.3777
 6977SOL     OW32563   2.901   0.826   1.919  0.2501 -0.8128 -0.0643
 6977SOL    HW132564   2.942   0.890   1.978 -0.0369 -0.3675 -0.3476
 6977SOL    HW232565   2.977   0.778   1.889  1.4892  0.6456  0.7307
 6978SOL     OW32566   2.984   4.643   4.092  0.2077 -0.2734  0.3849
 6978SOL    HW132567   3.014   4.596   4.014 -1.1669 -0.8196  0.1831
 6978SOL    HW232568   3.061   4.694   4.117 -0.7603  1.0567  0.6547
 6979SOL     OW32569   1.880   4.122   1.244  0.2328  0.4920 -0.4711
 6979SOL    HW132570   1.834   4.057   1.191  0.2751  0.3672 -0.3561
 6979SOL    HW232571   1.804   4.156   1.291  0.5001 -1.5018  1.4283
 6980SOL     OW32572   1.827   3.586   7.166 -0.1518  0.6729 -0.2677
 6980SOL    HW132573   1.877   3.605   7.086  0.2585 -0.1415 -0.2086
 6980SOL    HW232574   1.874   3.506   7.191  0.9367  2.2272  2.7027
 6981SOL     OW32575   3.814   1.768   7.317 -0.1441 -0.0291  0.3676
 6981SOL    HW132576   3.824   1.691   7.372 -1.6385  0.1493  0.8922
 6981SOL    HW232577   3.719   1.772   7.303  0.1882 -0.0479 -1.9741
 6982SOL     OW32578   1.582   3.584   8.267 -0.4312  0.0374  0.4031
 6982SOL    HW132579   1.584   3.511   8.330 -0.3186  1.9401  2.6139
 6982SOL    HW232580   1.676   3.596   8.262 -0.4551  0.1791  0.3009
 6983SOL     OW32581   4.595   0.728  16.724 -0.3919  0.0352 -0.4478
 6983SOL    HW132582   4.634   0.784  16.657 -1.7084 -0.5214 -1.6757
 6983SOL    HW232583   4.602   0.790  16.797 -1.0984 -0.2435 -0.1391
 6984SOL     OW32584   3.882   1.809  12.398 -0.2671  0.5793 -0.1432
 6984SOL    HW132585   3.832   1.801  12.317 -0.6717  0.0338  0.1616
 6984SOL    HW232586   3.953   1.747  12.379  0.1453  1.0703 -0.2171
 6985SOL     OW32587   3.183   4.729   2.906 -0.2486  0.1719  0.5199
 6985SOL    HW132588   3.136   4.671   2.846 -1.3233 -0.0155  1.5492
 6985SOL    HW232589   3.240   4.667   2.952 -0.9055 -0.1835  0.8431
 6986SOL     OW32590   3.359   3.427   5.331  0.0006  0.4459  0.4131
 6986SOL    HW132591   3.298   3.355   5.345  1.8167 -0.9531  1.1031
 6986SOL    HW232592   3.449   3.395   5.340 -0.3478 -0.9073 -0.9831
 6987SOL     OW32593   2.034   4.558   3.262  0.1908 -0.1368  0.1356
 6987SOL    HW132594   2.121   4.518   3.272  0.3341  0.4866  1.4406
 6987SOL    HW232595   2.030   4.576   3.168  0.6970 -0.8307 -0.0238
 6988SOL     OW32596   1.234   1.068   3.513 -0.3806  0.3590  0.3480
 6988SOL    HW132597   1.181   1.033   3.442 -1.2730 -0.3137  1.3601
 6988SOL    HW232598   1.278   0.991   3.548 -2.2206  0.0030  1.8707
 6989SOL     OW32599   3.361   0.341  16.399 -0.1177 -0.0658  0.1141
 6989SOL    HW132600   3.294   0.282  16.365  0.2813 -0.0759 -0.6708
 6989SOL    HW232601   3.405   0.374  16.320 -0.9110  0.5146 -0.0839
 6990SOL     OW32602   3.189   4.219   6.333 -0.5848 -0.5450  0.0726
 6990SOL    HW132603   3.180   4.158   6.260  3.1967 -0.6073 -0.3065
 6990SOL    HW232604   3.149   4.293   6.288  1.6789 -0.1711 -1.2715
 6991SOL     OW32605   2.286   1.368   8.457 -0.0065 -0.1964  0.5620
 6991SOL    HW132606   2.225   1.403   8.521 -1.2731  0.5425 -1.0446
 6991SOL    HW232607   2.364   1.347   8.508  1.7764 -1.8348 -2.7895
 6992SOL     OW32608   2.168   1.631   8.301  1.3940  0.7404 -0.1469
 6992SOL    HW132609   2.109   1.556   8.297  0.4785  1.4230  0.6662
 6992SOL    HW232610   2.188   1.637   8.394 -1.2722  0.6499  0.4270
 6993SOL     OW32611   4.259   1.015   6.394  0.8845 -0.1556  0.0789
 6993SOL    HW132612   4.173   0.988   6.363  0.8297 -0.8430  0.8097
 6993SOL    HW232613   4.298   0.934   6.429  0.1086  0.2872  2.0002
 6994SOL     OW32614   2.388   2.005   8.369 -0.2827 -0.0416 -0.5418
 6994SOL    HW132615   2.401   1.927   8.315 -0.5112 -1.5609  1.6170
 6994SOL    HW232616   2.453   2.056   8.320 -1.8339  2.2294 -0.2179
 6995SOL     OW32617   2.263   1.679   8.596  0.0695  0.1508 -0.4073
 6995SOL    HW132618   2.189   1.630   8.633  0.9598 -0.7887  0.1154
 6995SOL    HW232619   2.338   1.627   8.623 -1.3168 -1.1715  0.9235
 6996SOL     OW32620   4.331   0.454   7.056  0.3552 -0.0574  0.0897
 6996SOL    HW132621   4.420   0.439   7.088 -0.0269 -0.5778  0.9217
 6996SOL    HW232622   4.276   0.414   7.124 -1.9497  0.2553 -1.5940
 6997SOL     OW32623   1.939   0.905  12.096  0.2147  0.2185  0.3016
 6997SOL    HW132624   2.000   0.914  12.169 -1.9800 -2.1920  2.4224
 6997SOL    HW232625   1.929   0.995  12.065 -1.4862 -0.0950 -0.0894
 6998SOL     OW32626   4.372   3.789   0.258  0.0856 -0.5914  0.7368
 6998SOL    HW132627   4.396   3.702   0.228 -0.3552 -0.9528  1.4242
 6998SOL    HW232628   4.281   3.770   0.284 -0.0477 -0.2026  0.5602
 6999SOL     OW32629   0.385   1.358  10.363 -0.4852 -0.2683  0.0135
 6999SOL    HW132630   0.436   1.276  10.362  0.4431  0.2979  1.6580
 6999SOL    HW232631   0.454   1.423  10.377 -1.3070  0.2038  1.7970
 7000SOL     OW32632   3.425   3.855  16.587 -0.5247  0.3568  1.0357
 7000SOL    HW132633   3.428   3.818  16.675  3.0815 -0.0628  0.7439
 7000SOL    HW232634   3.386   3.942  16.594 -2.4762 -0.4333  0.0378
 7001SOL     OW32635   1.709   1.116   0.445  0.2585 -0.0337  0.0811
 7001SOL    HW132636   1.699   1.206   0.415 -0.6300 -0.5769 -1.2564
 7001SOL    HW232637   1.777   1.072   0.394 -0.7163 -0.3537 -0.9444
 7002SOL     OW32638   1.584   3.337   2.099 -0.2086  0.2533  0.0509
 7002SOL    HW132639   1.549   3.260   2.144  0.6780  0.0723  0.4171
 7002SOL    HW232640   1.658   3.352   2.157 -1.7699  0.9075  1.8897
 7003SOL     OW32641   3.538   1.351   3.738 -0.4837 -0.2738 -0.4729
 7003SOL    HW132642   3.591   1.289   3.687 -0.8761 -1.4529  0.5312
 7003SOL    HW232643   3.532   1.428   3.682 -0.6462 -0.4915 -0.7566
 7004SOL     OW32644   0.530   2.930  15.574  0.5362  0.6524  0.2408
 7004SOL    HW132645   0.485   2.988  15.513  1.0088  1.8155  1.0037
 7004SOL    HW232646   0.552   2.995  15.640  1.5358  1.2139 -0.6432
 7005SOL     OW32647   3.201   4.470   7.818 -0.1002  0.0422 -0.0336
 7005SOL    HW132648   3.294   4.492   7.818  0.5767 -2.8765 -1.4339
 7005SOL    HW232649   3.192   4.393   7.762 -1.9196  1.1940 -1.3272
 7006SOL     OW32650   0.011   0.593  15.926  0.1814  0.1651  0.5388
 7006SOL    HW132651   4.689   0.540  15.878 -0.0518  1.9571 -1.1269
 7006SOL    HW232652   4.703   0.675  15.918  0.9223  0.5856  0.2079
 7007SOL     OW32653   1.329   1.688   7.168  0.4400  0.1595  0.1983
 7007SOL    HW132654   1.316   1.597   7.196 -1.8566  1.1380  2.3193
 7007SOL    HW232655   1.259   1.701   7.104 -0.2447  0.2902  0.9715
 7008SOL     OW32656   3.541   3.001  13.745  0.4187 -0.1245 -0.3702
 7008SOL    HW132657   3.543   2.925  13.803  1.5395  1.5670  1.7883
 7008SOL    HW232658   3.451   2.989  13.714  0.4173  2.2642 -1.2891
 7009SOL     OW32659   0.126   0.759   3.139 -0.4295 -0.3223  0.0819
 7009SOL    HW132660   0.157   0.698   3.072 -1.5039  0.6219 -1.2774
 7009SOL    HW232661   0.201   0.775   3.195 -1.4657  2.2826  0.7213
 7010SOL     OW32662   2.592   3.514   5.052  0.1966 -0.3139  0.3882
 7010SOL    HW132663   2.681   3.516   5.088  0.7397 -1.9493 -0.8692
 7010SOL    HW232664   2.551   3.503   5.137 -0.1990  2.4881  0.5612
 7011SOL     OW32665   2.111   0.433   3.391 -0.0187 -0.1695 -0.1929
 7011SOL    HW132666   2.153   0.480   3.463 -0.9616 -0.1657  0.3481
 7011SOL    HW232667   2.181   0.401   3.334  1.2719  1.8941  0.2322
 7012SOL     OW32668   3.853   0.352   2.640 -0.6890  0.4034 -0.7341
 7012SOL    HW132669   3.896   0.342   2.725 -2.1733  0.2023 -0.0065
 7012SOL    HW232670   3.789   0.280   2.642 -2.6033  2.1033 -0.7620
 7013SOL     OW32671   1.547   3.941  13.941 -0.0409 -0.1191 -0.1125
 7013SOL    HW132672   1.620   3.975  13.890 -0.5410  1.6587  0.3458
 7013SOL    HW232673   1.576   3.921  14.029  0.9872 -0.1130 -0.4582
 7014SOL     OW32674   4.601   1.415   6.211  0.1048 -0.0349 -0.7628
 7014SOL    HW132675   4.516   1.401   6.169 -0.0223 -2.6125  0.3922
 7014SOL    HW232676   4.610   1.347   6.278  1.9938  0.5366 -0.4355
 7015SOL     OW32677   1.193   0.254   2.377  0.0470 -0.3023  0.2618
 7015SOL    HW132678   1.157   0.195   2.311  1.3327 -1.6116  0.7449
 7015SOL    HW232679   1.161   0.335   2.335 -0.0360 -0.6944 -0.4400
 7016SOL     OW32680   0.943   3.007   6.063 -0.0413  0.5279 -0.0675
 7016SOL    HW132681   0.916   3.022   6.154  0.3150 -1.1840  0.3096
 7016SOL    HW232682   0.891   2.930   6.041  0.9923  1.0476 -4.2608
 7017SOL     OW32683   3.890   0.515   3.446  0.5022  0.2041  0.3258
 7017SOL    HW132684   3.867   0.607   3.433  1.4350  0.2686 -0.8427
 7017SOL    HW232685   3.984   0.494   3.448  0.0940 -1.6337  0.0160
 7018SOL     OW32686   4.581   0.649  14.294 -0.2036  0.0733 -0.8452
 7018SOL    HW132687   4.527   0.585  14.248  2.0659 -1.0165 -2.0023
 7018SOL    HW232688   4.664   0.631  14.250  0.8126 -0.0833  1.1595
 7019SOL     OW32689   1.903   2.814   6.180  0.1595  0.5539 -0.2325
 7019SOL    HW132690   1.862   2.802   6.094 -0.3585 -0.3143  0.1358
 7019SOL    HW232691   1.874   2.902   6.204 -0.4127  0.4895 -0.6834
 7020SOL     OW32692   2.906   2.956   2.749  0.0251  0.8408  0.2609
 7020SOL    HW132693   2.963   3.034   2.750  1.6367 -0.3073 -1.3764
 7020SOL    HW232694   2.902   2.941   2.654  0.4964 -1.0649  0.5448
 7021SOL     OW32695   0.126   0.203   5.808  0.0909  0.2255 -0.2894
 7021SOL    HW132696   0.184   0.154   5.865 -1.6854 -1.1970  0.3142
 7021SOL    HW232697   0.043   0.165   5.840 -0.5300  2.0827  0.2957
 7022SOL     OW32698   2.826   1.090   9.202 -0.0922  0.6437 -0.4295
 7022SOL    HW132699   2.735   1.107   9.226  0.0064  0.2120  0.2335
 7022SOL    HW232700   2.814   1.001   9.170 -1.5716  1.1127 -1.1971
 7023SOL     OW32701   1.300   1.813   6.737 -0.2490 -0.4649  0.0633
 7023SOL    HW132702   1.375   1.841   6.789 -0.7904  0.3986  0.3775
 7023SOL    HW232703   1.252   1.759   6.799  1.8444  0.6242  2.6264
 7024SOL     OW32704   2.371   1.379   9.186  0.0246  0.1854 -0.2409
 7024SOL    HW132705   2.291   1.432   9.186 -0.7452 -0.9962  0.7682
 7024SOL    HW232706   2.343   1.311   9.125 -2.2182 -1.3561  2.5585
 7025SOL     OW32707   2.381   2.512  15.135  0.5653  0.5482  0.8268
 7025SOL    HW132708   2.429   2.446  15.084 -0.8258  0.4349 -0.3327
 7025SOL    HW232709   2.451   2.571  15.162  0.5729  0.1635  1.6547
 7026SOL     OW32710   2.705   3.669   3.219  0.3368  0.0074 -0.0839
 7026SOL    HW132711   2.694   3.691   3.126  1.0861  0.9800  0.0547
 7026SOL    HW232712   2.662   3.735   3.273  1.3599  1.2574 -0.7997
 7027SOL     OW32713   0.299   0.371   1.184  0.9665 -0.0620  0.0990
 7027SOL    HW132714   0.299   0.464   1.207  1.6494  0.0906 -0.5368
 7027SOL    HW232715   0.310   0.373   1.089  1.3384  1.3555  0.1765
 7028SOL     OW32716   3.557   0.199   3.444 -0.2934 -0.5373  0.3527
 7028SOL    HW132717   3.521   0.111   3.455  1.4121 -1.6119 -2.5380
 7028SOL    HW232718   3.514   0.244   3.516  1.7560  0.6929  0.8023
 7029SOL     OW32719   3.380   1.754   2.988  0.6512  0.2489 -0.1021
 7029SOL    HW132720   3.407   1.846   2.988 -2.3592  1.1650 -1.1156
 7029SOL    HW232721   3.337   1.738   2.903 -1.5609 -1.6927  1.3699
 7030SOL     OW32722   0.787   0.781  11.460  0.6168 -0.3842  0.0753
 7030SOL    HW132723   0.816   0.819  11.542 -0.3164  0.6540 -0.0857
 7030SOL    HW232724   0.738   0.853  11.420  0.8187 -0.1167  0.3143
 7031SOL     OW32725   4.234   0.579   7.586 -0.7887  0.0781 -0.1511
 7031SOL    HW132726   4.238   0.665   7.627  0.5324 -0.3217  0.5415
 7031SOL    HW232727   4.241   0.516   7.658 -0.5509 -0.4900 -0.6759
 7032SOL     OW32728   1.305   2.058   1.033  0.1432  0.1268  0.0902
 7032SOL    HW132729   1.390   2.054   1.076 -0.2580  1.2671  0.9829
 7032SOL    HW232730   1.258   2.000   1.093  0.1222 -0.1353 -0.1802
 7033SOL     OW32731   3.074   3.645   7.841 -0.3646  0.3666 -0.0654
 7033SOL    HW132732   3.054   3.723   7.893  2.3032  1.4980 -0.7310
 7033SOL    HW232733   2.983   3.618   7.826 -0.4670  1.2316 -1.0166
 7034SOL     OW32734   0.470   3.006   3.073 -0.8433  0.1879 -0.3059
 7034SOL    HW132735   0.399   2.961   3.119 -0.3523  0.7032  0.9530
 7034SOL    HW232736   0.544   2.946   3.076 -0.2909  0.8930  0.1863
 7035SOL     OW32737   1.927   3.900   5.953  0.5191 -0.0776 -0.4886
 7035SOL    HW132738   1.869   3.865   6.020 -0.4544  0.4589 -1.0391
 7035SOL    HW232739   1.864   3.914   5.882 -0.5485 -2.1366  0.0525
 7036SOL     OW32740   2.795   1.119   8.047  0.3183  0.2567  0.0834
 7036SOL    HW132741   2.859   1.116   7.976 -1.0636  2.1441 -1.2416
 7036SOL    HW232742   2.760   1.203   8.018 -1.6553 -0.9069 -0.9934
 7037SOL     OW32743   3.509   3.919   2.418 -0.1288  0.6794  0.3865
 7037SOL    HW132744   3.474   3.842   2.373 -0.4547  0.9759  0.1293
 7037SOL    HW232745   3.600   3.916   2.388 -0.2550  0.7100 -0.0023
 7038SOL     OW32746   4.263   0.362   5.189 -0.1781 -0.5087 -0.2518
 7038SOL    HW132747   4.298   0.402   5.110 -0.9513  1.2558  0.2874
 7038SOL    HW232748   4.184   0.318   5.158 -0.4470 -0.0669 -0.2117
 7039SOL     OW32749   1.814   2.855  16.311  0.2078  0.8139  0.6676
 7039SOL    HW132750   1.762   2.935  16.307 -0.1125  0.5297 -0.8881
 7039SOL    HW232751   1.812   2.836  16.404 -2.1360 -1.4981  0.1619
 7040SOL     OW32752   1.500   1.651  15.033  0.1593 -0.6700 -0.1883
 7040SOL    HW132753   1.551   1.732  15.032 -1.8267  0.5984  0.0327
 7040SOL    HW232754   1.486   1.634  15.126 -0.2709  0.9951  0.0617
 7041SOL     OW32755   3.199   1.450   1.548 -0.6087  0.1740  0.2241
 7041SOL    HW132756   3.219   1.359   1.569 -0.4381  0.0749 -0.3695
 7041SOL    HW232757   3.164   1.485   1.630 -0.3685  0.9115  0.0121
 7042SOL     OW32758   2.406   3.427   2.530 -0.1804 -0.3091 -0.1258
 7042SOL    HW132759   2.340   3.486   2.493  0.1380  0.4091  0.4405
 7042SOL    HW232760   2.419   3.455   2.621  3.5347  0.2831 -0.8435
 7043SOL     OW32761   1.282   0.427  16.377  0.2111 -0.0239  0.2300
 7043SOL    HW132762   1.252   0.483  16.305 -1.1078 -1.9331 -0.6993
 7043SOL    HW232763   1.369   0.399  16.348  0.1416 -0.7627  0.7320
 7044SOL     OW32764   1.069   0.843   3.702  0.0031  0.0405 -0.5891
 7044SOL    HW132765   0.979   0.852   3.731  0.0098 -0.1847 -0.4959
 7044SOL    HW232766   1.049   0.837   3.608  2.3801 -3.7442 -0.8772
 7045SOL     OW32767   0.059   4.473   5.152 -0.0855  0.1375  0.3545
 7045SOL    HW132768   0.130   4.483   5.089 -0.6175  1.6675  0.0140
 7045SOL    HW232769   0.026   4.385   5.135 -0.0021  0.0277  0.7600
 7046SOL     OW32770   2.543   2.177   8.223  0.3797  0.3383  0.1991
 7046SOL    HW132771   2.504   2.157   8.137 -1.6765  0.6589  1.0589
 7046SOL    HW232772   2.545   2.271   8.207  2.1545  0.1104 -0.9291
 7047SOL     OW32773   1.991   0.521   1.023 -0.0040 -0.1168 -0.0947
 7047SOL    HW132774   2.072   0.501   1.070 -0.0723 -1.9316 -0.7813
 7047SOL    HW232775   1.944   0.585   1.077  0.7962  1.1979 -0.9502
 7048SOL     OW32776   0.491   1.608  10.445  0.4811  0.5875  0.3542
 7048SOL    HW132777   0.545   1.581  10.520 -2.4767  0.8324  2.5530
 7048SOL    HW232778   0.511   1.700  10.430  0.6666 -0.0576 -3.3119
 7049SOL     OW32779   0.782   2.724   5.174 -0.7202  0.0619 -0.1716
 7049SOL    HW132780   0.753   2.802   5.221  0.2103  0.3779 -0.1093
 7049SOL    HW232781   0.709   2.708   5.114  0.4251 -0.8581 -1.3181
 7050SOL     OW32782   1.963   3.807   9.862  0.2606  0.0866  0.7241
 7050SOL    HW132783   1.949   3.741   9.929  1.9095  1.8629  2.8568
 7050SOL    HW232784   1.891   3.779   9.807  0.1382  0.9632  0.4258
 7051SOL     OW32785   2.164   4.273   7.090 -0.3273 -0.4200  0.1271
 7051SOL    HW132786   2.083   4.318   7.116  0.5665  0.8742  0.6748
 7051SOL    HW232787   2.135   4.205   7.028  0.5255  0.9278 -1.7613
 7052SOL     OW32788   0.735   0.858  13.433  0.1530 -0.6115  0.5384
 7052SOL    HW132789   0.719   0.890  13.522  0.0641  0.2897  0.1937
 7052SOL    HW232790   0.821   0.817  13.448  1.1975  1.3340 -0.0649
 7053SOL     OW32791   3.742   4.138   9.361  0.4575  0.1040  0.0393
 7053SOL    HW132792   3.761   4.213   9.417 -1.1774 -0.7367  1.7133
 7053SOL    HW232793   3.649   4.158   9.356  0.4747  0.7059  2.3016
 7054SOL     OW32794   3.559   3.496   8.190 -0.1148  0.1150 -0.2410
 7054SOL    HW132795   3.472   3.503   8.151  0.1993  0.7331 -0.8298
 7054SOL    HW232796   3.566   3.401   8.196 -1.7332  0.0225  0.0557
 7055SOL     OW32797   3.514   0.893   8.057 -0.0325  0.5571 -0.1565
 7055SOL    HW132798   3.486   0.801   8.059  0.8104  0.3701  2.5093
 7055SOL    HW232799   3.509   0.916   7.964 -0.4112  1.6125  0.1279
 7056SOL     OW32800   4.229   3.902   1.345 -0.4457  0.1366  0.1738
 7056SOL    HW132801   4.228   3.844   1.268 -2.7180 -0.1159  0.3955
 7056SOL    HW232802   4.172   3.859   1.409  2.6339 -2.3349  1.2953
 7057SOL     OW32803   3.595   2.528  17.217 -0.4774  0.7485 -0.1264
 7057SOL    HW132804   3.533   2.579  17.166  0.4537  1.9342 -0.0566
 7057SOL    HW232805   3.604   2.452  17.160 -4.8571 -0.8354  1.2906
 7058SOL     OW32806   2.222   3.954  13.810 -0.3126 -0.1362  0.1272
 7058SOL    HW132807   2.258   3.983  13.894 -3.3485 -0.0448  1.4321
 7058SOL    HW232808   2.166   3.882  13.841 -2.3925  1.6721  0.6405
 7059SOL     OW32809   3.513   3.960   1.081 -0.6533  0.4601  0.0942
 7059SOL    HW132810   3.560   3.999   1.007 -3.2915  1.7541 -0.9077
 7059SOL    HW232811   3.422   3.974   1.058  0.0556  2.3495 -1.5707
 7060SOL     OW32812   1.563   3.085   8.300 -0.4920  0.9352  0.1598
 7060SOL    HW132813   1.630   3.018   8.284 -0.9523 -0.0527  2.2602
 7060SOL    HW232814   1.616   3.160   8.272 -0.2024  0.7503  0.2119
 7061SOL     OW32815   0.890   0.625   8.778  0.1824  0.1527  0.0501
 7061SOL    HW132816   0.943   0.667   8.846 -1.9585 -0.0251  1.8341
 7061SOL    HW232817   0.865   0.705   8.730 -0.6928  2.5627  4.4892
 7062SOL     OW32818   3.525   3.225   8.162 -0.3466 -0.4517 -0.1151
 7062SOL    HW132819   3.457   3.202   8.224 -0.9162 -2.4332 -1.4855
 7062SOL    HW232820   3.519   3.154   8.097 -1.5978  0.0868 -0.6011
 7063SOL     OW32821   1.857   0.445   3.296 -0.0518 -0.0510 -0.0903
 7063SOL    HW132822   1.937   0.443   3.348 -0.0488 -2.4650 -0.1879
 7063SOL    HW232823   1.874   0.516   3.234  0.9637  0.5117  0.8354
 7064SOL     OW32824   2.304   2.215   2.364 -0.4190  0.4317  0.2927
 7064SOL    HW132825   2.331   2.154   2.432 -0.0161  0.1032 -0.1594
 7064SOL    HW232826   2.383   2.270   2.367  0.8280 -1.2351 -2.0401
 7065SOL     OW32827   0.679   3.160   4.256 -0.0088 -0.2722  0.3269
 7065SOL    HW132828   0.719   3.075   4.235 -0.1882 -0.5988  1.2822
 7065SOL    HW232829   0.686   3.155   4.352  1.4378 -0.6912  0.1928
 7066SOL     OW32830   0.064   0.201   4.238 -0.2704  0.1573 -0.5566
 7066SOL    HW132831   0.106   0.188   4.153  1.8625  2.7500  0.0814
 7066SOL    HW232832   0.129   0.259   4.277  0.3371 -1.0570  0.2410
 7067SOL     OW32833   1.735   0.783  11.934 -0.6590 -0.0087  0.2556
 7067SOL    HW132834   1.791   0.839  11.988  0.9064 -0.6341 -0.7029
 7067SOL    HW232835   1.776   0.698  11.950 -0.2227  0.2851  0.6879
 7068SOL     OW32836   0.880   0.787   1.802  0.1557 -0.1826  0.0008
 7068SOL    HW132837   0.836   0.732   1.868  1.9150 -0.6327  0.8014
 7068SOL    HW232838   0.807   0.846   1.781  1.7793  1.2057 -1.7067
 7069SOL     OW32839   1.050   0.900  14.287  0.0235  0.5573  0.1432
 7069SOL    HW132840   1.120   0.858  14.237 -0.6547  0.1734 -0.4918
 7069SOL    HW232841   0.976   0.840  14.275  0.5199 -0.2087  0.8865
 7070SOL     OW32842   3.659   0.207   4.009 -0.6077 -0.7801 -0.0587
 7070SOL    HW132843   3.693   0.295   3.995 -3.1571  0.1748 -0.2129
 7070SOL    HW232844   3.732   0.149   4.030 -1.3316 -1.6183  0.1326
 7071SOL     OW32845   1.204   0.673   4.126  0.3206  0.1004  0.4780
 7071SOL    HW132846   1.187   0.753   4.076  1.1312 -0.4360 -0.6454
 7071SOL    HW232847   1.112   0.648   4.127  0.4308 -0.2831  1.4106
 7072SOL     OW32848   0.470   4.024   0.762  0.2218 -0.6280 -0.2343
 7072SOL    HW132849   0.540   3.973   0.803 -0.4773 -0.4902  1.1290
 7072SOL    HW232850   0.517   4.107   0.752 -1.3789  0.2931 -0.0764
 7073SOL     OW32851   1.136   0.049   8.847 -0.2621  0.0853 -0.0251
 7073SOL    HW132852   1.186   0.086   8.920 -0.4959  1.0437 -0.3649
 7073SOL    HW232853   1.055   0.034   8.896 -0.2438 -0.4115 -0.1461
 7074SOL     OW32854   4.692   0.976   3.770  0.3076  0.2049  0.4020
 7074SOL    HW132855   4.657   1.029   3.841  0.2176 -1.2338  1.4311
 7074SOL    HW232856   4.630   0.994   3.699  0.2166  0.2095  0.4830
 7075SOL     OW32857   0.375   3.630   3.819  0.0230  0.7243  0.2273
 7075SOL    HW132858   0.383   3.660   3.909 -1.2160  0.4421  0.4312
 7075SOL    HW232859   0.405   3.540   3.834  3.5320  1.7572 -0.5123
 7076SOL     OW32860   0.568   0.974   3.982  0.1149  0.1543 -0.3427
 7076SOL    HW132861   0.492   1.022   4.015 -0.1641 -0.9437  0.5802
 7076SOL    HW232862   0.601   0.934   4.062  0.1729  0.8462 -0.0189
 7077SOL     OW32863   1.632   2.002   6.626 -0.5312  0.6716  0.3681
 7077SOL    HW132864   1.712   2.054   6.636  0.0106 -0.3174  1.1758
 7077SOL    HW232865   1.582   2.063   6.572 -0.8854  0.6521  0.6797
 7078SOL     OW32866   0.018   3.869   9.880  0.6486  0.3867 -1.0340
 7078SOL    HW132867   0.099   3.880   9.829 -0.0883  2.4927 -1.7449
 7078SOL    HW232868   4.705   3.945   9.860  0.6384  0.6656  0.0850
 7079SOL     OW32869   1.136   1.254   8.984  0.0270 -0.0169  1.0027
 7079SOL    HW132870   1.079   1.187   9.022  0.6343 -1.2725 -0.3181
 7079SOL    HW232871   1.095   1.338   9.007 -1.0065  0.0158 -1.0099
 7080SOL     OW32872   0.988   0.957  14.541 -0.8719  0.2158  0.0401
 7080SOL    HW132873   1.024   0.958  14.452 -0.5293 -0.3494  0.1698
 7080SOL    HW232874   1.004   1.046  14.570 -2.4657 -0.0631  1.7768
 7081SOL     OW32875   0.732   0.623  16.337 -0.0989 -0.3800  0.1956
 7081SOL    HW132876   0.778   0.699  16.373 -0.5793 -1.5170  3.2213
 7081SOL    HW232877   0.684   0.663  16.265 -1.2302  0.8908  1.6711
 7082SOL     OW32878   2.099   3.523   9.567  0.1656 -0.6955 -0.5429
 7082SOL    HW132879   2.172   3.584   9.581  0.2721 -1.3172  1.5104
 7082SOL    HW232880   2.146   3.443   9.591 -1.2014 -1.3565 -0.1180
 7083SOL     OW32881   1.340   1.603   6.128  0.2549  0.0684  0.6423
 7083SOL    HW132882   1.268   1.633   6.183 -0.1641 -2.9292  1.7526
 7083SOL    HW232883   1.350   1.666   6.057  0.8340  0.1280  0.7790
 7084SOL     OW32884   3.478   1.093   6.744  0.1843 -0.1286 -0.6256
 7084SOL    HW132885   3.390   1.121   6.771 -0.6915 -0.5340 -3.0450
 7084SOL    HW232886   3.497   1.023   6.806  2.1748  0.1741 -0.9008
 7085SOL     OW32887   3.883   3.846   5.250  0.4007  0.4291  0.2902
 7085SOL    HW132888   3.938   3.893   5.313  0.0643  0.4849  0.5431
 7085SOL    HW232889   3.817   3.912   5.230 -0.0845 -0.5073 -1.1588
 7086SOL     OW32890   2.922   4.425  11.108 -0.1991  0.3674  0.0595
 7086SOL    HW132891   2.995   4.397  11.052 -0.3665 -1.1732  0.6366
 7086SOL    HW232892   2.942   4.400  11.198 -1.2970 -1.6477 -0.2688
 7087SOL     OW32893   2.018   3.534  13.710 -0.4458  0.2389 -0.0582
 7087SOL    HW132894   2.027   3.453  13.661 -0.0568  0.4059 -0.2598
 7087SOL    HW232895   2.109   3.562  13.705 -0.1754 -0.7132 -0.4933
 7088SOL     OW32896   2.286   3.868   3.860 -0.4671 -0.6598  0.2727
 7088SOL    HW132897   2.223   3.932   3.827  1.4825  2.0464  1.8101
 7088SOL    HW232898   2.305   3.906   3.946 -0.9016  0.9148 -0.3436
 7089SOL     OW32899   3.118   0.507   6.847  0.0685 -0.1681  0.1150
 7089SOL    HW132900   3.185   0.575   6.844 -2.8220  2.6274 -0.5071
 7089SOL    HW232901   3.065   0.539   6.920  0.9132 -0.3667  0.8119
 7090SOL     OW32902   2.895   4.006   5.234  0.0584  0.0168  0.3264
 7090SOL    HW132903   2.883   3.941   5.304 -0.5904  1.4304  1.5172
 7090SOL    HW232904   2.965   4.062   5.267 -0.0870  1.4447 -1.7620
 7091SOL     OW32905   1.874   1.942   1.804 -0.1642  0.6661  0.3227
 7091SOL    HW132906   1.780   1.922   1.811  0.8258 -3.8839  0.5618
 7091SOL    HW232907   1.873   2.035   1.779  0.6301  0.3075 -1.0513
 7092SOL     OW32908   1.532   4.307   5.053  0.2310  0.4773  0.0148
 7092SOL    HW132909   1.529   4.388   5.104 -0.5895  0.1964  0.4122
 7092SOL    HW232910   1.451   4.261   5.076 -0.2654  1.4652  0.2396
 7093SOL     OW32911   4.328   4.399   1.119  0.9188 -0.2370 -0.0420
 7093SOL    HW132912   4.281   4.459   1.177  1.4094  1.1892 -1.1058
 7093SOL    HW232913   4.289   4.314   1.138  0.8138  0.1313  1.3892
 7094SOL     OW32914   0.432   4.295   5.347 -0.9896  0.0591 -0.3381
 7094SOL    HW132915   0.376   4.275   5.272  0.4080 -0.6031 -1.2014
 7094SOL    HW232916   0.385   4.283   5.430 -0.8338 -1.8267 -0.5199
 7095SOL     OW32917   2.686   4.266  14.488 -0.3821  0.3752 -0.1072
 7095SOL    HW132918   2.719   4.188  14.445  0.2948 -0.2015  1.4471
 7095SOL    HW232919   2.657   4.314  14.410 -0.3463 -2.0473 -1.5869
 7096SOL     OW32920   1.330   0.916  10.193  0.3218 -0.5363  0.0085
 7096SOL    HW132921   1.279   0.952  10.120  2.1516 -2.1115 -2.0463
 7096SOL    HW232922   1.259   0.891  10.252 -2.1207  0.1416 -2.6188
 7097SOL     OW32923   0.233   3.558   8.877 -0.5249 -0.1776  0.2386
 7097SOL    HW132924   0.296   3.486   8.874  0.0724  0.3788 -0.6523
 7097SOL    HW232925   0.152   3.518   8.847  0.0358  0.3226 -1.9068
 7098SOL     OW32926   2.831   3.187   9.288  0.2237  0.0379  0.0152
 7098SOL    HW132927   2.859   3.096   9.296  0.7514  0.1914 -0.0854
 7098SOL    HW232928   2.743   3.194   9.325 -0.3669  0.7201 -1.4893
 7099SOL     OW32929   0.464   1.590  17.040  0.7739  0.2955  0.2037
 7099SOL    HW132930   0.506   1.673  17.061  0.6730  0.3622  0.1436
 7099SOL    HW232931   0.540   1.537  17.016  0.5220 -0.2620  0.6626
 7100SOL     OW32932   0.900   2.786   6.703 -0.1468  0.1417 -0.6565
 7100SOL    HW132933   0.858   2.748   6.780 -0.9671  1.2645 -0.5546
 7100SOL    HW232934   0.825   2.804   6.646 -0.9122  2.3762  1.0684
 7101SOL     OW32935   2.286   1.633  16.226 -0.2220 -0.1074 -0.4678
 7101SOL    HW132936   2.343   1.709  16.217  1.0189 -1.0077 -0.2241
 7101SOL    HW232937   2.288   1.604  16.135 -1.5171  0.9359 -0.8279
 7102SOL     OW32938   0.519   4.661  15.320  0.3704 -0.3869  0.1792
 7102SOL    HW132939   0.549   4.697  15.404  1.2707 -0.2312 -0.2104
 7102SOL    HW232940   0.434   4.703  15.308 -0.2399 -1.3303  1.2373
 7103SOL     OW32941   2.932   2.101  11.521 -0.2665 -0.5648 -0.1896
 7103SOL    HW132942   3.001   2.057  11.572 -0.4872 -1.8989 -1.0410
 7103SOL    HW232943   2.922   2.036  11.452  0.0670 -0.1799 -0.5984
 7104SOL     OW32944   2.459   1.587  16.941  0.3955  0.6297  0.5648
 7104SOL    HW132945   2.419   1.538  16.869  0.6509 -1.7361  2.0277
 7104SOL    HW232946   2.547   1.604  16.907 -1.1693 -0.2379 -3.8561
 7105SOL     OW32947   2.635   0.841  10.973 -0.3953  0.4307 -0.7395
 7105SOL    HW132948   2.609   0.781  11.043 -1.2647  0.2136 -1.2511
 7105SOL    HW232949   2.653   0.776  10.905  1.0897  1.7266 -1.5963
 7106SOL     OW32950   0.733   1.798   1.789 -0.4606  0.0386 -0.1393
 7106SOL    HW132951   0.740   1.704   1.770  2.1205  0.5674 -1.9115
 7106SOL    HW232952   0.826   1.818   1.801 -0.6283  0.2408  0.8423
 7107SOL     OW32953   0.046   4.248  16.721  0.5918 -0.3220 -0.0599
 7107SOL    HW132954   0.071   4.214  16.636  1.3537 -0.1544  0.0940
 7107SOL    HW232955   4.692   4.247  16.720  0.5789  0.9237 -0.5702
 7108SOL     OW32956   4.369   1.701   8.137 -0.5775  0.0994 -0.1754
 7108SOL    HW132957   4.287   1.750   8.132 -1.2004 -1.0651 -1.3281
 7108SOL    HW232958   4.346   1.617   8.097  1.1204  0.5207 -2.0203
 7109SOL     OW32959   0.598   2.707  15.341 -0.0651 -0.2949  0.3431
 7109SOL    HW132960   0.607   2.643  15.270 -0.5525  0.5431 -0.4891
 7109SOL    HW232961   0.539   2.769  15.297 -0.5569  0.2136  1.7404
 7110SOL     OW32962   4.123   4.690  16.149  0.1548  0.5803  0.2827
 7110SOL    HW132963   4.043   4.679  16.201 -1.0063  0.2572 -1.5925
 7110SOL    HW232964   4.104   4.633  16.075 -0.1167  0.6154  0.3239
 7111SOL     OW32965   0.215   2.837   7.203 -0.4257 -0.5423  0.3819
 7111SOL    HW132966   0.186   2.793   7.282  0.5857 -1.4317  0.2586
 7111SOL    HW232967   0.234   2.762   7.146  1.4749 -0.7003  1.2375
 7112SOL     OW32968   1.489   2.448   4.348  0.2900 -0.2698 -0.3708
 7112SOL    HW132969   1.574   2.425   4.386  0.8405  1.8692 -0.2848
 7112SOL    HW232970   1.447   2.362   4.348  1.7671 -1.0004  3.3284
 7113SOL     OW32971   2.071   1.676   4.445  0.6090  0.3027 -0.3638
 7113SOL    HW132972   2.123   1.681   4.525  0.3321  3.6483 -0.4012
 7113SOL    HW232973   2.099   1.755   4.399  1.5266 -1.0629 -2.1597
 7114SOL     OW32974   3.690   3.830  11.478 -0.1985  0.0210  0.1460
 7114SOL    HW132975   3.652   3.918  11.482  0.1309  0.2551 -1.6831
 7114SOL    HW232976   3.756   3.845  11.545 -0.1313 -0.1726  0.1216
 7115SOL     OW32977   1.163   1.073   6.916  0.6467  0.2285 -0.2279
 7115SOL    HW132978   1.168   0.988   6.959  0.7157  1.8863  3.0524
 7115SOL    HW232979   1.226   1.070   6.844  0.4082 -1.5409 -0.3640
 7116SOL     OW32980   3.982   1.787   6.646  0.5522  0.7657 -0.1584
 7116SOL    HW132981   3.954   1.757   6.560 -0.9130 -1.5472  1.1320
 7116SOL    HW232982   4.075   1.768   6.631  0.7492  1.4383  0.1765
 7117SOL     OW32983   0.615   2.494   9.197 -0.4714 -0.1098  0.0569
 7117SOL    HW132984   0.569   2.483   9.279 -0.3938  2.0564  0.3936
 7117SOL    HW232985   0.584   2.414   9.154  0.7862 -1.0668  0.8955
 7118SOL     OW32986   0.697   1.163   9.115  0.4251  0.4744 -0.6349
 7118SOL    HW132987   0.704   1.259   9.116  1.6958  0.3235  2.8322
 7118SOL    HW232988   0.716   1.147   9.022  2.1435 -1.7107  0.1100
 7119SOL     OW32989   2.795   4.071  13.971  0.3462  0.4033 -0.4861
 7119SOL    HW132990   2.811   4.027  14.055  0.3358  0.1674 -0.6082
 7119SOL    HW232991   2.700   4.083  13.972  0.2545 -0.4525  0.7852
 7120SOL     OW32992   0.371   1.394   8.617 -0.0349  0.6334  0.8772
 7120SOL    HW132993   0.411   1.362   8.536 -1.6849 -2.5740  1.3446
 7120SOL    HW232994   0.357   1.488   8.601  1.1437  0.9439  1.6742
 7121SOL     OW32995   0.055   3.878   7.042  0.2740  0.9671  0.5204
 7121SOL    HW132996   0.103   3.816   6.987 -0.0030  0.7775  0.4919
 7121SOL    HW232997   0.055   3.953   6.982  1.1154 -0.1035 -0.8347
 7122SOL     OW32998   2.870   0.103   4.742 -0.6223 -0.1872 -0.0154
 7122SOL    HW132999   2.933   0.044   4.701 -0.7281  0.0182 -0.4766
 7122SOL    HW233000   2.786   0.065   4.717 -0.4673 -0.6903  0.2368
 7123SOL     OW33001   0.832   0.347   4.027  0.2227  0.1509  0.2576
 7123SOL    HW133002   0.777   0.335   3.950  2.8288  0.1777 -1.6065
 7123SOL    HW233003   0.804   0.266   4.069  0.8690 -0.3624 -0.3129
 7124SOL     OW33004   1.767   0.817   8.863  0.0733 -0.4644  0.0874
 7124SOL    HW133005   1.697   0.753   8.875 -0.5707  0.3705  0.8669
 7124SOL    HW233006   1.707   0.889   8.884  2.7058  1.2057  1.8588
 7125SOL     OW33007   4.201   1.464   1.736  0.0151  0.4804 -0.9256
 7125SOL    HW133008   4.148   1.532   1.695 -0.2323  0.8860  0.0584
 7125SOL    HW233009   4.259   1.516   1.793  0.3711 -1.1903  0.2405
 7126SOL     OW33010   2.646   0.615   7.722 -0.1030 -0.0600  0.2541
 7126SOL    HW133011   2.633   0.666   7.643  0.1576 -0.0020  0.2482
 7126SOL    HW233012   2.629   0.677   7.794 -1.2188 -0.8420  0.6689
 7127SOL     OW33013   3.483   1.161   4.828  0.5266  0.3891  0.3673
 7127SOL    HW133014   3.509   1.201   4.745  1.8242 -0.3039  0.4448
 7127SOL    HW233015   3.408   1.216   4.850  1.0599  1.3987 -0.2998
 7128SOL     OW33016   1.500   3.417   3.039 -0.3492  0.3011  0.0440
 7128SOL    HW133017   1.593   3.412   3.062 -0.9826  0.2651  2.6722
 7128SOL    HW233018   1.487   3.335   2.991  0.5459  0.9541 -1.2994
 7129SOL     OW33019   3.700   2.897   5.219  0.7070 -0.0196  0.2977
 7129SOL    HW133020   3.724   2.983   5.254 -0.1857  2.0564 -4.2573
 7129SOL    HW233021   3.605   2.899   5.223  0.7271  1.8001 -0.0309
 7130SOL     OW33022   1.203   0.408   5.544  0.4556  0.1940 -0.2238
 7130SOL    HW133023   1.187   0.499   5.521 -0.1154 -0.0260 -0.7274
 7130SOL    HW233024   1.114   0.373   5.552  0.8096  0.2416  4.0514
 7131SOL     OW33025   2.132   2.832  17.255 -0.1154  0.3159  0.1515
 7131SOL    HW133026   2.225   2.843  17.233 -0.3830 -0.0750 -1.1351
 7131SOL    HW233027   2.116   2.926  17.245 -0.2830  0.3477  0.6883
 7132SOL     OW33028   1.531   1.932   4.552 -0.4472  0.9210 -0.2894
 7132SOL    HW133029   1.462   1.987   4.590  0.7400  0.0406  3.1344
 7132SOL    HW233030   1.536   1.861   4.616  1.8462  1.0345 -0.3466
 7133SOL     OW33031   3.052   1.724   2.390  0.6031 -0.2583 -0.3681
 7133SOL    HW133032   3.072   1.818   2.395 -1.0455  0.0826 -0.0746
 7133SOL    HW233033   3.014   1.720   2.302 -1.4026 -0.9482  0.5371
 7134SOL     OW33034   3.771   2.131  17.194  0.3083 -0.2257  0.4003
 7134SOL    HW133035   3.771   2.047  17.149 -0.8521  0.3281 -0.6438
 7134SOL    HW233036   3.864   2.145  17.211 -0.0001  2.3968  0.0732
 7135SOL     OW33037   2.110   3.723  13.962  0.2568  0.0571  0.2591
 7135SOL    HW133038   2.136   3.663  13.891 -2.0297  4.1295 -4.0219
 7135SOL    HW233039   2.174   3.698  14.029 -0.6878 -1.8387  0.4497
 7136SOL     OW33040   1.898   0.639   2.523  0.0333 -0.0757  0.0737
 7136SOL    HW133041   1.981   0.662   2.564 -0.1304  0.4890  0.0970
 7136SOL    HW233042   1.909   0.579   2.450  0.5166  0.3097 -0.1744
 7137SOL     OW33043   4.469   1.690   8.386 -0.1286 -0.1857 -0.1771
 7137SOL    HW133044   4.434   1.677   8.298 -0.0278  1.1230 -0.4108
 7137SOL    HW233045   4.552   1.643   8.375 -1.5210 -2.4494 -0.9893
 7138SOL     OW33046   4.353   0.313   6.019 -0.3114 -0.2264 -0.0384
 7138SOL    HW133047   4.305   0.388   6.053  0.5566  0.6074 -0.6479
 7138SOL    HW233048   4.430   0.315   6.076  0.8976 -2.4149 -1.6066
 7139SOL     OW33049   1.987   1.593   8.589 -0.6957 -0.1218 -0.1249
 7139SOL    HW133050   1.916   1.633   8.639 -1.3338  1.0262 -1.9316
 7139SOL    HW233051   1.982   1.502   8.616 -2.1072 -0.8580 -2.9443
 7140SOL     OW33052   2.630   4.147   1.144 -0.3777 -0.1796  0.0893
 7140SOL    HW133053   2.664   4.062   1.118  0.5929 -0.4825  2.3409
 7140SOL    HW233054   2.687   4.172   1.216 -0.7265  0.2675  0.2106
 7141SOL     OW33055   3.510   0.431   5.802 -0.3276  0.1424 -0.2425
 7141SOL    HW133056   3.459   0.352   5.783  0.9675 -0.0089 -3.0133
 7141SOL    HW233057   3.585   0.403   5.749  0.5986  1.1649  0.5359
 7142SOL     OW33058   3.692   3.566   5.461  0.0928  0.5294 -0.2940
 7142SOL    HW133059   3.679   3.660   5.445 -0.0816  0.8188  1.5232
 7142SOL    HW233060   3.696   3.568   5.557 -1.1825 -3.0344 -0.1886
 7143SOL     OW33061   3.163   0.771  15.861  0.1066  0.1946 -0.3831
 7143SOL    HW133062   3.241   0.729  15.898  1.1619  1.3556 -1.3077
 7143SOL    HW233063   3.199   0.809  15.782 -1.9141  2.3650 -0.2457
 7144SOL     OW33064   1.910   2.425   7.090  0.1595  0.0952 -0.0588
 7144SOL    HW133065   1.826   2.429   7.045  1.1769  0.9360 -1.9025
 7144SOL    HW233066   1.963   2.489   7.041  1.8168  0.1674  1.8378
 7145SOL     OW33067   3.564   1.391   2.620  0.2746 -0.1353  0.1786
 7145SOL    HW133068   3.588   1.408   2.528  1.0883 -1.8864  0.0603
 7145SOL    HW233069   3.651   1.364   2.651  0.1141 -2.5782 -1.4727
 7146SOL     OW33070   4.351   1.289   5.136 -0.1926 -0.0186  0.1794
 7146SOL    HW133071   4.405   1.354   5.090  0.6402  0.6426  2.1100
 7146SOL    HW233072   4.413   1.268   5.205 -0.3353 -2.8926 -0.5765
 7147SOL     OW33073   0.036   0.920   9.170  0.3186 -0.0117  0.0022
 7147SOL    HW133074   0.056   0.963   9.253 -0.5001 -1.8709  1.1674
 7147SOL    HW233075   0.113   0.941   9.117  1.2545 -0.3516  1.2043
 7148SOL     OW33076   3.047   0.256   7.105  0.3332 -0.6753 -0.2855
 7148SOL    HW133077   3.056   0.258   7.200 -0.5181 -2.6504 -0.1582
 7148SOL    HW233078   3.103   0.182   7.082 -1.3154 -1.6520 -1.1680
 7149SOL     OW33079   1.460   1.840   6.394 -0.1325  0.1011 -0.5765
 7149SOL    HW133080   1.451   1.746   6.411 -1.3820  0.5802  1.3750
 7149SOL    HW233081   1.369   1.857   6.368 -0.3339 -1.4882 -0.9639
 7150SOL     OW33082   4.353   3.379   3.249 -0.5522  0.2889  0.2020
 7150SOL    HW133083   4.269   3.395   3.206 -0.0818  0.0341 -0.8102
 7150SOL    HW233084   4.382   3.469   3.263 -0.7653  0.6182 -1.4638
 7151SOL     OW33085   3.071   3.905   8.837  0.5288 -0.2747  0.2019
 7151SOL    HW133086   3.057   3.979   8.896  0.8777 -0.6254  0.7371
 7151SOL    HW233087   3.091   3.828   8.890 -1.6723 -1.0263 -0.0920
 7152SOL     OW33088   3.395   2.812  16.238  0.1343 -0.0362 -0.5109
 7152SOL    HW133089   3.417   2.728  16.197  1.2702 -0.0492  0.1376
 7152SOL    HW233090   3.447   2.803  16.317  1.1496  2.6495 -0.8791
 7153SOL     OW33091   2.941   0.353   9.189 -0.1400  0.5279  0.2899
 7153SOL    HW133092   3.015   0.380   9.135 -0.8188 -1.8498 -1.8534
 7153SOL    HW233093   2.965   0.269   9.227  1.1442  1.1416  0.8446
 7154SOL     OW33094   3.906   1.401  12.087  0.0707 -0.5652 -0.2741
 7154SOL    HW133095   3.953   1.325  12.052  0.4638 -0.7665  0.6905
 7154SOL    HW233096   3.818   1.395  12.049 -0.5240  1.3889  0.7929
 7155SOL     OW33097   0.698   2.637   4.093 -0.3601 -0.1827 -1.1303
 7155SOL    HW133098   0.770   2.579   4.068  0.8215  0.1394  1.5033
 7155SOL    HW233099   0.672   2.668   4.006  0.0250  0.5350 -0.9938
 7156SOL     OW33100   4.020   0.714   6.809  0.0655 -0.1693 -0.3345
 7156SOL    HW133101   4.102   0.691   6.765  0.0108  1.4888 -1.2920
 7156SOL    HW233102   4.051   0.664   6.885  0.0825 -0.1696 -0.3416
 7157SOL     OW33103   4.645   2.463  14.605 -0.5061 -0.0635  0.5122
 7157SOL    HW133104   4.703   2.537  14.624  0.2816  0.2504 -3.2183
 7157SOL    HW233105   4.679   2.394  14.663 -0.7002  0.3697  1.1460
 7158SOL     OW33106   1.280   1.974   1.737  0.1984  0.0077 -0.3363
 7158SOL    HW133107   1.204   1.920   1.717 -0.0157  0.8005 -1.7028
 7158SOL    HW233108   1.275   2.044   1.671  0.2942  0.2596 -0.0776
 7159SOL     OW33109   1.371   3.481   5.790  0.2965 -0.6090 -0.1851
 7159SOL    HW133110   1.439   3.539   5.756  0.7123 -2.2206 -2.0870
 7159SOL    HW233111   1.404   3.475   5.880  1.3561 -2.5764 -0.7161
 7160SOL     OW33112   2.787   3.339  14.914 -0.2298 -0.4548  0.0548
 7160SOL    HW133113   2.742   3.270  14.964 -0.4835 -0.8489 -0.7148
 7160SOL    HW233114   2.825   3.291  14.840 -0.4806  2.1431 -1.7502
 7161SOL     OW33115   0.360   2.782   7.549 -0.0710 -0.3134 -0.1589
 7161SOL    HW133116   0.445   2.738   7.550 -0.4981 -1.1241  0.2940
 7161SOL    HW233117   0.338   2.773   7.642  1.5613  1.6848  0.4069
 7162SOL     OW33118   4.066   4.335   9.263  0.1910  0.5416  0.5620
 7162SOL    HW133119   4.014   4.270   9.215 -3.8015  1.4730  3.6171
 7162SOL    HW233120   3.999   4.402   9.268  0.2834  0.6916 -0.3374
 7163SOL     OW33121   0.077   1.158   6.068 -0.3605 -0.0829 -0.2245
 7163SOL    HW133122   0.066   1.198   6.155  1.1275  2.1836 -1.1095
 7163SOL    HW233123   0.011   1.206   6.018  0.3156 -0.9845 -1.9675
 7164SOL     OW33124   3.587   0.320  14.058 -0.0487  0.3757  0.3276
 7164SOL    HW133125   3.524   0.392  14.054 -1.2429 -0.6804  0.0599
 7164SOL    HW233126   3.614   0.329  14.149  2.1074  1.0617 -0.3710
 7165SOL     OW33127   1.725   2.984  15.713  0.4053  0.3375 -0.0035
 7165SOL    HW133128   1.671   2.908  15.690  1.0287  0.7893 -3.0460
 7165SOL    HW233129   1.673   3.025  15.782  0.9829 -0.2391  0.7707
 7166SOL     OW33130   0.140   3.832   3.556  0.1745  0.2678 -0.7088
 7166SOL    HW133131   0.235   3.818   3.557  0.0094 -0.8793 -1.6122
 7166SOL    HW233132   0.119   3.739   3.559 -0.5562  0.5757  4.0395
 7167SOL     OW33133   4.625   2.012   8.804 -0.0491  0.1736  0.1014
 7167SOL    HW133134   4.542   2.056   8.784 -0.4783 -0.0503  1.3950
 7167SOL    HW233135   4.625   1.946   8.734  1.1309 -0.1240  0.3823
 7168SOL     OW33136   0.941   0.520   4.699  0.6499  0.5375  0.2547
 7168SOL    HW133137   1.027   0.489   4.728  0.7188  1.4456  1.0039
 7168SOL    HW233138   0.887   0.504   4.777  0.2480  3.1367  0.4980
 7169SOL     OW33139   2.091   3.782   5.627 -0.0288 -0.0357 -0.0637
 7169SOL    HW133140   2.107   3.718   5.558 -0.6458  2.1065 -2.1923
 7169SOL    HW233141   2.131   3.743   5.705 -0.7126 -0.3092  0.1494
 7170SOL     OW33142   3.177   0.137   2.301  0.3389  0.8898 -0.2058
 7170SOL    HW133143   3.218   0.157   2.384 -2.1106 -1.1356  1.4926
 7170SOL    HW233144   3.093   0.183   2.302 -0.8489 -1.3053  1.8280
 7171SOL     OW33145   1.381   1.317   1.534 -0.8870 -0.3035 -0.0564
 7171SOL    HW133146   1.358   1.257   1.463  0.9864  0.9712 -1.7304
 7171SOL    HW233147   1.415   1.251   1.594 -0.3892  0.3228  0.3427
 7172SOL     OW33148   2.841   4.184   0.119 -0.3003 -0.9975  0.0473
 7172SOL    HW133149   2.913   4.244   0.098  0.6600 -2.0094  0.4798
 7172SOL    HW233150   2.872   4.158   0.206 -1.3940  0.5813  0.9194
 7173SOL     OW33151   1.437   3.966   2.225  0.0420  0.0634 -0.3188
 7173SOL    HW133152   1.408   3.905   2.292 -0.9898  2.3804  1.3475
 7173SOL    HW233153   1.423   4.050   2.268  2.2655  0.1192  0.2638
 7174SOL     OW33154   4.210   1.936   2.676  0.1529 -0.0355 -0.3614
 7174SOL    HW133155   4.288   1.887   2.703  0.0007 -0.7411 -1.1654
 7174SOL    HW233156   4.144   1.899   2.735  0.9825  2.2261  1.9342
 7175SOL     OW33157   0.691   3.216   9.450  0.3501  0.2564  0.1926
 7175SOL    HW133158   0.623   3.170   9.500 -1.1602  1.3630 -0.8519
 7175SOL    HW233159   0.730   3.276   9.513 -0.5308  1.5148 -0.4602
 7176SOL     OW33160   0.808   3.740   5.026  0.5066  0.6789 -0.5830
 7176SOL    HW133161   0.837   3.817   4.978  1.9703  0.1088 -0.6278
 7176SOL    HW233162   0.719   3.724   4.994  0.0060 -1.7268  2.0087
 7177SOL     OW33163   3.225   1.748   1.530 -0.8174  0.3846  0.3809
 7177SOL    HW133164   3.248   1.655   1.518 -1.1395  0.4403 -0.6292
 7177SOL    HW233165   3.279   1.756   1.609  0.3029  1.6033 -0.4909
 7178SOL     OW33166   1.686   0.368   5.693  0.3051 -0.1483  0.1770
 7178SOL    HW133167   1.600   0.352   5.653  0.5397  1.2425 -0.8704
 7178SOL    HW233168   1.715   0.445   5.646 -0.5460  0.2618  0.3134
 7179SOL     OW33169   4.231   4.499  11.638  0.3081  0.3612 -0.4673
 7179SOL    HW133170   4.231   4.500  11.542 -0.5429 -5.2771 -0.5004
 7179SOL    HW233171   4.278   4.581  11.654  0.3149  0.4319 -0.8459
 7180SOL     OW33172   3.987   1.740   9.203  0.5152 -0.0261 -0.4081
 7180SOL    HW133173   4.035   1.719   9.123 -1.0630 -0.7179 -1.1895
 7180SOL    HW233174   3.967   1.653   9.235  1.0346 -0.1942 -0.5521
 7181SOL     OW33175   1.033   3.955   7.840 -0.0839 -0.0101 -0.1229
 7181SOL    HW133176   1.127   3.941   7.842 -0.0647  0.2593  1.0097
 7181SOL    HW233177   1.040   4.039   7.887 -0.5706  1.2155 -2.2365
 7182SOL     OW33178   0.175   4.712   8.679  0.0679 -0.4202 -0.3250
 7182SOL    HW133179   0.113   4.695   8.750  0.6437  0.4811  0.4093
 7182SOL    HW233180   0.154   4.650   8.610  2.8709 -0.1115 -1.4632
 7183SOL     OW33181   2.260   3.912   1.810  0.3718 -0.4244  0.5892
 7183SOL    HW133182   2.260   4.006   1.826  0.7802  0.0023 -1.9114
 7183SOL    HW233183   2.205   3.900   1.732 -0.2343 -3.1385  1.4212
 7184SOL     OW33184   0.380   4.556   8.794 -0.4794 -0.2714  0.2357
 7184SOL    HW133185   0.403   4.517   8.709 -2.3770 -1.9642  0.5131
 7184SOL    HW233186   0.323   4.626   8.763 -0.0987 -0.7429 -1.5436
 7185SOL     OW33187   3.788   1.445   6.504 -0.1301  0.0327  0.6150
 7185SOL    HW133188   3.705   1.481   6.472  0.1304  0.8518  0.8676
 7185SOL    HW233189   3.799   1.359   6.463 -2.5016  0.5071 -1.0317
 7186SOL     OW33190   0.114   2.597   9.191 -0.0950  0.2282 -0.2681
 7186SOL    HW133191   0.059   2.671   9.166 -1.3473 -0.0075  1.7778
 7186SOL    HW233192   0.158   2.640   9.263 -2.7419  0.2489  1.3453
 7187SOL     OW33193   4.596   1.414  11.739 -0.5198 -0.4591  0.9275
 7187SOL    HW133194   4.502   1.406  11.727 -0.7270  0.9349  1.6206
 7187SOL    HW233195   4.603   1.500  11.782 -1.4546 -0.7124  1.5729
 7188SOL     OW33196   4.044   1.576   7.901 -0.3332 -0.3151 -0.4528
 7188SOL    HW133197   4.045   1.657   7.851  0.0423  0.4061  0.7121
 7188SOL    HW233198   3.987   1.594   7.977  0.8662  0.3393  0.2895
 7189SOL     OW33199   3.360   4.442   7.448 -0.3227  0.2509  0.0302
 7189SOL    HW133200   3.410   4.492   7.384  1.4950 -1.9497 -0.3009
 7189SOL    HW233201   3.278   4.487   7.431  0.7031  0.3264 -4.7088
 7190SOL     OW33202   1.811   2.212   5.915 -0.1716  0.1868 -0.1657
 7190SOL    HW133203   1.812   2.180   5.824  1.0096  3.4762 -1.3000
 7190SOL    HW233204   1.784   2.131   5.959 -0.5191  0.9267  0.9648
 7191SOL     OW33205   0.218   3.530   2.383  0.0897 -0.0664  0.5248
 7191SOL    HW133206   0.137   3.482   2.365 -0.0845 -0.6314  2.7950
 7191SOL    HW233207   0.276   3.456   2.403  1.1323  0.6770  0.2308
 7192SOL     OW33208   4.314   3.490  13.126  0.3510  0.0365  0.4655
 7192SOL    HW133209   4.227   3.502  13.164 -0.0249  2.4900 -1.2022
 7192SOL    HW233210   4.371   3.483  13.203 -0.4100 -3.4157  0.7314
 7193SOL     OW33211   0.472   3.572  12.677 -0.0161 -0.2303  0.0187
 7193SOL    HW133212   0.452   3.591  12.768 -1.3341  1.2516 -0.5931
 7193SOL    HW233213   0.409   3.501  12.662 -0.9541  0.3234  1.3933
 7194SOL     OW33214   2.066   3.079   9.675  0.5254  0.0372 -0.6001
 7194SOL    HW133215   2.144   3.046   9.719 -1.2634 -2.9306  0.3860
 7194SOL    HW233216   2.046   3.150   9.736 -1.2671 -1.9759  1.1363
 7195SOL     OW33217   0.836   0.367  11.533  0.0749 -0.0664 -0.2493
 7195SOL    HW133218   0.828   0.451  11.578  0.0915  0.3847 -1.0773
 7195SOL    HW233219   0.860   0.405  11.448  1.7691  1.3915  0.9107
 7196SOL     OW33220   4.441   2.302  17.468  0.1725  0.6523 -0.0354
 7196SOL    HW133221   4.484   2.280  17.551 -3.0319 -4.1315  0.3547
 7196SOL    HW233222   4.508   2.362  17.434 -0.3983  0.8808 -0.7547
 7197SOL     OW33223   2.702   0.415  15.696  0.2866 -0.0009  0.0272
 7197SOL    HW133224   2.668   0.338  15.651 -0.3286  0.4994 -0.3667
 7197SOL    HW233225   2.762   0.450  15.629 -2.0088  4.3996  0.2750
 7198SOL     OW33226   0.912   3.046   8.607  0.1457 -0.0990  0.1560
 7198SOL    HW133227   0.979   3.098   8.563 -0.9753  1.9748  0.8812
 7198SOL    HW233228   0.889   3.110   8.674  2.4143  0.9002 -0.0354
 7199SOL     OW33229   4.206   0.432   5.456 -0.1567 -0.2338  0.2985
 7199SOL    HW133230   4.298   0.454   5.464 -0.2060  0.0698  0.0280
 7199SOL    HW233231   4.193   0.441   5.361  0.3649  1.7104  0.4179
 7200SOL     OW33232   3.718   3.706  12.915  0.4853 -0.7111  0.4220
 7200SOL    HW133233   3.796   3.703  12.971  0.4974  1.6303  0.4980
 7200SOL    HW233234   3.699   3.612  12.912  1.2559 -0.8563  0.3037
 7201SOL     OW33235   2.339   0.991   9.447  0.3792 -0.3237 -0.5539
 7201SOL    HW133236   2.406   0.957   9.506 -0.7840  0.5023  1.2507
 7201SOL    HW233237   2.346   1.084   9.468 -0.5760 -0.6276  1.0627
 7202SOL     OW33238   1.201   0.986   7.640 -0.2127  0.3764 -0.0801
 7202SOL    HW133239   1.201   0.898   7.604  0.2668  0.2320  0.2844
 7202SOL    HW233240   1.110   0.990   7.670 -1.0610 -3.5393 -2.1305
 7203SOL     OW33241   3.591   4.069  11.559 -0.0219  0.2709 -0.5369
 7203SOL    HW133242   3.560   4.122  11.485  1.6844  3.9853  1.4039
 7203SOL    HW233243   3.543   4.112  11.629 -0.4119 -1.2436  0.1301
 7204SOL     OW33244   1.380   1.119   9.014  0.0790  0.5328 -0.6527
 7204SOL    HW133245   1.288   1.143   9.004  0.2133  0.9854 -0.8332
 7204SOL    HW233246   1.418   1.203   9.039  4.8261 -2.4807  2.1056
 7205SOL     OW33247   3.358   3.769   1.786  0.5575 -0.2858 -0.5249
 7205SOL    HW133248   3.359   3.679   1.818  3.7085 -0.0377  0.0722
 7205SOL    HW233249   3.270   3.795   1.814 -1.0364 -2.8918 -3.0955
 7206SOL     OW33250   4.151   3.697   3.090 -0.2833 -0.0854 -0.5886
 7206SOL    HW133251   4.185   3.785   3.075 -2.2260  0.4669 -1.8577
 7206SOL    HW233252   4.165   3.680   3.183  1.6269 -3.3936 -1.4979
 7207SOL     OW33253   1.817   1.025   3.461  0.0811  0.0459 -0.1724
 7207SOL    HW133254   1.884   1.043   3.526  1.5268 -0.8141 -1.4211
 7207SOL    HW233255   1.806   1.103   3.407  2.2964  0.0031 -0.6627
 7208SOL     OW33256   0.247   0.473   3.155 -0.0088  0.5610  0.7501
 7208SOL    HW133257   0.216   0.382   3.148  1.3458  0.1484 -0.1118
 7208SOL    HW233258   0.224   0.498   3.065  4.4519  0.2924 -0.4882
 7209SOL     OW33259   2.386   1.477   5.426  0.3240  0.0934  0.7732
 7209SOL    HW133260   2.446   1.461   5.354  2.5405  0.0922  2.6155
 7209SOL    HW233261   2.408   1.564   5.459 -0.6001  0.9367 -0.8653
 7210SOL     OW33262   0.434   1.264  10.991  0.1195  0.6272 -0.6472
 7210SOL    HW133263   0.452   1.246  10.898 -0.9105 -1.9323 -0.3445
 7210SOL    HW233264   0.501   1.331  11.003  0.3148  0.0392  1.4481
 7211SOL     OW33265   1.427   2.283  17.165 -0.2252  0.1371  0.0524
 7211SOL    HW133266   1.355   2.228  17.197  1.0916 -1.6422 -0.0665
 7211SOL    HW233267   1.372   2.361  17.161 -0.1240  0.2945  1.6400
 7212SOL     OW33268   0.419   0.418   3.584  0.2493  0.3413 -0.3509
 7212SOL    HW133269   0.454   0.337   3.621 -0.3494  0.1571 -0.1920
 7212SOL    HW233270   0.447   0.409   3.493  0.8015 -0.4790 -0.1010
 7213SOL     OW33271   0.988   4.583  13.941 -0.2617 -0.1304  0.3354
 7213SOL    HW133272   0.913   4.641  13.954 -0.1796 -0.0619  0.5015
 7213SOL    HW233273   0.949   4.501  13.912 -0.4452  0.6258 -1.5662
 7214SOL     OW33274   1.686   1.386  12.061 -0.5562  0.0048  0.1934
 7214SOL    HW133275   1.643   1.328  11.998 -1.6144  0.0694  0.8673
 7214SOL    HW233276   1.754   1.324  12.087  0.8352  2.0391  1.4003
 7215SOL     OW33277   0.024   4.451   9.316 -0.1603 -0.1654  0.3400
 7215SOL    HW133278   4.674   4.480   9.315 -0.3583 -0.9390 -3.9626
 7215SOL    HW233279   0.058   4.536   9.289  0.4297 -0.9884 -1.5192
 7216SOL     OW33280   1.462   1.137   5.925 -0.0427  0.0688  0.0169
 7216SOL    HW133281   1.491   1.055   5.886 -1.0153  0.3395 -1.2792
 7216SOL    HW233282   1.469   1.114   6.018 -0.1086  2.3023  0.5867
 7217SOL     OW33283   3.083   1.588   8.488  0.3131 -0.6760 -0.1666
 7217SOL    HW133284   3.174   1.601   8.515  1.3907 -3.9280 -2.2963
 7217SOL    HW233285   3.058   1.656   8.425  0.7388 -0.3211  0.0479
 7218SOL     OW33286   0.983   4.079   9.600  0.2083 -0.1972 -0.3400
 7218SOL    HW133287   1.055   4.076   9.663  1.1564 -1.2122 -1.4748
 7218SOL    HW233288   0.910   4.114   9.651 -1.9161 -0.4232 -3.2806
 7219SOL     OW33289   0.050   3.101   8.693  0.1499  0.0633 -0.2617
 7219SOL    HW133290   0.112   3.028   8.683 -1.8134 -1.7607  0.8887
 7219SOL    HW233291   4.732   3.077   8.621 -1.5802  1.6611  0.6265
 7220SOL     OW33292   4.364   1.893   4.061  0.6701  0.1075  0.2074
 7220SOL    HW133293   4.420   1.915   4.136 -0.3870  0.1883  0.9736
 7220SOL    HW233294   4.432   1.855   4.005  0.5764 -0.0712  0.2139
 7221SOL     OW33295   3.759   0.448  17.695  0.4458  0.1841  0.8018
 7221SOL    HW133296   3.839   0.500  17.685 -0.0631  1.4672  3.3650
 7221SOL    HW233297   3.753   0.395  17.615 -1.3287  0.9917  0.4007
 7222SOL     OW33298   0.143   4.128  12.212 -0.6521  1.0121  0.3454
 7222SOL    HW133299   0.092   4.177  12.276 -1.9222 -0.6239  0.6038
 7222SOL    HW233300   0.224   4.178  12.206  1.0099 -1.4523  2.1768
 7223SOL     OW33301   0.602   2.973  12.333 -0.3886  0.2099  0.0646
 7223SOL    HW133302   0.585   2.895  12.280 -1.7419  0.1373  0.5978
 7223SOL    HW233303   0.578   3.047  12.278  2.5745  0.6092 -0.6932
 7224SOL     OW33304   2.953   3.344   1.060  0.0498  0.3480  0.1059
 7224SOL    HW133305   2.975   3.259   1.097  0.1211 -0.9714 -3.0540
 7224SOL    HW233306   3.013   3.341   0.985 -0.6130  1.2075 -0.4615
 7225SOL     OW33307   3.097   2.048   8.169  0.4038 -0.5449  0.1344
 7225SOL    HW133308   3.049   2.125   8.139 -0.0803 -0.1696  1.8905
 7225SOL    HW233309   3.046   1.978   8.129  0.6136 -0.6251  0.0068
 7226SOL     OW33310   0.491   0.211   6.850  0.4771  0.3678  0.1178
 7226SOL    HW133311   0.584   0.233   6.848  0.8907 -1.3385 -0.0808
 7226SOL    HW233312   0.452   0.276   6.907  1.2867  1.3512 -0.4560
 7227SOL     OW33313   2.497   3.905   1.933  0.7501  0.3185 -0.1954
 7227SOL    HW133314   2.484   3.834   1.996 -1.2121  0.6844 -0.1928
 7227SOL    HW233315   2.408   3.921   1.905  0.3662  0.9596  1.3652
 7228SOL     OW33316   2.881   0.347   4.795  0.1827 -0.0205 -0.3126
 7228SOL    HW133317   2.887   0.255   4.770 -0.7079 -1.0629  3.2447
 7228SOL    HW233318   2.974   0.368   4.785 -0.5069  3.6577  0.7494
 7229SOL     OW33319   3.516   4.107   0.672  0.0661  0.1983  0.3111
 7229SOL    HW133320   3.548   4.102   0.582  2.3122 -2.7421  1.2362
 7229SOL    HW233321   3.596   4.125   0.721 -0.2086  4.0104 -0.6661
 7230SOL     OW33322   1.042   0.105   2.177 -0.0624  0.9873 -0.0621
 7230SOL    HW133323   1.108   0.059   2.126 -0.4742 -0.7978  1.0063
 7230SOL    HW233324   0.978   0.137   2.113 -1.4476  0.1627  0.9024
 7231SOL     OW33325   1.660   1.380   7.716 -0.6757 -0.1144  0.7477
 7231SOL    HW133326   1.740   1.414   7.756 -0.7393 -0.8307  1.5104
 7231SOL    HW233327   1.666   1.409   7.625  0.3372  0.1516  0.9046
 7232SOL     OW33328   3.397   1.251  12.867 -0.2944  0.0241  0.6170
 7232SOL    HW133329   3.395   1.341  12.898 -0.4971  0.3251 -0.2538
 7232SOL    HW233330   3.450   1.216  12.938  2.9146  0.7250 -1.4278
 7233SOL     OW33331   0.767   4.220   1.255 -0.8484  0.1688  0.8237
 7233SOL    HW133332   0.737   4.276   1.326  1.4825 -0.2361  2.1413
 7233SOL    HW233333   0.681   4.199   1.218 -1.6640  2.7738  1.2762
 7234SOL     OW33334   0.932   4.671   1.889  0.0913  0.5005 -0.2462
 7234SOL    HW133335   0.969   4.644   1.805  2.6934  0.9385  0.7812
 7234SOL    HW233336   0.936   4.589   1.939  0.1272  2.1156  2.4059
 7235SOL     OW33337   3.518   2.242   9.170  0.8658  0.0222  0.3999
 7235SOL    HW133338   3.570   2.176   9.216  1.3138 -0.6270 -1.0545
 7235SOL    HW233339   3.549   2.315   9.224  0.0166 -0.0502  0.9996
 7236SOL     OW33340   2.704   4.140  17.556  0.1690 -0.0536 -0.3629
 7236SOL    HW133341   2.721   4.047  17.544  1.2189  0.2318 -1.0673
 7236SOL    HW233342   2.648   4.171  17.486  1.2209  1.6553 -0.4676
 7237SOL     OW33343   1.164   2.284   5.437  0.1410  0.2094  0.0483
 7237SOL    HW133344   1.183   2.201   5.482 -0.8633  1.0870  2.1222
 7237SOL    HW233345   1.122   2.240   5.363 -0.0666 -1.6314  1.2431
 7238SOL     OW33346   2.384   3.180   3.149  0.1497  0.3813 -0.1944
 7238SOL    HW133347   2.448   3.200   3.218 -0.9671 -1.7632  1.4462
 7238SOL    HW233348   2.424   3.103   3.109  0.5382  0.4685  0.0188
 7239SOL     OW33349   1.452   3.343   5.060 -0.4101  0.2386 -0.0214
 7239SOL    HW133350   1.385   3.395   5.103 -2.4504 -0.9372 -1.7662
 7239SOL    HW233351   1.431   3.378   4.973 -0.7248  0.4015  0.1210
 7240SOL     OW33352   1.616   1.202   5.426  0.5303  0.2977 -0.2611
 7240SOL    HW133353   1.646   1.293   5.423  0.1400  0.4017 -0.9711
 7240SOL    HW233354   1.522   1.214   5.430  0.5067  0.1016 -0.2702
 7241SOL     OW33355   1.292   1.278   4.509 -0.2541 -0.2997  0.0771
 7241SOL    HW133356   1.301   1.191   4.548  3.0469  1.1261  2.4544
 7241SOL    HW233357   1.285   1.336   4.584 -1.0836  0.2245 -0.4075
 7242SOL     OW33358   2.704   4.310   4.070  0.0030 -0.4865  0.6679
 7242SOL    HW133359   2.674   4.255   3.997  0.2121  1.6518 -1.0626
 7242SOL    HW233360   2.795   4.286   4.080  0.8368  1.0215 -3.1430
 7243SOL     OW33361   3.843   2.062  13.879  0.1971  0.2678  0.6862
 7243SOL    HW133362   3.911   1.999  13.903  1.1961  1.3399  0.6584
 7243SOL    HW233363   3.771   2.039  13.938 -0.6649 -2.6747 -1.5204
 7244SOL     OW33364   2.298   0.114   4.997  0.3012 -0.1273  0.3555
 7244SOL    HW133365   2.308   0.209   4.987  1.8274 -0.1655  1.5742
 7244SOL    HW233366   2.323   0.107   5.089 -0.7059 -0.7934  0.5738
 7245SOL     OW33367   4.624   3.710   7.738  0.1814 -0.2865 -0.0292
 7245SOL    HW133368   4.677   3.717   7.818 -3.2759 -1.5317  2.3790
 7245SOL    HW233369   4.547   3.763   7.760  0.7746  1.5553 -2.3050
 7246SOL     OW33370   0.945   1.096   4.566  0.1561  0.3434  0.1957
 7246SOL    HW133371   0.973   1.100   4.474  1.0889  0.2197  0.4758
 7246SOL    HW233372   1.014   1.042   4.605  0.2139  1.3635  1.5106
 7247SOL     OW33373   2.225   0.799   1.558 -0.1874 -0.4108 -0.6795
 7247SOL    HW133374   2.302   0.790   1.501 -0.0942 -0.4405 -0.5502
 7247SOL    HW233375   2.267   0.759   1.635  1.1972 -0.3561 -1.4062
 7248SOL     OW33376   0.873   3.160   1.522  0.1809  0.0465 -0.0644
 7248SOL    HW133377   0.895   3.183   1.431  1.4202 -0.8159  0.0180
 7248SOL    HW233378   0.916   3.074   1.527 -1.4725 -0.7264  0.7800
 7249SOL     OW33379   2.077   0.214  11.954  0.3033 -0.5292 -0.7331
 7249SOL    HW133380   2.000   0.189  11.903  1.6795 -3.2969 -1.4527
 7249SOL    HW233381   2.126   0.132  11.963 -0.6365 -0.8720  1.2500
 7250SOL     OW33382   2.649   2.102   4.814 -0.2072  0.0983  0.0837
 7250SOL    HW133383   2.568   2.141   4.780  0.4695 -0.2787 -1.9499
 7250SOL    HW233384   2.655   2.143   4.901 -1.8836  1.6994 -0.5559
 7251SOL     OW33385   1.629   1.250   2.330 -0.1651  0.1059 -0.0047
 7251SOL    HW133386   1.695   1.317   2.314 -0.6917  0.4170 -0.8615
 7251SOL    HW233387   1.677   1.173   2.361  0.3266  0.5368  0.3096
 7252SOL     OW33388   0.472   4.621   6.116  0.5882 -0.2821 -0.2321
 7252SOL    HW133389   0.419   4.565   6.061 -0.9582  0.0482  0.8998
 7252SOL    HW233390   0.434   4.597   6.201  3.3868 -1.1413  0.7920
 7253SOL     OW33391   1.573   1.507   2.686  0.2895  0.3533 -0.2178
 7253SOL    HW133392   1.655   1.528   2.641 -0.7696  2.4973 -1.1136
 7253SOL    HW233393   1.516   1.560   2.630 -0.5075 -1.0308 -0.7146
 7254SOL     OW33394   2.828   4.723  14.172  0.1494  0.2146 -0.4303
 7254SOL    HW133395   2.914   0.019  14.154  0.1754  0.1397 -0.4614
 7254SOL    HW233396   2.771   0.049  14.133  0.5226 -0.7440 -2.6510
 7255SOL     OW33397   0.335   0.843   8.728 -0.2354 -0.4014 -0.6748
 7255SOL    HW133398   0.288   0.921   8.757 -2.0654 -1.1580 -1.6198
 7255SOL    HW233399   0.286   0.821   8.650 -1.7836  1.9271 -0.3399
 7256SOL     OW33400   0.912   3.425  12.955  0.2300 -0.0499 -0.0946
 7256SOL    HW133401   0.943   3.514  12.940 -0.7958  0.2405 -0.5257
 7256SOL    HW233402   0.823   3.430  12.920 -0.2898  1.1354  1.3957
 7257SOL     OW33403   2.965   1.879   4.578  0.1790 -0.3215 -0.1215
 7257SOL    HW133404   3.049   1.910   4.613  0.4315  0.3472 -1.3504
 7257SOL    HW233405   2.987   1.897   4.487 -0.4900  1.9707  0.1760
 7258SOL     OW33406   3.271   0.704   2.191 -0.1788 -0.8356 -0.1356
 7258SOL    HW133407   3.200   0.732   2.248 -0.5282 -0.7707 -0.5994
 7258SOL    HW233408   3.285   0.612   2.214  2.8992  0.7372  4.1954
 7259SOL     OW33409   0.761   1.425   3.655  0.1659  0.3822 -0.2526
 7259SOL    HW133410   0.666   1.417   3.661  0.0869  1.7565  0.3993
 7259SOL    HW233411   0.779   1.357   3.721 -0.8536  0.6647  0.3133
 7260SOL     OW33412   1.099   1.542  10.321  0.1237  0.4751 -0.0307
 7260SOL    HW133413   1.081   1.475  10.255  1.6418 -0.8240  0.9067
 7260SOL    HW233414   1.146   1.488  10.384  0.3343  0.2777 -0.3605
 7261SOL     OW33415   1.504   0.403   1.652  0.1552 -0.3596  0.4074
 7261SOL    HW133416   1.524   0.321   1.698 -2.2762 -0.2851  1.5558
 7261SOL    HW233417   1.553   0.458   1.713 -0.4068 -2.4235  2.7355
 7262SOL     OW33418   0.023   0.489   7.338  0.1193 -0.3286  0.3018
 7262SOL    HW133419   4.723   0.569   7.306  0.8683  0.3390  1.0260
 7262SOL    HW233420   0.003   0.503   7.430 -0.5798  0.5649  0.0154
 7263SOL     OW33421   3.870   1.107   1.133  0.2105 -0.0004 -0.0829
 7263SOL    HW133422   3.897   1.135   1.220 -0.4443 -0.3937  0.2417
 7263SOL    HW233423   3.911   1.178   1.084 -0.7542  0.2230 -0.5576
 7264SOL     OW33424   2.444   4.584  11.262  0.3173 -0.0001 -0.7319
 7264SOL    HW133425   2.531   4.605  11.227  0.5594  2.1364  1.1375
 7264SOL    HW233426   2.419   4.511  11.205 -1.8381 -1.2760  1.8611
 7265SOL     OW33427   2.758   4.307   0.390 -0.7404  0.6244  0.1736
 7265SOL    HW133428   2.761   4.212   0.405  4.3400  0.8597  0.5344
 7265SOL    HW233429   2.818   4.340   0.457  0.5111 -0.1674 -0.5552
 7266SOL     OW33430   1.831   3.430  16.350 -0.2630  0.9309 -0.1488
 7266SOL    HW133431   1.911   3.390  16.315 -0.5784 -1.4194  1.7968
 7266SOL    HW233432   1.847   3.524  16.343  1.4832  0.6000 -0.6079
 7267SOL     OW33433   4.389   3.097   7.486  0.0573  0.3714 -0.1759
 7267SOL    HW133434   4.453   3.164   7.464  1.8036 -1.5511 -0.8860
 7267SOL    HW233435   4.444   3.019   7.490  0.2002  0.4115 -1.7036
 7268SOL     OW33436   3.749   0.435   8.268 -0.2664  0.2543  0.0519
 7268SOL    HW133437   3.820   0.498   8.278  1.6067 -2.0245  1.1190
 7268SOL    HW233438   3.745   0.411   8.360 -2.5603 -0.1515 -0.1704
 7269SOL     OW33439   1.802   0.847   6.837 -0.5496  0.0209 -0.1351
 7269SOL    HW133440   1.847   0.925   6.805 -1.8552  1.0391  0.5012
 7269SOL    HW233441   1.739   0.833   6.767 -0.2507  2.7341 -0.9323
 7270SOL     OW33442   0.502   1.348  11.479  0.3527  0.3327  0.3553
 7270SOL    HW133443   0.406   1.350  11.481  0.3978  1.2835  1.7182
 7270SOL    HW233444   0.539   1.369  11.565  1.8835 -0.4586 -0.1233
 7271SOL     OW33445   0.219   2.515   4.013 -0.5835  0.0710  0.0218
 7271SOL    HW133446   0.177   2.600   4.000 -1.6315 -0.5365 -0.5908
 7271SOL    HW233447   0.189   2.470   3.933  1.3834  1.4103 -1.4594
 7272SOL     OW33448   1.065   0.142   6.520 -0.0117  0.2602  0.5462
 7272SOL    HW133449   1.047   0.131   6.613 -0.5835 -3.1987  0.0308
 7272SOL    HW233450   0.983   0.186   6.497 -0.6330 -1.8161 -1.2313
 7273SOL     OW33451   2.059   0.043   3.399  0.1898 -0.1112 -0.0686
 7273SOL    HW133452   2.069   4.713   3.335 -1.1238 -1.3745  1.1247
 7273SOL    HW233453   2.143   0.089   3.406  0.1082  0.0971 -0.4492
 7274SOL     OW33454   1.933   4.603  13.603 -0.0042  0.0010  0.4627
 7274SOL    HW133455   1.872   4.536  13.571  0.0921  1.9262 -3.7516
 7274SOL    HW233456   2.015   4.553  13.606 -0.3311 -0.7423 -2.4659
 7275SOL     OW33457   1.371   0.872  12.014  0.0701  0.7328 -0.0411
 7275SOL    HW133458   1.419   0.858  11.932 -0.0843 -0.0351 -0.0007
 7275SOL    HW233459   1.417   0.817  12.077  0.2484  0.5796 -0.3016
 7276SOL     OW33460   1.433   0.512   2.929 -0.0566  0.3596  0.0138
 7276SOL    HW133461   1.446   0.525   2.835 -1.8033  0.6412 -0.1963
 7276SOL    HW233462   1.512   0.461   2.947 -0.6023 -0.3434  0.4397
 7277SOL     OW33463   1.819   0.538  10.683 -0.6600 -0.1534 -0.2067
 7277SOL    HW133464   1.840   0.620  10.639 -0.0950 -0.4988 -0.5778
 7277SOL    HW233465   1.811   0.485  10.604  0.7935 -1.0620  0.2557
 7278SOL     OW33466   1.083   1.453   9.491 -0.2401 -0.1826  0.1323
 7278SOL    HW133467   1.006   1.497   9.453  1.3336  2.0966 -0.4430
 7278SOL    HW233468   1.092   1.372   9.440  0.7131 -0.0403  0.0811
 7279SOL     OW33469   3.751   4.549  12.191 -0.8031 -0.3098  0.6194
 7279SOL    HW133470   3.746   4.591  12.277  0.2963  0.9018  0.0904
 7279SOL    HW233471   3.683   4.594  12.140 -0.0301 -2.7097 -2.4910
 7280SOL     OW33472   4.342   3.955  12.488 -0.1954 -0.2956  0.5239
 7280SOL    HW133473   4.403   4.018  12.451 -0.2996 -0.1391  0.6188
 7280SOL    HW233474   4.393   3.907  12.554 -0.3124 -0.6259  0.3727
 7281SOL     OW33475   4.221   1.681   6.386 -0.0813 -0.1187  0.1457
 7281SOL    HW133476   4.212   1.723   6.301 -1.6113 -0.2743  0.2370
 7281SOL    HW233477   4.132   1.663   6.415  0.0069 -1.5532 -0.4666
 7282SOL     OW33478   2.912   2.381  15.324  0.9692  0.0698 -0.7115
 7282SOL    HW133479   2.942   2.314  15.385  0.2623 -0.5381 -1.0354
 7282SOL    HW233480   2.951   2.456  15.369 -0.9729  0.3210  0.5888
 7283SOL     OW33481   3.388   1.682  11.424 -0.3530  0.1013  0.3526
 7283SOL    HW133482   3.327   1.612  11.448 -0.0326 -0.5179 -0.6585
 7283SOL    HW233483   3.452   1.634  11.372 -1.2025 -0.6991  0.0444
 7284SOL     OW33484   0.739   1.613  11.089 -0.4224 -0.0988 -0.4797
 7284SOL    HW133485   0.672   1.616  11.157  1.4694 -1.0988  1.4331
 7284SOL    HW233486   0.815   1.630  11.146 -1.6582  0.9217  0.8748
 7285SOL     OW33487   0.609   1.601   7.461 -0.2304 -0.3844  0.0541
 7285SOL    HW133488   0.599   1.695   7.444  1.3267 -0.3618 -0.7821
 7285SOL    HW233489   0.703   1.601   7.442 -0.3942  0.2433 -0.7172
 7286SOL     OW33490   4.477   3.905   3.885 -1.0993  0.6600  0.4495
 7286SOL    HW133491   4.546   3.961   3.921 -1.1228  0.9933 -0.0195
 7286SOL    HW233492   4.411   3.969   3.858  0.8226  1.1754 -3.0024
 7287SOL     OW33493   4.474   3.952   6.804  0.0954  0.7800  0.5040
 7287SOL    HW133494   4.505   3.895   6.875  0.8208  2.1185  1.2684
 7287SOL    HW233495   4.553   3.960   6.752  1.2334 -1.1035  1.9285
 7288SOL     OW33496   4.454   2.398   7.910  0.5428  0.4568 -0.1683
 7288SOL    HW133497   4.407   2.462   7.856 -1.2764 -0.7916 -0.0570
 7288SOL    HW233498   4.544   2.409   7.878  0.7854  0.9054  0.6588
 7289SOL     OW33499   4.376   4.080   2.098 -0.3622 -0.5826 -0.7294
 7289SOL    HW133500   4.359   4.135   2.174  2.6843 -0.1968 -0.3302
 7289SOL    HW233501   4.349   3.999   2.141 -0.2697  0.2334  0.8394
 7290SOL     OW33502   1.561   3.421   4.058 -0.0777  0.7010 -0.4552
 7290SOL    HW133503   1.614   3.364   4.002  2.0877  1.0502  1.2020
 7290SOL    HW233504   1.490   3.368   4.092  1.1397 -1.1486 -0.7738
 7291SOL     OW33505   2.843   0.008   8.102  0.0006  0.0838 -0.0588
 7291SOL    HW133506   2.784   0.023   8.028 -1.0452 -0.6918  0.6092
 7291SOL    HW233507   2.912   4.701   8.056  1.1249  1.8647 -0.2565
 7292SOL     OW33508   0.214   3.488   6.280 -0.1360  0.4680 -0.1532
 7292SOL    HW133509   0.258   3.541   6.213  0.6904 -0.9690 -0.7389
 7292SOL    HW233510   0.260   3.404   6.276 -0.4325  0.4265 -2.8217
 7293SOL     OW33511   3.174   1.257   5.385 -0.8333  1.0739 -0.0474
 7293SOL    HW133512   3.123   1.180   5.362  0.9380 -0.4681  1.2076
 7293SOL    HW233513   3.100   1.308   5.419 -1.1356  0.7255 -0.1860
 7294SOL     OW33514   2.944   3.713   3.778  0.3871 -0.5363 -0.1932
 7294SOL    HW133515   2.995   3.785   3.815 -0.3804 -0.1110  0.0219
 7294SOL    HW233516   2.946   3.731   3.684  1.9492 -1.6010 -0.3763
 7295SOL     OW33517   1.710   4.463  17.349 -0.0205 -0.5344 -0.2066
 7295SOL    HW133518   1.679   4.454  17.259 -1.2553 -1.2801  0.2877
 7295SOL    HW233519   1.751   4.548  17.335  0.3448 -0.4544  1.4049
 7296SOL     OW33520   0.030   4.290   5.745  0.0070 -0.3047  0.3521
 7296SOL    HW133521   0.045   4.380   5.771  1.2160 -0.2314 -0.5774
 7296SOL    HW233522   4.693   4.302   5.690  0.0542 -1.6446 -0.0138
 7297SOL     OW33523   4.177   4.703   8.087 -0.4533  0.3907 -0.3875
 7297SOL    HW133524   4.117   4.633   8.063  0.6760 -0.8297  0.3429
 7297SOL    HW233525   4.263   4.674   8.058 -0.1595  2.3370 -1.4631
 7298SOL     OW33526   0.683   2.051  14.226 -0.4545 -0.6741 -0.4394
 7298SOL    HW133527   0.637   1.971  14.201 -0.7326 -0.5644 -0.2815
 7298SOL    HW233528   0.769   2.009  14.226  0.3686  1.0350 -1.0684
 7299SOL     OW33529   0.463   3.379   3.892 -0.4953  0.0141  0.6036
 7299SOL    HW133530   0.436   3.293   3.923 -0.2905 -0.5306 -0.7004
 7299SOL    HW233531   0.530   3.348   3.831 -1.0549 -3.0829  1.5767
 7300SOL     OW33532   2.661   3.073   4.998  0.8482  0.2337  0.7322
 7300SOL    HW133533   2.724   3.002   4.986 -0.3165 -0.6933  0.0678
 7300SOL    HW233534   2.653   3.124   4.917  0.0370 -1.2308 -0.1263
 7301SOL     OW33535   4.257   3.964   2.487  0.0520 -0.6418 -0.2186
 7301SOL    HW133536   4.341   3.919   2.484  1.2897  1.7085 -0.7050
 7301SOL    HW233537   4.226   3.941   2.399  0.0445 -0.3278 -0.2986
 7302SOL     OW33538   1.223   0.884   7.989 -0.0827  0.0804  0.5961
 7302SOL    HW133539   1.270   0.967   7.993  0.1587  0.0645 -1.9382
 7302SOL    HW233540   1.275   0.852   8.063 -1.5502 -1.2733  1.0286
 7303SOL     OW33541   2.926   1.296   7.438  0.0648  0.0959 -0.0801
 7303SOL    HW133542   3.006   1.263   7.397  0.5293  0.9273  0.1800
 7303SOL    HW233543   2.905   1.213   7.483 -0.2463  0.6719  0.8331
 7304SOL     OW33544   1.299   4.149   5.066  0.3654  0.3430 -0.1170
 7304SOL    HW133545   1.326   4.102   5.145 -3.3328  0.0190  0.9782
 7304SOL    HW233546   1.233   4.087   5.034 -0.8287  1.3399  0.4021
 7305SOL     OW33547   2.179   0.462   8.414 -0.5819  0.5776  0.4709
 7305SOL    HW133548   2.200   0.522   8.342 -2.6676  0.0080 -0.5999
 7305SOL    HW233549   2.192   0.524   8.486 -0.5745  1.9537 -0.7122
 7306SOL     OW33550   1.826   2.284   7.325  0.2286 -0.4958  0.3098
 7306SOL    HW133551   1.856   2.297   7.235 -1.3872  1.1552  0.0393
 7306SOL    HW233552   1.872   2.360   7.360  0.1787 -1.0057  1.4809
 7307SOL     OW33553   3.761   2.200  12.530  0.0470  0.0487 -0.0963
 7307SOL    HW133554   3.774   2.282  12.578  1.0422 -1.3797  2.0892
 7307SOL    HW233555   3.852   2.172  12.536 -0.3620 -1.5064 -1.0596
 7308SOL     OW33556   3.932   1.642  15.790 -0.2195 -0.1023  0.5836
 7308SOL    HW133557   3.974   1.727  15.799  0.6544 -0.4970  0.3201
 7308SOL    HW233558   3.881   1.661  15.712  1.3520 -1.9936 -0.9207
 7309SOL     OW33559   0.674   0.983   7.165 -0.4223  0.4559 -0.5135
 7309SOL    HW133560   0.606   0.953   7.226  1.6412  3.0403  3.0487
 7309SOL    HW233561   0.634   0.969   7.079 -1.9408 -1.8637  0.5501
 7310SOL     OW33562   0.150   3.625   1.289  0.1174 -0.1260 -0.3877
 7310SOL    HW133563   0.091   3.556   1.322  0.6121 -0.6941 -0.6918
 7310SOL    HW233564   0.101   3.706   1.299 -1.5990 -1.0107 -1.6734
 7311SOL     OW33565   2.647   2.598   8.451 -0.3943 -0.2880  0.2372
 7311SOL    HW133566   2.593   2.662   8.497 -1.7424  0.7758 -2.7854
 7311SOL    HW233567   2.717   2.583   8.515  1.0409  2.8982 -0.5724
 7312SOL     OW33568   3.814   3.607   2.472  0.2932 -0.5085  0.1720
 7312SOL    HW133569   3.882   3.629   2.408  0.8818  0.4059  1.1074
 7312SOL    HW233570   3.862   3.543   2.525 -0.0335 -0.6810  0.2599
 7313SOL     OW33571   4.492   3.657  16.607 -0.1713 -0.3493 -0.4324
 7313SOL    HW133572   4.540   3.670  16.689  0.4408  0.1567 -0.8652
 7313SOL    HW233573   4.418   3.609  16.644 -0.8524  1.9243  1.2019
 7314SOL     OW33574   1.886   0.224   8.040 -0.2146 -0.3316  0.4913
 7314SOL    HW133575   1.977   0.230   8.068  0.0533  2.3029 -0.9700
 7314SOL    HW233576   1.868   0.318   8.046 -3.1174 -0.7540 -1.8419
 7315SOL     OW33577   0.244   0.987   1.101  0.1226  0.5211  0.8249
 7315SOL    HW133578   0.230   0.953   1.189 -0.3903 -1.5244 -0.0463
 7315SOL    HW233579   0.332   0.957   1.081 -1.5073 -3.0512 -1.1278
 7316SOL     OW33580   3.664   3.343   4.552  0.0387 -0.0122  0.2795
 7316SOL    HW133581   3.675   3.417   4.491 -2.5294  0.1043 -0.0403
 7316SOL    HW233582   3.643   3.388   4.634 -1.0708  0.2379 -0.1401
 7317SOL     OW33583   1.586   4.488   2.663 -0.7109  0.1712 -0.5265
 7317SOL    HW133584   1.649   4.434   2.710  0.9679  2.0198 -0.6675
 7317SOL    HW233585   1.563   4.548   2.734 -2.1346 -0.5290 -0.3932
 7318SOL     OW33586   3.477   2.000  13.909  0.1478  0.6503 -0.0842
 7318SOL    HW133587   3.489   2.090  13.940  0.2800  0.8378 -0.6889
 7318SOL    HW233588   3.551   1.961  13.956 -0.1174 -0.6348 -0.7298
 7319SOL     OW33589   1.106   0.863  10.347 -0.4645  0.5208 -0.3480
 7319SOL    HW133590   1.153   0.814  10.414 -0.6634  0.2059 -0.4436
 7319SOL    HW233591   1.029   0.809  10.334 -0.1025  0.6215 -3.0129
 7320SOL     OW33592   1.800   0.112  13.656  0.3229  0.1573  0.2000
 7320SOL    HW133593   1.840   0.029  13.630  1.0822  0.1267  1.4814
 7320SOL    HW233594   1.743   0.075  13.724  0.6518 -1.0112 -0.1695
 7321SOL     OW33595   2.721   4.635  17.487  0.2894  0.5318 -0.1813
 7321SOL    HW133596   2.645   4.592  17.449  2.1507 -2.0553 -1.0075
 7321SOL    HW233597   2.744   4.573  17.557  1.0370  0.3658 -0.5708
 7322SOL     OW33598   2.015   4.028   2.782  0.0057 -0.0690 -0.4959
 7322SOL    HW133599   2.094   4.074   2.807  0.4319 -0.4068 -1.2022
 7322SOL    HW233600   2.017   4.049   2.688  1.3089 -0.7554 -0.6276
 7323SOL     OW33601   2.509   1.214   5.616 -0.0915  0.4048 -0.3235
 7323SOL    HW133602   2.576   1.206   5.684  1.5230 -2.7930 -2.2881
 7323SOL    HW233603   2.565   1.235   5.541 -0.7171  0.6695 -0.7225
 7324SOL     OW33604   0.391   3.742   1.303 -0.3247  0.4325  0.8800
 7324SOL    HW133605   0.314   3.686   1.301  0.5120 -0.6297 -1.9465
 7324SOL    HW233606   0.362   3.798   1.232  0.2605  0.2428  0.4917
 7325SOL     OW33607   3.365   1.663   2.195  0.3710 -0.4286  0.0600
 7325SOL    HW133608   3.301   1.675   2.125  0.4559  0.8012  0.1927
 7325SOL    HW233609   3.419   1.589   2.165  0.3995  0.2802 -1.6170
 7326SOL     OW33610   2.533   3.695   2.123 -0.0565  0.1651 -0.3605
 7326SOL    HW133611   2.451   3.652   2.145 -0.1757  0.0778 -0.9683
 7326SOL    HW233612   2.565   3.699   2.213  0.2254 -5.0747 -0.2135
 7327SOL     OW33613   3.048   1.813   8.347  0.4744 -0.5577 -0.0982
 7327SOL    HW133614   3.138   1.840   8.330 -0.4128  0.9455 -2.4928
 7327SOL    HW233615   3.008   1.795   8.261 -0.6191  0.8661  0.1125
 7328SOL     OW33616   2.017   0.815   5.980  0.1506  0.0524 -0.1692
 7328SOL    HW133617   1.959   0.805   5.905 -0.7220  0.9301  0.3754
 7328SOL    HW233618   1.998   0.740   6.036 -0.6526 -1.1656 -2.0801
 7329SOL     OW33619   4.493   3.886   1.907  0.4891  0.8239 -0.0127
 7329SOL    HW133620   4.440   3.890   1.827  2.2238 -2.2563 -1.3062
 7329SOL    HW233621   4.454   3.958   1.957  0.3453 -0.4472  1.7175
 7330SOL     OW33622   4.281   3.682   8.623 -0.1460  0.0713 -0.2500
 7330SOL    HW133623   4.220   3.706   8.692  1.1781 -1.2965  1.4179
 7330SOL    HW233624   4.331   3.607   8.656 -0.7506 -0.3677 -0.3321
 7331SOL     OW33625   1.129   0.370  13.824  0.4727 -0.1071 -0.1004
 7331SOL    HW133626   1.212   0.372  13.871  0.5295 -1.5862 -0.1284
 7331SOL    HW233627   1.146   0.337  13.736  0.3783  0.2079 -0.2334
 7332SOL     OW33628   1.184   4.349   1.924 -0.2376  0.0173 -0.0850
 7332SOL    HW133629   1.226   4.388   1.847 -0.2520  0.6331  0.2185
 7332SOL    HW233630   1.222   4.262   1.932 -2.1513 -0.7222  0.7040
 7333SOL     OW33631   1.155   1.173   9.872  0.2656 -0.7758 -0.4030
 7333SOL    HW133632   1.065   1.169   9.904 -0.5957  1.7862 -2.4585
 7333SOL    HW233633   1.191   1.240   9.930  0.6747 -1.6419  0.3336
 7334SOL     OW33634   0.815   4.678   2.235 -0.8483 -0.5334 -0.0508
 7334SOL    HW133635   0.859   4.663   2.152 -0.7035  0.5813 -0.1800
 7334SOL    HW233636   0.862   0.008   2.277  0.3120 -2.1494  1.3684
 7335SOL     OW33637   3.458   0.840  10.830  0.3214  0.4325 -0.4187
 7335SOL    HW133638   3.497   0.767  10.878  2.1256  2.0866  0.6636
 7335SOL    HW233639   3.376   0.870  10.868 -1.3785  0.3839 -4.1055
 7336SOL     OW33640   3.865   3.818   1.951  0.0217  0.5642 -0.8743
 7336SOL    HW133641   3.878   3.792   2.043  1.1068  0.6654 -0.9924
 7336SOL    HW233642   3.774   3.793   1.938  0.7730 -2.2509 -0.5623
 7337SOL     OW33643   4.564   0.166   8.251  0.4022  0.2501 -0.0490
 7337SOL    HW133644   4.500   0.115   8.200 -0.3270  0.6642  0.4463
 7337SOL    HW233645   4.604   0.101   8.308  1.9954  0.8262 -0.5071
 7338SOL     OW33646   0.330   2.004  14.347 -0.3953  0.0639  0.2763
 7338SOL    HW133647   0.351   1.977  14.258 -2.3898  0.7074 -0.3979
 7338SOL    HW233648   0.273   2.081  14.343 -0.5583 -0.0113  1.1414
 7339SOL     OW33649   1.533   1.663  11.826 -0.7746  0.0802 -0.0002
 7339SOL    HW133650   1.611   1.633  11.873  0.3302  0.2445 -1.7700
 7339SOL    HW233651   1.465   1.628  11.884  0.2404  0.9191  1.7235
 7340SOL     OW33652   1.136   0.999   3.260  0.1458 -0.8324 -0.5752
 7340SOL    HW133653   1.091   0.985   3.177  2.5551  2.0507 -2.3988
 7340SOL    HW233654   1.208   0.937   3.250  0.4067 -0.6417  0.1068
 7341SOL     OW33655   3.770   0.141   4.693  0.6711 -0.3570  0.1867
 7341SOL    HW133656   3.819   0.130   4.774 -0.2420 -0.1945  0.7642
 7341SOL    HW233657   3.713   0.213   4.721  0.0684  0.2729 -2.6309
 7342SOL     OW33658   1.670   1.200   3.795  0.5102 -0.1605  0.2120
 7342SOL    HW133659   1.655   1.214   3.889 -0.3772  0.7048 -0.0563
 7342SOL    HW233660   1.609   1.127   3.784  0.9807 -0.2628 -1.6071
 7343SOL     OW33661   1.863   2.739   7.297  0.1483  0.5578  0.4684
 7343SOL    HW133662   1.916   2.686   7.357  0.1771  1.2324  1.0481
 7343SOL    HW233663   1.854   2.680   7.223  3.0062  0.6735  0.0127
 7344SOL     OW33664   1.714   3.518  10.437 -0.2168  0.5932 -0.6074
 7344SOL    HW133665   1.794   3.497  10.388  0.3569  1.6308 -0.1103
 7344SOL    HW233666   1.652   3.520  10.363  0.6007  1.1045 -1.2834
 7345SOL     OW33667   1.435   4.152   7.622 -0.1252  0.1807  0.2789
 7345SOL    HW133668   1.389   4.231   7.650  0.0805  0.6539 -0.7031
 7345SOL    HW233669   1.363   4.096   7.593 -0.6700  1.1893 -0.3112
 7346SOL     OW33670   4.679   2.294  17.700 -0.5016 -0.6637  0.4403
 7346SOL    HW133671   0.026   2.258  17.689 -0.0519  0.6985 -0.4995
 7346SOL    HW233672   4.695   2.378  17.744 -0.4613 -1.5379  2.1130
 7347SOL     OW33673   1.684   0.723   2.774 -0.0741 -0.2889 -0.1909
 7347SOL    HW133674   1.744   0.686   2.838  2.1143  0.2041 -1.9731
 7347SOL    HW233675   1.731   0.795   2.732  3.1200 -1.5037  1.3083
 7348SOL     OW33676   4.255   3.832   6.236  0.0624  0.1886 -0.0076
 7348SOL    HW133677   4.281   3.847   6.327 -1.6066 -1.4218  0.7211
 7348SOL    HW233678   4.218   3.745   6.245  1.6191 -0.5787 -0.9935
 7349SOL     OW33679   1.636   2.709   2.345 -0.3209 -0.1596 -0.3480
 7349SOL    HW133680   1.549   2.670   2.357 -0.1960 -0.2648  0.2282
 7349SOL    HW233681   1.646   2.711   2.250  3.0143  0.5893  0.0345
 7350SOL     OW33682   0.553   1.146  17.334  0.1245  0.1479 -0.0762
 7350SOL    HW133683   0.492   1.141  17.408  0.8581 -1.3102  0.4252
 7350SOL    HW233684   0.517   1.220  17.286  0.5541  1.1645  1.1519
 7351SOL     OW33685   4.028   0.391   4.207  0.2336  0.2568 -0.2990
 7351SOL    HW133686   3.962   0.361   4.270 -0.2399  1.0885 -0.4007
 7351SOL    HW233687   3.968   0.421   4.139  0.0365 -1.2303 -0.7939
 7352SOL     OW33688   4.148   0.876  13.607  0.0701  0.5024  0.0200
 7352SOL    HW133689   4.203   0.948  13.639  1.7899 -0.5105 -0.6618
 7352SOL    HW233690   4.062   0.906  13.636  1.2736  0.7926  3.4020
 7353SOL     OW33691   1.290   1.674   5.274  0.2313 -0.5745 -0.1877
 7353SOL    HW133692   1.303   1.579   5.269  0.5423 -0.6084  1.3620
 7353SOL    HW233693   1.365   1.692   5.330  1.9779 -0.7722 -2.4779
 7354SOL     OW33694   1.643   0.390   4.869  0.3475 -0.0872 -0.0214
 7354SOL    HW133695   1.734   0.403   4.844 -0.0185  0.5727 -1.0134
 7354SOL    HW233696   1.609   0.378   4.780  1.9386 -1.7839 -0.3852
 7355SOL     OW33697   3.836   1.181   6.377 -0.4256 -0.4211  0.4804
 7355SOL    HW133698   3.836   1.097   6.422  0.9204 -0.2572  0.7769
 7355SOL    HW233699   3.819   1.160   6.285 -0.3974 -1.2217  0.6618
 7356SOL     OW33700   1.329   2.734   1.630 -0.4755  0.0646 -0.5244
 7356SOL    HW133701   1.390   2.783   1.684  0.8620 -0.8562 -1.2107
 7356SOL    HW233702   1.389   2.699   1.564  1.8614  1.7086  0.7737
 7357SOL     OW33703   2.730   1.209   4.466 -0.0707  0.4439  0.1945
 7357SOL    HW133704   2.801   1.229   4.527  1.2528 -0.3755 -1.0465
 7357SOL    HW233705   2.669   1.283   4.472  0.9041  1.4013 -1.5026
 7358SOL     OW33706   0.555   4.177   7.434  0.8562 -0.5161  0.4452
 7358SOL    HW133707   0.564   4.239   7.506  4.1393 -2.3726  1.6655
 7358SOL    HW233708   0.570   4.235   7.360  1.9564  0.5933  1.5379
 7359SOL     OW33709   2.055   2.345   6.735  0.9874 -0.0753 -0.0647
 7359SOL    HW133710   2.142   2.367   6.768  1.6365 -1.4105 -0.8654
 7359SOL    HW233711   2.054   2.415   6.671  0.1595  0.6583  0.7569
 7360SOL     OW33712   0.555   3.313   8.169 -0.3814 -0.0220  0.4021
 7360SOL    HW133713   0.581   3.293   8.079 -0.7545  0.5288  0.1718
 7360SOL    HW233714   0.613   3.387   8.191  0.6996  0.6240 -4.5810
 7361SOL     OW33715   0.608   4.358   7.650 -0.1234 -0.6919 -0.1894
 7361SOL    HW133716   0.668   4.422   7.687 -1.1707  0.6196 -0.7941
 7361SOL    HW233717   0.534   4.417   7.654 -0.9107 -1.7496  0.7570
 7362SOL     OW33718   0.749   4.370   9.086 -0.0451 -0.3951  0.1044
 7362SOL    HW133719   0.743   4.284   9.045 -1.6147 -0.6323  0.8468
 7362SOL    HW233720   0.678   4.422   9.048  0.6290 -0.0770 -0.7394
 7363SOL     OW33721   3.034   0.328   3.366  0.5761  0.6122 -0.1357
 7363SOL    HW133722   2.995   0.360   3.285  1.3295  0.6517 -0.4797
 7363SOL    HW233723   3.123   0.309   3.336  0.1673 -1.2359 -0.2054
 7364SOL     OW33724   3.970   2.331   8.716 -0.1778  0.7752  0.0022
 7364SOL    HW133725   3.969   2.394   8.644 -1.7719  0.9468  0.1736
 7364SOL    HW233726   3.959   2.248   8.669 -0.9641  1.3453 -0.8208
 7365SOL     OW33727   1.851   4.701   0.172 -0.0119 -0.1183  0.2667
 7365SOL    HW133728   1.762   4.728   0.194 -0.4871 -1.0349 -0.5660
 7365SOL    HW233729   1.880   0.021   0.104  1.1179  0.5271  1.3128
 7366SOL     OW33730   3.883   4.039   5.924 -0.1869  0.0752 -0.2420
 7366SOL    HW133731   3.917   3.955   5.955 -0.8988 -0.0177  0.2833
 7366SOL    HW233732   3.897   4.091   6.003 -2.0238 -0.6833  0.5798
 7367SOL     OW33733   1.077   2.956  15.604  0.1236 -0.1258 -0.7670
 7367SOL    HW133734   1.042   2.953  15.515  0.5842  1.7359 -1.0163
 7367SOL    HW233735   1.166   2.985  15.585  0.0896  1.3542  1.2690
 7368SOL     OW33736   3.657   3.308   9.064  0.3169  0.1635 -0.3115
 7368SOL    HW133737   3.691   3.397   9.073 -0.5515  0.4732 -0.1466
 7368SOL    HW233738   3.724   3.264   9.012  0.5705  0.5416 -0.3030
 7369SOL     OW33739   4.274   1.883  10.065 -0.3995 -0.0186  0.1057
 7369SOL    HW133740   4.340   1.951  10.050 -1.3289  0.9083  0.1621
 7369SOL    HW233741   4.297   1.870  10.157  1.4617  3.4262  0.1227
 7370SOL     OW33742   2.060   0.046   2.384  0.3565 -0.3187  0.1529
 7370SOL    HW133743   2.125   0.108   2.418 -1.6046  0.6232  2.2316
 7370SOL    HW233744   2.111   0.001   2.317  0.6851 -0.1199  0.2695
 7371SOL     OW33745   0.249   3.441   4.949  0.3367  0.0473  0.3483
 7371SOL    HW133746   0.242   3.371   5.013  3.2544 -1.4212 -0.9295
 7371SOL    HW233747   0.264   3.388   4.871 -2.1732 -1.6230  0.9890
 7372SOL     OW33748   3.074   3.649   6.594  0.3378 -0.0772 -0.0126
 7372SOL    HW133749   3.028   3.732   6.586 -1.3951 -1.3739 -3.5798
 7372SOL    HW233750   3.152   3.688   6.633  2.7172 -0.8789 -3.9023
 7373SOL     OW33751   2.082   4.714   5.600  0.2099  0.1381 -0.4367
 7373SOL    HW133752   2.148   4.663   5.647 -1.2636 -1.3763 -0.0364
 7373SOL    HW233753   2.070   4.659   5.523 -1.9349  0.2144 -0.1345
 7374SOL     OW33754   0.782   3.023  13.475  0.1657 -0.4844  0.3748
 7374SOL    HW133755   0.749   3.104  13.513 -0.4819 -0.4608 -0.2300
 7374SOL    HW233756   0.740   3.017  13.389 -0.8936  1.6167  0.7321
 7375SOL     OW33757   0.456   3.688   4.087  1.0062 -0.1811 -0.2204
 7375SOL    HW133758   0.532   3.641   4.122  1.6137 -1.4888 -3.2892
 7375SOL    HW233759   0.445   3.770   4.135 -0.9613 -0.6050  0.0545
 7376SOL     OW33760   0.931   0.126  14.202 -0.1244  0.1511  0.1269
 7376SOL    HW133761   0.966   0.212  14.181 -2.0195  1.8254  3.6681
 7376SOL    HW233762   0.852   0.134  14.148 -0.0765  1.3509  0.2472
 7377SOL     OW33763   0.739   0.003  13.960 -0.3279 -0.2458 -0.9905
 7377SOL    HW133764   0.682   4.695  13.900  0.6045 -0.8987 -1.3487
 7377SOL    HW233765   0.677   0.051  14.016 -0.9369 -1.2240 -0.8188
 7378SOL     OW33766   3.222   1.298   5.729 -0.4733 -0.0894 -0.1090
 7378SOL    HW133767   3.176   1.245   5.794 -0.6804  0.4073  0.1521
 7378SOL    HW233768   3.268   1.231   5.678  2.0990  0.9380  0.8690
 7379SOL     OW33769   2.124   4.380   8.383  0.9200 -0.5520  0.3525
 7379SOL    HW133770   2.131   4.434   8.462 -0.4640 -0.2147  0.2422
 7379SOL    HW233771   2.208   4.334   8.380  0.7909 -0.9117  1.8850
 7380SOL     OW33772   0.568   1.755   9.637  0.6281 -0.5447  0.0188
 7380SOL    HW133773   0.636   1.760   9.705 -0.0746  0.8589  0.6284
 7380SOL    HW233774   0.520   1.835   9.658 -0.4683 -1.0828 -0.4685
 7381SOL     OW33775   1.804   0.711   1.139 -0.5188 -0.0050 -0.1943
 7381SOL    HW133776   1.779   0.644   1.202 -0.7748 -1.0640 -1.4431
 7381SOL    HW233777   1.772   0.789   1.185 -1.8636  1.0573 -2.9231
 7382SOL     OW33778   1.322   2.249   7.330  0.7595  0.1812 -0.3293
 7382SOL    HW133779   1.339   2.343   7.332  1.2477  0.1135 -1.3350
 7382SOL    HW233780   1.393   2.216   7.385  0.3182  1.1473  0.8421
 7383SOL     OW33781   1.210   3.423  17.745 -0.6041 -0.2920 -0.3165
 7383SOL    HW133782   1.275   3.487  17.716  1.0190 -1.1105  1.5607
 7383SOL    HW233783   1.231   3.425   0.077  0.2868 -1.9463 -0.4746
 7384SOL     OW33784   1.200   3.167   9.407 -0.2401 -0.3906 -0.5741
 7384SOL    HW133785   1.260   3.137   9.475 -0.4973  3.0992  1.1894
 7384SOL    HW233786   1.255   3.168   9.329 -0.8864 -3.8202 -1.0876
 7385SOL     OW33787   1.779   3.339   3.031 -0.3943 -0.2321  0.2881
 7385SOL    HW133788   1.821   3.299   2.955  1.6622  0.2881  1.1466
 7385SOL    HW233789   1.795   3.432   3.013 -0.5025 -0.1044  0.8437
 7386SOL     OW33790   3.868   4.286   7.800 -0.0434 -0.7694  0.3584
 7386SOL    HW133791   3.923   4.363   7.811  0.3707 -0.7066 -2.1019
 7386SOL    HW233792   3.885   4.274   7.706 -0.2898  1.1331  0.0828
 7387SOL     OW33793   0.255   2.398   0.326  0.4089  0.0028  0.8588
 7387SOL    HW133794   0.177   2.432   0.371  0.4655  3.5357 -1.7173
 7387SOL    HW233795   0.322   2.437   0.382 -0.8479  1.0307  1.6502
 7388SOL     OW33796   1.589   0.186  17.740  0.3132 -0.3133 -0.2661
 7388SOL    HW133797   1.511   0.139   0.008  0.5120  0.9342  2.2461
 7388SOL    HW233798   1.624   0.207   0.065  0.0057  1.6605 -0.6293
 7389SOL     OW33799   3.177   0.877   3.857 -0.4943 -0.4105  0.1426
 7389SOL    HW133800   3.261   0.922   3.847 -1.1478  0.8224  0.3085
 7389SOL    HW233801   3.152   0.927   3.935 -1.2218  3.2679 -2.4574
 7390SOL     OW33802   2.328   0.021   8.845  0.0534 -0.3075  0.0805
 7390SOL    HW133803   2.415   4.733   8.818  0.0121 -0.2198 -0.1511
 7390SOL    HW233804   2.277   0.028   8.764 -0.6210  0.9124  0.6073
 7391SOL     OW33805   1.330   2.782   3.930 -0.4923  0.0529  0.1803
 7391SOL    HW133806   1.308   2.789   3.837  0.8364  1.9475  0.0164
 7391SOL    HW233807   1.302   2.866   3.966 -0.8259  0.7027 -1.5825
 7392SOL     OW33808   0.107   3.336   2.200  0.1747 -0.3011 -0.5732
 7392SOL    HW133809   0.179   3.390   2.167  0.5208  0.1328  0.9252
 7392SOL    HW233810   0.147   3.303   2.280  1.1426 -0.6094 -1.1780
 7393SOL     OW33811   0.451   2.971   1.962 -0.1400 -0.1838 -0.6765
 7393SOL    HW133812   0.542   2.953   1.937 -0.5926 -0.0269 -2.4100
 7393SOL    HW233813   0.446   3.067   1.969 -0.4591 -0.3006  0.8802
 7394SOL     OW33814   3.522   2.678   9.065 -0.2564 -0.4768 -0.6746
 7394SOL    HW133815   3.577   2.599   9.065  0.9752  0.3750 -0.9660
 7394SOL    HW233816   3.582   2.743   9.102 -0.7473 -0.3660 -0.0760
 7395SOL     OW33817   0.732   4.138   1.771 -0.0007  0.3858  0.2220
 7395SOL    HW133818   0.709   4.076   1.701  1.3407 -0.9356  0.9404
 7395SOL    HW233819   0.735   4.079   1.846  0.1777 -0.3647 -0.3751
 7396SOL     OW33820   3.332   2.445   2.841  0.5687 -0.1306 -0.7793
 7396SOL    HW133821   3.300   2.502   2.771  0.1351  0.7030  0.1047
 7396SOL    HW233822   3.349   2.504   2.914  2.1023  0.9258 -2.0030
 7397SOL     OW33823   2.351   0.458  17.572 -0.4404 -0.4272  0.3709
 7397SOL    HW133824   2.383   0.452  17.482 -0.8200 -3.3376  0.4274
 7397SOL    HW233825   2.384   0.545  17.593  1.9265 -0.9582 -1.0872
 7398SOL     OW33826   0.667   1.560   0.852 -0.2482 -0.6824  0.0077
 7398SOL    HW133827   0.602   1.585   0.785  1.0362 -3.8399 -2.4147
 7398SOL    HW233828   0.639   1.604   0.932 -1.2459  0.6089 -1.0630
 7399SOL     OW33829   2.246   0.772   8.429 -0.1224  0.8357  0.7937
 7399SOL    HW133830   2.267   0.706   8.362  2.2572  1.5343  0.8623
 7399SOL    HW233831   2.247   0.855   8.380 -0.8947  1.3852  1.7158
 7400SOL     OW33832   0.756   3.148  16.625 -0.0977  0.0624  0.4199
 7400SOL    HW133833   0.685   3.099  16.583 -0.8232  1.1644  0.3744
 7400SOL    HW233834   0.708   3.223  16.660  0.4732  0.2938  0.7133
 7401SOL     OW33835   0.366   0.959   8.236  0.0848 -0.2268 -0.1362
 7401SOL    HW133836   0.441   0.982   8.181  0.1901 -1.2061 -0.4071
 7401SOL    HW233837   0.415   0.937   8.315 -0.4819  0.5784  0.4423
 7402SOL     OW33838   4.004   2.331   0.145  0.2033 -0.4031 -0.0819
 7402SOL    HW133839   4.071   2.389   0.106 -0.9325  0.8068 -0.2307
 7402SOL    HW233840   3.923   2.372   0.114 -0.1442  0.7849  2.4208
 7403SOL     OW33841   0.241   4.635   5.677  0.3392  0.2329 -0.3580
 7403SOL    HW133842   0.169   4.618   5.617  0.4710  0.9563 -0.7234
 7403SOL    HW233843   0.201   4.619   5.763  0.3652 -3.3247 -1.0103
 7404SOL     OW33844   0.265   2.148   9.718  0.1191  0.1093 -0.1446
 7404SOL    HW133845   0.187   2.098   9.741 -0.3105 -0.2733 -2.4492
 7404SOL    HW233846   0.315   2.136   9.798 -0.1804 -0.7121 -0.0763
 7405SOL     OW33847   3.621   2.102   4.378  0.0269 -0.1705  0.6740
 7405SOL    HW133848   3.664   2.091   4.294  1.5766  3.2580  1.0298
 7405SOL    HW233849   3.589   2.014   4.399  0.4094 -0.0951  1.5993
 7406SOL     OW33850   4.716   3.947   5.168  0.7976  0.7099  0.0733
 7406SOL    HW133851   0.020   3.872   5.207 -0.3175 -0.0753 -0.1447
 7406SOL    HW233852   4.687   3.911   5.084  1.4551  1.2842 -0.4072
 7407SOL     OW33853   3.965   0.667   8.302 -0.0508 -0.0103 -0.5545
 7407SOL    HW133854   3.940   0.734   8.365 -2.3822 -1.6465  0.2932
 7407SOL    HW233855   3.983   0.724   8.228  0.3451 -1.1158 -1.3085
 7408SOL     OW33856   0.937   1.238   1.743  0.2565 -0.7523  0.2292
 7408SOL    HW133857   0.873   1.199   1.803 -2.7454  1.1871 -1.7109
 7408SOL    HW233858   0.925   1.331   1.765 -1.3614 -0.6066 -1.2838
 7409SOL     OW33859   4.453   2.955   8.692 -0.5704  0.0783 -0.3736
 7409SOL    HW133860   4.521   2.887   8.686 -0.7055  0.1253 -2.4854
 7409SOL    HW233861   4.370   2.907   8.698 -0.8756  0.8693  1.8984
 7410SOL     OW33862   3.583   0.865   5.695  0.8732  0.1011  0.2502
 7410SOL    HW133863   3.630   0.895   5.617  0.5276 -0.7962 -0.3014
 7410SOL    HW233864   3.598   0.936   5.757  0.7287  1.1096 -0.8632
 7411SOL     OW33865   2.206   3.094   4.835  0.4159 -0.6058  1.1783
 7411SOL    HW133866   2.233   3.174   4.790  0.0161  0.3268  2.5945
 7411SOL    HW233867   2.119   3.124   4.860  0.0464 -0.6560 -0.0699
 7412SOL     OW33868   1.505   2.729   9.061  0.6076  0.1414  0.1804
 7412SOL    HW133869   1.421   2.773   9.074  0.3202 -1.1544  2.7039
 7412SOL    HW233870   1.515   2.680   9.143 -0.0574 -0.2984 -0.0035
 7413SOL     OW33871   0.536   2.096   3.289 -0.0626 -0.1132  0.4086
 7413SOL    HW133872   0.570   2.093   3.200 -2.0336  1.1660 -0.3872
 7413SOL    HW233873   0.609   2.093   3.351  0.1466  0.7501  0.2045
 7414SOL     OW33874   1.359   1.789  14.395  0.2336  0.2847  0.6789
 7414SOL    HW133875   1.298   1.775  14.467  0.1367 -1.2867  0.2940
 7414SOL    HW233876   1.433   1.755  14.444 -0.1054 -1.6088 -0.0791
 7415SOL     OW33877   3.070   3.113   3.104 -0.1315 -0.1113 -0.6124
 7415SOL    HW133878   3.032   3.080   3.022  0.4797 -1.2522 -0.4202
 7415SOL    HW233879   3.109   3.034   3.141 -1.7329  0.3405  2.0921
 7416SOL     OW33880   3.873   2.969   5.627  0.1390 -0.0230  0.9081
 7416SOL    HW133881   3.871   2.885   5.672  2.8953 -1.4348 -1.6028
 7416SOL    HW233882   3.968   2.964   5.615  0.2323  0.6145  1.3677
 7417SOL     OW33883   1.455   2.778   5.808 -0.3540 -0.1851 -0.7572
 7417SOL    HW133884   1.363   2.801   5.793 -0.0004  1.8023  0.2242
 7417SOL    HW233885   1.497   2.847   5.859  0.7418 -1.6963  0.4167
 7418SOL     OW33886   4.256   2.354   2.736 -0.0631 -0.5076  0.4427
 7418SOL    HW133887   4.243   2.448   2.728  1.2846 -0.1199  2.9182
 7418SOL    HW233888   4.337   2.351   2.788  0.9209  0.1430 -1.0612
 7419SOL     OW33889   2.208   2.561   5.506 -0.0872  0.1287 -0.5176
 7419SOL    HW133890   2.159   2.639   5.478  1.5705  1.3125 -0.1465
 7419SOL    HW233891   2.269   2.590   5.574 -2.0184 -0.2583  1.3799
 7420SOL     OW33892   3.133   4.134   2.213 -0.2911  0.0138  0.3006
 7420SOL    HW133893   3.175   4.170   2.290 -1.7615  0.6192  0.8293
 7420SOL    HW233894   3.046   4.103   2.240 -0.8964 -0.8593 -2.5937
 7421SOL     OW33895   1.266   2.118   9.353 -0.3257 -0.4195 -0.7856
 7421SOL    HW133896   1.267   2.191   9.291 -1.3103 -0.0094 -0.3014
 7421SOL    HW233897   1.173   2.107   9.369 -0.4300  1.7538  0.1020
 7422SOL     OW33898   4.573   0.215   4.683  0.2100 -0.2110 -0.1282
 7422SOL    HW133899   4.604   0.132   4.720 -1.7061 -0.3158  1.2649
 7422SOL    HW233900   4.640   0.233   4.617  1.0123 -3.4652 -0.2290
 7423SOL     OW33901   0.941   2.910   2.792 -0.0408  0.1275 -0.0742
 7423SOL    HW133902   0.848   2.925   2.810 -0.6740 -1.0456 -2.3399
 7423SOL    HW233903   0.944   2.821   2.827  0.8701  0.2513  0.1578
 7424SOL     OW33904   3.606   3.571   7.661 -0.1587 -0.2480 -0.3871
 7424SOL    HW133905   3.549   3.502   7.694 -2.1565  2.4738  1.7923
 7424SOL    HW233906   3.547   3.642   7.635  1.8671  1.5270 -0.1216
 7425SOL     OW33907   0.314   4.177   5.106  0.7556  0.2502 -0.0078
 7425SOL    HW133908   0.251   4.154   5.038  2.3271 -0.8053 -1.1154
 7425SOL    HW233909   0.357   4.092   5.121 -1.1154 -0.7139 -0.1111
 7426SOL     OW33910   2.560   0.908  16.686  0.1857  0.2202 -0.2609
 7426SOL    HW133911   2.653   0.909  16.666  0.0899  0.8488 -0.6672
 7426SOL    HW233912   2.536   0.839  16.624 -0.3216 -0.1665  0.3604
 7427SOL     OW33913   4.190   0.936   6.787  0.0914 -0.3357 -0.0952
 7427SOL    HW133914   4.100   0.906   6.770  0.0477  0.1239 -0.6603
 7427SOL    HW233915   4.186   0.979   6.873  1.2397 -1.5763  0.5877
 7428SOL     OW33916   1.568   0.870   2.170  0.5137 -0.1733  0.0093
 7428SOL    HW133917   1.634   0.938   2.165 -1.6073  1.9527  1.1240
 7428SOL    HW233918   1.486   0.913   2.148 -0.1336 -2.7119 -2.7045
 7429SOL     OW33919   3.347   2.594   3.962  0.2417 -0.1563 -0.6782
 7429SOL    HW133920   3.387   2.671   3.922 -0.3254  1.2440  1.4289
 7429SOL    HW233921   3.260   2.594   3.923 -0.0963 -1.7600  0.0765
 7430SOL     OW33922   3.892   3.252   4.157  0.8522  0.3291 -0.7842
 7430SOL    HW133923   3.806   3.292   4.168  0.6234  0.1647 -2.0570
 7430SOL    HW233924   3.923   3.256   4.248  1.5142 -1.2929 -0.9386
 7431SOL     OW33925   2.583   3.308  12.933  0.5636 -0.6440 -0.0199
 7431SOL    HW133926   2.575   3.215  12.914 -0.3493 -0.5875  0.0679
 7431SOL    HW233927   2.594   3.333  12.842  0.8732 -1.7862 -0.2932
 7432SOL     OW33928   4.262   4.257   8.876 -0.2474 -0.2854  0.0692
 7432SOL    HW133929   4.271   4.215   8.962  2.2101  1.0184  0.4404
 7432SOL    HW233930   4.166   4.255   8.868 -0.1367 -1.1717 -1.0277
 7433SOL     OW33931   0.249   4.731   3.522  0.4642  0.3624  0.2246
 7433SOL    HW133932   0.235   0.018   3.432  2.6682 -1.1160 -0.5915
 7433SOL    HW233933   0.344   0.002   3.530  0.5549 -0.3253  0.2122
 7434SOL     OW33934   1.631   4.048  16.900 -0.0173 -0.0831  0.3946
 7434SOL    HW133935   1.688   4.120  16.928  0.3258 -0.5952  1.0032
 7434SOL    HW233936   1.555   4.090  16.859 -0.6391 -3.3194 -1.7436
 7435SOL     OW33937   3.647   1.722   8.084 -0.4121  0.0764 -0.2002
 7435SOL    HW133938   3.600   1.782   8.141 -2.1508  0.0572 -1.6175
 7435SOL    HW233939   3.599   1.640   8.093  0.6064 -0.4217  0.7879
 7436SOL     OW33940   4.267   0.421   7.797  0.0930  0.2430 -0.1167
 7436SOL    HW133941   4.264   0.397   7.890  0.7303 -1.7222 -0.5921
 7436SOL    HW233942   4.355   0.393   7.771  0.1464  0.7555 -0.4685
 7437SOL     OW33943   1.792   1.165   2.911 -0.1134 -0.3338  0.0302
 7437SOL    HW133944   1.809   1.240   2.968  2.9900 -0.5352 -0.6075
 7437SOL    HW233945   1.818   1.199   2.825 -0.3613 -2.4559 -0.8830
 7438SOL     OW33946   0.236   1.019   8.969  0.1207 -0.1986 -0.1742
 7438SOL    HW133947   0.180   1.088   8.933  0.5823  0.4633  0.3837
 7438SOL    HW233948   0.309   1.057   9.018 -0.4213  2.6080 -1.5254
 7439SOL     OW33949   2.717   4.591   4.077 -0.3993  0.5255  0.2966
 7439SOL    HW133950   2.694   4.499   4.084  0.5324  0.1529 -1.6653
 7439SOL    HW233951   2.812   4.590   4.085 -0.5123 -0.0251  1.5701
 7440SOL     OW33952   1.288   1.532   3.292  0.1976  0.5868 -0.8997
 7440SOL    HW133953   1.196   1.559   3.301 -0.3253 -1.6218  0.4479
 7440SOL    HW233954   1.286   1.448   3.337  0.7412  1.1338  0.1352
 7441SOL     OW33955   4.013   4.476  14.488  0.2423 -0.2296 -0.3164
 7441SOL    HW133956   4.031   4.546  14.551 -1.1106  0.9522 -1.2234
 7441SOL    HW233957   3.918   4.486  14.481  0.4167  0.9044 -1.1765
 7442SOL     OW33958   1.780   3.118   0.401  0.2213 -0.2288  0.2432
 7442SOL    HW133959   1.791   3.169   0.321  1.8375 -1.9348 -0.6418
 7442SOL    HW233960   1.686   3.102   0.408 -0.1816  0.6929 -3.2733
 7443SOL     OW33961   1.184   0.777   4.700  0.2634 -0.2606  0.1231
 7443SOL    HW133962   1.231   0.696   4.683 -0.8270 -0.0464 -3.9176
 7443SOL    HW233963   1.096   0.748   4.676 -0.6829  1.2967  1.6802
 7444SOL     OW33964   0.943   3.548   3.624  0.2143  0.1090  0.4347
 7444SOL    HW133965   1.003   3.592   3.685 -0.3426  3.0074 -1.1204
 7444SOL    HW233966   0.919   3.467   3.669  0.5339  0.7507  1.7835
 7445SOL     OW33967   2.231   2.761   7.403 -0.5729  0.6729 -0.5050
 7445SOL    HW133968   2.314   2.776   7.356  1.4551 -1.6964  2.3085
 7445SOL    HW233969   2.179   2.841   7.392  1.2449  1.8933 -0.2978
 7446SOL     OW33970   3.269   4.404   6.510  0.0108 -0.2959 -0.0238
 7446SOL    HW133971   3.178   4.434   6.518  0.0581 -0.3921  0.7947
 7446SOL    HW233972   3.263   4.345   6.435 -1.1998 -1.8586  1.3250
 7447SOL     OW33973   3.142   4.326  10.155 -0.0177  0.3280 -0.2646
 7447SOL    HW133974   3.065   4.269  10.157 -0.5196  1.0333  0.7474
 7447SOL    HW233975   3.111   4.383  10.085  0.1195  1.2293  0.3985
 7448SOL     OW33976   2.879   2.921  12.524  0.2337 -0.5315  0.2491
 7448SOL    HW133977   2.790   2.924  12.489 -0.0793 -0.8412  1.0222
 7448SOL    HW233978   2.928   2.872  12.457  1.3045 -0.0593  0.6825
 7449SOL     OW33979   2.695   1.016   7.322  0.6396  0.0688  0.2083
 7449SOL    HW133980   2.657   1.035   7.237  0.7379  0.6603  0.3005
 7449SOL    HW233981   2.667   1.085   7.382  0.6994  1.1800 -1.0772
 7450SOL     OW33982   0.113   3.701  11.248  0.1003  0.5839  0.4274
 7450SOL    HW133983   0.130   3.790  11.218 -2.5018  1.1272  0.6232
 7450SOL    HW233984   0.023   3.703  11.281  0.0583 -1.2298  0.4479
 7451SOL     OW33985   4.670   2.379   8.797  0.0580  0.0138  0.3279
 7451SOL    HW133986   0.013   2.342   8.767  1.4245  1.5151  2.3163
 7451SOL    HW233987   4.694   2.455   8.850  0.8399 -0.3497  0.4940
 7452SOL     OW33988   1.825   4.430   7.598  0.3763 -0.7206  0.5920
 7452SOL    HW133989   1.892   4.392   7.655  0.9093 -0.6538  0.0173
 7452SOL    HW233990   1.816   4.364   7.529  0.9420 -1.9510  1.6960
 7453SOL     OW33991   4.512   3.963   6.210  0.1393 -0.1105 -0.1548
 7453SOL    HW133992   4.485   4.019   6.283 -0.4150  2.6196 -2.4519
 7453SOL    HW233993   4.437   3.903   6.207 -0.2978  0.6111 -3.5625
 7454SOL     OW33994   3.467   4.188  11.332 -0.0465  0.1015 -0.2487
 7454SOL    HW133995   3.493   4.274  11.298  0.2996  0.1882  0.2318
 7454SOL    HW233996   3.443   4.132  11.258 -1.6471 -1.5299  1.5372
 7455SOL     OW33997   2.038   1.817   6.710 -0.2124  0.1561 -0.2524
 7455SOL    HW133998   1.958   1.832   6.761  0.2410  2.5501 -0.2459
 7455SOL    HW233999   2.014   1.830   6.618 -2.0112  1.4637  0.3995
 7456SOL     OW34000   1.560   4.207  12.772  0.3349  0.1542  0.3795
 7456SOL    HW134001   1.546   4.115  12.795 -0.0579 -0.1438 -1.0205
 7456SOL    HW234002   1.633   4.211  12.833  1.6147  0.6409 -1.1768
 7457SOL     OW34003   4.435   3.080   5.197  0.3780  0.7157 -0.1039
 7457SOL    HW134004   4.417   3.086   5.103 -1.0099  0.9615  0.1711
 7457SOL    HW234005   4.415   3.171   5.217 -0.0561  0.3649  1.0798
 7458SOL     OW34006   1.960   1.502  11.526  0.2223 -0.2666 -0.0839
 7458SOL    HW134007   1.920   1.538  11.446  0.2728 -1.8097 -0.8076
 7458SOL    HW234008   2.009   1.427  11.493  0.5940  0.5567 -1.4096
 7459SOL     OW34009   4.254   2.741   7.566  0.3326 -0.6942  0.3003
 7459SOL    HW134010   4.214   2.828   7.569 -0.8789 -1.3060  1.4243
 7459SOL    HW234011   4.291   2.726   7.479  0.9217  1.4236  0.1754
 7460SOL     OW34012   1.772   4.419   8.078  0.2488  0.1002 -0.2389
 7460SOL    HW134013   1.760   4.453   7.989 -0.0421  0.7675  0.0539
 7460SOL    HW234014   1.825   4.343   8.054  0.7564  0.2638  0.3684
 7461SOL     OW34015   4.091   0.596   7.031  0.3810  0.4191  0.3325
 7461SOL    HW134016   4.070   0.603   7.124 -1.6315  2.0230 -0.2546
 7461SOL    HW234017   4.169   0.540   7.025 -0.4556 -0.8464  1.1966
 7462SOL     OW34018   3.075   0.682  16.330 -0.4114  0.3641 -0.1709
 7462SOL    HW134019   3.037   0.666  16.416 -3.6303 -1.3488 -1.9243
 7462SOL    HW234020   3.129   0.762  16.330 -1.2005  0.8919 -0.9830
 7463SOL     OW34021   2.529   4.500  12.014 -0.0788 -0.1688  0.2279
 7463SOL    HW134022   2.482   4.582  12.000  0.2919 -0.1676 -0.9577
 7463SOL    HW234023   2.457   4.452  12.056  1.0923 -1.2959  0.9242
 7464SOL     OW34024   3.947   1.941   6.866 -0.5692  0.1176  0.1538
 7464SOL    HW134025   3.880   2.004   6.837  1.1374  1.8287 -0.0757
 7464SOL    HW234026   3.937   1.870   6.804  0.5053  0.5955 -0.5681
 7465SOL     OW34027   4.026   2.389   9.994  0.0498  0.5250  0.0278
 7465SOL    HW134028   4.096   2.348  10.045 -1.4698 -0.0188  1.6558
 7465SOL    HW234029   3.946   2.351  10.029 -0.1537  2.6337  1.8500
 7466SOL     OW34030   1.230   0.403   7.584 -0.6400  0.0522  0.4357
 7466SOL    HW134031   1.278   0.419   7.665  0.9695  0.8097 -0.6793
 7466SOL    HW234032   1.305   0.434   7.534 -1.2430  0.2618 -0.3478
 7467SOL     OW34033   0.165   0.643   0.659 -0.3668  0.4149 -0.9852
 7467SOL    HW134034   0.204   0.570   0.612 -1.6889 -1.1762  0.3868
 7467SOL    HW234035   0.178   0.614   0.750  0.9785 -0.1806 -1.3611
 7468SOL     OW34036   0.469   4.250   8.564  0.7535  0.2001 -0.0478
 7468SOL    HW134037   0.501   4.207   8.485  1.1815 -0.9912  0.7701
 7468SOL    HW234038   0.396   4.196   8.594  2.5758 -1.5501  1.2152
 7469SOL     OW34039   3.869   2.177   4.460  0.2516 -0.1522 -0.3248
 7469SOL    HW134040   3.851   2.269   4.440 -0.0749 -0.1375  0.0461
 7469SOL    HW234041   3.783   2.138   4.444  0.8723 -1.3348 -0.8092
 7470SOL     OW34042   2.483   3.366  17.323 -0.0971 -0.1758 -0.3055
 7470SOL    HW134043   2.528   3.450  17.330 -0.9449  0.1431  1.4245
 7470SOL    HW234044   2.434   3.373  17.241  1.5036  1.4259 -1.1112
 7471SOL     OW34045   2.045   1.419   4.120  0.6386 -0.1405 -0.4576
 7471SOL    HW134046   2.101   1.343   4.104  0.9863  0.0304 -0.0474
 7471SOL    HW234047   1.965   1.406   4.070 -0.7043  1.8294  1.1985
 7472SOL     OW34048   0.220   0.464   2.640 -0.0387 -0.0288  0.0584
 7472SOL    HW134049   0.269   0.540   2.611 -3.1133  1.0961 -2.1730
 7472SOL    HW234050   0.218   0.407   2.563 -0.7016  0.9468 -0.6295
 7473SOL     OW34051   1.239   1.800   1.189  0.1619  0.3654  0.5708
 7473SOL    HW134052   1.317   1.760   1.149 -0.1317 -1.6487  2.0330
 7473SOL    HW234053   1.185   1.797   1.110  1.9523 -1.4766 -0.5755
 7474SOL     OW34054   4.563   2.908   3.872 -0.5409  0.2367  0.2419
 7474SOL    HW134055   4.493   2.924   3.808 -1.2920  0.1497  1.0459
 7474SOL    HW234056   4.641   2.938   3.825 -0.1143  1.7019  1.9097
 7475SOL     OW34057   2.493   4.120   3.481 -0.1074 -0.4020  0.5058
 7475SOL    HW134058   2.440   4.045   3.454 -0.8858  1.2158 -2.3751
 7475SOL    HW234059   2.512   4.080   3.566 -0.1337 -0.7116  0.3683
 7476SOL     OW34060   4.560   0.133  17.060  0.4117 -0.0390  0.3522
 7476SOL    HW134061   4.528   0.159  16.973 -0.2250  0.5771  0.7685
 7476SOL    HW234062   4.653   0.149  17.045  1.0459 -3.0635  0.9203
 7477SOL     OW34063   2.960   3.527   8.881  0.1958  0.5696 -0.3861
 7477SOL    HW134064   2.976   3.596   8.945  0.0900  0.4022 -0.1787
 7477SOL    HW234065   3.018   3.452   8.895  2.7135  2.0266 -2.9898
 7478SOL     OW34066   1.515   4.409   8.269 -0.1158 -0.1739 -0.4081
 7478SOL    HW134067   1.593   4.439   8.224  1.5090 -2.0620  1.1649
 7478SOL    HW234068   1.521   4.462   8.348 -2.5173  0.1081 -0.3937
 7479SOL     OW34069   0.626   1.661   5.414  0.0124 -0.1319 -0.1941
 7479SOL    HW134070   0.567   1.733   5.391  2.6942  2.5088  1.1550
 7479SOL    HW234071   0.596   1.594   5.352 -0.0041 -2.1065  1.9354
 7480SOL     OW34072   4.033   0.874   0.099 -0.5448  0.0519  0.1661
 7480SOL    HW134073   4.123   0.892   0.128 -0.9418 -0.2064  1.5174
 7480SOL    HW234074   4.032   0.901   0.007 -1.0623 -0.2311  0.0907
 7481SOL     OW34075   0.369   4.733  14.287 -0.5159  0.2512  0.1695
 7481SOL    HW134076   0.345   4.641  14.285  0.9805 -0.1158 -0.8374
 7481SOL    HW234077   0.386   0.016  14.379 -1.7636  0.2239  0.4075
 7482SOL     OW34078   1.547   3.943  12.225 -0.2113  0.4131  0.3992
 7482SOL    HW134079   1.467   3.949  12.173  1.6743  1.5380 -2.3781
 7482SOL    HW234080   1.524   3.976  12.312  0.8420  0.9580  0.4645
 7483SOL     OW34081   2.380   0.369   4.860 -0.6283  0.4362 -0.3067
 7483SOL    HW134082   2.344   0.431   4.797 -0.6065  0.8621  0.0993
 7483SOL    HW234083   2.466   0.402   4.884 -0.0050 -1.3415 -0.1151
 7484SOL     OW34084   4.056   2.086   3.684 -0.8011  0.0085  0.0045
 7484SOL    HW134085   4.054   2.182   3.689  0.1574  0.0109  0.5022
 7484SOL    HW234086   4.148   2.065   3.704  0.0040  1.6629 -2.0445
 7485SOL     OW34087   3.410   0.415   2.730  0.6845 -0.6161 -0.2919
 7485SOL    HW134088   3.397   0.479   2.800  2.3665 -1.0821  0.4540
 7485SOL    HW234089   3.449   0.473   2.664  1.0583 -1.1683 -0.5592
 7486SOL     OW34090   1.502   1.952   7.314 -0.4706  0.4742  0.4649
 7486SOL    HW134091   1.410   1.927   7.323 -0.5302  0.7183  0.5479
 7486SOL    HW234092   1.520   1.986   7.402 -0.1234 -0.6110  0.8179
 7487SOL     OW34093   2.205   3.271  13.327 -0.4396  0.4467 -0.2560
 7487SOL    HW134094   2.252   3.298  13.248 -0.1204 -1.3848 -0.6866
 7487SOL    HW234095   2.257   3.324  13.387  0.6335  0.1371 -0.9060
 7488SOL     OW34096   0.452   0.588   8.169 -0.2680 -0.5686  0.7822
 7488SOL    HW134097   0.515   0.518   8.186 -0.4012 -0.6569  0.9095
 7488SOL    HW234098   0.368   0.549   8.143 -0.0662 -1.8245  1.9859
 7489SOL     OW34099   3.093   4.281  16.182 -0.1289 -0.0644  0.2028
 7489SOL    HW134100   3.188   4.292  16.177 -0.2655  0.3468 -1.7816
 7489SOL    HW234101   3.074   4.208  16.122 -2.4569  0.5611  0.2051
 7490SOL     OW34102   3.625   1.876   7.737  0.4291 -0.2385 -0.1199
 7490SOL    HW134103   3.649   1.793   7.779  0.2890 -0.4885 -0.5326
 7490SOL    HW234104   3.589   1.837   7.657  0.5412 -0.0304 -0.2732
 7491SOL     OW34105   3.098   4.725   0.412 -0.4914 -0.2635 -0.0757
 7491SOL    HW134106   3.176   0.040   0.408 -0.8065  0.4631  3.6906
 7491SOL    HW234107   3.047   0.018   0.339  0.1830  1.5298  0.2816
 7492SOL     OW34108   1.757   1.535   6.910 -0.1707 -0.2995 -0.1494
 7492SOL    HW134109   1.794   1.610   6.956 -3.0542  0.7088  0.5364
 7492SOL    HW234110   1.664   1.553   6.893  0.0016 -0.2430 -1.0298
 7493SOL     OW34111   1.673   3.144   4.220  0.0391  0.1140 -0.0740
 7493SOL    HW134112   1.738   3.209   4.195 -0.1528  0.6848  0.9158
 7493SOL    HW234113   1.732   3.092   4.275 -2.7459 -2.3924  0.6043
 7494SOL     OW34114   2.774   3.216   3.089 -0.3365  0.2134  0.5766
 7494SOL    HW134115   2.774   3.167   3.170  0.9494  0.3202  0.6428
 7494SOL    HW234116   2.865   3.242   3.076 -0.3071  0.5548  1.4657
 7495SOL     OW34117   3.066   0.475   0.199  0.0751 -0.4940 -0.0330
 7495SOL    HW134118   3.035   0.479   0.109  2.2618 -1.2191 -0.8051
 7495SOL    HW234119   2.987   0.439   0.239 -0.7088 -0.1244 -1.2733
 7496SOL     OW34120   3.597   3.444   2.446 -1.1469  0.4969 -0.4610
 7496SOL    HW134121   3.677   3.494   2.431 -1.2527  0.6434 -0.5299
 7496SOL    HW234122   3.642   3.373   2.492 -1.1886  0.1136 -1.0074
 7497SOL     OW34123   1.762   2.468   6.006  0.2037  0.3166 -0.1017
 7497SOL    HW134124   1.788   2.444   6.095  0.9952  0.3478 -0.3297
 7497SOL    HW234125   1.772   2.382   5.965  0.6599 -0.7896  2.3371
 7498SOL     OW34126   2.661   1.482   6.250 -0.4366 -0.2101  0.7931
 7498SOL    HW134127   2.646   1.393   6.282 -2.4806  0.0125  0.4291
 7498SOL    HW234128   2.583   1.525   6.283 -0.6952  1.2060 -1.6718
 7499SOL     OW34129   4.161   3.010   2.546  0.2973  0.0475  0.3740
 7499SOL    HW134130   4.147   3.009   2.641 -0.4965  0.1177  0.2601
 7499SOL    HW234131   4.256   3.002   2.540  0.3078 -0.8257  1.6192
 7500SOL     OW34132   0.097   2.371   9.024  0.2044  0.3097 -0.0573
 7500SOL    HW134133   0.191   2.356   9.018  0.3911  2.0551 -1.4513
 7500SOL    HW234134   0.087   2.451   9.075 -0.0245  2.5315 -3.5947
 7501SOL     OW34135   3.215   3.545   9.282 -0.3852 -0.0441 -0.0273
 7501SOL    HW134136   3.135   3.493   9.294 -0.9594  0.5458 -1.3048
 7501SOL    HW234137   3.275   3.489   9.332 -0.7570  0.7590  1.3016
 7502SOL     OW34138   0.479   1.109   3.085 -0.3516  0.4560 -0.0914
 7502SOL    HW134139   0.407   1.117   3.022 -0.4409 -1.7845 -0.2697
 7502SOL    HW234140   0.492   1.196   3.123  3.8725  0.1085 -0.7827
 7503SOL     OW34141   0.259   4.356  17.173 -0.1290  0.0914  0.8861
 7503SOL    HW134142   0.242   4.310  17.091  0.0698 -0.4640  1.1541
 7503SOL    HW234143   0.245   4.448  17.151  2.8063  0.8548  2.1100
 7504SOL     OW34144   1.711   2.297   3.544  0.4273  0.3627  0.1949
 7504SOL    HW134145   1.626   2.258   3.527 -0.4374  2.3006  0.0956
 7504SOL    HW234146   1.683   2.385   3.570  1.5655  1.3318 -1.8514
 7505SOL     OW34147   0.984   0.966   3.023  0.1387 -0.4340  0.2879
 7505SOL    HW134148   1.015   1.026   2.955 -2.3465 -0.8920 -1.2510
 7505SOL    HW234149   0.894   1.000   3.019 -0.1561 -1.1691  0.7231
 7506SOL     OW34150   4.661   0.046   3.482  0.0345  0.1351  0.3842
 7506SOL    HW134151   4.680   4.697   3.454 -1.6065 -0.1256  0.1010
 7506SOL    HW234152   4.639   0.024   3.573  2.6542 -1.3435  0.6557
 7507SOL     OW34153   1.871   0.197   6.140 -0.7163 -0.6244  0.5584
 7507SOL    HW134154   1.899   0.146   6.217  0.5400 -0.7042  0.0372
 7507SOL    HW234155   1.926   0.275   6.141  1.1920 -1.9519  1.3451
 7508SOL     OW34156   2.224   1.999   1.438 -0.3040  0.1280 -0.5233
 7508SOL    HW134157   2.306   2.005   1.487 -0.4307  2.0010 -0.5242
 7508SOL    HW234158   2.264   2.009   1.352  0.9877 -0.1525  0.0567
 7509SOL     OW34159   2.045   0.038   6.336  0.1363 -0.4852  0.6068
 7509SOL    HW134160   2.057   4.686   6.318 -0.4533 -0.0803 -1.8745
 7509SOL    HW234161   2.115   0.078   6.286 -1.5097  0.3564 -1.0162
 7510SOL     OW34162   0.985   0.776   7.922  0.1097  0.0496 -0.2054
 7510SOL    HW134163   1.073   0.810   7.935 -0.1305  0.7374 -0.3738
 7510SOL    HW234164   1.001   0.683   7.938  1.2775 -0.0336 -1.8679
 7511SOL     OW34165   4.587   4.140   3.514 -0.0166 -0.7897  0.4256
 7511SOL    HW134166   4.498   4.113   3.491  0.0654 -0.4623 -0.3000
 7511SOL    HW234167   4.634   4.057   3.517 -0.3671 -1.0676 -1.7567
 7512SOL     OW34168   3.705   2.078  16.857  0.1240  0.2270 -0.0318
 7512SOL    HW134169   3.700   2.084  16.761  0.7621 -0.9332 -0.1413
 7512SOL    HW234170   3.708   1.983  16.869 -1.9302  0.1670 -0.0318
 7513SOL     OW34171   0.626   3.849   5.199  0.0202 -0.7016 -0.0379
 7513SOL    HW134172   0.719   3.837   5.179  0.0224  0.3886 -0.6636
 7513SOL    HW234173   0.595   3.759   5.212 -1.0159 -0.2729  0.5107
 7514SOL     OW34174   0.279   4.284  13.240 -0.1060  0.7669 -0.1899
 7514SOL    HW134175   0.256   4.200  13.280 -1.8451  1.1689 -0.3559
 7514SOL    HW234176   0.198   4.316  13.200 -0.3378  0.0806 -0.2586
 7515SOL     OW34177   0.749   0.621  10.090  0.0388  0.1054 -0.5560
 7515SOL    HW134178   0.695   0.556  10.045  0.4187 -0.9365  0.5072
 7515SOL    HW234179   0.831   0.584  10.057 -0.6104 -1.3590 -0.5413
 7516SOL     OW34180   1.003   3.242   8.282 -0.6774 -0.2159  0.7340
 7516SOL    HW134181   1.028   3.237   8.374 -2.2691 -2.2390  1.0517
 7516SOL    HW234182   1.055   3.170   8.248 -2.6299 -1.4251  0.3362
 7517SOL     OW34183   3.722   2.947   2.279 -0.0154  0.1162  0.1225
 7517SOL    HW134184   3.690   2.876   2.336  0.8314  0.4874  1.0574
 7517SOL    HW234185   3.754   2.894   2.206 -1.1262 -2.8643  1.7560
 7518SOL     OW34186   0.237   3.128   1.191 -0.0971  0.6627 -0.0676
 7518SOL    HW134187   0.174   3.103   1.124  2.4096 -0.1879 -2.0782
 7518SOL    HW234188   0.266   3.049   1.235 -0.5264  0.6171  0.1341
 7519SOL     OW34189   4.106   1.188   8.367 -0.1793 -0.3233  0.4035
 7519SOL    HW134190   4.013   1.175   8.346  0.5169 -1.7332 -1.8021
 7519SOL    HW234191   4.122   1.277   8.337 -1.7414 -0.2973 -0.4048
 7520SOL     OW34192   1.895   3.853  16.521  1.0428 -0.5254 -0.1284
 7520SOL    HW134193   1.943   3.774  16.545  1.0207 -0.9272 -1.3979
 7520SOL    HW234194   1.843   3.861  16.600  2.2177  2.1238  0.3915
 7521SOL     OW34195   2.404   2.848   7.907 -0.4907  0.5037 -0.1036
 7521SOL    HW134196   2.368   2.763   7.933 -0.1115 -0.2833 -2.1724
 7521SOL    HW234197   2.331   2.885   7.858 -0.4083 -0.6565 -1.0941
 7522SOL     OW34198   3.012   0.895  16.722  0.1084  0.6747 -0.2010
 7522SOL    HW134199   2.952   0.953  16.770 -2.6792 -2.0205 -0.4466
 7522SOL    HW234200   2.963   0.882  16.641 -0.5708  0.7152  0.2005
 7523SOL     OW34201   2.892   4.319  13.806  0.3254  0.3720 -0.6302
 7523SOL    HW134202   2.851   4.381  13.867 -3.4824 -1.4913 -1.3238
 7523SOL    HW234203   2.890   4.238  13.857  1.1713  0.2239 -0.8341
 7524SOL     OW34204   3.511   1.901   2.532  0.6415 -0.1213  0.0424
 7524SOL    HW134205   3.552   1.824   2.570  1.4855 -0.0777 -0.7848
 7524SOL    HW234206   3.594   1.949   2.526  0.5495  0.2223  1.5664
 7525SOL     OW34207   1.992   1.783   0.338 -0.2218 -0.1333 -0.0424
 7525SOL    HW134208   2.008   1.810   0.248 -2.7413  0.1846 -0.3908
 7525SOL    HW234209   2.036   1.858   0.379 -1.5804  0.5247  0.2174
 7526SOL     OW34210   1.167   3.043   2.637  0.2592  0.4088  0.4433
 7526SOL    HW134211   1.172   2.975   2.570  2.6126 -0.1665  1.2134
 7526SOL    HW234212   1.123   2.986   2.701 -0.6131  0.1646 -0.3636
 7527SOL     OW34213   0.116   1.062   7.711  0.0424  0.1948 -0.2616
 7527SOL    HW134214   0.070   1.109   7.780 -2.3954 -0.7819 -1.2091
 7527SOL    HW234215   0.125   0.974   7.747 -2.9633 -0.1806 -0.4251
 7528SOL     OW34216   1.876   2.515   3.751 -0.0417 -0.0624  0.0370
 7528SOL    HW134217   1.796   2.542   3.707  0.2274  0.3660 -0.1910
 7528SOL    HW234218   1.850   2.495   3.841  0.3792  0.9500  0.3860
 7529SOL     OW34219   3.541   0.118   2.047 -0.0252  0.1200  0.0640
 7529SOL    HW134220   3.570   0.060   1.976  0.2198 -2.8767  2.5999
 7529SOL    HW234221   3.589   0.191   2.009 -0.2011  0.1861 -0.0295
 7530SOL     OW34222   2.148   1.296  12.606 -0.4773 -0.5104  0.4915
 7530SOL    HW134223   2.172   1.373  12.554 -1.2144  0.8985  2.2601
 7530SOL    HW234224   2.066   1.337  12.631 -0.0300 -0.7889  2.4781
 7531SOL     OW34225   4.035   4.015   3.736 -0.7887 -0.3444 -0.0509
 7531SOL    HW134226   4.044   3.986   3.645 -1.8038 -2.2577  0.4684
 7531SOL    HW234227   4.120   3.985   3.768 -1.2671  1.7139  3.0977
 7532SOL     OW34228   1.490   4.016   5.530  0.3207 -0.0378 -0.0921
 7532SOL    HW134229   1.571   4.066   5.539 -0.9577  1.5242  2.6106
 7532SOL    HW234230   1.423   4.068   5.574  0.1652  0.0491 -0.4339
 7533SOL     OW34231   4.466   4.695  17.602 -0.0139  0.5194 -0.4823
 7533SOL    HW134232   4.516   4.615  17.615  1.3546  1.5547  0.5663
 7533SOL    HW234233   4.528   0.002  17.546  0.7551 -0.2556 -0.2850
 7534SOL     OW34234   3.498   0.483   7.422 -0.1142  0.1294  0.0669
 7534SOL    HW134235   3.468   0.423   7.490 -1.9622 -1.0105 -1.7343
 7534SOL    HW234236   3.578   0.516   7.464 -1.1887 -0.1740  2.3397
 7535SOL     OW34237   0.960   1.237  14.567 -0.5483  0.4273  0.2864
 7535SOL    HW134238   0.987   1.313  14.619 -0.2343 -0.0423  0.8138
 7535SOL    HW234239   0.974   1.279  14.483  0.5429 -1.7224 -0.6187
 7536SOL     OW34240   3.256   4.466   2.495  0.9319  0.0525 -0.6121
 7536SOL    HW134241   3.171   4.505   2.474  1.3531  1.6242  0.6497
 7536SOL    HW234242   3.289   4.425   2.414  0.2949  2.2617 -1.9968
 7537SOL     OW34243   1.162   0.936   8.305 -0.3228 -0.3559 -0.0136
 7537SOL    HW134244   1.081   0.926   8.254 -1.6785 -1.8297  2.4509
 7537SOL    HW234245   1.175   1.030   8.320  1.1301 -0.6973  0.8553
 7538SOL     OW34246   3.118   1.852   1.114 -0.1850  0.2642  0.0393
 7538SOL    HW134247   3.089   1.871   1.204  1.2017 -0.8876  0.7270
 7538SOL    HW234248   3.137   1.935   1.071  0.5718 -0.2886 -0.6858
 7539SOL     OW34249   1.618   4.654   7.027  0.4106  0.1341 -0.3608
 7539SOL    HW134250   1.654   4.673   6.941 -2.5388 -2.8487 -2.2810
 7539SOL    HW234251   1.593   4.562   7.014 -0.8083  0.5623 -1.0907
 7540SOL     OW34252   3.634   4.043   2.067  0.2396  0.0792 -0.1929
 7540SOL    HW134253   3.631   3.951   2.095 -0.3177 -0.3567 -1.6792
 7540SOL    HW234254   3.728   4.052   2.083  0.5475 -3.0262 -0.1738
 7541SOL     OW34255   3.191   3.537  13.324 -0.1284  0.1742  0.1226
 7541SOL    HW134256   3.145   3.484  13.260  0.0022  1.2771 -0.8877
 7541SOL    HW234257   3.278   3.547  13.285  0.3698 -0.4882  1.0602
 7542SOL     OW34258   2.307   3.227   9.196  0.4464  0.1704  0.4153
 7542SOL    HW134259   2.309   3.217   9.291  0.7350 -3.9901 -0.0336
 7542SOL    HW234260   2.286   3.320   9.185  2.4876  0.7371  1.2044
 7543SOL     OW34261   4.154   3.975   7.255 -0.7821  0.2866 -0.4454
 7543SOL    HW134262   4.160   3.908   7.323 -0.5762  0.1865 -0.5631
 7543SOL    HW234263   4.206   3.935   7.186 -0.0586 -0.1052  0.3307
 7544SOL     OW34264   3.323   0.809  14.463  0.3705  0.4924  0.9145
 7544SOL    HW134265   3.258   0.847  14.404  1.3999  0.1512 -0.4421
 7544SOL    HW234266   3.365   0.740  14.411  0.3995  0.1694  1.3725
 7545SOL     OW34267   4.356   1.017  12.462  0.3195  0.3604 -0.8548
 7545SOL    HW134268   4.359   0.939  12.518  0.6839  0.8583 -0.1924
 7545SOL    HW234269   4.322   1.078  12.527 -0.0861 -0.2450 -0.4998
 7546SOL     OW34270   2.717   4.472   8.635 -0.2189  0.1075  0.3622
 7546SOL    HW134271   2.711   4.377   8.641  1.1585  0.1378  1.8405
 7546SOL    HW234272   2.682   4.501   8.719 -0.2449  0.2211  0.3124
 7547SOL     OW34273   4.578   1.289   7.168 -0.3084 -0.2545 -0.1509
 7547SOL    HW134274   4.497   1.334   7.143 -0.4920 -1.1224 -1.1291
 7547SOL    HW234275   4.639   1.350   7.126 -1.6148  1.1423 -0.0280
 7548SOL     OW34276   4.161   2.285   2.485 -0.0574 -0.1486  0.0498
 7548SOL    HW134277   4.180   2.309   2.576  0.0932 -0.4969  0.1119
 7548SOL    HW234278   4.111   2.360   2.453  0.9787 -0.4117 -2.1916
 7549SOL     OW34279   0.523   1.762   3.904  0.6092 -0.0635 -0.7613
 7549SOL    HW134280   0.568   1.750   3.821 -0.9681  1.1329 -1.7864
 7549SOL    HW234281   0.460   1.690   3.895  1.7076 -1.2738  1.3881
 7550SOL     OW34282   0.384   4.722   3.177 -0.3128 -0.6469 -0.1181
 7550SOL    HW134283   0.290   4.718   3.192 -0.2711  1.2146  0.6493
 7550SOL    HW234284   0.416   4.727   3.267 -0.5535  3.0578 -0.2561
 7551SOL     OW34285   3.218   3.771   4.769  0.5110 -0.3030  0.2971
 7551SOL    HW134286   3.147   3.773   4.705  0.6244  1.5339  0.2306
 7551SOL    HW234287   3.222   3.676   4.776  1.9275 -0.1255  1.8632
 7552SOL     OW34288   2.252   3.318   4.682  0.2377 -0.5626  0.3011
 7552SOL    HW134289   2.261   3.340   4.590  0.7145 -0.1805  0.4413
 7552SOL    HW234290   2.275   3.396   4.732 -0.3808 -0.4683  0.4400
 7553SOL     OW34291   2.494   2.948   3.971 -0.2994  0.0251  0.0704
 7553SOL    HW134292   2.404   2.976   3.989  0.7498  2.6620  1.2023
 7553SOL    HW234293   2.539   3.009   4.029 -0.5203 -0.8932  1.2220
 7554SOL     OW34294   3.824   2.450   4.996 -0.3544  0.1532 -0.7108
 7554SOL    HW134295   3.758   2.382   5.005 -2.0683  1.7702 -1.1200
 7554SOL    HW234296   3.867   2.431   4.912 -1.2057 -0.9865 -0.8846
 7555SOL     OW34297   2.999   1.880   7.492  0.1492 -0.5191 -0.2086
 7555SOL    HW134298   2.972   1.970   7.477 -0.2945 -0.1483  2.7310
 7555SOL    HW234299   2.968   1.830   7.416 -0.7784  0.7790 -0.6778
 7556SOL     OW34300   1.948   0.993   4.644  0.3124 -0.4341 -0.0399
 7556SOL    HW134301   1.996   1.059   4.693  0.1106 -1.1770  1.1377
 7556SOL    HW234302   1.891   0.956   4.711 -1.4166  0.2726 -1.1035
 7557SOL     OW34303   1.849   3.372   6.397 -1.0045 -0.2104  0.3383
 7557SOL    HW134304   1.895   3.312   6.456  1.2000 -0.1073 -1.2659
 7557SOL    HW234305   1.899   3.371   6.315 -2.0024 -1.1272 -0.2463
 7558SOL     OW34306   2.688   4.501   1.866 -0.5507 -0.6604  0.0420
 7558SOL    HW134307   2.738   4.513   1.785  1.2835  0.3971  1.3244
 7558SOL    HW234308   2.734   4.423   1.897  0.6065  0.5522  1.3396
 7559SOL     OW34309   3.498   2.713  11.293  0.1014 -0.0805  0.2605
 7559SOL    HW134310   3.521   2.640  11.236  0.0086  0.1102 -0.0206
 7559SOL    HW234311   3.560   2.694  11.363  2.5570 -1.5637 -2.3503
 7560SOL     OW34312   1.264   3.797   3.928 -0.2691 -0.2032  0.0391
 7560SOL    HW134313   1.179   3.799   3.885 -0.0488  2.0711 -0.2789
 7560SOL    HW234314   1.277   3.889   3.950 -1.2719  0.2026 -1.0261
 7561SOL     OW34315   4.568   4.214   6.971  0.4374 -0.4540  0.1855
 7561SOL    HW134316   4.526   4.289   7.014  1.0101 -0.5983  0.9904
 7561SOL    HW234317   4.490   4.162   6.949  0.2475  0.1321 -0.4954
 7562SOL     OW34318   0.738   3.495   2.324 -0.2241 -0.2333 -0.5083
 7562SOL    HW134319   0.696   3.447   2.252 -0.3464 -2.2053  0.8864
 7562SOL    HW234320   0.796   3.553   2.274 -1.6020  1.3155 -0.2913
 7563SOL     OW34321   4.272   3.765  15.971  0.3361  0.1110 -0.1076
 7563SOL    HW134322   4.365   3.753  15.949  0.4506 -1.4928  1.2358
 7563SOL    HW234323   4.279   3.857  15.996 -1.4599  0.4194 -0.7489
 7564SOL     OW34324   0.218   4.526  13.522 -0.2740  0.4478 -0.3824
 7564SOL    HW134325   0.140   4.488  13.562  0.3648  0.3532  0.7607
 7564SOL    HW234326   0.250   4.574  13.599  0.9611  0.9373 -1.1952
 7565SOL     OW34327   4.622   3.069   1.418 -0.0683 -0.0550 -0.4146
 7565SOL    HW134328   4.606   3.131   1.346  1.6393  0.3252 -0.4838
 7565SOL    HW234329   4.593   2.986   1.379  3.0250 -2.2790  2.0588
 7566SOL     OW34330   1.975   1.413  15.245 -0.9097  0.6745 -0.0965
 7566SOL    HW134331   2.015   1.334  15.208  2.3481  1.6454  1.3901
 7566SOL    HW234332   2.040   1.477  15.218  0.8526 -1.4424 -0.9064
 7567SOL     OW34333   2.832   3.589   3.473  0.2431  0.0975 -0.0835
 7567SOL    HW134334   2.799   3.675   3.501 -0.7264 -0.0325 -0.8244
 7567SOL    HW234335   2.799   3.564   3.387  1.0432 -1.6403  0.1124
 7568SOL     OW34336   3.526   4.084   4.187  0.2288  0.3556  0.6319
 7568SOL    HW134337   3.515   4.140   4.110  1.8143  0.4190  0.4483
 7568SOL    HW234338   3.523   4.141   4.263  3.2858 -0.5203  1.3895
 7569SOL     OW34339   4.290   2.424   5.891  0.1272  0.2470 -0.3226
 7569SOL    HW134340   4.359   2.412   5.826  1.8188  2.8873  0.9833
 7569SOL    HW234341   4.315   2.512   5.918 -3.1948  0.8998  0.7221
 7570SOL     OW34342   0.232   1.752   7.494 -0.1884 -0.9546 -0.2820
 7570SOL    HW134343   0.213   1.759   7.401  0.9088  1.0976 -0.3511
 7570SOL    HW234344   0.162   1.692   7.518 -1.8200  1.1365  0.2195
 7571SOL     OW34345   1.829   3.778  13.840 -0.0117  0.2025  0.4275
 7571SOL    HW134346   1.924   3.776  13.853  0.1441 -1.9821 -1.0423
 7571SOL    HW234347   1.790   3.774  13.927  1.9655 -1.0073  1.2453
 7572SOL     OW34348   3.068   2.520   5.281  0.0803 -0.4980 -0.4619
 7572SOL    HW134349   3.067   2.614   5.260  2.1858 -0.1725  0.8471
 7572SOL    HW234350   3.160   2.509   5.256  0.1122  1.3283 -1.1464
 7573SOL     OW34351   1.473   3.277  12.538  0.4798 -0.3855 -0.9155
 7573SOL    HW134352   1.540   3.294  12.604 -0.4991 -1.1065  0.2575
 7573SOL    HW234353   1.419   3.215  12.587 -0.8059 -0.8423 -2.8870
 7574SOL     OW34354   4.440   3.466   8.669  0.1686 -0.2359 -0.4019
 7574SOL    HW134355   4.487   3.422   8.740  1.5636 -0.3642 -1.4210
 7574SOL    HW234356   4.427   3.392   8.611  1.4257 -1.5499  0.9917
 7575SOL     OW34357   1.297   3.492   2.261  0.2207 -0.0647  0.1624
 7575SOL    HW134358   1.365   3.559   2.256  1.2459 -0.9200  2.5656
 7575SOL    HW234359   1.251   3.508   2.343 -0.4642 -2.8015  0.2966
 7576SOL     OW34360   0.105   2.357   7.591 -0.1599 -0.0292 -0.2219
 7576SOL    HW134361   0.062   2.441   7.605 -0.7700 -0.2514 -0.7820
 7576SOL    HW234362   0.100   2.340   7.685  0.4158 -4.8252 -1.0737
 7577SOL     OW34363   2.353   1.211  16.984  0.3087  0.1904  0.6231
 7577SOL    HW134364   2.320   1.287  16.936  0.4944  0.3161  0.6924
 7577SOL    HW234365   2.326   1.137  16.929 -1.3806  1.8397 -0.7522
 7578SOL     OW34366   4.184   3.884   4.054 -0.4572 -0.0516  0.1060
 7578SOL    HW134367   4.096   3.863   4.087  0.3536  0.0519  2.3463
 7578SOL    HW234368   4.177   3.838   3.970  3.1097 -0.0134 -0.1837
 7579SOL     OW34369   3.069   2.511   2.454 -0.5297 -0.4955  0.2663
 7579SOL    HW134370   2.979   2.487   2.430 -0.3470 -0.3297 -0.5847
 7579SOL    HW234371   3.107   2.475   2.373 -0.6357 -1.9394  0.8641
 7580SOL     OW34372   0.657   4.541   0.385  0.1743 -0.1746  0.0109
 7580SOL    HW134373   0.622   4.615   0.435  0.6727  0.8110 -1.1016
 7580SOL    HW234374   0.591   4.504   0.327  0.2711  1.6805 -1.2852
 7581SOL     OW34375   3.707   2.051   5.774  0.4569 -0.8271  0.2755
 7581SOL    HW134376   3.744   2.090   5.853  0.5842 -0.3468 -0.0229
 7581SOL    HW234377   3.787   2.023   5.730  0.2845  0.9059 -1.0935
 7582SOL     OW34378   3.283   1.316   2.549 -0.3406  0.4083  0.3216
 7582SOL    HW134379   3.378   1.329   2.549 -0.2618 -0.1607  0.0045
 7582SOL    HW234380   3.261   1.377   2.479 -0.1001  1.4411  1.1423
 7583SOL     OW34381   0.885   0.052   5.847  0.0602 -0.6384 -0.1554
 7583SOL    HW134382   0.972   0.032   5.882 -0.0709  0.3095  0.7158
 7583SOL    HW234383   0.896   0.078   5.756 -2.5624  1.1544  0.0533
 7584SOL     OW34384   3.888   0.123  12.109  0.2591  0.3378  0.6580
 7584SOL    HW134385   3.857   0.054  12.050  1.6118  0.4063 -0.1292
 7584SOL    HW234386   3.807   0.169  12.132  0.6188  1.9594 -1.3394
 7585SOL     OW34387   2.808   4.497   4.473  0.0368 -0.2643 -0.5408
 7585SOL    HW134388   2.875   4.452   4.525  0.3582  1.1927  0.2935
 7585SOL    HW234389   2.866   4.551   4.419  0.7587 -0.8480 -0.3576
 7586SOL     OW34390   1.133   0.102   3.455 -0.1860  0.2591 -0.1156
 7586SOL    HW134391   1.133   0.124   3.361  0.6967  1.2357  0.1160
 7586SOL    HW234392   1.216   0.143   3.478 -0.3720  0.3352  0.4215
 7587SOL     OW34393   0.039   4.663   8.943 -0.3505  0.2414 -0.4405
 7587SOL    HW134394   0.119   4.650   8.994  0.1695 -0.9997 -1.5786
 7587SOL    HW234395   4.736   4.733   8.992 -1.3193  0.4205 -1.5746
 7588SOL     OW34396   2.344   0.993   7.034 -0.5096 -0.1640 -0.1372
 7588SOL    HW134397   2.412   1.030   6.978  0.0156  1.9931  1.9006
 7588SOL    HW234398   2.279   1.063   7.030 -1.5338 -1.1719 -1.0007
 7589SOL     OW34399   3.939   2.074   6.577 -0.1679 -0.0898  0.3538
 7589SOL    HW134400   3.934   1.979   6.564 -0.5628 -0.1448  0.9122
 7589SOL    HW234401   3.858   2.082   6.628  0.0894  0.4185  0.6843
 7590SOL     OW34402   0.487   3.174   2.555 -0.2606 -0.2623 -0.1847
 7590SOL    HW134403   0.548   3.102   2.570  2.5619  1.7426 -2.2808
 7590SOL    HW234404   0.480   3.216   2.641  0.1585 -0.4082 -0.0802
 7591SOL     OW34405   0.685   1.893  10.211  0.3751  0.7112 -0.6824
 7591SOL    HW134406   0.733   1.812  10.193 -0.1794  0.1673  0.2918
 7591SOL    HW234407   0.677   1.899  10.307 -2.7305 -0.0272 -0.8959
 7592SOL     OW34408   4.519   0.949   4.127  0.0850  0.7999  0.2381
 7592SOL    HW134409   4.483   0.860   4.130  1.4049  0.3551  2.8518
 7592SOL    HW234410   4.614   0.936   4.127  0.3238  2.6370 -0.6067
 7593SOL     OW34411   1.435   0.858   9.072  0.6489 -0.1545 -0.0129
 7593SOL    HW134412   1.360   0.821   9.118  0.4615  1.0469  0.6307
 7593SOL    HW234413   1.405   0.946   9.049  1.4787 -0.9583 -4.3056
 7594SOL     OW34414   4.555   1.950   9.585 -0.1655 -0.4311 -0.3045
 7594SOL    HW134415   4.586   2.021   9.529  0.0915  0.3923  0.8731
 7594SOL    HW234416   4.461   1.952   9.567 -0.6893  1.7089  2.6878
 7595SOL     OW34417   3.804   4.267   2.132  0.1582  0.3431  0.0073
 7595SOL    HW134418   3.800   4.361   2.111  0.6891  0.7329  1.6112
 7595SOL    HW234419   3.713   4.249   2.156 -0.3320 -0.1306 -2.2575
 7596SOL     OW34420   2.568   4.684   1.490 -0.0049 -0.3713  0.4005
 7596SOL    HW134421   2.484   4.677   1.537  0.1005 -0.4194  0.5852
 7596SOL    HW234422   2.635   4.720   1.548  2.0385 -0.5502 -1.8551
 7597SOL     OW34423   0.031   1.599   1.515 -0.1134  0.4119  0.1324
 7597SOL    HW134424   0.092   1.634   1.581  0.0179 -0.2843  0.3804
 7597SOL    HW234425   0.095   1.595   1.444  2.9437  1.8337  2.7844
 7598SOL     OW34426   2.608   2.387   2.599  0.2097 -0.2796  0.0676
 7598SOL    HW134427   2.581   2.401   2.509  0.2055 -0.6551  0.0105
 7598SOL    HW234428   2.583   2.471   2.638 -0.4683 -0.3916 -0.1343
 7599SOL     OW34429   2.111   4.200   7.514  0.4168  0.2615  0.2090
 7599SOL    HW134430   2.093   4.268   7.578 -0.1280  1.0853 -0.8294
 7599SOL    HW234431   2.028   4.170   7.478  0.8483 -1.3116  0.5190
 7600SOL     OW34432   1.502   2.654   1.431  0.0032  0.1727  0.1879
 7600SOL    HW134433   1.468   2.660   1.342  0.9064 -1.6916 -0.3000
 7600SOL    HW234434   1.569   2.722   1.428  1.0814 -1.0431 -2.6268
 7601SOL     OW34435   3.675   3.242   6.665  0.5552  0.6475 -0.4553
 7601SOL    HW134436   3.721   3.235   6.581 -0.0441 -0.4401 -0.6948
 7601SOL    HW234437   3.723   3.317   6.699 -2.3824  2.3962 -0.1858
 7602SOL     OW34438   3.881   1.398   2.982 -0.3557  0.1529 -0.5772
 7602SOL    HW134439   3.854   1.481   3.022 -1.6862 -0.0622 -1.0327
 7602SOL    HW234440   3.968   1.384   3.019 -0.9768 -1.4135  0.2956
 7603SOL     OW34441   3.644   3.933  11.077  0.1467 -0.0033  0.4042
 7603SOL    HW134442   3.657   3.841  11.098  0.6610  0.0176  0.1661
 7603SOL    HW234443   3.681   3.944  10.990  0.6822  0.1037  0.6475
 7604SOL     OW34444   3.797   1.111  14.218 -0.1102  0.0007  0.5233
 7604SOL    HW134445   3.739   1.142  14.286  0.5569 -0.2782  1.2248
 7604SOL    HW234446   3.823   1.194  14.179 -0.8522 -0.1907 -0.3617
 7605SOL     OW34447   2.115   0.205   8.213 -0.0880 -0.0227 -0.0315
 7605SOL    HW134448   2.158   0.266   8.273  0.4480  0.2289 -0.6717
 7605SOL    HW234449   2.109   0.130   8.273  1.4538  1.0757  1.5059
 7606SOL     OW34450   2.388   3.715   1.683 -0.1812 -0.2044 -0.9243
 7606SOL    HW134451   2.342   3.779   1.737 -0.1893  0.0535 -1.2381
 7606SOL    HW234452   2.441   3.762   1.620  0.0940  2.1040  1.0465
 7607SOL     OW34453   3.398   1.354   9.821 -0.2874 -0.0140 -0.0253
 7607SOL    HW134454   3.457   1.343   9.747 -0.2032 -3.4152  0.5353
 7607SOL    HW234455   3.413   1.438   9.863 -1.0009 -0.5964  1.4083
 7608SOL     OW34456   3.669   4.094  13.430  0.4045 -0.3892 -0.0917
 7608SOL    HW134457   3.712   4.101  13.345  0.7318  0.2254  0.1300
 7608SOL    HW234458   3.576   4.086  13.407  0.3327 -0.7062  0.2940
 7609SOL     OW34459   2.490   1.767   3.661 -0.2493 -0.3511 -0.4680
 7609SOL    HW134460   2.567   1.791   3.714 -1.4887  1.3596  0.5445
 7609SOL    HW234461   2.460   1.858   3.655  2.3225  0.5900  0.6243
 7610SOL     OW34462   2.994   0.580  16.579  0.0391  0.1679 -0.5403
 7610SOL    HW134463   3.090   0.585  16.572  0.3290  1.0963  3.9624
 7610SOL    HW234464   2.989   0.486  16.596 -0.6905  0.3672  0.3396
 7611SOL     OW34465   1.901   3.500  15.932 -0.1966 -0.1956  0.0631
 7611SOL    HW134466   1.996   3.497  15.941 -0.0526  0.2522 -1.3513
 7611SOL    HW234467   1.891   3.417  15.884 -0.4744  0.8238 -1.6368
 7612SOL     OW34468   3.317   3.236  16.004 -0.2896 -0.3322  0.0083
 7612SOL    HW134469   3.247   3.301  16.016 -0.7568 -1.2998  2.3330
 7612SOL    HW234470   3.368   3.274  15.932  1.9336  0.5662  2.0841
 7613SOL     OW34471   3.233   1.533   2.385  0.1364  0.2235  0.8042
 7613SOL    HW134472   3.294   1.586   2.335 -1.0246 -0.5176 -1.3845
 7613SOL    HW234473   3.166   1.598   2.405  0.9421  2.0190 -2.3724
 7614SOL     OW34474   3.428   4.521   2.715  0.3969 -0.2720 -0.0234
 7614SOL    HW134475   3.374   4.485   2.645 -1.5414  0.4908  1.0848
 7614SOL    HW234476   3.404   4.456   2.782 -0.3899 -1.1947 -1.2056
 7615SOL     OW34477   2.934   3.054   1.071  0.2136 -0.1612  0.5421
 7615SOL    HW134478   2.852   3.057   1.121 -0.8337  0.7915 -1.2594
 7615SOL    HW234479   2.895   3.039   0.985  0.4187 -1.0254  0.6021
 7616SOL     OW34480   2.805   0.409   7.140  0.3721 -0.0450  0.2562
 7616SOL    HW134481   2.869   0.338   7.146  1.1221  0.6609  0.7019
 7616SOL    HW234482   2.752   0.384   7.065 -3.0086  2.2180  1.9082
 7617SOL     OW34483   2.250   3.080  15.978 -0.5365 -0.0528 -0.3206
 7617SOL    HW134484   2.245   3.170  15.946 -0.9744  0.8943  2.3754
 7617SOL    HW234485   2.156   3.064  15.970 -0.4449 -0.7365 -0.0534
 7618SOL     OW34486   3.661   3.665   8.536 -0.3830  0.5964 -0.1223
 7618SOL    HW134487   3.750   3.629   8.545 -0.1652  1.1851  0.0533
 7618SOL    HW234488   3.606   3.587   8.538  2.4157 -1.3790 -0.1035
 7619SOL     OW34489   4.189   0.386  12.075  0.0106 -0.6805  0.3372
 7619SOL    HW134490   4.174   0.368  11.983  2.1536  0.6618 -0.2565
 7619SOL    HW234491   4.224   0.304  12.111 -0.8435 -0.8413  0.7948
 7620SOL     OW34492   3.022   4.400   2.081 -0.5126  0.0593  0.2503
 7620SOL    HW134493   3.021   4.333   2.149 -0.1432  0.4500  0.6361
 7620SOL    HW234494   2.980   4.354   2.008 -0.4633 -1.4650  1.1722
 7621SOL     OW34495   1.614   2.066   7.062 -0.4582  0.3173 -0.5645
 7621SOL    HW134496   1.590   2.038   7.151  0.9364 -1.4754 -0.7578
 7621SOL    HW234497   1.707   2.075   7.081 -0.9169  0.3848  1.7126
 7622SOL     OW34498   4.176   0.376  16.727  0.2098 -0.4983  0.2771
 7622SOL    HW134499   4.191   0.281  16.724  1.0751 -0.3386 -0.6159
 7622SOL    HW234500   4.081   0.382  16.734  0.1385 -1.0718 -0.1849
 7623SOL     OW34501   2.973   0.118  15.863  0.4669  0.1321  0.0243
 7623SOL    HW134502   2.905   0.100  15.798  2.2967  1.5582 -2.3070
 7623SOL    HW234503   2.925   0.111  15.945 -1.2044  1.9473 -0.7783
 7624SOL     OW34504   4.231   1.045  12.210 -0.2319 -0.3587 -0.5668
 7624SOL    HW134505   4.269   1.128  12.181  2.2832 -1.2005  0.3267
 7624SOL    HW234506   4.272   1.034  12.296  1.3614  0.2487 -1.2306
 7625SOL     OW34507   1.615   2.722   7.872 -0.0514  0.2525  0.1655
 7625SOL    HW134508   1.570   2.806   7.868 -0.6576  0.0324  2.2004
 7625SOL    HW234509   1.623   2.706   7.778  0.1700  0.0261  0.2229
 7626SOL     OW34510   2.006   4.542   5.383 -0.2741  0.1516 -0.3460
 7626SOL    HW134511   2.004   4.497   5.468  2.3315  0.7514  0.0507
 7626SOL    HW234512   1.922   4.512   5.350  0.0808 -1.5253  0.2981
 7627SOL     OW34513   3.370   3.550   2.575 -0.7297 -0.3534 -0.3573
 7627SOL    HW134514   3.403   3.611   2.641  0.4257  0.0070 -1.2597
 7627SOL    HW234515   3.453   3.532   2.531 -0.3566 -0.2246  0.2868
 7628SOL     OW34516   1.990   4.188   6.632 -0.1592  0.1630 -0.1552
 7628SOL    HW134517   1.907   4.178   6.585 -0.8267  0.8795  0.8768
 7628SOL    HW234518   1.972   4.275   6.669  2.4299  0.4282  0.4782
 7629SOL     OW34519   1.155   4.175  11.451  0.0871  0.1082  0.2391
 7629SOL    HW134520   1.170   4.187  11.358  1.5072 -0.0810  0.4386
 7629SOL    HW234521   1.183   4.084  11.464 -1.7623 -0.8086 -2.2521
 7630SOL     OW34522   4.392   4.110   4.096  0.6089 -0.5215 -0.2221
 7630SOL    HW134523   4.402   4.042   4.163 -3.3224  0.6306  1.5093
 7630SOL    HW234524   4.478   4.145   4.073 -0.1825  0.8580 -1.0829
 7631SOL     OW34525   1.315   3.399   7.552 -0.1807 -0.0703 -0.7118
 7631SOL    HW134526   1.318   3.312   7.514 -1.1519 -0.5287  0.2707
 7631SOL    HW234527   1.243   3.396   7.615  0.3183  1.7960 -0.0524
 7632SOL     OW34528   2.302   3.668   8.124 -0.3641 -0.0172  0.1436
 7632SOL    HW134529   2.326   3.629   8.208 -1.2117 -0.3550  0.2369
 7632SOL    HW234530   2.378   3.656   8.068 -0.0735  0.3054  0.4751
 7633SOL     OW34531   0.932   4.413   2.013  0.0828 -0.4962 -0.5685
 7633SOL    HW134532   0.943   4.403   2.107 -0.1771 -0.3539 -0.5232
 7633SOL    HW234533   1.018   4.377   1.990 -0.1859 -0.4409 -1.6698
 7634SOL     OW34534   1.223   4.397   3.840 -0.6870 -0.2223 -0.1507
 7634SOL    HW134535   1.129   4.383   3.847 -0.5590 -1.1116 -0.2120
 7634SOL    HW234536   1.235   4.364   3.751  0.4137  1.3376 -0.5828
 7635SOL     OW34537   0.498   2.385   2.273  0.5706  0.6598 -0.7087
 7635SOL    HW134538   0.491   2.444   2.198 -0.4020  3.5336  1.6532
 7635SOL    HW234539   0.503   2.302   2.226 -0.5549  0.5045 -0.5717
 7636SOL     OW34540   0.217   2.036  15.818 -0.4670 -0.3474  0.3074
 7636SOL    HW134541   0.267   2.109  15.782 -2.3276  0.2446 -1.0639
 7636SOL    HW234542   0.136   2.078  15.846 -0.7240 -0.3355 -0.4447
 7637SOL     OW34543   2.646   1.889   2.309 -0.2073 -0.1131  0.0972
 7637SOL    HW134544   2.607   1.804   2.287 -3.1841  1.2257  0.1785
 7637SOL    HW234545   2.735   1.876   2.277  0.1926 -0.1593  1.2398
 7638SOL     OW34546   4.026   0.848   0.936  0.0661  0.4412 -0.0110
 7638SOL    HW134547   4.092   0.781   0.953  0.2428  0.7623  0.5672
 7638SOL    HW234548   4.085   0.909   0.891  1.1191  0.9794  2.1251
 7639SOL     OW34549   4.621   3.905   6.570 -0.4049  0.0354 -0.1578
 7639SOL    HW134550   4.676   3.854   6.630 -1.0145  1.2354  1.4248
 7639SOL    HW234551   4.682   3.915   6.497  0.2711 -0.6581  0.3120
 7640SOL     OW34552   0.128   2.681  15.158 -0.0642 -0.1730  0.3317
 7640SOL    HW134553   0.217   2.706  15.134 -0.0532 -0.7929 -0.2958
 7640SOL    HW234554   0.139   2.586  15.164 -0.9068 -0.3652 -0.9639
 7641SOL     OW34555   0.418   3.381   8.838 -0.6304 -0.2322  0.4310
 7641SOL    HW134556   0.487   3.434   8.878 -0.7670  1.3418 -1.4035
 7641SOL    HW234557   0.480   3.332   8.785 -0.8490  0.3345 -0.3512
 7642SOL     OW34558   1.414   0.415   9.130  0.0053 -0.0165 -0.4386
 7642SOL    HW134559   1.369   0.452   9.207 -1.4236 -0.0228 -1.2693
 7642SOL    HW234560   1.504   0.444   9.141  0.6056 -2.1344  0.2525
 7643SOL     OW34561   4.319   3.840   7.079  0.1186 -0.0974 -0.1866
 7643SOL    HW134562   4.394   3.790   7.045 -0.0740 -0.6621  0.2207
 7643SOL    HW234563   4.258   3.769   7.097 -0.9821  0.6039 -1.2015
 7644SOL     OW34564   0.237   3.318  11.009  0.4330 -0.0434 -0.7994
 7644SOL    HW134565   0.169   3.358  11.064  1.2292 -1.7050  1.3802
 7644SOL    HW234566   0.244   3.233  11.052  2.7373  0.4489 -0.2224
 7645SOL     OW34567   4.076   0.042   4.370  0.1095  0.4431  0.3400
 7645SOL    HW134568   4.124   0.109   4.320 -1.6516 -0.3996 -2.4366
 7645SOL    HW234569   4.072   0.092   4.451  2.0781  1.1650  0.0055
 7646SOL     OW34570   1.394   2.793  15.574  0.0023 -0.4048 -0.2674
 7646SOL    HW134571   1.382   2.744  15.655 -1.9791  1.0218  0.2947
 7646SOL    HW234572   1.303   2.792  15.545 -0.4213 -0.5049  1.0570
 7647SOL     OW34573   4.029   1.549   3.526 -0.4461 -0.0423  0.7565
 7647SOL    HW134574   4.026   1.625   3.468  1.2292 -1.4314 -1.1536
 7647SOL    HW234575   4.117   1.559   3.562 -0.3998 -1.2450  0.9824
 7648SOL     OW34576   0.513   4.290   3.080 -0.3420  1.1729  0.2721
 7648SOL    HW134577   0.449   4.344   3.127 -0.7525  1.6468 -0.8321
 7648SOL    HW234578   0.507   4.319   2.989 -2.3960  2.1435  0.6948
 7649SOL     OW34579   3.228   0.046   1.256  0.1177 -0.2381  0.4344
 7649SOL    HW134580   3.291   4.715   1.252 -0.3982 -0.6709  0.2611
 7649SOL    HW234581   3.174   4.740   1.319 -0.1845  1.0404  1.1440
 7650SOL     OW34582   2.159   2.241   3.017 -0.3270 -0.4456  0.4347
 7650SOL    HW134583   2.072   2.278   3.007  0.3557  0.9528 -0.3527
 7650SOL    HW234584   2.127   2.153   3.038 -0.8884 -0.2723  0.3020
 7651SOL     OW34585   3.442   3.912  10.202 -0.2739  0.3594  0.1203
 7651SOL    HW134586   3.469   3.979  10.139 -1.6043  0.5067 -0.2847
 7651SOL    HW234587   3.489   3.832  10.176 -0.5398 -0.5839  2.5467
 7652SOL     OW34588   2.434   0.977   4.309  0.5381 -0.3958  0.4688
 7652SOL    HW134589   2.384   0.977   4.227 -0.0479 -1.2421  0.8278
 7652SOL    HW234590   2.393   1.046   4.361  0.4469  0.0084 -0.1332
 7653SOL     OW34591   2.614   4.317  13.318 -0.0945  0.2586 -0.4208
 7653SOL    HW134592   2.638   4.226  13.302  1.6536  0.3759  1.4567
 7653SOL    HW234593   2.671   4.327  13.395 -0.9912 -0.3302  0.3279
 7654SOL     OW34594   2.840   1.493   8.261 -0.2365 -0.3098  0.1384
 7654SOL    HW134595   2.772   1.559   8.248  2.7786  2.0705 -3.3097
 7654SOL    HW234596   2.793   1.447   8.331 -0.8165 -0.4404 -0.3431
 7655SOL     OW34597   4.380   4.447   8.259 -0.6524  0.3904 -0.3949
 7655SOL    HW134598   4.380   4.357   8.227 -0.0904 -0.1543  1.1037
 7655SOL    HW234599   4.377   4.504   8.182 -1.6465 -0.6905 -1.1477
 7656SOL     OW34600   0.398   2.567   2.076 -0.2625  0.7873 -0.2265
 7656SOL    HW134601   0.442   2.543   1.994 -1.0887 -1.5050 -0.0173
 7656SOL    HW234602   0.305   2.546   2.062 -0.5674  2.1906 -0.3182
 7657SOL     OW34603   1.088   1.617   7.609  0.0395  0.2020  0.3180
 7657SOL    HW134604   1.115   1.708   7.594 -1.9340  0.1455 -3.4048
 7657SOL    HW234605   1.055   1.624   7.698 -0.5796  0.2512  0.0822
 7658SOL     OW34606   0.080   3.102   6.293 -0.3341  0.1276  0.1532
 7658SOL    HW134607   4.734   3.138   6.276 -0.0802  0.8787  0.4936
 7658SOL    HW234608   0.091   3.150   6.375  0.0790 -2.1613  1.4471
 7659SOL     OW34609   4.019   3.626   8.814  0.2617  0.3111  0.1595
 7659SOL    HW134610   3.934   3.667   8.826  0.1265 -0.7502  2.7823
 7659SOL    HW234611   4.045   3.612   8.905  1.2502 -4.2558 -0.8217
 7660SOL     OW34612   4.654   3.311   8.239  0.6377  0.6830  0.0419
 7660SOL    HW134613   0.001   3.323   8.203  0.1863  1.6767 -0.7284
 7660SOL    HW234614   4.670   3.361   8.319 -2.2188 -0.3747  1.2628
 7661SOL     OW34615   0.603   3.898   3.347  0.2386 -0.2787  0.4706
 7661SOL    HW134616   0.622   3.987   3.375 -3.4151  0.5391  0.3715
 7661SOL    HW234617   0.670   3.842   3.387 -0.3691 -2.3504 -1.3918
 7662SOL     OW34618   2.844   2.712  13.186  0.3353 -0.1082 -0.0455
 7662SOL    HW134619   2.910   2.780  13.202  0.6074  0.2832 -2.8368
 7662SOL    HW234620   2.862   2.700  13.093  1.4823  0.7338  0.0706
 7663SOL     OW34621   0.437   1.689   7.668 -0.4169 -0.3121  0.4253
 7663SOL    HW134622   0.376   1.740   7.615  1.2289 -0.5022 -1.6439
 7663SOL    HW234623   0.486   1.640   7.602  0.2563  0.1873  0.5582
 7664SOL     OW34624   2.428   0.114   0.712 -0.0584 -0.3524  0.3683
 7664SOL    HW134625   2.516   0.123   0.674  0.2685 -2.1266  0.7061
 7664SOL    HW234626   2.381   0.147   0.636  3.3927  0.6729 -1.3340
 7665SOL     OW34627   0.328   3.808   5.554 -0.3568  0.1327 -0.1586
 7665SOL    HW134628   0.359   3.811   5.644  1.7212  0.1758 -0.8633
 7665SOL    HW234629   0.342   3.896   5.521 -0.5886 -0.3838 -1.6340
 7666SOL     OW34630   2.079   2.539   6.576  0.2420 -0.0819  0.6472
 7666SOL    HW134631   2.125   2.482   6.515  0.0974 -0.8052  1.2002
 7666SOL    HW234632   2.136   2.616   6.571  0.6040 -0.3890  0.0802
 7667SOL     OW34633   1.012   1.496   9.980 -0.0012 -0.2125 -0.0828
 7667SOL    HW134634   1.098   1.536   9.970  0.7207 -1.5445  0.7980
 7667SOL    HW234635   0.985   1.499   9.889 -0.7149 -0.5184  0.1192
 7668SOL     OW34636   2.914   4.013   7.161  0.0140 -0.5036  0.2388
 7668SOL    HW134637   2.824   3.984   7.155 -0.7638  1.5776  1.9342
 7668SOL    HW234638   2.902   4.104   7.189 -0.9892 -0.7377  0.5382
 7669SOL     OW34639   1.118   1.826   8.079 -0.0929  0.1627  0.4386
 7669SOL    HW134640   1.197   1.817   8.133  0.8797  1.2653 -0.7953
 7669SOL    HW234641   1.055   1.824   8.151 -0.3219  0.3365  0.2404
 7670SOL     OW34642   2.700   0.646  10.805 -0.5042 -0.2055 -0.2439
 7670SOL    HW134643   2.740   0.620  10.888  1.1685 -1.2370 -1.3821
 7670SOL    HW234644   2.710   0.566  10.754  1.8799 -0.0737  0.0466
 7671SOL     OW34645   1.149   0.814   8.887  0.3804 -0.1495  0.8785
 7671SOL    HW134646   1.123   0.842   8.800 -0.9726 -1.6331  0.8302
 7671SOL    HW234647   1.104   0.869   8.951 -0.6100  0.3023 -0.2056
 7672SOL     OW34648   4.316   0.561   0.257  0.3468 -0.0495  0.5492
 7672SOL    HW134649   4.303   0.532   0.167  0.4636  1.3336  0.0778
 7672SOL    HW234650   4.372   0.499   0.303  0.6014 -1.0420 -1.1018
 7673SOL     OW34651   1.852   4.187   7.457 -0.0878  0.2320 -0.4184
 7673SOL    HW134652   1.771   4.165   7.504  0.9670 -0.7229  0.9241
 7673SOL    HW234653   1.837   4.121   7.389  1.2811 -0.0000 -0.4891
 7674SOL     OW34654   1.754   3.432   1.206 -0.0612 -0.1352 -0.0187
 7674SOL    HW134655   1.754   3.489   1.283 -1.5037  0.6225 -0.5759
 7674SOL    HW234656   1.823   3.371   1.232 -1.3135 -1.2863  0.6313
 7675SOL     OW34657   4.735   1.278   1.487 -0.2721  0.3158  0.2342
 7675SOL    HW134658   4.739   1.363   1.444 -0.5865  0.5863  0.7312
 7675SOL    HW234659   4.678   1.291   1.563 -1.2041 -2.7118  0.0547
 7676SOL     OW34660   0.769   0.081  10.664  0.0007  0.0805 -0.1227
 7676SOL    HW134661   0.839   0.098  10.602 -3.8964  3.1992 -3.7215
 7676SOL    HW234662   0.814   0.048  10.741  1.1108 -0.7831 -1.1526
 7677SOL     OW34663   2.081   4.145   4.619  0.0709 -0.0422  0.1042
 7677SOL    HW134664   2.065   4.239   4.626  3.5749  0.5541  0.0927
 7677SOL    HW234665   2.099   4.116   4.708  0.3765 -0.5324 -0.1166
 7678SOL     OW34666   1.873   0.003   4.845 -0.2426 -0.6658  0.3251
 7678SOL    HW134667   1.796   4.727   4.900 -0.2060 -0.1823  0.5245
 7678SOL    HW234668   1.921   0.060   4.906  0.3101 -3.3060  2.3680
 7679SOL     OW34669   0.017   1.553   4.722  0.3061  0.2920  0.1139
 7679SOL    HW134670   0.002   1.640   4.760  0.8780 -0.4328  2.0419
 7679SOL    HW234671   0.103   1.526   4.755  1.3028  1.9864 -1.0920
 7680SOL     OW34672   4.705   0.847   5.306  0.0420  0.0284 -0.0087
 7680SOL    HW134673   4.664   0.780   5.252  0.4487  0.4370 -0.8230
 7680SOL    HW234674   0.048   0.851   5.260 -0.9739  1.5547 -1.7529
 7681SOL     OW34675   3.042   1.928   4.294  0.3443 -0.2013 -0.2352
 7681SOL    HW134676   2.971   1.992   4.294 -0.9303 -1.6456  0.3685
 7681SOL    HW234677   3.117   1.970   4.251  1.6678 -0.3670  1.9343
 7682SOL     OW34678   0.081   0.517   9.203 -0.6697 -1.2473  0.9035
 7682SOL    HW134679   0.115   0.590   9.255 -1.6305 -0.3564  0.2963
 7682SOL    HW234680   0.148   0.510   9.136 -1.2515  0.9645  0.1045
 7683SOL     OW34681   0.694   3.814   3.948  0.2737  0.7718  0.3765
 7683SOL    HW134682   0.648   3.875   4.005  2.2584  0.5726  2.1811
 7683SOL    HW234683   0.760   3.780   4.009  0.9651  1.3470 -0.0421
 7684SOL     OW34684   1.465   4.562   3.451 -0.2450 -0.6952 -0.2010
 7684SOL    HW134685   1.510   4.606   3.523 -2.1880  0.6531  0.1954
 7684SOL    HW234686   1.461   4.631   3.386 -0.8759 -1.1323 -0.6293
 7685SOL     OW34687   3.012   2.110   7.813  0.3186 -0.1499 -0.1060
 7685SOL    HW134688   3.050   2.197   7.802  0.6575 -0.6617 -2.8473
 7685SOL    HW234689   3.077   2.055   7.770 -0.5209 -0.3047 -1.1802
 7686SOL     OW34690   2.680   3.754   7.933  0.2783 -0.2629  0.0038
 7686SOL    HW134691   2.683   3.743   8.028  1.0397  0.0843  0.0188
 7686SOL    HW234692   2.610   3.692   7.913  1.8746 -2.0572 -0.1315
 7687SOL     OW34693   1.615   1.838   1.886 -0.0077 -0.2185 -0.1416
 7687SOL    HW134694   1.586   1.842   1.795 -0.7107  1.9682  0.1759
 7687SOL    HW234695   1.593   1.929   1.905  0.8047 -0.3206  1.3052
 7688SOL     OW34696   0.619   3.554   8.900  0.1514 -1.0999  0.3697
 7688SOL    HW134697   0.653   3.635   8.938  0.3928 -1.0038 -0.0557
 7688SOL    HW234698   0.641   3.571   8.809 -1.7422  2.6066  0.6003
 7689SOL     OW34699   4.363   3.576  16.972 -0.1561 -0.0248  0.5567
 7689SOL    HW134700   4.339   3.536  16.888 -1.5679  0.0905  0.9072
 7689SOL    HW234701   4.315   3.659  16.971 -0.8167 -0.4140 -0.1711
 7690SOL     OW34702   3.269   2.273  13.765  0.0589 -0.0023  0.0810
 7690SOL    HW134703   3.205   2.282  13.835 -1.0026  0.9679 -1.0140
 7690SOL    HW234704   3.248   2.184  13.740 -0.7399 -0.5227  2.5795
 7691SOL     OW34705   0.544   0.113  14.087  0.0771 -1.0414  0.3103
 7691SOL    HW134706   0.521   0.087  14.176  2.8674 -1.3010  0.9574
 7691SOL    HW234707   0.461   0.133  14.044  0.6121  0.5335 -0.0014
 7692SOL     OW34708   0.091   1.167   2.428  0.2715  0.1664 -0.7237
 7692SOL    HW134709   0.028   1.237   2.414 -0.8734 -0.7506 -0.1099
 7692SOL    HW234710   0.149   1.189   2.355 -0.3493  1.9517 -0.6843
 7693SOL     OW34711   4.047   3.762   1.482  0.4635 -0.3284 -0.0062
 7693SOL    HW134712   4.044   3.692   1.547  2.2213 -0.7214 -0.3672
 7693SOL    HW234713   3.987   3.736   1.412  2.7815 -1.7263 -1.4326
 7694SOL     OW34714   3.505   0.164  12.465  0.6814 -0.3601  0.0401
 7694SOL    HW134715   3.503   0.070  12.445 -2.6300 -0.2334 -0.2099
 7694SOL    HW234716   3.575   0.168  12.530  1.2877  0.0207 -0.6549
 7695SOL     OW34717   3.091   1.215  14.317 -0.0655 -0.0159 -0.1286
 7695SOL    HW134718   3.120   1.304  14.299 -1.2001  0.6814  1.4565
 7695SOL    HW234719   3.142   1.168  14.251  0.2122  1.4347 -0.9526
 7696SOL     OW34720   1.492   1.596   7.887 -0.7474  0.1804  0.0094
 7696SOL    HW134721   1.497   1.646   7.805  0.5460  2.0586  1.2232
 7696SOL    HW234722   1.538   1.663   7.938  0.1449 -2.0788  2.1547
 7697SOL     OW34723   4.154   4.452   6.169 -0.2217 -0.3208 -0.2280
 7697SOL    HW134724   4.166   4.358   6.152  0.0401 -0.7254  2.1321
 7697SOL    HW234725   4.229   4.485   6.120 -2.4400  2.4323 -1.7427
 7698SOL     OW34726   1.744   3.003   2.914  0.8968  0.2374 -0.3748
 7698SOL    HW134727   1.659   2.958   2.913 -0.0083  1.9589 -0.6372
 7698SOL    HW234728   1.720   3.056   2.838  0.3409  0.8737  0.2415
 7699SOL     OW34729   0.460   4.158   4.575  0.2079  0.0991 -0.4731
 7699SOL    HW134730   0.539   4.202   4.606 -0.5185  1.2324 -0.2074
 7699SOL    HW234731   0.423   4.124   4.657 -0.7111  0.7081 -0.6348
 7700SOL     OW34732   4.508   1.899  12.237  0.3598  0.3430 -0.1900
 7700SOL    HW134733   4.418   1.929  12.224  0.6146  0.8170 -0.8788
 7700SOL    HW234734   4.544   1.952  12.308 -0.6071  1.1396 -0.3004
 7701SOL     OW34735   4.486   4.605   5.815  0.2015 -0.1759  0.1352
 7701SOL    HW134736   4.443   4.686   5.844 -0.9380 -0.3130 -1.1898
 7701SOL    HW234737   4.450   4.593   5.727  1.0040 -1.2675 -0.0486
 7702SOL     OW34738   1.448   1.987  12.371 -0.1123 -0.0099 -0.3678
 7702SOL    HW134739   1.360   1.987  12.334 -0.0347  0.3112 -0.5484
 7702SOL    HW234740   1.438   2.048  12.444  3.3373 -0.3835  0.4359
 7703SOL     OW34741   2.579   2.450   5.236 -0.2536  0.5254  0.1473
 7703SOL    HW134742   2.592   2.431   5.329 -0.3019 -1.9154 -0.3427
 7703SOL    HW234743   2.491   2.488   5.238  0.2882  1.7355  1.1221
 7704SOL     OW34744   1.480   0.345  11.579 -0.1212 -0.4496 -0.2682
 7704SOL    HW134745   1.555   0.291  11.553  1.6513  1.8607  0.0116
 7704SOL    HW234746   1.512   0.354  11.668  0.4912  0.0049 -0.5317
 7705SOL     OW34747   0.000   3.503   5.340 -0.2822  0.4462  0.3887
 7705SOL    HW134748   0.052   3.584   5.347  0.0558  0.4386 -2.0171
 7705SOL    HW234749   0.045   3.467   5.417  0.2800 -1.4934 -0.8631
 7706SOL     OW34750   3.191   0.459  12.903 -0.1834 -0.2336  0.4019
 7706SOL    HW134751   3.220   0.534  12.955  0.1286  1.1659 -1.8099
 7706SOL    HW234752   3.255   0.470  12.833 -0.0329 -1.2354  0.3819
 7707SOL     OW34753   2.771   1.797   5.069  0.1264 -0.3753 -0.0379
 7707SOL    HW134754   2.687   1.810   5.114  0.2882 -3.0979  1.0579
 7707SOL    HW234755   2.752   1.828   4.980  2.7896 -1.1076 -0.8729
 7708SOL     OW34756   3.948   3.705   7.665 -0.2490  0.4505 -0.1652
 7708SOL    HW134757   3.876   3.768   7.666 -0.0143  0.7612 -3.1962
 7708SOL    HW234758   4.023   3.764   7.656 -0.2999  0.1512 -2.4878
 7709SOL     OW34759   2.572   4.181   3.038  0.3958 -0.0264  0.1896
 7709SOL    HW134760   2.508   4.201   3.106 -0.4229 -1.5653 -0.1309
 7709SOL    HW234761   2.527   4.210   2.959 -1.6364  0.8504  1.6608
 7710SOL     OW34762   2.261   0.718   4.007  0.2658 -0.0502  0.4824
 7710SOL    HW134763   2.233   0.673   4.087 -1.0354  0.3961  0.2781
 7710SOL    HW234764   2.340   0.667   3.992  1.8473  2.8532 -1.0025
 7711SOL     OW34765   3.777   3.923   0.357  0.3911 -0.1185 -0.0187
 7711SOL    HW134766   3.860   3.947   0.315  0.7016  0.5333  0.9789
 7711SOL    HW234767   3.727   4.005   0.360  1.1189  0.3864 -1.3740
 7712SOL     OW34768   0.461   0.303   5.806  0.4317  0.3407 -0.1696
 7712SOL    HW134769   0.386   0.363   5.799  0.4089  0.2244 -0.9737
 7712SOL    HW234770   0.473   0.290   5.900  0.3283  0.8009 -0.0937
 7713SOL     OW34771   3.745   0.597   5.486  0.0263  0.4346  0.0590
 7713SOL    HW134772   3.823   0.652   5.486 -0.5717  1.2796 -0.1132
 7713SOL    HW234773   3.753   0.531   5.554 -0.4885 -0.4983 -0.7860
 7714SOL     OW34774   2.006   2.245   5.095  0.2022  0.1629 -0.7189
 7714SOL    HW134775   2.075   2.308   5.075 -1.9643  2.5622 -0.7179
 7714SOL    HW234776   1.988   2.206   5.010  0.6347  1.2299 -1.3045
 7715SOL     OW34777   4.194   2.284   4.015  0.5802 -0.4687  0.3380
 7715SOL    HW134778   4.229   2.218   3.957  1.5610  2.3022 -2.1940
 7715SOL    HW234779   4.130   2.235   4.067 -0.0656  0.2854  0.2747
 7716SOL     OW34780   2.575   3.859   1.496  0.7283 -0.2717  0.4020
 7716SOL    HW134781   2.599   3.767   1.483  2.2942  0.6197 -3.0921
 7716SOL    HW234782   2.505   3.876   1.433  1.9430  1.2606 -0.5472
 7717SOL     OW34783   0.828   3.989   4.889  0.1109  0.8726 -0.5185
 7717SOL    HW134784   0.860   4.075   4.861  0.4001  0.8410 -0.2800
 7717SOL    HW234785   0.756   3.981   4.827 -0.9646  1.1736  0.6947
 7718SOL     OW34786   2.456   1.089   6.000 -0.1490  0.1150  0.3822
 7718SOL    HW134787   2.402   1.027   5.952  0.9669  0.9093 -1.9078
 7718SOL    HW234788   2.413   1.083   6.085  0.0018 -0.9311  0.3856
 7719SOL     OW34789   3.352   0.853   1.575 -0.3063 -0.1461 -0.3655
 7719SOL    HW134790   3.419   0.815   1.631 -1.4026  0.3271  1.2599
 7719SOL    HW234791   3.405   0.868   1.496 -0.4539  2.0492 -0.0393
 7720SOL     OW34792   4.516   4.599   6.937  0.0899 -0.0904  0.2410
 7720SOL    HW134793   4.434   4.577   6.893  0.6576  0.6742 -1.2063
 7720SOL    HW234794   4.519   4.695   6.932  0.9528 -0.0530  1.5176
 7721SOL     OW34795   1.786   0.774   1.498 -0.4671  0.0801 -0.1871
 7721SOL    HW134796   1.768   0.817   1.415 -0.4303 -0.9636 -0.7263
 7721SOL    HW234797   1.708   0.803   1.545  0.5827 -0.0950  1.6708
 7722SOL     OW34798   2.362   0.754   6.561 -0.0676 -0.3444  0.3138
 7722SOL    HW134799   2.275   0.715   6.548  0.1765 -2.1734  4.2595
 7722SOL    HW234800   2.420   0.679   6.545  1.1210  1.1795 -2.3884
 7723SOL     OW34801   4.521   1.026   3.310  0.5834 -0.2460  0.3846
 7723SOL    HW134802   4.581   1.023   3.235  0.4825 -1.9934  0.3698
 7723SOL    HW234803   4.480   0.939   3.303  0.2850 -0.0368 -0.5235
 7724SOL     OW34804   3.041   3.429   6.348 -1.0137  0.1823 -0.3751
 7724SOL    HW134805   3.090   3.458   6.271 -2.7378  0.9128 -1.2113
 7724SOL    HW234806   2.999   3.514   6.365  0.9727  0.9359  0.8117
 7725SOL     OW34807   4.466   1.554   4.117 -0.7028  0.4793 -0.2080
 7725SOL    HW134808   4.507   1.489   4.174 -0.1357 -1.3701 -2.7484
 7725SOL    HW234809   4.538   1.578   4.058 -1.2049 -1.8742 -1.7562
 7726SOL     OW34810   4.149   1.626   4.657  0.2287 -0.0267  0.0913
 7726SOL    HW134811   4.068   1.611   4.706  0.4443 -0.8637  0.1837
 7726SOL    HW234812   4.195   1.671   4.729 -1.1624 -1.0489  1.6261
 7727SOL     OW34813   2.781   2.167   4.010 -0.2434 -0.0010  0.1165
 7727SOL    HW134814   2.762   2.198   3.921 -2.6827 -2.2252 -0.1191
 7727SOL    HW234815   2.693   2.143   4.038 -1.0293  0.2515 -2.1698
 7728SOL     OW34816   2.571   2.669   2.693  0.2002 -0.1248  0.4201
 7728SOL    HW134817   2.594   2.759   2.669  2.0765 -1.5011 -2.9582
 7728SOL    HW234818   2.503   2.687   2.757 -0.1883  1.1698 -0.3511
 7729SOL     OW34819   1.037   3.310  10.591  0.1356 -0.2167  0.0360
 7729SOL    HW134820   1.007   3.400  10.605  0.5780 -0.3648  1.8813
 7729SOL    HW234821   1.128   3.339  10.584 -0.3998  1.0312 -1.8029
 7730SOL     OW34822   1.050   1.836   1.937  0.0108 -0.0792 -0.0154
 7730SOL    HW134823   1.063   1.777   1.862 -0.2405 -0.3190  0.1326
 7730SOL    HW234824   1.011   1.914   1.897  0.2810  0.3861  0.6317
 7731SOL     OW34825   3.066   1.534  14.569 -0.2360 -0.2027 -0.3546
 7731SOL    HW134826   3.113   1.616  14.555 -0.2909 -0.1590 -0.2764
 7731SOL    HW234827   3.069   1.491  14.483 -1.5106 -2.1091  0.5446
 7732SOL     OW34828   4.628   3.930   9.045 -0.2306 -0.1840  0.0044
 7732SOL    HW134829   4.642   3.951   8.953  1.8886 -0.0287  0.3581
 7732SOL    HW234830   4.591   3.843   9.036  0.5249 -0.4148 -0.9072
 7733SOL     OW34831   2.605   2.242   6.287  0.1444  0.2869  0.3277
 7733SOL    HW134832   2.690   2.226   6.328  0.5465 -1.6600 -1.2368
 7733SOL    HW234833   2.579   2.150   6.276  1.0581  0.2066 -1.2313
 7734SOL     OW34834   1.844   1.622   5.597  0.4296 -0.2984 -0.2216
 7734SOL    HW134835   1.879   1.675   5.526  1.6847 -1.0055 -0.1406
 7734SOL    HW234836   1.920   1.564   5.608  0.3121 -0.7064 -1.6301
 7735SOL     OW34837   1.488   3.640   5.203  0.1477  0.0348 -0.4926
 7735SOL    HW134838   1.467   3.616   5.293 -1.0939 -1.4911 -1.1857
 7735SOL    HW234839   1.583   3.634   5.199  0.2189  2.5571 -2.4821
 7736SOL     OW34840   3.645   3.329  16.696 -0.2310 -0.0236 -0.3159
 7736SOL    HW134841   3.608   3.359  16.612 -1.2194  0.6567  0.3671
 7736SOL    HW234842   3.610   3.403  16.746  1.0134  0.5993 -0.3580
 7737SOL     OW34843   3.264   0.687  12.003 -0.0643  0.1977 -0.1463
 7737SOL    HW134844   3.210   0.685  11.925 -0.2852 -0.2484  0.0212
 7737SOL    HW234845   3.329   0.623  11.973  1.9196  1.7930  0.6701
 7738SOL     OW34846   2.678   3.636   2.650  0.3955 -0.0840 -0.1408
 7738SOL    HW134847   2.615   3.634   2.721 -1.2609  1.7370 -1.5740
 7738SOL    HW234848   2.757   3.660   2.699 -0.5345  1.4964  0.5587
 7739SOL     OW34849   0.995   2.796  14.228  0.0266  0.0868 -0.6274
 7739SOL    HW134850   0.905   2.797  14.262  0.4687  0.6906  0.4999
 7739SOL    HW234851   1.026   2.712  14.261  0.2436  0.2579 -0.4012
 7740SOL     OW34852   0.545   1.527   4.782  0.3084 -0.4544 -0.3307
 7740SOL    HW134853   0.580   1.616   4.794  3.3756 -1.8995  1.2264
 7740SOL    HW234854   0.613   1.475   4.824 -1.5597 -1.5972  1.2834
 7741SOL     OW34855   2.033   4.690  11.860  0.0416 -0.4903 -0.0680
 7741SOL    HW134856   2.123   4.695  11.891 -1.3255  1.9460  3.4894
 7741SOL    HW234857   2.026   4.603  11.822 -1.5061 -0.1879 -0.4658
 7742SOL     OW34858   4.734   0.076   6.960 -0.0230 -0.2366  0.4382
 7742SOL    HW134859   4.736   4.723   6.973  0.9701 -0.6263 -2.5036
 7742SOL    HW234860   4.723   0.097   7.053 -3.1090 -1.9571  0.4708
 7743SOL     OW34861   2.942   3.958  12.374  0.2128  0.2469 -0.0644
 7743SOL    HW134862   3.025   3.934  12.334  0.2145  0.6759 -0.3190
 7743SOL    HW234863   2.975   4.026  12.433 -0.6907  0.8238 -0.2160
 7744SOL     OW34864   2.765   3.102   7.298 -0.0944 -0.4210 -0.1866
 7744SOL    HW134865   2.832   3.137   7.240  1.7207 -0.3554  1.9627
 7744SOL    HW234866   2.703   3.048   7.248 -1.4624  1.0328 -0.0564
 7745SOL     OW34867   3.822   3.069   8.349  0.1833 -0.2538  0.2864
 7745SOL    HW134868   3.860   3.153   8.325  1.2248 -0.4655  1.2217
 7745SOL    HW234869   3.872   3.006   8.297 -0.6932 -0.0124 -0.8568
 7746SOL     OW34870   0.996   1.246   7.209  0.2379  0.1535 -0.3205
 7746SOL    HW134871   0.947   1.166   7.190 -0.3914  0.2316  1.0196
 7746SOL    HW234872   0.957   1.271   7.292  0.1529  1.1391 -0.6563
 7747SOL     OW34873   0.775   1.283   8.351  0.3296  0.2572 -0.0573
 7747SOL    HW134874   0.779   1.220   8.280  0.6164 -0.8855  0.9741
 7747SOL    HW234875   0.848   1.245   8.400  0.2074 -0.7468 -0.6546
 7748SOL     OW34876   1.815   1.726   4.732  0.5796 -0.2423 -0.3781
 7748SOL    HW134877   1.856   1.810   4.750 -1.8957  1.2255 -1.4571
 7748SOL    HW234878   1.880   1.666   4.768 -1.0347 -1.2990  0.8061
 7749SOL     OW34879   3.623   2.233  16.628 -0.0387 -0.0033 -0.1495
 7749SOL    HW134880   3.644   2.324  16.652  0.0670 -0.5842  2.0142
 7749SOL    HW234881   3.551   2.248  16.567  0.8390  0.1275 -1.1447
 7750SOL     OW34882   1.277   0.059   7.388 -0.4679 -0.1921 -0.2550
 7750SOL    HW134883   1.367   0.092   7.388  0.0559 -1.5885 -1.1417
 7750SOL    HW234884   1.220   0.132   7.412 -0.4091  0.0656 -0.9077
 7751SOL     OW34885   3.160   3.193   4.774 -0.0247  0.1851  0.2263
 7751SOL    HW134886   3.211   3.112   4.775  1.5174  1.1676  2.6118
 7751SOL    HW234887   3.127   3.178   4.862  0.2402  1.5734  0.5632
 7752SOL     OW34888   2.496   1.536  15.606  0.1991  0.2625  0.3106
 7752SOL    HW134889   2.586   1.566  15.593  0.1199 -0.3133 -1.4940
 7752SOL    HW234890   2.502   1.473  15.678  1.5424  0.1490  0.0946
 7753SOL     OW34891   3.252   0.238  13.339  0.1216  0.0634  0.9752
 7753SOL    HW134892   3.166   0.211  13.307 -0.0700 -0.1933  1.7116
 7753SOL    HW234893   3.320   0.194  13.287 -1.1273 -0.5689 -0.1358
 7754SOL     OW34894   0.492   1.398   3.657 -0.2454  0.2107 -0.4700
 7754SOL    HW134895   0.419   1.381   3.716  0.1833  1.0288  0.2939
 7754SOL    HW234896   0.507   1.310   3.622  0.3349 -0.4026  1.3410
 7755SOL     OW34897   3.017   2.216   6.267  0.0620 -0.2681 -0.4662
 7755SOL    HW134898   2.988   2.180   6.183  0.2202 -0.5048 -0.4193
 7755SOL    HW234899   3.103   2.241   6.231 -0.0614 -1.0430 -1.2810
 7756SOL     OW34900   2.688   0.750  17.709  0.8490  0.0783  0.0484
 7756SOL    HW134901   2.740   0.797   0.013 -0.8714  1.0951  0.6693
 7756SOL    HW234902   2.747   0.751  17.634  1.4622 -1.3148  0.5006
 7757SOL     OW34903   1.857   0.676   8.512 -0.1576  0.4192  0.8902
 7757SOL    HW134904   1.862   0.593   8.464  0.7883  0.8823  0.1858
 7757SOL    HW234905   1.895   0.739   8.450 -0.8628  0.2888  0.3160
 7758SOL     OW34906   4.613   1.320   7.689  0.1829  0.4489  0.1145
 7758SOL    HW134907   4.658   1.285   7.766 -1.7340  2.7115  2.2702
 7758SOL    HW234908   4.552   1.255   7.656  1.1075 -0.8278  0.9369
 7759SOL     OW34909   3.209   2.295   3.057 -0.0694  0.5617  0.2851
 7759SOL    HW134910   3.119   2.328   3.047 -0.3623 -0.1983  0.4330
 7759SOL    HW234911   3.256   2.309   2.975  2.5282 -1.4065  1.4592
 7760SOL     OW34912   1.820   2.383   6.541 -0.3561 -0.0235  0.3318
 7760SOL    HW134913   1.878   2.308   6.531 -2.0342 -1.0820 -1.5207
 7760SOL    HW234914   1.889   2.447   6.561 -1.5353  1.5492 -0.5342
 7761SOL     OW34915   4.035   2.663   2.808  0.2112  0.0726 -0.1596
 7761SOL    HW134916   4.124   2.641   2.779 -1.5525 -2.8968 -3.1859
 7761SOL    HW234917   3.997   2.717   2.739  0.1477 -1.6492 -1.4608
 7762SOL     OW34918   1.388   2.523  13.076 -0.0273  0.3420 -0.3513
 7762SOL    HW134919   1.359   2.448  13.129  0.0304  1.2745  1.0093
 7762SOL    HW234920   1.412   2.583  13.147  0.1804  0.4461 -0.5084
 7763SOL     OW34921   0.933   3.398   6.790 -0.0312 -0.4567  0.5936
 7763SOL    HW134922   0.866   3.456   6.825 -0.4169 -0.8362  0.4748
 7763SOL    HW234923   1.011   3.454   6.782 -0.6984  0.4070  0.1667
 7764SOL     OW34924   1.578   0.389   7.071 -0.4182 -0.5053 -0.1531
 7764SOL    HW134925   1.488   0.372   7.098  0.0430 -1.1940  0.9359
 7764SOL    HW234926   1.556   0.475   7.036  1.7018  0.4142  0.8010
 7765SOL     OW34927   3.148   1.978   5.853 -0.6053 -0.5326  0.1114
 7765SOL    HW134928   3.091   2.015   5.921  0.3394  1.3048 -0.0938
 7765SOL    HW234929   3.154   1.890   5.889  1.2099  0.1794  1.5539
 7766SOL     OW34930   4.354   1.410   7.083 -0.1634  0.0443  0.2132
 7766SOL    HW134931   4.297   1.404   7.007 -1.2118  0.5801  0.9559
 7766SOL    HW234932   4.334   1.503   7.095 -2.0943 -0.7304  2.9917
 7767SOL     OW34933   2.822   3.563   9.606 -0.2225 -0.3224 -0.3026
 7767SOL    HW134934   2.897   3.580   9.548  0.6190  2.6479  1.6506
 7767SOL    HW234935   2.847   3.592   9.693  0.0133 -0.4067 -0.3406
 7768SOL     OW34936   0.651   0.086   5.513  0.6260 -0.1614  0.0978
 7768SOL    HW134937   0.581   0.148   5.496  2.4525  1.9653  0.3099
 7768SOL    HW234938   0.605   0.040   5.583  0.5684 -1.6021 -0.8771
 7769SOL     OW34939   2.399   4.484  14.936  0.1818  0.2430  1.0430
 7769SOL    HW134940   2.370   4.394  14.950 -0.2700  0.3222  0.6008
 7769SOL    HW234941   2.306   4.504  14.925 -0.1474 -2.9830 -1.9400
 7770SOL     OW34942   2.302   0.778   6.820 -0.3228  0.2722  0.3951
 7770SOL    HW134943   2.234   0.845   6.828 -0.3516  0.5222 -1.9390
 7770SOL    HW234944   2.334   0.796   6.731 -2.7415  0.1078 -0.5161
 7771SOL     OW34945   1.215   2.643   7.019  0.2596  0.1203 -0.1422
 7771SOL    HW134946   1.211   2.689   6.935  3.1984 -1.2801 -1.0453
 7771SOL    HW234947   1.129   2.601   7.021 -0.1907  1.0680  0.7765
 7772SOL     OW34948   1.040   4.328   3.482 -0.4861 -0.1644  0.6129
 7772SOL    HW134949   0.995   4.377   3.551 -1.7768 -1.1236  0.4500
 7772SOL    HW234950   0.986   4.248   3.488  2.5472 -2.4139 -2.5163
 7773SOL     OW34951   0.458   0.440  14.068 -0.4884 -0.2280  0.9887
 7773SOL    HW134952   0.482   0.531  14.053 -1.3948 -0.0719  0.5233
 7773SOL    HW234953   0.385   0.426  14.009  0.2790  0.9135 -0.2242
 7774SOL     OW34954   3.377   4.054   4.517  0.3003 -0.2217  0.2460
 7774SOL    HW134955   3.405   4.118   4.451 -0.5682 -0.9602 -0.8340
 7774SOL    HW234956   3.327   4.118   4.569  2.6123  0.9972  0.9546
 7775SOL     OW34957   1.535   1.721  16.945 -0.2161  0.0255 -0.4647
 7775SOL    HW134958   1.509   1.631  16.926  0.3672 -0.3997  0.7294
 7775SOL    HW234959   1.621   1.716  16.902 -0.5204 -0.3670 -1.0328
 7776SOL     OW34960   0.798   0.610   5.581 -0.1652 -0.2549 -0.3049
 7776SOL    HW134961   0.842   0.606   5.666  0.6287  2.4217 -0.6106
 7776SOL    HW234962   0.713   0.650   5.598 -0.7062 -1.6667  0.3307
 7777SOL     OW34963   4.371   0.413   4.046  0.3927  0.3613 -0.4388
 7777SOL    HW134964   4.397   0.461   3.968  1.2082 -1.6998 -1.4198
 7777SOL    HW234965   4.380   0.474   4.119  1.2975  0.5235 -0.6921
 7778SOL     OW34966   4.606   3.179  10.437 -0.1856 -0.6053 -0.5514
 7778SOL    HW134967   4.604   3.265  10.395 -1.6179 -0.1089  0.5417
 7778SOL    HW234968   4.682   3.192  10.493  0.6511  1.2780 -2.1334
 7779SOL     OW34969   1.276   2.595  12.817 -0.2813 -0.2748 -0.1241
 7779SOL    HW134970   1.211   2.525  12.807 -1.5836  0.9148  0.0366
 7779SOL    HW234971   1.298   2.587  12.910 -0.9942 -1.6073 -0.0619
 7780SOL     OW34972   3.872   3.898   2.247  0.1087 -0.3486  0.6187
 7780SOL    HW134973   3.896   3.913   2.338 -2.7944  1.2538  1.1071
 7780SOL    HW234974   3.942   3.953   2.210  2.0280 -2.3969  1.1907
 7781SOL     OW34975   1.651   4.283   5.588 -0.1672 -0.6795 -0.6769
 7781SOL    HW134976   1.733   4.327   5.570 -1.0888  0.9965 -0.7567
 7781SOL    HW234977   1.616   4.341   5.656 -1.2973 -3.6604  1.3396
 7782SOL     OW34978   4.120   0.572   7.334  0.1857  0.0009 -0.2792
 7782SOL    HW134979   4.088   0.651   7.378 -2.0598 -1.3807  0.5554
 7782SOL    HW234980   4.183   0.536   7.397 -0.2532 -3.5840 -1.8665
 7783SOL     OW34981   2.422   1.591   7.602 -0.4360 -0.4416  0.6134
 7783SOL    HW134982   2.511   1.575   7.571 -0.0214  0.6079  1.2540
 7783SOL    HW234983   2.388   1.502   7.594  1.7182 -1.1984 -0.0848
 7784SOL     OW34984   0.120   3.803  16.404 -0.3106  0.0041  0.1328
 7784SOL    HW134985   0.107   3.743  16.330  0.3259  1.7259 -1.3777
 7784SOL    HW234986   0.208   3.836  16.385  0.7349 -3.2849 -0.7083
 7785SOL     OW34987   2.028   4.617   1.082 -0.1828 -0.0423 -0.2130
 7785SOL    HW134988   2.009   4.531   1.120  0.9898  0.8409  2.3674
 7785SOL    HW234989   2.052   4.594   0.993  0.6967  4.5964 -1.1926
 7786SOL     OW34990   3.757   0.139  13.948  0.5927  0.2373 -0.0541
 7786SOL    HW134991   3.711   0.208  13.996  0.7367 -0.3530  0.9261
 7786SOL    HW234992   3.845   0.155  13.983  0.0836  1.5593  0.6120
 7787SOL     OW34993   1.403   3.194   2.938  0.3195 -0.0352 -0.1254
 7787SOL    HW134994   1.309   3.179   2.931  0.5680 -1.8499  0.3162
 7787SOL    HW234995   1.436   3.107   2.958 -0.0614 -0.0781  0.3123
 7788SOL     OW34996   1.558   0.759  12.212  0.5820 -0.0874  0.1169
 7788SOL    HW134997   1.541   0.671  12.246 -1.3639  0.3494  0.2837
 7788SOL    HW234998   1.650   0.732  12.212  0.6787  0.2391 -0.1177
 7789SOL     OW34999   3.838   2.095  10.289 -1.1085  0.2679  0.0145
 7789SOL    HW135000   3.825   2.152  10.365 -1.6171 -1.0351  0.8934
 7789SOL    HW235001   3.838   2.162  10.220  0.8194  1.9087  1.6088
 7790SOL     OW35002   3.543   4.098  14.547 -0.5145 -0.2261 -0.3126
 7790SOL    HW135003   3.461   4.066  14.508  0.1972 -1.1894 -1.0334
 7790SOL    HW235004   3.507   4.128  14.630 -0.7085  0.8340 -0.7770
 7791SOL     OW35005   0.778   0.379   2.189 -0.7034  0.2909  0.5017
 7791SOL    HW135006   0.835   0.455   2.186  0.4564 -0.4984  2.5719
 7791SOL    HW235007   0.809   0.335   2.109 -0.1353 -1.7160  1.8025
 7792SOL     OW35008   4.617   3.817   3.444 -0.3494  0.6136  0.1035
 7792SOL    HW135009   4.705   3.846   3.470  0.6590 -0.2640 -2.3121
 7792SOL    HW235010   4.587   3.769   3.520 -0.8883  0.0628 -0.4607
 7793SOL     OW35011   3.175   3.436   3.729 -0.5078 -0.1944 -0.0146
 7793SOL    HW135012   3.244   3.499   3.707 -0.4431  0.0461  0.8936
 7793SOL    HW235013   3.187   3.374   3.657 -0.8644 -1.0956  0.6955
 7794SOL     OW35014   1.940   3.267  15.768  0.3311  0.3424 -0.0357
 7794SOL    HW135015   1.949   3.190  15.823  1.1344  1.1777  0.9834
 7794SOL    HW235016   1.934   3.221  15.684  0.1336  1.5237 -0.6636
 7795SOL     OW35017   0.352   0.301   9.879 -0.1421  0.0354  0.0841
 7795SOL    HW135018   0.440   0.284   9.912  0.1895  3.0423  0.7855
 7795SOL    HW235019   0.311   0.214   9.881  0.6558 -0.3627 -1.9073
 7796SOL     OW35020   4.237   0.145  10.236  0.3218  0.0373  0.0892
 7796SOL    HW135021   4.311   0.193  10.275 -0.7155  1.6467  0.0907
 7796SOL    HW235022   4.290   0.073  10.203  2.5133  1.5734  0.2262
 7797SOL     OW35023   0.186   2.613   6.485 -0.0616 -0.6184  0.4545
 7797SOL    HW135024   0.249   2.557   6.439 -0.6169 -0.1331 -0.9054
 7797SOL    HW235025   0.163   2.666   6.408  1.6474  1.4165  1.3498
 7798SOL     OW35026   2.051   4.112   8.378 -0.0320  0.0160  0.4901
 7798SOL    HW135027   2.092   4.198   8.377  2.2222 -1.0639  1.6046
 7798SOL    HW235028   1.966   4.134   8.339  0.4388  0.4672 -0.3027
 7799SOL     OW35029   2.703   3.412  15.304 -0.1217  0.4817  0.4338
 7799SOL    HW135030   2.625   3.400  15.250  0.1473  0.3069  0.0837
 7799SOL    HW235031   2.660   3.433  15.387  0.7154  0.8728  0.7766
 7800SOL     OW35032   1.546   1.367   1.228  0.0230  0.8324 -0.4645
 7800SOL    HW135033   1.467   1.412   1.199 -0.8906 -0.2715  0.3370
 7800SOL    HW235034   1.503   1.286   1.252 -2.9681  1.5117 -3.6138
 7801SOL     OW35035   0.934   0.577  11.353  0.6146  0.4421  0.0807
 7801SOL    HW135036   1.020   0.591  11.393  1.8376 -1.9110 -1.6598
 7801SOL    HW235037   0.880   0.648  11.386 -1.2276 -0.9956  0.1186
 7802SOL     OW35038   0.457   2.042   8.239 -0.3229  0.0576 -0.3597
 7802SOL    HW135039   0.435   2.117   8.184 -1.3362  0.3037  0.3882
 7802SOL    HW235040   0.539   2.019   8.195 -1.6218 -1.8949 -1.7889
 7803SOL     OW35041   0.758   3.245   1.929  0.3942  0.0397 -0.2987
 7803SOL    HW135042   0.713   3.285   1.855  0.3538  1.0378  0.2705
 7803SOL    HW235043   0.823   3.182   1.896 -0.2473  0.0942 -1.6617
 7804SOL     OW35044   1.174   1.533   8.331  0.1655  0.5321 -0.1904
 7804SOL    HW135045   1.122   1.567   8.404  1.1781  2.2231 -0.2679
 7804SOL    HW235046   1.109   1.500   8.268 -0.2027 -0.5477  0.7518
 7805SOL     OW35047   1.806   0.390   3.637 -0.3423 -0.5142 -0.5911
 7805SOL    HW135048   1.871   0.459   3.625  1.6532 -2.1234  1.1073
 7805SOL    HW235049   1.858   0.312   3.620  1.9573  0.6609  1.1228
 7806SOL     OW35050   3.853   2.600  15.394 -0.1124 -0.0742  0.6949
 7806SOL    HW135051   3.920   2.598  15.326  0.4254  2.6922  1.1513
 7806SOL    HW235052   3.824   2.691  15.397 -0.9756 -0.2449 -2.2313
 7807SOL     OW35053   0.167   0.599   2.924  0.1859  0.2553 -0.7730
 7807SOL    HW135054   0.178   0.624   2.832  0.8681 -2.3066 -1.3993
 7807SOL    HW235055   0.074   0.618   2.933 -0.4098 -3.4291  1.0730
 7808SOL     OW35056   0.740   3.158   6.377 -0.2961  0.5823 -0.3483
 7808SOL    HW135057   0.776   3.227   6.433  1.1775  0.4834 -1.1745
 7808SOL    HW235058   0.737   3.192   6.288  3.5531  0.8722 -0.3689
 7809SOL     OW35059   2.932   0.128   2.848 -0.1131 -0.0227 -0.3043
 7809SOL    HW135060   2.922   0.165   2.936 -1.0767  2.0544 -1.2741
 7809SOL    HW235061   3.010   0.078   2.872  0.6722 -0.0626 -2.9678
 7810SOL     OW35062   4.232   2.248  10.135  0.2519  0.2843 -0.0483
 7810SOL    HW135063   4.263   2.189  10.066  0.8685 -1.0418  1.3296
 7810SOL    HW235064   4.310   2.238  10.190  0.5148  1.8897 -0.1302
 7811SOL     OW35065   4.195   3.812   7.462 -0.0439 -0.3557 -0.3365
 7811SOL    HW135066   4.200   3.722   7.494 -1.3248  0.4220  2.0395
 7811SOL    HW235067   4.166   3.856   7.542  2.8205  0.4411  0.2728
 7812SOL     OW35068   1.263   1.258   9.388 -0.3974  0.0831 -0.0284
 7812SOL    HW135069   1.312   1.281   9.466 -0.6388  2.4921 -0.5867
 7812SOL    HW235070   1.309   1.294   9.312  0.3278  0.0936  0.4220
 7813SOL     OW35071   2.059   4.370   7.733 -0.6056 -0.3915  0.2039
 7813SOL    HW135072   2.117   4.441   7.762 -0.8390 -0.8760  1.8192
 7813SOL    HW235073   2.027   4.336   7.816  1.6904  0.0293  1.2623
 7814SOL     OW35074   0.873   4.322   8.506 -0.4692 -0.3580  0.4904
 7814SOL    HW135075   0.933   4.393   8.485  0.6116 -0.9266  1.6408
 7814SOL    HW235076   0.916   4.247   8.464  1.1385  0.5867  0.4375
 7815SOL     OW35077   2.493   1.261   3.476  0.4819 -0.0581 -0.6600
 7815SOL    HW135078   2.532   1.311   3.404  1.9669 -2.2414 -1.3721
 7815SOL    HW235079   2.488   1.332   3.540  0.5116 -0.6409 -0.0161
 7816SOL     OW35080   0.968   0.400   2.667 -0.4340  0.2119  0.3779
 7816SOL    HW135081   1.046   0.456   2.661 -0.0168 -0.4364 -0.2339
 7816SOL    HW235082   0.980   0.344   2.590 -1.6124  0.2785  0.1541
 7817SOL     OW35083   2.479   4.114   5.832  0.1651 -0.6938  0.6463
 7817SOL    HW135084   2.520   4.190   5.874  0.9251 -0.5616 -0.3273
 7817SOL    HW235085   2.504   4.127   5.741  0.8109  0.3290  0.9753
 7818SOL     OW35086   0.239   3.237   7.294  0.3409 -0.1099  0.2089
 7818SOL    HW135087   0.305   3.168   7.299  2.1715  1.6971  1.1120
 7818SOL    HW235088   0.238   3.255   7.388 -0.5040  0.6559  0.0541
 7819SOL     OW35089   3.642   4.154   0.358  0.0669  0.2655 -0.1900
 7819SOL    HW135090   3.708   4.213   0.322  1.5738 -1.1302  0.2626
 7819SOL    HW235091   3.561   4.205   0.355 -0.5779 -0.8315 -1.1496
 7820SOL     OW35092   0.453   3.704   2.673  0.4929  0.4275  0.1332
 7820SOL    HW135093   0.415   3.661   2.749  0.1295  1.5526  0.5844
 7820SOL    HW235094   0.541   3.671   2.653 -0.2004 -0.7970 -0.9219
 7821SOL     OW35095   1.643   0.382   6.093 -0.0756 -0.1470  0.3925
 7821SOL    HW135096   1.706   0.309   6.095  0.2469  0.0634 -3.4343
 7821SOL    HW235097   1.613   0.388   6.003 -1.1041  0.8814  0.8039
 7822SOL     OW35098   4.438   3.090   2.623  0.5557 -0.2084 -0.4023
 7822SOL    HW135099   4.516   3.077   2.678 -1.2264  0.6313  2.3334
 7822SOL    HW235100   4.478   3.057   2.543 -0.7158 -1.4674 -0.5128
 7823SOL     OW35101   4.081   2.523   4.353  0.4959  0.5053  0.2336
 7823SOL    HW135102   4.052   2.614   4.366  2.4836  1.0315  1.0594
 7823SOL    HW235103   4.153   2.529   4.290 -0.1257 -0.7184 -0.5800
 7824SOL     OW35104   2.909   3.950  14.196  0.5060  0.0765 -0.1882
 7824SOL    HW135105   2.931   3.858  14.181  1.1964  0.0291  1.1170
 7824SOL    HW235106   2.998   3.971  14.223  0.3007  2.5935 -1.5076
 7825SOL     OW35107   1.532   1.580   1.843 -0.1748  0.3269 -0.3648
 7825SOL    HW135108   1.537   1.579   1.747  1.3779  0.5640 -0.2868
 7825SOL    HW235109   1.572   1.665   1.864 -2.8083  1.7297 -1.0261
 7826SOL     OW35110   0.026   2.288   6.246  0.2293  0.3875 -0.3438
 7826SOL    HW135111   0.016   2.380   6.223  1.2181  0.6008  0.0920
 7826SOL    HW235112   4.688   2.242   6.217  1.9027 -3.2292  0.8080
 7827SOL     OW35113   1.164   2.358   4.625  0.2394 -0.0720 -0.0695
 7827SOL    HW135114   1.155   2.410   4.545 -0.9715  1.2236  0.9199
 7827SOL    HW235115   1.133   2.274   4.592 -0.0466 -0.0204  0.0685
 7828SOL     OW35116   3.510   1.609  12.665 -0.0826  0.0650 -0.1566
 7828SOL    HW135117   3.504   1.705  12.664 -0.5406  0.0046 -2.4297
 7828SOL    HW235118   3.449   1.590  12.594  0.7508 -1.2178 -0.5213
 7829SOL     OW35119   3.999   4.541   7.717 -0.9882  0.2333 -0.5614
 7829SOL    HW135120   3.980   4.488   7.639 -0.8561  1.7125 -1.6049
 7829SOL    HW235121   3.940   4.616   7.706 -0.1096  1.1830  1.1525
 7830SOL     OW35122   1.393   4.461   4.075 -0.1685  0.1963 -0.0367
 7830SOL    HW135123   1.346   4.412   4.008  0.7079 -1.3137  0.4334
 7830SOL    HW235124   1.477   4.463   4.028 -0.3910 -2.9620 -0.5847
 7831SOL     OW35125   3.145   3.269   3.502  0.5559 -0.0579 -0.5140
 7831SOL    HW135126   3.102   3.326   3.438  1.3355 -0.1187 -1.1012
 7831SOL    HW235127   3.209   3.225   3.446  1.7410  1.2337 -0.1734
 7832SOL     OW35128   0.378   4.417   6.320  0.0475  0.1085 -0.3303
 7832SOL    HW135129   0.391   4.409   6.414  0.1242  1.4604 -0.2263
 7832SOL    HW235130   0.348   4.328   6.299 -0.5313  0.0909  0.6036
 7833SOL     OW35131   0.602   2.272   5.121  0.3414  0.0574  0.4790
 7833SOL    HW135132   0.618   2.218   5.199  0.0656 -0.4177  0.2099
 7833SOL    HW235133   0.508   2.286   5.122  0.3762  0.3300  0.0672
 7834SOL     OW35134   0.917   1.348  10.691 -0.5421 -0.1136  0.1692
 7834SOL    HW135135   0.944   1.421  10.636 -0.0408 -0.7006 -0.3578
 7834SOL    HW235136   0.955   1.279  10.637  0.8104 -0.2881  1.3438
 7835SOL     OW35137   2.453   0.699   8.859  0.3796 -0.3773  0.0593
 7835SOL    HW135138   2.439   0.717   8.766 -2.0223 -0.3519  0.4432
 7835SOL    HW235139   2.363   0.680   8.884  0.4502  0.0597  0.6434
 7836SOL     OW35140   3.194   2.932  11.154 -0.0750  0.1346  0.1569
 7836SOL    HW135141   3.111   2.890  11.177 -0.1358 -1.3245 -2.6805
 7836SOL    HW235142   3.226   2.868  11.091  0.9998  2.1067 -1.3206
 7837SOL     OW35143   4.173   1.697   7.381 -0.1288 -0.3405  0.9652
 7837SOL    HW135144   4.124   1.761   7.433 -1.1429  1.7678 -2.6025
 7837SOL    HW235145   4.235   1.672   7.450 -2.3583 -1.7430  2.4448
 7838SOL     OW35146   3.280   1.010   1.804 -0.0692  0.0060  0.2782
 7838SOL    HW135147   3.198   1.025   1.757  0.9127 -0.8222 -1.7021
 7838SOL    HW235148   3.319   0.951   1.740 -2.4153 -0.2998 -0.8527
 7839SOL     OW35149   1.289   4.627   5.619 -0.0717 -0.0228  0.0689
 7839SOL    HW135150   1.331   4.612   5.535  0.0977 -2.1724  0.5318
 7839SOL    HW235151   1.225   4.557   5.629 -0.3166  0.4193  1.6754
 7840SOL     OW35152   3.410   4.390   4.859  0.0647 -0.1318  0.0616
 7840SOL    HW135153   3.398   4.400   4.953  1.2891  1.4075  0.0439
 7840SOL    HW235154   3.452   4.474   4.842  1.9140 -1.1857 -0.5282
 7841SOL     OW35155   2.911   4.010  11.772  0.1067 -0.2515 -0.1355
 7841SOL    HW135156   2.908   3.958  11.851  1.8215  0.7589  0.5901
 7841SOL    HW235157   2.958   4.087  11.804 -0.5572  0.2384 -0.3236
 7842SOL     OW35158   2.399   3.375   2.096  0.1821  0.4051 -0.2841
 7842SOL    HW135159   2.408   3.403   2.005 -0.5231 -0.4055 -0.6073
 7842SOL    HW235160   2.347   3.437   2.147 -0.0089 -1.1620  1.4439
 7843SOL     OW35161   1.099   3.415   7.691 -0.0321 -0.6322  0.1957
 7843SOL    HW135162   1.029   3.444   7.750  0.9099 -0.4539  1.2397
 7843SOL    HW235163   1.083   3.321   7.683 -1.9780 -0.2404 -0.3912
 7844SOL     OW35164   1.475   3.821   2.667  0.2028  0.1046 -0.4878
 7844SOL    HW135165   1.394   3.853   2.706 -0.2218 -1.3842 -0.1768
 7844SOL    HW235166   1.543   3.869   2.715 -0.6842  1.3481 -0.4740
 7845SOL     OW35167   3.961   0.115   3.279  0.1904  0.2647 -0.1491
 7845SOL    HW135168   3.909   0.192   3.255 -2.3619 -1.5669 -0.5605
 7845SOL    HW235169   4.013   0.151   3.351  2.7110 -0.8641 -1.4078
 7846SOL     OW35170   3.800   0.491  12.797  0.5034  0.0307  0.4789
 7846SOL    HW135171   3.812   0.512  12.890 -0.5175 -1.2709  0.9061
 7846SOL    HW235172   3.721   0.437  12.795  0.0767  0.6446  0.8066
 7847SOL     OW35173   0.384   0.381   7.027 -0.2864 -0.3917 -0.2381
 7847SOL    HW135174   0.298   0.359   7.064  0.4830 -0.1825  1.6561
 7847SOL    HW235175   0.355   0.454   6.973  0.9702 -0.4316 -0.9700
 7848SOL     OW35176   2.807   1.092   1.198 -0.1283 -0.3397 -0.1536
 7848SOL    HW135177   2.787   1.113   1.107 -0.2253  2.5106  0.5325
 7848SOL    HW235178   2.890   1.139   1.209 -0.0848 -0.5105  0.2557
 7849SOL     OW35179   0.058   2.363  11.630 -0.2066  0.1360  0.0159
 7849SOL    HW135180   0.023   2.449  11.606 -0.8341 -0.3232 -0.7152
 7849SOL    HW235181   4.727   2.322  11.678 -1.0569 -1.9832 -3.1175
 7850SOL     OW35182   2.414   1.333  12.273 -0.3226 -0.5195 -0.2106
 7850SOL    HW135183   2.361   1.308  12.198 -1.2803 -2.1072  0.9905
 7850SOL    HW235184   2.346   1.357  12.336 -0.2321  1.2062 -0.7926
 7851SOL     OW35185   1.244   2.833   1.987 -0.1570 -0.6077 -0.2480
 7851SOL    HW135186   1.319   2.892   1.976 -0.9453  0.2320 -1.1302
 7851SOL    HW235187   1.204   2.869   2.066  1.0819 -1.4309  0.7484
 7852SOL     OW35188   2.172   1.061   7.333 -0.2192 -0.5590 -0.0727
 7852SOL    HW135189   2.144   0.971   7.317 -1.0422 -0.4502  0.7938
 7852SOL    HW235190   2.103   1.119   7.301 -1.2374 -1.6642  0.1311
 7853SOL     OW35191   1.802   0.910  15.156 -0.5495  0.3152 -0.6387
 7853SOL    HW135192   1.802   0.974  15.227 -1.5666  1.0331 -1.2860
 7853SOL    HW235193   1.857   0.966  15.103  0.6752 -0.1903  0.0993
 7854SOL     OW35194   2.895   0.787  17.545 -0.0421  0.8731  0.1340
 7854SOL    HW135195   2.884   0.775  17.451  2.3835 -1.6721  0.1734
 7854SOL    HW235196   2.973   0.841  17.547  0.1194  0.5977  1.2188
 7855SOL     OW35197   1.957   0.249  17.472  0.1248 -0.2323  0.1348
 7855SOL    HW135198   1.956   0.229  17.565  1.3124  0.7182  0.3482
 7855SOL    HW235199   1.879   0.304  17.466 -1.0780 -1.9948 -0.6971
 7856SOL     OW35200   1.733   4.670   6.797 -0.7530  0.3821 -0.0720
 7856SOL    HW135201   1.814   4.627   6.769 -1.5423 -0.5945 -0.8737
 7856SOL    HW235202   1.706   4.715   6.717 -0.7637  0.8778  0.2090
 7857SOL     OW35203   2.789   4.482   9.130 -0.1745  0.2107 -0.0679
 7857SOL    HW135204   2.837   4.472   9.212 -3.4213  0.5816  1.8853
 7857SOL    HW235205   2.731   4.553   9.161  0.0148 -0.2755  1.4192
 7858SOL     OW35206   4.397   1.555   0.580 -0.0962  0.2701  0.1021
 7858SOL    HW135207   4.397   1.639   0.534  0.5546  0.4952  0.5130
 7858SOL    HW235208   4.308   1.557   0.616 -0.6661 -0.0893 -1.2411
 7859SOL     OW35209   1.770   4.537   0.478  0.1774 -0.2329 -0.1174
 7859SOL    HW135210   1.839   4.590   0.437 -0.5745  0.3084 -0.6751
 7859SOL    HW235211   1.796   4.543   0.570 -1.2693 -1.5304  0.3813
 7860SOL     OW35212   1.102   3.499   1.398 -0.2917 -0.1925  0.0301
 7860SOL    HW135213   1.071   3.418   1.359 -0.3996 -0.2534  0.2419
 7860SOL    HW235214   1.077   3.490   1.490  1.3048  1.3560  0.6272
 7861SOL     OW35215   2.719   1.537   5.012  0.5911 -0.0308 -0.3619
 7861SOL    HW135216   2.778   1.466   5.039  1.5739  0.8093 -0.2841
 7861SOL    HW235217   2.743   1.617   5.059 -2.3825  2.5624 -3.2486
 7862SOL     OW35218   3.197   1.423   6.755 -0.6176 -0.4311 -0.7397
 7862SOL    HW135219   3.176   1.465   6.839  0.3001  0.8160 -1.1361
 7862SOL    HW235220   3.291   1.411   6.764 -0.3102  1.4890 -1.3645
 7863SOL     OW35221   1.529   1.405   7.179  0.7888 -0.2124 -0.2567
 7863SOL    HW135222   1.454   1.358   7.144  0.1155  0.0927  0.7755
 7863SOL    HW235223   1.519   1.489   7.135 -0.5643  1.3133  3.0084
 7864SOL     OW35224   1.366   3.324   1.409  0.1018  0.2163  0.0428
 7864SOL    HW135225   1.307   3.376   1.465 -0.3332 -2.2436  1.8240
 7864SOL    HW235226   1.319   3.241   1.417 -0.4626  0.5309  0.0218
 7865SOL     OW35227   2.334   2.231   3.460  0.3300  0.3640  0.7417
 7865SOL    HW135228   2.376   2.145   3.470 -1.7205 -0.5355  1.6486
 7865SOL    HW235229   2.318   2.229   3.365 -0.7583  0.6355  0.9261
 7866SOL     OW35230   2.592   0.366   8.245  0.0442  0.0637  0.2838
 7866SOL    HW135231   2.676   0.325   8.267 -0.6384 -0.3154  2.1212
 7866SOL    HW235232   2.529   0.294   8.251 -2.1054  2.1331  2.4086
 7867SOL     OW35233   2.605   0.925   3.898  0.5368  0.2236 -0.1331
 7867SOL    HW135234   2.656   0.999   3.930 -0.5611  0.6439  0.6265
 7867SOL    HW235235   2.658   0.898   3.822  1.8669  0.8225  0.5851
 7868SOL     OW35236   4.649   0.623   5.605 -0.6737  0.8121 -0.0022
 7868SOL    HW135237   4.677   0.538   5.641 -2.8514  0.5015  0.9278
 7868SOL    HW235238   4.703   0.676   5.663  0.3347 -0.0247 -0.1668
 7869SOL     OW35239   3.827   3.401   4.861  0.3598  0.1244 -0.4295
 7869SOL    HW135240   3.750   3.404   4.917  1.0735  0.7354  0.5277
 7869SOL    HW235241   3.896   3.361   4.915 -0.2237 -2.0861 -1.3453
 7870SOL     OW35242   2.118   0.843   7.122  0.2916 -0.1324 -0.0787
 7870SOL    HW135243   2.054   0.900   7.077  0.2172  1.0144  1.4790
 7870SOL    HW235244   2.200   0.885   7.097  0.1237 -0.4556 -1.1792
 7871SOL     OW35245   0.076   1.430   8.764  0.0644 -0.2838 -0.7552
 7871SOL    HW135246   0.065   1.375   8.842  2.0059 -0.1489 -0.3779
 7871SOL    HW235247   0.156   1.402   8.718 -0.7017 -0.4483 -1.9881
 7872SOL     OW35248   0.272   0.350   6.648 -0.3995  0.9071  0.4854
 7872SOL    HW135249   0.197   0.319   6.700 -0.3429 -1.4776 -0.8764
 7872SOL    HW235250   0.327   0.274   6.666 -1.4266 -0.3374 -1.6175
 7873SOL     OW35251   1.399   0.415   7.789  0.2961 -0.5121  0.2858
 7873SOL    HW135252   1.439   0.329   7.776  1.3159  0.2054 -1.3228
 7873SOL    HW235253   1.456   0.458   7.852  0.2846  0.8787 -0.6578
 7874SOL     OW35254   2.934   1.788   8.116 -0.3102 -0.2204  0.3322
 7874SOL    HW135255   2.972   1.738   8.044 -0.6696  0.6213 -0.4498
 7874SOL    HW235256   2.848   1.815   8.083  0.0613  0.6895  0.1330
 7875SOL     OW35257   2.913   4.363   4.881  0.1087  0.4121  0.2359
 7875SOL    HW135258   2.928   4.369   4.975 -0.4598 -1.2769  0.4207
 7875SOL    HW235259   2.822   4.393   4.872  0.3295  0.5443 -1.6099
 7876SOL     OW35260   0.289   1.076   4.459  0.3288  0.0347 -0.9323
 7876SOL    HW135261   0.320   1.112   4.542  2.1683  1.1125 -2.0963
 7876SOL    HW235262   0.271   0.984   4.481 -1.8264  1.0695  1.5703
 7877SOL     OW35263   3.358   3.701   2.292 -0.2478 -0.4346  0.0764
 7877SOL    HW135264   3.287   3.711   2.229  1.1976  0.9642 -1.3340
 7877SOL    HW235265   3.401   3.625   2.253 -1.1405 -2.1900  2.4508
 7878SOL     OW35266   1.765   2.846  12.023 -0.2659  0.2623 -0.0288
 7878SOL    HW135267   1.669   2.841  12.019 -0.1621 -1.4340 -0.3253
 7878SOL    HW235268   1.782   2.893  12.104 -0.1621  1.6742 -0.8557
 7879SOL     OW35269   0.646   0.552   6.193 -0.1014  0.0448  0.5565
 7879SOL    HW135270   0.565   0.518   6.155  0.6158 -1.2456  0.1666
 7879SOL    HW235271   0.625   0.645   6.192 -1.0823 -0.1864 -0.6569
 7880SOL     OW35272   1.490   3.384  16.795 -0.0430  0.2101 -0.3658
 7880SOL    HW135273   1.397   3.379  16.774 -0.3051 -1.1512  1.1167
 7880SOL    HW235274   1.489   3.364  16.888  1.6272  1.5394 -0.0649
 7881SOL     OW35275   0.430   2.815   2.188 -0.1667  0.0094 -0.0487
 7881SOL    HW135276   0.442   2.869   2.110  0.0844  0.1965  0.1157
 7881SOL    HW235277   0.445   2.734   2.140  1.9490  0.9965 -1.0478
 7882SOL     OW35278   1.874   2.701   4.217  0.6051  0.1678  0.3226
 7882SOL    HW135279   1.792   2.742   4.245 -1.1698 -1.9951 -1.7517
 7882SOL    HW235280   1.844   2.626   4.166  0.5778  1.1198 -1.0628
 7883SOL     OW35281   1.078   2.472   9.363  0.5975  0.1743  0.4557
 7883SOL    HW135282   1.065   2.567   9.370 -1.6046 -0.0609 -0.4343
 7883SOL    HW235283   1.078   2.460   9.458 -0.4012 -0.0159  0.4264
 7884SOL     OW35284   2.378   0.109   5.269  0.2205  0.6797 -0.4763
 7884SOL    HW135285   2.430   0.066   5.338 -1.9031 -0.4565  0.4171
 7884SOL    HW235286   2.287   0.099   5.297  0.7346 -0.4853  0.7977
 7885SOL     OW35287   2.660   2.433  10.428 -0.4956  0.2783 -0.5867
 7885SOL    HW135288   2.662   2.499  10.497  0.5122 -1.2351  0.8125
 7885SOL    HW235289   2.632   2.352  10.470 -0.3677  0.3036 -0.4520
 7886SOL     OW35290   1.333   3.603   7.375 -0.3552 -0.1059  0.2683
 7886SOL    HW135291   1.261   3.664   7.390 -0.0288  0.4393 -0.3570
 7886SOL    HW235292   1.314   3.520   7.419  1.3478  0.8052  2.7445
 7887SOL     OW35293   0.979   2.532   7.014  0.9924 -0.2744  0.7090
 7887SOL    HW135294   0.974   2.459   6.953 -0.6270  2.0291 -1.9498
 7887SOL    HW235295   0.902   2.586   6.992  0.1216 -0.8065  2.4566
 7888SOL     OW35296   3.902   1.415   5.287 -0.7765  0.8183 -0.4177
 7888SOL    HW135297   3.824   1.360   5.275 -0.6063  0.3748  0.5369
 7888SOL    HW235298   3.940   1.420   5.200  1.4290 -2.2294  0.3816
 7889SOL     OW35299   3.210   3.548  11.698  0.1524 -0.0332  0.3435
 7889SOL    HW135300   3.162   3.586  11.624  1.4098  2.4109  0.7794
 7889SOL    HW235301   3.272   3.488  11.658  0.5302  0.1387  0.6802
 7890SOL     OW35302   3.318   4.391  10.370  0.8681 -0.1622 -0.2887
 7890SOL    HW135303   3.283   4.480  10.376 -1.0614 -0.7890 -2.1720
 7890SOL    HW235304   3.261   4.368  10.296  0.7074  1.3223 -0.6185
 7891SOL     OW35305   1.725   0.957   5.862 -0.1895  0.2041 -0.4186
 7891SOL    HW135306   1.712   1.022   5.792  0.1280  0.5611 -0.1432
 7891SOL    HW235307   1.788   0.906   5.811  0.1925  1.0135 -0.7492
 7892SOL     OW35308   0.707   3.422   5.032 -0.2542 -0.0816 -0.3612
 7892SOL    HW135309   0.798   3.430   5.003  0.7641 -0.4013  2.6547
 7892SOL    HW235310   0.729   3.390   5.120 -2.1175  0.3396  0.2638
 7893SOL     OW35311   2.436   1.941   7.063  0.1171  0.2171  0.3227
 7893SOL    HW135312   2.357   1.901   7.026  1.3480  0.1545 -2.2195
 7893SOL    HW235313   2.500   1.887   7.018 -0.9766 -2.4819  1.9624
 7894SOL     OW35314   4.658   2.323   6.839 -0.0633  0.4745 -0.0589
 7894SOL    HW135315   4.616   2.390   6.784  0.3514  1.7394  1.1678
 7894SOL    HW235316   4.634   2.251   6.781 -0.0314  1.3283 -1.1460
 7895SOL     OW35317   2.296   4.175   9.209 -0.2137 -1.1377 -0.0742
 7895SOL    HW135318   2.391   4.176   9.198 -0.1930 -1.1658  0.0963
 7895SOL    HW235319   2.287   4.083   9.234 -2.9799 -1.2232 -1.4227
 7896SOL     OW35320   2.674   1.700   4.124 -0.6388  0.3267  0.6334
 7896SOL    HW135321   2.765   1.703   4.153 -0.5534  2.3687  0.1600
 7896SOL    HW235322   2.645   1.609   4.135 -0.4523  0.1792 -0.1103
 7897SOL     OW35323   1.908   4.371  13.961 -0.0580 -0.0092  0.1329
 7897SOL    HW135324   1.847   4.445  13.969 -0.4992 -0.5635  1.8878
 7897SOL    HW235325   1.894   4.329  13.876 -0.8114 -0.8737  0.6815
 7898SOL     OW35326   0.756   1.387   3.364  0.5736 -0.6102  0.2489
 7898SOL    HW135327   0.837   1.338   3.377  1.7603  1.9555  2.4424
 7898SOL    HW235328   0.729   1.392   3.455 -0.0056  0.3901  0.0199
 7899SOL     OW35329   0.379   3.055   6.671  0.2449  0.2369  0.0499
 7899SOL    HW135330   0.462   3.070   6.715 -0.2787 -1.2368  1.5688
 7899SOL    HW235331   0.339   3.141   6.668 -0.6936 -0.2541 -1.7129
 7900SOL     OW35332   1.659   2.017   2.494  0.4343 -0.4058 -0.2874
 7900SOL    HW135333   1.635   2.100   2.452 -1.4592  0.2873  2.1847
 7900SOL    HW235334   1.738   2.045   2.541 -1.4601  1.2446  1.9734
 7901SOL     OW35335   3.396   0.471   1.815  0.2130 -0.0256  0.2479
 7901SOL    HW135336   3.305   0.493   1.833  1.3658  3.5095  1.8680
 7901SOL    HW235337   3.437   0.556   1.798 -1.5362  0.3100 -2.2466
 7902SOL     OW35338   4.552   3.905  12.821 -0.2518  0.6668  0.1025
 7902SOL    HW135339   4.492   3.851  12.873  0.7269 -0.6248 -0.1252
 7902SOL    HW235340   4.546   3.856  12.739 -2.5613  0.6916  0.2575
 7903SOL     OW35341   3.307   4.454   8.157  0.4346  0.1009 -0.2662
 7903SOL    HW135342   3.216   4.452   8.128 -0.0455  3.1108  1.0034
 7903SOL    HW235343   3.343   4.369   8.132  0.0430  0.0511 -0.6540
 7904SOL     OW35344   3.255   3.205   5.724  0.1881  0.4299 -0.3582
 7904SOL    HW135345   3.321   3.185   5.790 -1.2693 -0.7454  0.7262
 7904SOL    HW235346   3.175   3.163   5.754 -0.0488  0.1852 -1.3299
 7905SOL     OW35347   0.566   0.525   4.429 -0.0351  0.1910 -0.3643
 7905SOL    HW135348   0.597   0.439   4.457 -1.3173 -1.4039 -3.7903
 7905SOL    HW235349   0.545   0.498   4.339  2.7250  0.5821 -1.1167
 7906SOL     OW35350   3.213   0.241   3.862  0.1545 -0.3477 -0.0187
 7906SOL    HW135351   3.246   0.317   3.910 -0.5082  0.5100 -0.8910
 7906SOL    HW235352   3.124   0.271   3.839 -0.2048  0.0638  1.8975
 7907SOL     OW35353   0.587   4.139   1.068  0.8053 -0.4480 -0.0855
 7907SOL    HW135354   0.629   4.061   1.030 -0.5882 -0.5388 -1.4523
 7907SOL    HW235355   0.603   4.193   0.991 -1.3040  0.3121  0.0007
 7908SOL     OW35356   2.920   1.448   3.440  0.0364  0.5542 -0.4326
 7908SOL    HW135357   2.934   1.457   3.346 -0.8173  1.1457 -0.4996
 7908SOL    HW235358   2.961   1.530   3.470  0.9125 -0.7321  1.9229
 7909SOL     OW35359   3.152   4.498   8.833 -0.2561  0.1201 -0.2256
 7909SOL    HW135360   3.100   4.431   8.788 -0.5375  0.3891 -0.3030
 7909SOL    HW235361   3.185   4.443   8.904 -2.6141 -1.2060 -0.1297
 7910SOL     OW35362   1.800   3.036   3.683 -0.1783  0.1713  0.2122
 7910SOL    HW135363   1.791   2.984   3.762 -0.2301 -0.8983 -0.5066
 7910SOL    HW235364   1.896   3.041   3.677 -0.1962  1.2261  0.6771
 7911SOL     OW35365   1.783   1.891  15.926  0.0114 -0.2283  0.0584
 7911SOL    HW135366   1.869   1.852  15.911  0.3349  0.8563 -0.8484
 7911SOL    HW235367   1.739   1.891  15.841  0.4554 -0.5012 -0.1725
 7912SOL     OW35368   2.408   2.627   4.632 -0.0105 -0.3343  0.2108
 7912SOL    HW135369   2.491   2.673   4.632 -0.2257  0.0592  1.3656
 7912SOL    HW235370   2.357   2.702   4.599 -0.2156 -0.8705 -0.6835
 7913SOL     OW35371   2.541   0.393   3.558  0.2262  0.1139 -0.3200
 7913SOL    HW135372   2.587   0.459   3.611 -0.5322  1.1246 -0.9265
 7913SOL    HW235373   2.564   0.424   3.471 -1.0847  1.2125 -0.2737
 7914SOL     OW35374   0.242   2.553   1.346 -0.0493  0.0596 -0.6307
 7914SOL    HW135375   0.188   2.632   1.348 -0.8300 -0.5193  1.4740
 7914SOL    HW235376   0.276   2.566   1.257 -0.1017 -1.5812 -0.8965
 7915SOL     OW35377   4.456   1.498  11.996 -0.1688  0.1850  0.4080
 7915SOL    HW135378   4.465   1.578  11.944 -1.6613 -0.5963 -1.0740
 7915SOL    HW235379   4.381   1.534  12.044 -0.2408  2.1534 -1.1990
 7916SOL     OW35380   0.983   1.404   6.675 -0.0706  0.1517  0.6082
 7916SOL    HW135381   1.014   1.493   6.692  1.5239 -0.1972 -0.3869
 7916SOL    HW235382   0.899   1.422   6.634  1.2280 -1.6241 -2.8489
 7917SOL     OW35383   3.111   2.852   1.011  0.1460  0.1433  0.1439
 7917SOL    HW135384   3.196   2.888   1.036 -0.5100  1.6960  0.1975
 7917SOL    HW235385   3.046   2.890   1.071 -1.3165 -1.8628 -0.1796
 7918SOL     OW35386   3.440   2.599   3.076 -0.1467 -0.3870  0.2080
 7918SOL    HW135387   3.370   2.587   3.139  1.6571 -3.0171  1.7199
 7918SOL    HW235388   3.509   2.545   3.115 -1.8409 -1.0112  2.2719
 7919SOL     OW35389   4.442   0.811  17.657 -0.1667  0.4304 -0.4295
 7919SOL    HW135390   4.364   0.842  17.704  0.0779  0.9705 -0.3777
 7919SOL    HW235391   4.406   0.744  17.599 -0.3114 -0.3675  0.5736
 7920SOL     OW35392   1.076   2.742   9.255 -0.0732  0.3086  0.1484
 7920SOL    HW135393   1.165   2.755   9.223 -0.7206  0.7089 -1.4733
 7920SOL    HW235394   1.034   2.713   9.174 -0.7313  0.0371  0.5783
 7921SOL     OW35395   3.424   0.338   5.011  0.3908 -0.2125 -0.7857
 7921SOL    HW135396   3.421   0.346   5.106  0.8911 -2.5492 -0.5803
 7921SOL    HW235397   3.333   0.336   4.981  0.0783 -0.9191  0.2291
 7922SOL     OW35398   1.537   1.822   4.273  0.5232 -0.2531  0.1933
 7922SOL    HW135399   1.615   1.770   4.290  0.5063 -0.1549  0.5780
 7922SOL    HW235400   1.522   1.860   4.360  0.0334 -2.8886  1.2756
 7923SOL     OW35401   1.876   3.255   3.294 -0.1592  0.0860 -0.0891
 7923SOL    HW135402   1.955   3.203   3.279 -0.3775 -0.0161 -0.8931
 7923SOL    HW235403   1.845   3.270   3.205  1.0956 -1.2723 -0.7530
 7924SOL     OW35404   4.065   1.434  12.958  0.8077 -0.2320  0.0486
 7924SOL    HW135405   4.047   1.342  12.938  0.9426 -0.1936 -0.2625
 7924SOL    HW235406   4.080   1.464  12.868  1.9250 -0.8768  0.0145
 7925SOL     OW35407   2.304   2.312   5.459  0.5175  0.4036  0.5329
 7925SOL    HW135408   2.394   2.345   5.461  0.2920  1.1021 -0.5124
 7925SOL    HW235409   2.256   2.390   5.488  2.9808  1.3581  2.0040
 7926SOL     OW35410   4.069   3.223   7.761 -0.6856  0.0089  0.2863
 7926SOL    HW135411   3.987   3.266   7.736 -0.1101  1.1287  0.3105
 7926SOL    HW235412   4.049   3.199   7.851  0.0090 -1.8452 -0.0692
 7927SOL     OW35413   4.069   2.595   1.529 -0.1945  0.4078 -0.2175
 7927SOL    HW135414   4.060   2.514   1.579  0.8706  0.7279  0.5158
 7927SOL    HW235415   4.058   2.665   1.594 -1.4404  0.2395 -0.2487
 7928SOL     OW35416   1.652   2.186   2.238  0.1737 -0.2901 -0.4142
 7928SOL    HW135417   1.597   2.261   2.216  0.7348  0.0723 -0.5615
 7928SOL    HW235418   1.717   2.186   2.168 -1.5965 -0.9657 -2.0728
 7929SOL     OW35419   0.302   3.907   3.303 -0.0268 -0.0451  0.4834
 7929SOL    HW135420   0.273   3.816   3.309  2.6368 -0.9051  0.4796
 7929SOL    HW235421   0.396   3.905   3.321  0.2773  1.5861 -0.8768
 7930SOL     OW35422   2.080   0.641  17.747 -0.3796 -0.1897 -0.3176
 7930SOL    HW135423   2.035   0.599   0.060  1.0756 -0.8783  0.1609
 7930SOL    HW235424   2.028   0.615  17.671 -0.2008 -0.7459 -0.2489
 7931SOL     OW35425   3.834   0.157  16.307  0.0279 -0.5958 -0.0867
 7931SOL    HW135426   3.809   0.161  16.215 -0.0654 -2.2023 -0.1358
 7931SOL    HW235427   3.778   0.087  16.340 -0.5728  0.4576  1.1057
 7932SOL     OW35428   4.298   0.309  17.294  0.3275 -0.1259 -0.1998
 7932SOL    HW135429   4.286   0.255  17.217  0.0878 -0.7279  0.2628
 7932SOL    HW235430   4.334   0.241  17.352 -1.0887 -0.0000  0.8323
 7933SOL     OW35431   4.357   1.101   6.159  0.2499 -0.4748  0.4222
 7933SOL    HW135432   4.325   1.116   6.248 -3.3313 -0.8300 -0.8198
 7933SOL    HW235433   4.287   1.046   6.125  0.8800 -0.9203 -0.1648
 7934SOL     OW35434   3.958   3.939   2.498  0.6431 -0.2884 -0.3372
 7934SOL    HW135435   4.046   3.961   2.528 -0.0062 -1.4877  2.4705
 7934SOL    HW235436   3.909   3.990   2.562 -0.6532 -2.1507  0.1542
 7935SOL     OW35437   0.538   3.430  10.626 -0.3792  0.2992  0.0723
 7935SOL    HW135438   0.488   3.493  10.679 -0.4098 -0.0179  0.4232
 7935SOL    HW235439   0.526   3.356  10.686  1.7541 -1.6806 -1.9360
 7936SOL     OW35440   3.944   1.504  13.389  0.4118 -0.5458  0.3488
 7936SOL    HW135441   3.953   1.410  13.371  0.8160 -0.5696  0.6721
 7936SOL    HW235442   4.011   1.533  13.327 -0.1838  1.2233  0.5408
 7937SOL     OW35443   3.097   3.136   1.302  0.3918 -0.0471 -0.5122
 7937SOL    HW135444   3.047   3.085   1.239 -0.6383  0.6362 -0.2480
 7937SOL    HW235445   3.078   3.093   1.385  0.1123 -0.4965 -0.8085
 7938SOL     OW35446   3.309   1.797   4.586 -0.0878 -0.7539 -0.2475
 7938SOL    HW135447   3.268   1.882   4.603 -0.1471 -0.7999 -0.1651
 7938SOL    HW235448   3.401   1.822   4.576 -0.6373  1.1217 -0.5755
 7939SOL     OW35449   2.187   3.312  15.892  0.3326  0.3601  0.3507
 7939SOL    HW135450   2.106   3.300  15.843  0.8727 -0.1048 -0.4215
 7939SOL    HW235451   2.197   3.406  15.879 -1.0874  0.4124 -0.3908
 7940SOL     OW35452   2.697   3.918   9.096 -0.3291 -0.2346  0.1818
 7940SOL    HW135453   2.631   3.872   9.147 -1.7448  0.6028 -0.8557
 7940SOL    HW235454   2.779   3.876   9.118 -0.0721 -0.6915 -1.5921
 7941SOL     OW35455   0.621   2.577   3.813  0.0108  0.2003 -0.2912
 7941SOL    HW135456   0.549   2.612   3.760 -0.8543 -1.2792 -0.0771
 7941SOL    HW235457   0.590   2.487   3.824 -0.0781  0.2855  0.1549
 7942SOL     OW35458   4.370   3.760  11.718 -0.5626 -0.8470 -0.3602
 7942SOL    HW135459   4.335   3.833  11.667  0.0076  0.8229  1.6128
 7942SOL    HW235460   4.358   3.688  11.657 -0.0319 -2.2215  1.1457
 7943SOL     OW35461   1.092   2.424  11.904  0.1613 -0.4238  0.6546
 7943SOL    HW135462   1.186   2.439  11.896  0.0704 -0.0652  0.2385
 7943SOL    HW235463   1.061   2.506  11.943 -0.6330  0.3798 -1.6464
 7944SOL     OW35464   3.787   2.792   7.373  0.1555  0.0187 -0.5267
 7944SOL    HW135465   3.788   2.697   7.368 -0.4972 -0.0380  0.4961
 7944SOL    HW235466   3.771   2.831   7.287 -1.4150  1.9098  0.6352
 7945SOL     OW35467   4.369   0.170   2.405  1.0200  0.3399  0.5291
 7945SOL    HW135468   4.274   0.166   2.398  1.1241 -0.9685 -0.2782
 7945SOL    HW235469   4.383   0.185   2.498  0.4749  1.7629  0.3788
 7946SOL     OW35470   0.632   0.973   9.750 -0.2412 -0.2301  0.3394
 7946SOL    HW135471   0.574   0.898   9.736 -0.6811  0.1956 -0.0911
 7946SOL    HW235472   0.644   0.954   9.843  2.1629  0.5159  0.1895
 7947SOL     OW35473   4.551   0.150   3.895 -0.5021 -0.2164  0.5789
 7947SOL    HW135474   4.521   0.203   3.969 -0.6320 -1.6311  1.5323
 7947SOL    HW235475   4.612   0.214   3.859 -1.0887 -0.1524 -0.3044
 7948SOL     OW35476   4.524   1.919   6.012 -0.0432  0.0840 -0.4807
 7948SOL    HW135477   4.429   1.928   6.006  0.1093  0.4164 -2.4219
 7948SOL    HW235478   4.534   1.846   6.073 -3.0329  0.4320  0.4348
 7949SOL     OW35479   0.989   4.045   1.254 -0.3547  0.1684  0.0883
 7949SOL    HW135480   0.976   4.139   1.242 -0.5068  0.3195  1.4329
 7949SOL    HW235481   0.920   4.023   1.317  0.2784 -2.4702 -0.1477
 7950SOL     OW35482   1.885   0.972   3.108 -0.4202  0.5013  0.2334
 7950SOL    HW135483   1.854   1.031   3.040 -0.0942  1.0025  0.5147
 7950SOL    HW235484   1.877   1.032   3.183  2.9794  0.9379  0.2581
 7951SOL     OW35485   0.673   0.855   2.138 -0.9564 -0.0355 -0.1666
 7951SOL    HW135486   0.695   0.797   2.066 -0.3142 -1.6406  1.3263
 7951SOL    HW235487   0.761   0.875   2.169 -0.8005  0.4622 -0.9336
 7952SOL     OW35488   2.633   3.688   2.386 -1.0062  0.1817 -0.2134
 7952SOL    HW135489   2.720   3.720   2.365 -0.1243 -2.1105 -0.0964
 7952SOL    HW235490   2.621   3.672   2.480  0.2622  0.1777 -0.0544
 7953SOL     OW35491   2.298   4.550   9.271 -0.1909 -0.3985 -0.2399
 7953SOL    HW135492   2.233   4.614   9.243 -0.5042 -0.0344  1.3335
 7953SOL    HW235493   2.247   4.470   9.281 -1.1889  0.3604  0.7376
 7954SOL     OW35494   2.140   0.976   6.806 -0.0809 -0.4341  0.3690
 7954SOL    HW135495   2.086   1.013   6.736 -0.8318 -0.3259  1.0017
 7954SOL    HW235496   2.145   1.054   6.861  0.6473 -0.2213 -0.0045
 7955SOL     OW35497   2.032   2.687  17.735 -0.3553 -0.8408  0.1271
 7955SOL    HW135498   1.955   2.694   0.030  0.6521 -0.6100  1.4787
 7955SOL    HW235499   2.098   2.687   0.043  1.2235  0.4626 -1.3796
 7956SOL     OW35500   2.087   3.660   5.203  0.1153  0.5876  0.2262
 7956SOL    HW135501   2.124   3.744   5.174 -1.0749  1.1360  0.2942
 7956SOL    HW235502   2.119   3.648   5.293 -0.6556  1.7481  0.6619
 7957SOL     OW35503   2.983   0.429  12.305 -0.3894 -0.3364 -0.1337
 7957SOL    HW135504   3.051   0.493  12.326 -1.7872  0.6654  1.3369
 7957SOL    HW235505   2.977   0.387  12.391 -1.6559  0.3880  0.1134
 7958SOL     OW35506   1.114   2.486   1.802  0.3319  0.2658  0.4123
 7958SOL    HW135507   1.127   2.568   1.754 -0.1635  1.0208  1.5806
 7958SOL    HW235508   1.177   2.494   1.873 -0.5307 -1.4932  1.3666
 7959SOL     OW35509   2.836   3.244  17.095  0.2272 -0.0498 -0.4531
 7959SOL    HW135510   2.843   3.267  17.187 -1.7581  0.7553 -0.5088
 7959SOL    HW235511   2.900   3.303  17.054 -0.3257 -0.4494 -1.9137
 7960SOL     OW35512   3.742   0.240   6.033  0.4633 -0.4433  0.1552
 7960SOL    HW135513   3.749   0.177   5.961  1.5752  1.8388 -1.7039
 7960SOL    HW235514   3.817   0.295   6.012  1.7200 -1.2498  2.4395
 7961SOL     OW35515   1.943   0.447   6.850 -0.2845  0.4841 -0.2703
 7961SOL    HW135516   1.863   0.425   6.801 -1.0736  1.9214  0.3614
 7961SOL    HW235517   1.967   0.529   6.807  0.6261  0.3059 -0.1019
 7962SOL     OW35518   1.005   0.783   6.732  0.0321 -0.2011  0.1715
 7962SOL    HW135519   0.959   0.866   6.716  2.2915  1.0374  0.0246
 7962SOL    HW235520   0.984   0.789   6.825  1.9058 -2.4423  0.7292
 7963SOL     OW35521   1.901   1.406  11.808  0.4605 -0.6933 -0.1400
 7963SOL    HW135522   1.986   1.450  11.818 -0.3737  0.5076  1.6389
 7963SOL    HW235523   1.870   1.450  11.730 -0.5006 -0.8598  0.1544
 7964SOL     OW35524   4.268   3.192  11.937  0.3008 -0.6278 -0.1847
 7964SOL    HW135525   4.183   3.183  11.894  0.4669  1.3433 -0.8997
 7964SOL    HW235526   4.298   3.102  11.923 -0.9902 -1.2191  0.7958
 7965SOL     OW35527   2.294   4.621   1.296 -0.4847  0.4396  0.1863
 7965SOL    HW135528   2.280   4.700   1.244 -0.4781  0.4553  0.2083
 7965SOL    HW235529   2.339   4.566   1.231 -0.3278 -0.1417  0.7848
 7966SOL     OW35530   4.299   0.473   6.385 -0.2470 -0.3971 -0.1029
 7966SOL    HW135531   4.301   0.415   6.462  1.8834  1.1104  0.9657
 7966SOL    HW235532   4.390   0.462   6.357 -0.1985  0.8636 -0.4358
 7967SOL     OW35533   4.447   0.458   3.387  0.4331  0.0974 -0.2578
 7967SOL    HW135534   4.410   0.516   3.453 -0.1843  1.0037 -1.4037
 7967SOL    HW235535   4.464   0.532   3.330 -0.0071  0.2689 -0.1617
 7968SOL     OW35536   3.346   3.574  13.091  0.0346 -0.6885 -0.3297
 7968SOL    HW135537   3.439   3.582  13.071  0.7462  0.4841  3.4379
 7968SOL    HW235538   3.315   3.530  13.011  1.4246 -1.9966 -0.1364
 7969SOL     OW35539   1.593   3.663   9.405 -0.4705 -0.1131 -0.4001
 7969SOL    HW135540   1.550   3.738   9.446  0.3889 -0.6991  1.5786
 7969SOL    HW235541   1.586   3.599   9.476  0.1937 -1.3088 -1.4101
 7970SOL     OW35542   2.397   0.662  10.277 -0.1310  0.0817 -0.0121
 7970SOL    HW135543   2.304   0.652  10.257 -0.1642  1.2673 -0.4494
 7970SOL    HW235544   2.443   0.583  10.250  0.1119 -0.0328  0.7309
 7971SOL     OW35545   1.160   3.054   3.185 -0.5582  0.3854  0.1685
 7971SOL    HW135546   1.222   3.114   3.226 -0.5837 -0.8550  2.0256
 7971SOL    HW235547   1.140   3.104   3.106  1.8729  0.3040 -0.4771
 7972SOL     OW35548   2.232   3.620   3.345  0.4856  0.6837  0.2321
 7972SOL    HW135549   2.298   3.562   3.382 -0.9602 -2.2659 -1.8507
 7972SOL    HW235550   2.187   3.655   3.422 -1.5522 -1.6520  0.0953
 7973SOL     OW35551   1.188   4.151   1.692  0.0541 -0.3057 -0.7699
 7973SOL    HW135552   1.095   4.174   1.703 -0.2300 -1.7118 -0.2490
 7973SOL    HW235553   1.189   4.066   1.649  1.1599 -0.8509  0.3561
 7974SOL     OW35554   3.782   4.062  11.287  0.4734 -0.5838 -0.0319
 7974SOL    HW135555   3.755   3.993  11.347 -1.8567  0.0928 -0.3295
 7974SOL    HW235556   3.717   4.044  11.220 -1.5219 -1.2402  2.0681
 7975SOL     OW35557   0.533   1.756   2.095  0.1055 -0.3315 -0.0239
 7975SOL    HW135558   0.565   1.684   2.041  0.0082 -0.7990  0.5398
 7975SOL    HW235559   0.483   1.714   2.164  1.3593 -1.1964  0.3629
 7976SOL     OW35560   1.761   4.139  13.269  0.4492 -0.1222  0.7298
 7976SOL    HW135561   1.676   4.122  13.309  0.6817  0.9059  1.6515
 7976SOL    HW235562   1.749   4.094  13.185  1.5600  0.0341  0.4847
 7977SOL     OW35563   1.042   1.462  11.015  0.0422 -0.6438 -0.4715
 7977SOL    HW135564   1.074   1.424  10.933  1.4336 -0.0815 -0.1888
 7977SOL    HW235565   1.043   1.389  11.077 -2.8738 -0.5820 -0.3543
 7978SOL     OW35566   1.042   3.647   8.521  0.3500  0.1662 -0.5778
 7978SOL    HW135567   1.098   3.595   8.462 -2.3257 -1.0722 -2.0085
 7978SOL    HW235568   0.961   3.608   8.491 -0.9049  1.0269  1.7163
 7979SOL     OW35569   0.131   3.524   7.380  0.1876  0.5998 -0.1924
 7979SOL    HW135570   0.186   3.529   7.301  2.2484  3.3622  1.4261
 7979SOL    HW235571   0.117   3.618   7.395  0.7699  0.7928 -0.8549
 7980SOL     OW35572   0.549   0.072  15.531 -0.1585 -0.7204 -0.0276
 7980SOL    HW135573   0.486   0.143  15.539  1.5260  0.8561 -0.7580
 7980SOL    HW235574   0.553   0.051  15.625  1.7476 -0.7085 -0.1002
 7981SOL     OW35575   4.272   3.886   3.274  0.6248 -0.2231 -0.6126
 7981SOL    HW135576   4.354   3.866   3.319  1.5583  0.4627 -2.0181
 7981SOL    HW235577   4.263   3.981   3.283 -1.4404 -0.6419  1.8199
 7982SOL     OW35578   1.807   4.643   0.755 -0.3103 -0.1588  0.3585
 7982SOL    HW135579   1.748   4.672   0.823 -1.5472 -1.3697 -0.1909
 7982SOL    HW235580   1.833   4.726   0.716 -2.1142  0.4287  0.4131
 7983SOL     OW35581   1.350   1.824   9.636  0.3793  0.1874 -0.0200
 7983SOL    HW135582   1.420   1.861   9.689 -0.4105  0.7129  0.6394
 7983SOL    HW235583   1.362   1.729   9.643  1.2902  0.1899 -1.4049
 7984SOL     OW35584   1.968   1.323  14.542  0.0334  0.4333 -0.0548
 7984SOL    HW135585   2.036   1.260  14.564  1.2079  1.3134 -1.1848
 7984SOL    HW235586   1.963   1.325  14.446 -0.7023  0.6149 -0.0135
 7985SOL     OW35587   1.634   1.416   3.625  0.4067  0.3036 -0.0960
 7985SOL    HW135588   1.692   1.484   3.658  0.4252 -0.1377  0.7869
 7985SOL    HW235589   1.653   1.338   3.677  2.7902  2.4232  2.2015
 7986SOL     OW35590   3.590   0.984   5.447  0.2313 -0.1430  0.3610
 7986SOL    HW135591   3.531   0.964   5.374  2.2121 -1.1727 -0.9401
 7986SOL    HW235592   3.626   1.061   5.404 -0.7787 -0.2262 -0.6673
 7987SOL     OW35593   4.144   1.869   8.072  0.4251  0.1770  0.6565
 7987SOL    HW135594   4.210   1.886   8.006  0.6807 -0.2404  0.8027
 7987SOL    HW235595   4.110   1.955   8.096 -1.2576 -1.5339  4.4935
 7988SOL     OW35596   4.604   4.657   4.203  0.1437  0.3230 -0.2985
 7988SOL    HW135597   4.634   0.001   4.171 -0.4625  0.0104 -1.7040
 7988SOL    HW235598   4.513   4.669   4.175  0.0797  0.2579 -0.1223
 7989SOL     OW35599   1.325   4.370   4.609 -0.4205  0.4600 -0.4676
 7989SOL    HW135600   1.301   4.334   4.695 -1.0289 -0.0344 -0.8458
 7989SOL    HW235601   1.256   4.350   4.546  0.8414 -2.1501 -1.0230
 7990SOL     OW35602   1.624   0.204   4.174  0.7597  0.4296  0.4966
 7990SOL    HW135603   1.641   0.164   4.260 -1.1343 -1.4883 -0.0327
 7990SOL    HW235604   1.704   0.257   4.171  2.1864 -1.7656 -0.5385
 7991SOL     OW35605   4.527   4.168  10.539  0.4519 -0.1422  0.3138
 7991SOL    HW135606   4.572   4.194  10.458 -1.0747  2.5753  0.3486
 7991SOL    HW235607   4.502   4.076  10.527 -1.2068  0.3338  0.2525
 7992SOL     OW35608   2.223   4.122   5.127 -0.1701  0.2572  0.4457
 7992SOL    HW135609   2.219   4.074   5.210  0.2971 -1.5293 -0.5534
 7992SOL    HW235610   2.146   4.177   5.130 -2.4421 -2.7762 -1.6601
 7993SOL     OW35611   2.437   3.502   8.291 -0.1875  0.1291  0.1813
 7993SOL    HW135612   2.478   3.419   8.267 -0.3844  0.4958 -1.4071
 7993SOL    HW235613   2.498   3.537   8.356 -1.2806 -2.0951  2.4056
 7994SOL     OW35614   2.110   2.075  16.071 -0.3830 -0.0630 -0.2711
 7994SOL    HW135615   2.151   2.020  16.005  1.5241 -0.3136  1.1193
 7994SOL    HW235616   2.182   2.123  16.112 -1.2234 -1.1168  2.4507
 7995SOL     OW35617   2.335   4.021   4.088  0.1032 -0.8376 -0.3333
 7995SOL    HW135618   2.371   4.031   4.177  0.9767 -1.6243 -0.6000
 7995SOL    HW235619   2.306   4.111   4.072 -2.3876 -1.5125  0.4028
 7996SOL     OW35620   1.493   2.484   6.046 -0.0844 -0.7370 -0.0457
 7996SOL    HW135621   1.583   2.451   6.049 -0.2649 -1.1502  0.7243
 7996SOL    HW235622   1.482   2.521   5.958  0.2164  1.1131  0.6928
 7997SOL     OW35623   1.707   3.980   5.796  0.1275 -0.1590 -0.4051
 7997SOL    HW135624   1.719   4.035   5.719 -0.3073  0.7099  0.1530
 7997SOL    HW235625   1.623   4.007   5.833  0.5861  2.7596 -1.5338
 7998SOL     OW35626   4.612   3.659  16.370  0.2435 -0.3616  0.4462
 7998SOL    HW135627   4.674   3.587  16.370  3.4938  2.4696  1.0759
 7998SOL    HW235628   4.589   3.671  16.462 -0.9862 -1.0026  0.2261
 7999SOL     OW35629   3.921   4.341  12.190  0.2836 -0.2505  0.1962
 7999SOL    HW135630   3.866   4.300  12.123  1.9226  0.1107 -1.3727
 7999SOL    HW235631   3.858   4.412  12.205 -1.1530 -1.4362 -0.2559
 8000SOL     OW35632   4.128   0.259  11.823  0.5052  0.5841 -0.1044
 8000SOL    HW135633   4.127   0.311  11.742 -0.1391 -0.1878 -0.5907
 8000SOL    HW235634   4.036   0.234  11.818  0.8153 -0.6895  0.6529
 8001SOL     OW35635   2.738   0.897   2.296 -0.6852 -0.0142  0.4226
 8001SOL    HW135636   2.719   0.982   2.256 -3.4871 -1.0797 -0.5134
 8001SOL    HW235637   2.833   0.907   2.292 -0.9589  1.8280 -1.7179
 8002SOL     OW35638   2.227   2.561   4.024 -0.1990  0.3041 -0.3898
 8002SOL    HW135639   2.318   2.541   4.045 -0.3379 -0.7640 -0.7938
 8002SOL    HW235640   2.201   2.609   4.103  1.8708  3.6341 -1.7264
 8003SOL     OW35641   1.639   4.629   5.693 -0.0724 -0.0830  0.3188
 8003SOL    HW135642   1.671   4.642   5.604  0.1482 -0.2535  0.3730
 8003SOL    HW235643   1.650   4.713   5.737  2.0284 -0.2040  0.0295
 8004SOL     OW35644   2.727   2.373   8.014 -0.8331  0.1953  0.0439
 8004SOL    HW135645   2.782   2.406   8.085  0.0817 -0.7172 -0.2343
 8004SOL    HW235646   2.753   2.281   8.021 -0.4772  0.1369 -1.9992
 8005SOL     OW35647   3.672   4.384   9.046 -0.1733 -0.3082  0.5518
 8005SOL    HW135648   3.698   4.301   9.085 -0.5233 -0.4968  0.3916
 8005SOL    HW235649   3.653   4.340   8.963 -0.0814 -1.7239  1.2817
 8006SOL     OW35650   2.670   2.078  10.605  0.8387  0.1809 -0.0769
 8006SOL    HW135651   2.613   2.043  10.673  0.5348  3.9059  1.5868
 8006SOL    HW235652   2.706   1.997  10.569 -0.3181  0.1018 -1.0851
 8007SOL     OW35653   1.028   1.729  10.964 -0.1341 -0.0557 -0.0066
 8007SOL    HW135654   0.975   1.745  11.043 -2.3146 -2.8809 -0.9053
 8007SOL    HW235655   1.048   1.636  10.976  2.6299  0.8457  2.2167
 8008SOL     OW35656   1.654   0.153  11.536 -0.4826 -0.2316  0.3529
 8008SOL    HW135657   1.739   0.127  11.500 -0.7197 -0.3085 -0.1571
 8008SOL    HW235658   1.610   0.076  11.501  0.0957 -0.5226  0.2767
 8009SOL     OW35659   1.074   3.321   4.859  0.5890  0.0417  0.3543
 8009SOL    HW135660   1.032   3.375   4.926 -0.7258 -1.5667  0.8411
 8009SOL    HW235661   1.050   3.229   4.872 -0.2281  0.0241 -1.2006
 8010SOL     OW35662   4.024   3.799   4.681 -0.3937 -0.1652 -0.3679
 8010SOL    HW135663   3.998   3.707   4.682 -1.6440  0.1795 -0.6904
 8010SOL    HW235664   4.030   3.832   4.770 -1.2231  0.9814 -0.7360
 8011SOL     OW35665   3.489   1.791   7.520  0.2324 -0.2621 -0.0052
 8011SOL    HW135666   3.421   1.727   7.542  0.8188 -0.3069  1.6635
 8011SOL    HW235667   3.504   1.774   7.426 -1.3789  2.3467 -0.7205
 8012SOL     OW35668   0.699   1.764   7.812  0.4637 -0.2113  0.0807
 8012SOL    HW135669   0.673   1.855   7.798 -0.7245 -0.6029 -0.2858
 8012SOL    HW235670   0.629   1.728   7.756 -0.5973 -0.4422  1.5665
 8013SOL     OW35671   3.083   2.456   7.710  0.3665 -0.0829 -0.0495
 8013SOL    HW135672   2.992   2.487   7.709  0.5075  0.3358  0.7155
 8013SOL    HW235673   3.129   2.533   7.742  0.0384 -0.2062  0.7127
 8014SOL     OW35674   3.696   3.890   6.120  0.1767  0.1765 -0.1307
 8014SOL    HW135675   3.686   3.799   6.093 -0.6815  0.5261 -0.9946
 8014SOL    HW235676   3.627   3.945   6.082  0.1410 -0.4236 -0.9395
 8015SOL     OW35677   1.256   1.660   2.928  0.0294 -0.1138  0.4335
 8015SOL    HW135678   1.320   1.727   2.948  1.3168 -1.5199  1.0125
 8015SOL    HW235679   1.311   1.587   2.900 -0.3325 -0.1745 -0.1371
 8016SOL     OW35680   1.379   3.129   2.433 -0.0962  0.2611 -0.6675
 8016SOL    HW135681   1.468   3.094   2.425 -0.5900 -0.5931 -2.3899
 8016SOL    HW235682   1.333   3.072   2.495  0.9542 -0.7925 -0.8655
 8017SOL     OW35683   4.448   4.154   9.482  0.2040 -0.5841  0.1639
 8017SOL    HW135684   4.389   4.086   9.448  0.8326 -0.3352 -1.4053
 8017SOL    HW235685   4.480   4.187   9.398  1.1967 -1.5979  0.1427
 8018SOL     OW35686   1.200   2.315   2.912 -0.1960  1.0617 -0.2663
 8018SOL    HW135687   1.175   2.298   2.821  0.7470  0.5431 -0.4261
 8018SOL    HW235688   1.243   2.234   2.937 -2.2642 -0.3587 -1.3740
 8019SOL     OW35689   0.435   1.432  17.256  0.8445  0.0697 -0.3645
 8019SOL    HW135690   0.407   1.508  17.205  0.5834  0.8870  1.0043
 8019SOL    HW235691   0.517   1.410  17.212  0.2702 -0.8135 -1.0008
 8020SOL     OW35692   2.721   0.829  10.602 -0.0369  0.4216  0.5203
 8020SOL    HW135693   2.677   0.793  10.525  1.3449 -1.0965  0.4406
 8020SOL    HW235694   2.741   0.750  10.651 -1.3306 -1.2302 -1.6056
 8021SOL     OW35695   1.544   1.950  13.575  0.5833  0.0757  0.1452
 8021SOL    HW135696   1.593   1.976  13.497 -1.3584 -0.3589 -1.2007
 8021SOL    HW235697   1.455   1.983  13.564 -0.4578 -2.0019  2.2261
 8022SOL     OW35698   3.052   0.872   2.286 -0.5125  0.0584 -0.4239
 8022SOL    HW135699   3.082   0.906   2.202  2.2546  0.1038  0.5517
 8022SOL    HW235700   3.050   0.948   2.344 -0.5260 -0.2875  0.0260
 8023SOL     OW35701   1.271   0.149   0.344 -0.1752  0.0041  0.3486
 8023SOL    HW135702   1.213   0.093   0.395  0.1809  0.9787  1.8165
 8023SOL    HW235703   1.308   0.208   0.410 -1.1082  0.2970  0.5991
 8024SOL     OW35704   3.581   0.948   7.803 -0.0208 -0.0248  0.1557
 8024SOL    HW135705   3.567   0.876   7.741  1.1766  0.8708 -1.1757
 8024SOL    HW235706   3.577   1.028   7.749  4.2576 -0.5358 -0.9065
 8025SOL     OW35707   2.119   3.105   2.532  0.2887  0.0951  0.1463
 8025SOL    HW135708   2.151   3.047   2.601 -2.6427 -0.0458  1.3942
 8025SOL    HW235709   2.094   3.189   2.570 -0.0658  0.1830 -0.2818
 8026SOL     OW35710   0.911   2.046   1.827 -0.3512 -0.0071  0.2312
 8026SOL    HW135711   0.914   2.106   1.753  2.3127  0.8110  0.9954
 8026SOL    HW235712   0.896   2.107   1.899 -1.5909 -1.3479  1.1077
 8027SOL     OW35713   2.311   0.578   4.689  0.2677 -0.0667  0.0491
 8027SOL    HW135714   2.315   0.634   4.766 -0.2349  2.1115 -1.4973
 8027SOL    HW235715   2.327   0.648   4.625  1.8497 -0.5338 -0.0551
 8028SOL     OW35716   0.303   4.555  14.639  0.4611  0.3356 -0.4632
 8028SOL    HW135717   0.347   4.471  14.652 -0.0427  0.0766 -0.4109
 8028SOL    HW235718   0.324   4.589  14.726 -1.0226 -1.3720  0.5564
 8029SOL     OW35719   3.891   0.470  16.716  0.0422 -0.7933 -0.7029
 8029SOL    HW135720   3.815   0.527  16.716  1.8722  1.6429 -0.9436
 8029SOL    HW235721   3.894   0.422  16.633  1.4020 -0.3619 -0.9123
 8030SOL     OW35722   2.680   0.660   1.967  0.0206  0.5552 -0.3462
 8030SOL    HW135723   2.605   0.719   1.955  1.2538  1.4718 -3.5485
 8030SOL    HW235724   2.751   0.716   1.933 -0.5190 -0.1321 -2.6099
 8031SOL     OW35725   0.572   4.583  13.445  0.0344 -0.1520 -0.6676
 8031SOL    HW135726   0.601   4.651  13.385 -1.6212  0.5968 -0.6275
 8031SOL    HW235727   0.613   4.507  13.405  0.2801 -0.2344 -0.2599
 8032SOL     OW35728   2.136   4.402   4.909  0.7633  0.0460 -0.4488
 8032SOL    HW135729   2.143   4.497   4.920 -0.1218  0.1757 -1.0459
 8032SOL    HW235730   2.080   4.409   4.832 -1.3537 -0.4818  1.0597
 8033SOL     OW35731   3.259   4.486   9.505 -0.3218 -0.2532  0.0526
 8033SOL    HW135732   3.198   4.421   9.541  0.4174 -1.3829 -0.7256
 8033SOL    HW235733   3.337   4.478   9.559  1.3812  2.3715 -2.0159
 8034SOL     OW35734   0.542   2.250   8.502  0.1004 -0.0524 -0.4500
 8034SOL    HW135735   0.577   2.170   8.462  1.7437 -0.2006  1.2600
 8034SOL    HW235736   0.593   2.253   8.583 -1.0200  0.5286  0.2345
 8035SOL     OW35737   2.758   0.091   1.619  0.4387 -0.1829 -0.4023
 8035SOL    HW135738   2.822   0.142   1.570  0.4966 -0.9606 -1.1249
 8035SOL    HW235739   2.796   0.102   1.707  0.5823 -1.1141 -0.3462
 8036SOL     OW35740   4.278   4.352   7.710 -0.0531  0.7043  0.1435
 8036SOL    HW135741   4.196   4.308   7.688  0.0978  0.1342  0.7143
 8036SOL    HW235742   4.342   4.300   7.662 -1.1281 -2.1219  1.7733
 8037SOL     OW35743   3.012   1.281   1.126  0.5609  0.1058  0.0066
 8037SOL    HW135744   3.092   1.264   1.075  1.2627  1.5297  0.6295
 8037SOL    HW235745   3.044   1.360   1.169 -2.7013  1.3099  0.2176
 8038SOL     OW35746   3.383   1.471   5.893 -0.2985 -0.3250 -0.4073
 8038SOL    HW135747   3.333   1.451   5.973  1.7352  0.4529  1.0616
 8038SOL    HW235748   3.339   1.407   5.837  2.6258 -2.8416  0.1886
 8039SOL     OW35749   0.191   1.805  13.844  0.2446  0.2783  0.2343
 8039SOL    HW135750   0.189   1.718  13.884 -0.9103  0.0060 -0.3985
 8039SOL    HW235751   0.271   1.788  13.794 -0.1847  0.6901 -0.5885
 8040SOL     OW35752   3.470   4.343   9.638 -0.6713 -0.4415  0.1863
 8040SOL    HW135753   3.555   4.386   9.626 -1.2098  1.0254  1.6826
 8040SOL    HW235754   3.467   4.323   9.731  1.9811 -0.7249  0.1993
 8041SOL     OW35755   1.349   0.874   2.894  0.0066  0.9360 -0.0636
 8041SOL    HW135756   1.423   0.919   2.933  1.5712 -0.6691 -1.2028
 8041SOL    HW235757   1.286   0.946   2.896  0.2171  1.0645  1.8740
 8042SOL     OW35758   1.590   0.463   7.977 -0.8271 -0.1424  0.2109
 8042SOL    HW135759   1.653   0.525   7.940 -2.1577  0.9504 -0.2560
 8042SOL    HW235760   1.630   0.456   8.063 -1.3262 -0.6450  0.4021
 8043SOL     OW35761   4.267   4.466   9.412  0.5423  0.0385  0.1843
 8043SOL    HW135762   4.274   4.538   9.350 -1.2155 -1.3811 -1.6356
 8043SOL    HW235763   4.199   4.415   9.367  0.5414  0.1960  0.0066
 8044SOL     OW35764   0.857   1.951   0.844 -0.6573 -0.5902  0.3494
 8044SOL    HW135765   0.851   1.934   0.938 -0.3838 -1.8204  0.1426
 8044SOL    HW235766   0.778   1.911   0.807 -1.1717  1.6929 -1.0324
 8045SOL     OW35767   0.081   2.306  13.781  0.5849 -0.2667  0.2826
 8045SOL    HW135768   0.063   2.213  13.798 -1.0127 -0.1636 -0.8261
 8045SOL    HW235769   0.176   2.300  13.768  0.4005  3.8461 -2.8730
 8046SOL     OW35770   2.834   1.492  11.273  0.4793  0.0103  0.0296
 8046SOL    HW135771   2.834   1.397  11.288 -2.8251 -0.2355 -1.4285
 8046SOL    HW235772   2.926   1.511  11.257  1.1414 -0.9522  2.7772
 8047SOL     OW35773   1.333   0.573   8.069 -0.4231 -0.1683  0.1539
 8047SOL    HW135774   1.402   0.512   8.044  0.0577 -0.4778  2.2714
 8047SOL    HW235775   1.373   0.613   8.146  0.5599 -0.0073 -0.4408
 8048SOL     OW35776   2.146   1.167   7.005 -0.1242  0.3004 -0.0061
 8048SOL    HW135777   2.161   1.258   7.030  0.4077 -0.5352  2.6555
 8048SOL    HW235778   2.061   1.157   7.048 -0.5458 -0.2157 -0.9488
 8049SOL     OW35779   0.315   4.674   4.035  0.0196  0.1489  0.1553
 8049SOL    HW135780   0.384   4.622   3.995 -0.2928 -0.4647  0.4258
 8049SOL    HW235781   0.260   4.603   4.068  1.7061 -1.1244  0.2187
 8050SOL     OW35782   2.518   4.256   1.703  0.8483  0.6054 -0.1541
 8050SOL    HW135783   2.466   4.247   1.783 -0.1810 -1.3945 -1.0509
 8050SOL    HW235784   2.600   4.294   1.734  0.7945  1.9861 -1.6910
 8051SOL     OW35785   1.625   4.661   3.631  0.5431 -0.2714  0.3576
 8051SOL    HW135786   1.712   4.639   3.599  1.5961  3.5464  0.6302
 8051SOL    HW235787   1.617   0.011   3.602 -2.3336 -0.5770  0.1421
 8052SOL     OW35788   1.162   3.779   8.710 -0.3754  0.3668  0.2697
 8052SOL    HW135789   1.162   3.695   8.756 -1.6701 -0.0331 -0.4613
 8052SOL    HW235790   1.092   3.753   8.650  0.7755  0.1686 -0.9782
 8053SOL     OW35791   3.585   3.081   9.981  0.4257  0.3729 -0.4507
 8053SOL    HW135792   3.538   3.015   9.930  0.7869  0.7351 -1.2549
 8053SOL    HW235793   3.539   3.080  10.065 -0.5212 -1.2848 -0.9838
 8054SOL     OW35794   2.817   0.825   4.101 -0.7120 -0.6532 -0.2114
 8054SOL    HW135795   2.770   0.905   4.124  0.6864  0.3029 -0.6509
 8054SOL    HW235796   2.773   0.753   4.146 -1.7791 -0.4088 -0.8755
 8055SOL     OW35797   0.272   3.764   2.006  0.2329 -0.5540 -0.1170
 8055SOL    HW135798   0.273   3.804   2.093 -2.5256  0.6266 -0.6090
 8055SOL    HW235799   0.184   3.770   1.969 -0.4332 -3.0219  1.1077
 8056SOL     OW35800   4.501   2.393   0.711  0.4466 -0.0234  0.1186
 8056SOL    HW135801   4.581   2.363   0.668  0.5472  1.5965 -0.8034
 8056SOL    HW235802   4.463   2.442   0.639  0.1966  0.2724  0.4513
 8057SOL     OW35803   1.457   4.179   4.152  0.8991  0.4941  0.1870
 8057SOL    HW135804   1.445   4.274   4.161  1.5396  0.7255 -1.3854
 8057SOL    HW235805   1.544   4.177   4.194  0.7093  3.9988  0.7706
 8058SOL     OW35806   1.843   1.382   9.742  0.0580 -0.2397 -0.5106
 8058SOL    HW135807   1.846   1.474   9.768  0.0744 -0.1078 -0.9913
 8058SOL    HW235808   1.935   1.361   9.761 -0.2159  2.4115  3.7757
 8059SOL     OW35809   4.481   1.477   8.822 -0.1458 -0.5095 -0.3991
 8059SOL    HW135810   4.568   1.474   8.782  0.2206  3.5284  0.0935
 8059SOL    HW235811   4.459   1.384   8.815 -0.0520 -0.4593 -1.3001
 8060SOL     OW35812   0.499   0.010   7.641 -0.4070  0.1184  0.4206
 8060SOL    HW135813   0.428   4.695   7.609  0.9097 -2.0199  1.2634
 8060SOL    HW235814   0.501   4.731   7.734 -0.6894 -0.8687  0.2162
 8061SOL     OW35815   4.073   4.370   2.870  0.2658  0.1201 -0.2740
 8061SOL    HW135816   4.099   4.454   2.910  0.9613  0.0011 -0.4750
 8061SOL    HW235817   4.158   4.350   2.832 -0.0571  0.6730 -1.2776
 8062SOL     OW35818   3.554   3.052   7.287 -0.3076 -0.4896  0.0216
 8062SOL    HW135819   3.612   3.077   7.360 -1.4870 -2.6642  1.7163
 8062SOL    HW235820   3.614   3.034   7.215 -1.6470 -0.0777 -1.1721
 8063SOL     OW35821   3.831   0.975   4.468 -0.1130  0.3683 -0.2614
 8063SOL    HW135822   3.913   1.003   4.509 -0.7738  1.7204  0.1171
 8063SOL    HW235823   3.803   0.923   4.543  0.9086  0.4960  0.2002
 8064SOL     OW35824   2.701   2.180   1.643  0.4059 -0.0542 -0.0085
 8064SOL    HW135825   2.707   2.211   1.733 -0.7315 -0.0415  0.0652
 8064SOL    HW235826   2.611   2.202   1.619 -0.0293 -0.5374  1.1649
 8065SOL     OW35827   0.739   0.308   2.437 -0.5907  0.1856 -0.3386
 8065SOL    HW135828   0.705   0.394   2.462 -1.9020 -0.6450  0.7000
 8065SOL    HW235829   0.771   0.327   2.349  1.5164  1.5884  0.7210
 8066SOL     OW35830   3.100   4.079   6.092 -0.0828 -0.7685 -0.5918
 8066SOL    HW135831   3.109   3.992   6.131 -1.1226  0.3856  2.1930
 8066SOL    HW235832   3.148   4.065   6.010 -1.4920 -2.0785 -1.2053
 8067SOL     OW35833   3.252   2.418   4.583 -0.2047 -0.0802 -0.1859
 8067SOL    HW135834   3.310   2.390   4.512 -1.9685 -1.5148 -1.0536
 8067SOL    HW235835   3.163   2.396   4.557 -0.1963 -1.1226  0.6749
 8068SOL     OW35836   0.064   1.228   3.568 -0.7164  0.7310 -0.2037
 8068SOL    HW135837   4.711   1.236   3.585 -0.7123  1.2167 -0.4152
 8068SOL    HW235838   0.064   1.180   3.485  1.0669 -1.6906  1.2018
 8069SOL     OW35839   2.524   2.286   0.846  0.5592  0.2803  0.0223
 8069SOL    HW135840   2.508   2.343   0.770  2.2793  1.4574  0.5403
 8069SOL    HW235841   2.613   2.251   0.837  0.3620  0.0818 -1.2638
 8070SOL     OW35842   2.816   0.982  14.067  0.2423  0.2508 -0.5864
 8070SOL    HW135843   2.761   0.904  14.081  2.0666 -0.7065  1.2663
 8070SOL    HW235844   2.828   0.989  13.973 -2.5870  2.4961 -0.7901
 8071SOL     OW35845   0.765   0.239   9.756  0.2343 -0.3346 -0.1915
 8071SOL    HW135846   0.852   0.259   9.791 -1.3519 -0.5062  3.7662
 8071SOL    HW235847   0.769   0.285   9.671  2.3019  0.7763  0.4908
 8072SOL     OW35848   1.678   0.057   6.552 -0.0305 -0.4455 -0.6571
 8072SOL    HW135849   1.690   0.141   6.509 -1.8420 -0.0296 -0.3145
 8072SOL    HW235850   1.593   0.029   6.519  0.3083 -3.7720  1.2348
 8073SOL     OW35851   1.124   3.944  17.558  0.2301 -0.1591  0.7260
 8073SOL    HW135852   1.061   3.894  17.609 -0.3588 -0.2336 -0.0784
 8073SOL    HW235853   1.071   3.974  17.484 -0.8157 -1.6137  0.9018
 8074SOL     OW35854   1.614   1.607  17.430 -0.1559 -0.1134  0.4622
 8074SOL    HW135855   1.647   1.695  17.413  1.4354 -0.3449  2.2895
 8074SOL    HW235856   1.689   1.567  17.386 -0.9338 -2.4855  1.2933
 8075SOL     OW35857   1.954   1.926  12.549  0.2805  0.0766 -0.2219
 8075SOL    HW135858   1.891   1.997  12.539 -0.6819 -0.6976  0.2901
 8075SOL    HW235859   1.986   1.922  12.459 -1.0699 -0.6868 -0.6792
 8076SOL     OW35860   3.133   1.772  13.199  0.0179  0.2392 -0.3216
 8076SOL    HW135861   3.154   1.840  13.262 -0.3559  0.1907 -0.1506
 8076SOL    HW235862   3.058   1.808  13.152  0.5984  0.3759 -1.1493
 8077SOL     OW35863   3.365   0.760   4.110 -0.0400 -0.0451  0.2244
 8077SOL    HW135864   3.269   0.763   4.112 -0.0093  1.0289 -0.3835
 8077SOL    HW235865   3.390   0.836   4.058 -1.9873  1.2751  1.2092
 8078SOL     OW35866   3.633   2.036   8.889 -0.3029  0.0358 -0.1914
 8078SOL    HW135867   3.652   1.960   8.944  1.6957 -1.6769 -3.2438
 8078SOL    HW235868   3.619   1.999   8.802 -1.9153  0.7358 -0.2315
 8079SOL     OW35869   2.418   3.429   7.382  0.6544 -0.0068  0.5574
 8079SOL    HW135870   2.432   3.475   7.299 -1.0177  0.0534  0.3132
 8079SOL    HW235871   2.400   3.336   7.369 -1.7224  0.2488  2.0641
 8080SOL     OW35872   3.416   4.022   3.751 -0.3256 -0.3610  0.7431
 8080SOL    HW135873   3.461   4.088   3.698  1.6031 -2.5698 -0.4013
 8080SOL    HW235874   3.345   3.996   3.691 -0.1029  0.7836 -0.0097
 8081SOL     OW35875   1.912   2.389   3.035 -0.4340 -0.3015  0.7349
 8081SOL    HW135876   1.945   2.456   3.096  1.4758  0.9732 -1.6724
 8081SOL    HW235877   1.825   2.401   3.072 -0.2191  0.2287  1.0741
 8082SOL     OW35878   1.919   0.286  15.747 -0.1446 -0.6825  0.2398
 8082SOL    HW135879   1.831   0.255  15.724  0.7687 -2.4891 -0.8149
 8082SOL    HW235880   1.952   0.212  15.797 -0.4236  0.9408  2.8243
 8083SOL     OW35881   0.124   2.667  17.243  0.0395 -0.4735  0.7377
 8083SOL    HW135882   0.135   2.690  17.335 -1.5473 -0.5846  0.9549
 8083SOL    HW235883   0.137   2.573  17.256 -1.8433 -0.6727  1.2061
 8084SOL     OW35884   1.039   2.427   2.653  0.0438 -0.0441 -0.9125
 8084SOL    HW135885   0.987   2.349   2.633  1.7798 -1.2089 -0.9443
 8084SOL    HW235886   0.993   2.502   2.616  2.6034  1.8188 -0.3703
 8085SOL     OW35887   1.679   2.678   4.561 -0.0966  0.1421 -0.5969
 8085SOL    HW135888   1.690   2.604   4.502 -0.0670  0.7662 -1.3634
 8085SOL    HW235889   1.653   2.630   4.640 -0.7545  0.5167 -0.5800
 8086SOL     OW35890   3.444   4.107   2.815  0.3720  0.4852 -0.7035
 8086SOL    HW135891   3.440   4.057   2.897 -0.1892  1.3066 -0.2328
 8086SOL    HW235892   3.379   4.175   2.831 -0.0519  0.2145 -1.2566
 8087SOL     OW35893   4.000   3.161   2.112  0.0949 -0.5154 -0.4159
 8087SOL    HW135894   3.973   3.160   2.203 -0.0096 -0.3075 -0.4448
 8087SOL    HW235895   3.940   3.222   2.069  0.9174  0.8692  0.3894
 8088SOL     OW35896   3.798   2.095   2.930  0.7967 -0.2816 -0.2175
 8088SOL    HW135897   3.841   2.020   2.889  0.0617  0.2685 -1.9914
 8088SOL    HW235898   3.832   2.162   2.870  2.3032  0.4401  1.4648
 8089SOL     OW35899   3.244   1.899   7.042 -0.0070  0.2701  0.3174
 8089SOL    HW135900   3.204   1.981   7.015  0.5199  0.5304  0.3291
 8089SOL    HW235901   3.321   1.899   6.984 -0.1178 -1.4719  0.1472
 8090SOL     OW35902   1.049   2.720   6.257  0.4217 -0.1872  0.0436
 8090SOL    HW135903   0.976   2.701   6.199  1.6273 -1.8346 -0.9397
 8090SOL    HW235904   1.115   2.669   6.210  1.0223 -0.1237  0.8035
 8091SOL     OW35905   3.076   3.656  13.542  0.7821  0.5346  0.2000
 8091SOL    HW135906   3.102   3.606  13.465  3.3923  0.9733  0.8270
 8091SOL    HW235907   3.154   3.678  13.592 -0.5040  0.3284  2.3344
 8092SOL     OW35908   1.420   0.311   8.313  0.2688  0.3996  0.4281
 8092SOL    HW135909   1.487   0.379   8.314  0.2174  0.4390  1.0185
 8092SOL    HW235910   1.363   0.343   8.382 -0.9790 -2.1374  0.5732
 8093SOL     OW35911   1.689   2.943   3.235 -0.2159 -0.2746  0.3265
 8093SOL    HW135912   1.618   2.881   3.216 -0.0340 -0.6762  0.9488
 8093SOL    HW235913   1.700   2.967   3.144  0.0077  1.1095  0.7208
 8094SOL     OW35914   2.135   4.548   2.012 -0.2268 -0.3533  0.1966
 8094SOL    HW135915   2.212   4.554   1.954 -0.4352 -1.7231 -0.2266
 8094SOL    HW235916   2.168   4.604   2.082  0.1613  0.6818 -0.8117
 8095SOL     OW35917   0.763   2.501   7.895  0.1527 -0.3766  0.7263
 8095SOL    HW135918   0.784   2.590   7.866  0.2322 -0.7933 -0.4498
 8095SOL    HW235919   0.673   2.514   7.927 -0.0897 -0.3709  0.0321
 8096SOL     OW35920   2.196   0.814  17.237  0.4737 -0.5063  0.1735
 8096SOL    HW135921   2.261   0.868  17.192 -0.7552  1.2859  0.5949
 8096SOL    HW235922   2.249   0.798  17.315 -2.4414  0.1491  2.2754
 8097SOL     OW35923   3.451   1.177  10.889  0.1235 -0.1578 -0.3601
 8097SOL    HW135924   3.425   1.213  10.804 -2.1281 -1.2775 -0.1495
 8097SOL    HW235925   3.453   1.082  10.877 -1.6858 -0.4884  1.8843
 8098SOL     OW35926   1.411   4.151   8.286 -0.3411 -0.1269 -0.1431
 8098SOL    HW135927   1.428   4.136   8.379 -0.3955  1.7655  0.1610
 8098SOL    HW235928   1.459   4.233   8.272  0.3054 -0.3236  0.9166
 8099SOL     OW35929   4.100   4.437   3.686  0.4023 -0.1000 -0.0484
 8099SOL    HW135930   4.114   4.409   3.776  1.8642 -1.7194 -0.7834
 8099SOL    HW235931   4.033   4.504   3.699 -0.8459 -1.2466 -0.5705
 8100SOL     OW35932   3.749   1.650   1.847  0.3686  0.3110  0.2716
 8100SOL    HW135933   3.683   1.581   1.854 -0.2086  0.7327 -1.1121
 8100SOL    HW235934   3.790   1.618   1.767 -2.7016 -1.6870 -0.5017
 8101SOL     OW35935   4.580   2.086  12.417 -0.6206  0.5475  0.5857
 8101SOL    HW135936   4.492   2.098  12.452  0.3070  1.8816  2.4203
 8101SOL    HW235937   4.623   2.171  12.419 -1.3933  0.9413  0.1939
 8102SOL     OW35938   1.766   4.009   7.289 -0.0887  0.2053 -0.0596
 8102SOL    HW135939   1.773   4.052   7.204  0.0487 -3.7536 -2.0814
 8102SOL    HW235940   1.743   3.916   7.276 -1.0153  0.1733  1.9172
 8103SOL     OW35941   0.447   4.620   2.610  0.0330 -0.6955 -0.0668
 8103SOL    HW135942   0.409   4.708   2.601 -0.8484 -1.0507  0.2195
 8103SOL    HW235943   0.448   4.609   2.706 -1.4422  0.9580  0.1402
 8104SOL     OW35944   4.289   4.201   8.124  0.4596  0.6092 -0.3633
 8104SOL    HW135945   4.333   4.173   8.204  2.0354  3.2437 -0.2992
 8104SOL    HW235946   4.237   4.129   8.090  0.4798  0.2786  0.3211
 8105SOL     OW35947   2.554   4.025   8.266 -0.0447 -0.7992  0.4182
 8105SOL    HW135948   2.485   4.087   8.290  1.0275  0.1244  1.0771
 8105SOL    HW235949   2.630   4.075   8.295 -0.5709 -0.3345  1.0153
 8106SOL     OW35950   0.091   0.812   6.164 -0.0585 -0.1743  0.3221
 8106SOL    HW135951   0.179   0.828   6.130 -0.3700  0.8207  0.0125
 8106SOL    HW235952   0.109   0.791   6.256  1.7046 -1.4423 -0.3106
 8107SOL     OW35953   4.540   0.119  17.360  0.0780  0.0018 -0.3718
 8107SOL    HW135954   4.605   0.178  17.322 -0.7954 -0.4137 -2.5199
 8107SOL    HW235955   4.574   0.035  17.329 -2.9316 -0.7370 -1.6961
 8108SOL     OW35956   2.039   3.301  13.580  0.0652 -0.1552  0.2036
 8108SOL    HW135957   2.073   3.312  13.491  1.4530  0.6075  0.8289
 8108SOL    HW235958   2.013   3.209  13.581 -4.0736  0.9622 -1.3764
 8109SOL     OW35959   2.587   4.548   6.922 -0.2602 -0.4677 -0.1633
 8109SOL    HW135960   2.534   4.555   7.002 -0.0550  0.5440 -0.1132
 8109SOL    HW235961   2.542   4.478   6.874 -1.5359  0.1970  0.0647
 8110SOL     OW35962   3.827   1.897   6.250  0.2417  0.0137  0.3745
 8110SOL    HW135963   3.826   1.931   6.339 -1.1547  1.5513 -0.2363
 8110SOL    HW235964   3.868   1.810   6.261 -0.8796 -0.8036 -2.0511
 8111SOL     OW35965   4.329   4.197   6.384 -0.1407 -0.3305  0.4042
 8111SOL    HW135966   4.408   4.245   6.408 -1.3772  1.0261  1.7414
 8111SOL    HW235967   4.270   4.249   6.439  1.0847  1.6181 -0.1292
 8112SOL     OW35968   0.620   2.464   0.240 -0.1200 -0.0786 -0.1478
 8112SOL    HW135969   0.710   2.491   0.260 -0.7230  2.6978 -1.1398
 8112SOL    HW235970   0.568   2.519   0.300  1.4039  1.6724 -0.4511
 8113SOL     OW35971   0.375   2.197  14.849 -0.3497  0.6436  0.1169
 8113SOL    HW135972   0.331   2.154  14.775  1.8481  1.6780 -1.7759
 8113SOL    HW235973   0.355   2.287  14.821 -0.4002  0.4498 -0.4830
 8114SOL     OW35974   0.945   1.925   5.107  0.6870  0.4536  0.0491
 8114SOL    HW135975   0.874   1.964   5.158  1.1801  0.5440  0.6611
 8114SOL    HW235976   0.918   1.834   5.118 -0.1689  0.7381  0.3086
 8115SOL     OW35977   4.423   4.398   9.634  0.1563 -1.0722  0.3789
 8115SOL    HW135978   4.354   4.443   9.585  1.7806  0.2333 -0.6945
 8115SOL    HW235979   4.412   4.307   9.608  1.2147 -1.6579  1.9874
 8116SOL     OW35980   1.771   2.428   5.231  0.1114 -0.0135  0.3219
 8116SOL    HW135981   1.831   2.489   5.275  0.0162 -0.1387  0.6235
 8116SOL    HW235982   1.773   2.469   5.145  0.5049 -1.3813 -0.3052
 8117SOL     OW35983   4.044   3.086   3.236  0.2672 -0.1121 -0.9277
 8117SOL    HW135984   3.951   3.092   3.257  1.1818 -0.7799  3.1897
 8117SOL    HW235985   4.033   3.110   3.144 -1.0443  2.4413 -0.1115
 8118SOL     OW35986   3.147   3.671   4.018  0.7647  0.0204 -0.0089
 8118SOL    HW135987   3.155   3.764   4.000 -1.7540  0.5128  1.3961
 8118SOL    HW235988   3.237   3.639   4.017  0.1794 -1.6540  1.0765
 8119SOL     OW35989   4.085   2.187   5.755  0.0169 -0.5527 -0.0056
 8119SOL    HW135990   4.064   2.246   5.683 -2.4959 -0.7614  0.5252
 8119SOL    HW235991   4.022   2.121   5.724 -1.5399  0.6748  0.5344
 8120SOL     OW35992   4.527   4.230  16.640 -0.0371 -1.0333  0.4736
 8120SOL    HW135993   4.459   4.172  16.674 -0.3694 -1.2191 -0.5085
 8120SOL    HW235994   4.466   4.302  16.624  0.3049 -1.0078 -0.6730
 8121SOL     OW35995   4.097   2.518  17.152  0.4306 -0.3758 -0.1110
 8121SOL    HW135996   4.030   2.494  17.088  0.1778 -0.7702  0.3043
 8121SOL    HW235997   4.167   2.457  17.131  1.4329  0.6458  0.2463
 8122SOL     OW35998   0.792   2.709   6.986 -0.0556  0.1211 -0.0789
 8122SOL    HW135999   0.754   2.775   6.928 -0.5426  1.3463  1.6174
 8122SOL    HW236000   0.841   2.764   7.047  2.5043 -1.7217 -0.4941
 8123SOL     OW36001   4.053   3.358   5.070  0.5800 -0.1600 -0.4353
 8123SOL    HW136002   3.998   3.352   5.148  0.9911  1.8429  0.0322
 8123SOL    HW236003   4.093   3.444   5.083 -1.6140  1.0227 -1.5194
 8124SOL     OW36004   0.719   2.188   4.031  0.0965  0.5966 -0.3195
 8124SOL    HW136005   0.760   2.102   4.023  0.9688  0.8264  1.6280
 8124SOL    HW236006   0.683   2.179   4.119 -0.2801 -1.0686 -0.6519
 8125SOL     OW36007   3.716   2.488   2.553 -0.6389  0.0220  0.0024
 8125SOL    HW136008   3.661   2.431   2.608 -2.1384  0.4926 -1.0306
 8125SOL    HW236009   3.795   2.479   2.606 -1.8266 -0.8341  1.6263
 8126SOL     OW36010   2.263   2.120  12.263  0.1633  0.2119  0.4107
 8126SOL    HW136011   2.168   2.108  12.258  0.2693 -0.1519 -0.7963
 8126SOL    HW236012   2.263   2.164  12.348 -1.4323  0.2741  0.3706
 8127SOL     OW36013   1.690   0.956   8.583 -0.1882 -0.2994  0.1267
 8127SOL    HW136014   1.734   0.876   8.554 -1.4099 -0.2550 -1.8671
 8127SOL    HW236015   1.692   0.958   8.678 -3.0576  0.0600  0.1672
 8128SOL     OW36016   2.287   1.984   5.057 -0.4320  0.9106  0.6019
 8128SOL    HW136017   2.266   2.035   5.136  0.6808  1.3090  0.6286
 8128SOL    HW236018   2.196   1.959   5.037  0.0302 -1.0038  0.8296
 8129SOL     OW36019   2.045   4.419   4.630  0.4647  0.0521 -0.1949
 8129SOL    HW136020   1.994   4.436   4.551 -0.3026 -0.5570  0.1762
 8129SOL    HW236021   2.127   4.460   4.601 -0.0102  0.4413 -1.0049
 8130SOL     OW36022   1.731   3.051  17.193 -0.1834 -0.2961  0.1920
 8130SOL    HW136023   1.673   2.976  17.176 -0.8328  0.5204 -1.2027
 8130SOL    HW236024   1.777   3.040  17.110 -1.6922  0.6398 -0.7616
 8131SOL     OW36025   2.148   2.970   1.990  0.4128 -0.3818  0.8284
 8131SOL    HW136026   2.204   3.040   1.958 -1.7995  0.9900  0.0076
 8131SOL    HW236027   2.209   2.897   1.977  1.5229  0.4283  1.5170
 8132SOL     OW36028   4.551   4.153   5.379 -0.6314  0.7411  0.1388
 8132SOL    HW136029   4.582   4.073   5.336 -0.0309  1.7550 -1.3237
 8132SOL    HW236030   4.480   4.104   5.421 -0.3130  1.3784  1.4254
 8133SOL     OW36031   4.703   4.328   3.697 -0.0837  0.3202 -0.3623
 8133SOL    HW136032   4.709   4.411   3.650  3.9900  0.3734  0.1935
 8133SOL    HW236033   4.658   4.265   3.641  0.8044 -0.6177 -0.0379
 8134SOL     OW36034   3.464   0.334   6.995 -0.1213  0.3743  0.4939
 8134SOL    HW136035   3.542   0.388   6.987 -1.2697  2.0561  0.7339
 8134SOL    HW236036   3.442   0.314   6.903  0.9880  0.7472  0.1506
 8135SOL     OW36037   0.265   2.569  12.844 -0.1950 -0.2509  0.1219
 8135SOL    HW136038   0.232   2.568  12.754 -1.2933 -3.9348  0.5768
 8135SOL    HW236039   0.253   2.660  12.873  1.0530  0.6895 -2.2765
 8136SOL     OW36040   3.582   0.265  13.257  0.3302  0.4928  0.0006
 8136SOL    HW136041   3.576   0.292  13.349 -0.6500 -0.3243  0.1805
 8136SOL    HW236042   3.661   0.312  13.229  1.6556 -1.2140  0.8717
 8137SOL     OW36043   3.589   3.152   2.440  0.3952  0.3479  0.8936
 8137SOL    HW136044   3.650   3.100   2.387 -0.4452  0.8627 -0.6117
 8137SOL    HW236045   3.526   3.201   2.387  1.5885  0.0131 -0.8462
 8138SOL     OW36046   0.581   1.137   1.896  1.1757  0.2823  0.5452
 8138SOL    HW136047   0.654   1.151   1.957  0.6126 -0.4358  1.3862
 8138SOL    HW236048   0.512   1.191   1.935  1.1652  0.6338  0.0397
 8139SOL     OW36049   0.484   0.375   3.310  0.1678 -0.1114  0.4987
 8139SOL    HW136050   0.416   0.385   3.243  1.8982  0.9093 -1.1165
 8139SOL    HW236051   0.554   0.434   3.281 -1.6786  1.5942 -0.5254
 8140SOL     OW36052   3.413   2.908   5.697 -0.0456  0.5859  0.1429
 8140SOL    HW136053   3.373   2.866   5.773 -0.2438  0.0734 -0.2403
 8140SOL    HW236054   3.462   2.834   5.660 -1.8998 -0.4679 -0.2060
 8141SOL     OW36055   1.898   0.050  11.486  0.2927  0.4914 -0.0911
 8141SOL    HW136056   1.962   0.011  11.427 -1.5664 -0.9183 -1.1687
 8141SOL    HW236057   1.887   4.716  11.545 -2.9631  1.0932  0.0729
 8142SOL     OW36058   4.419   0.324   0.664  0.1257  0.2550 -0.3496
 8142SOL    HW136059   4.380   0.302   0.579 -1.0797 -0.4045  0.3722
 8142SOL    HW236060   4.485   0.385   0.632 -0.9534  0.2758 -2.5306
 8143SOL     OW36061   0.606   1.245   7.270  0.3596 -0.2693 -0.1987
 8143SOL    HW136062   0.568   1.166   7.309 -0.6848 -0.5506 -1.7816
 8143SOL    HW236063   0.621   1.305   7.343 -1.3926  0.1596 -0.1818
 8144SOL     OW36064   0.435   2.297  11.530  0.5992 -0.0323  0.2764
 8144SOL    HW136065   0.396   2.337  11.608  1.1550  1.3178 -0.1308
 8144SOL    HW236066   0.422   2.206  11.554 -1.0645  0.6944  2.1593
 8145SOL     OW36067   3.447   3.231   2.194 -0.0400 -0.3032 -0.2100
 8145SOL    HW136068   3.354   3.212   2.181  0.4620 -0.9322 -2.8974
 8145SOL    HW236069   3.455   3.325   2.180  2.9196 -0.6589 -1.0733
 8146SOL     OW36070   0.189   0.179   9.605 -0.0100  0.5273  0.0669
 8146SOL    HW136071   0.142   0.156   9.524  1.9651  1.6189 -1.3836
 8146SOL    HW236072   0.123   0.188   9.674 -0.0888 -1.1140  0.2048
 8147SOL     OW36073   4.110   4.360  16.084  0.2446 -0.1909  0.5502
 8147SOL    HW136074   4.084   4.377  15.994 -0.0351 -0.0608  0.6538
 8147SOL    HW236075   4.125   4.265  16.083  1.3319 -0.0174  1.0574
 8148SOL     OW36076   1.715   3.308   7.796 -0.1432 -0.3997 -0.1845
 8148SOL    HW136077   1.676   3.392   7.772 -2.8767 -1.6823 -0.2254
 8148SOL    HW236078   1.775   3.330   7.868 -2.4714  2.4407  0.8717
 8149SOL     OW36079   3.325   0.693   7.456  0.4345  0.1584  0.1853
 8149SOL    HW136080   3.252   0.636   7.431  1.1017 -0.4946 -0.3097
 8149SOL    HW236081   3.400   0.634   7.448 -0.6444 -1.5487  2.6228
 8150SOL     OW36082   2.528   1.255  10.727  0.8229 -0.3927 -0.2022
 8150SOL    HW136083   2.497   1.189  10.789  2.2534 -1.5540 -0.7081
 8150SOL    HW236084   2.604   1.215  10.685  1.4825 -0.3329  0.9466
 8151SOL     OW36085   0.273   0.859   4.203  0.1647 -0.2124  0.3793
 8151SOL    HW136086   0.339   0.891   4.265 -0.6932  0.6107  0.8649
 8151SOL    HW236087   0.321   0.832   4.125  0.7120  0.5074  0.4682
 8152SOL     OW36088   4.379   2.113   9.380 -0.5762  0.0097 -0.3534
 8152SOL    HW136089   4.397   2.197   9.337  3.3282  0.1902  1.6859
 8152SOL    HW236090   4.329   2.064   9.315  0.0017 -3.8909  2.1808
 8153SOL     OW36091   3.515   0.992   4.121  0.0175 -0.1266  0.5776
 8153SOL    HW136092   3.538   0.939   4.197  1.9644  0.3765  0.3157
 8153SOL    HW236093   3.521   1.081   4.155  2.2033  1.0660 -2.9185
 8154SOL     OW36094   3.081   0.490   5.967  0.0451 -0.5028  0.3551
 8154SOL    HW136095   2.988   0.508   5.977  0.6900  2.4810  0.8321
 8154SOL    HW236096   3.124   0.562   6.013 -3.0877  2.0710 -0.7679
 8155SOL     OW36097   0.825   4.259   9.319 -0.1793  0.0340  0.5604
 8155SOL    HW136098   0.873   4.333   9.356 -0.5994  2.4476 -3.6672
 8155SOL    HW236099   0.779   4.296   9.244  2.0943  1.8657  0.0571
 8156SOL     OW36100   0.472   2.774   8.545 -0.3764  0.5564  0.1796
 8156SOL    HW136101   0.516   2.857   8.523  0.2062 -0.2337 -1.5914
 8156SOL    HW236102   0.532   2.722   8.598 -0.9372 -0.8453 -0.5868
 8157SOL     OW36103   4.272   1.014  11.949 -0.4227  0.1705 -0.0509
 8157SOL    HW136104   4.341   0.962  11.991  0.2250  0.7886 -0.3515
 8157SOL    HW236105   4.281   1.095  11.999  1.3754 -1.8455  2.8677
 8158SOL     OW36106   2.667   2.107  10.279 -0.2373 -0.0166 -0.2232
 8158SOL    HW136107   2.656   2.100  10.374 -0.2680  2.7140 -0.0318
 8158SOL    HW236108   2.579   2.134  10.251 -0.2849  1.0484  0.9420
 8159SOL     OW36109   4.690   2.922  16.673 -0.5602  0.8207  0.1367
 8159SOL    HW136110   0.025   2.951  16.722  0.3549 -2.0727  0.4328
 8159SOL    HW236111   4.628   2.885  16.736  2.6158  0.0303  2.7795
 8160SOL     OW36112   0.747   3.347  11.347  0.2475 -0.0069 -0.8922
 8160SOL    HW136113   0.789   3.358  11.262 -1.7591  0.9776 -1.7474
 8160SOL    HW236114   0.718   3.435  11.368  3.7080  0.9217 -0.0403
 8161SOL     OW36115   3.537   0.325  16.188 -0.1435  0.5919 -0.7388
 8161SOL    HW136116   3.536   0.401  16.130  0.0589 -0.1054 -1.6684
 8161SOL    HW236117   3.566   0.249  16.137 -0.7740  0.1005 -0.3578
 8162SOL     OW36118   0.923   2.603   6.470  0.3441 -0.2708 -0.6765
 8162SOL    HW136119   0.988   2.638   6.408 -0.4407 -0.3664 -1.5505
 8162SOL    HW236120   0.948   2.644   6.553 -2.1572 -1.5979  0.7285
 8163SOL     OW36121   3.687   3.132   2.087  0.2848 -0.5657  0.3793
 8163SOL    HW136122   3.712   3.078   2.162 -0.9806 -0.8468  0.6013
 8163SOL    HW236123   3.599   3.155   2.116  0.3448 -0.3953  0.4217
 8164SOL     OW36124   4.251   4.311   5.854  0.9586  0.3484 -0.3963
 8164SOL    HW136125   4.229   4.220   5.873  0.3365  0.0375 -2.6372
 8164SOL    HW236126   4.277   4.333   5.943  3.2661  3.1793 -1.7701
 8165SOL     OW36127   4.310   4.118   7.062  0.2569  0.0260  0.3157
 8165SOL    HW136128   4.240   4.117   6.996 -1.1966  0.6102  1.8359
 8165SOL    HW236129   4.322   4.023   7.071 -2.1444 -0.2954  0.1968
 8166SOL     OW36130   4.237   3.039  16.365 -0.0754 -0.6797 -0.3819
 8166SOL    HW136131   4.205   3.029  16.454  2.1864 -0.7633  0.4076
 8166SOL    HW236132   4.323   3.078  16.380 -0.1433 -0.9591  0.6928
 8167SOL     OW36133   3.602   4.314   7.863  0.5812  0.1189  0.2142
 8167SOL    HW136134   3.589   4.397   7.817  0.9475  0.6507  1.0733
 8167SOL    HW236135   3.692   4.285   7.845  0.3890 -1.5811  2.0540
 8168SOL     OW36136   2.911   2.532  17.615 -0.0809 -1.0379 -0.5470
 8168SOL    HW136137   2.862   2.599  17.569 -1.1164 -1.9402 -0.7495
 8168SOL    HW236138   2.846   2.480  17.662 -1.7892 -0.0935 -1.8673
 8169SOL     OW36139   1.982   0.827  17.431 -0.1412 -0.1141  0.7055
 8169SOL    HW136140   2.050   0.814  17.365 -0.7807  1.9140 -0.3383
 8169SOL    HW236141   2.025   0.901  17.474 -1.3589  0.7212  0.5051
 8170SOL     OW36142   3.610   0.021  14.749  0.4086 -0.2035  0.1368
 8170SOL    HW136143   3.530   0.015  14.800 -0.3476  0.9838 -0.8995
 8170SOL    HW236144   3.682   0.022  14.812  0.2124  0.0159  0.3534
 8171SOL     OW36145   1.305   0.468   8.499  0.0428  0.0564 -0.0071
 8171SOL    HW136146   1.294   0.491   8.592 -1.2595  3.7796 -1.0909
 8171SOL    HW236147   1.281   0.543   8.446 -0.6730  0.7244  1.2767
 8172SOL     OW36148   4.498   1.959  13.871  0.1702  0.5334 -0.5140
 8172SOL    HW136149   4.503   1.886  13.933 -1.6454  0.0714 -0.9139
 8172SOL    HW236150   4.404   1.976  13.867  0.3267  1.3764 -0.4834
 8173SOL     OW36151   2.625   0.425   1.834  0.0156  0.5998 -0.3455
 8173SOL    HW136152   2.660   0.494   1.891 -0.7913  1.2530 -0.6437
 8173SOL    HW236153   2.674   0.360   1.884 -0.1749 -0.4667 -1.5595
 8174SOL     OW36154   0.617   2.949   9.349 -0.0950  0.4613  0.6701
 8174SOL    HW136155   0.669   3.021   9.383  1.1585 -0.1983  0.1584
 8174SOL    HW236156   0.671   2.875   9.377 -1.8296 -0.7340  0.8202
 8175SOL     OW36157   4.650   2.817   2.481  0.2235 -0.5892 -0.0158
 8175SOL    HW136158   4.578   2.852   2.430  0.8521  0.0041 -0.4948
 8175SOL    HW236159   4.715   2.849   2.418  1.2700 -1.4547  0.6053
 8176SOL     OW36160   1.355   2.149   9.745  0.3788 -0.5067 -0.5116
 8176SOL    HW136161   1.330   2.125   9.835 -1.3807 -0.2170 -0.9188
 8176SOL    HW236162   1.447   2.175   9.752  0.1317 -0.2405  1.7745
 8177SOL     OW36163   1.931   0.265  16.653 -0.3499  0.1688 -0.1462
 8177SOL    HW136164   2.001   0.258  16.588  0.1354  1.6020  0.2252
 8177SOL    HW236165   1.953   0.194  16.714 -1.4678 -0.8472 -0.9382
 8178SOL     OW36166   3.310   0.251   1.077 -0.2784 -0.2421  0.7386
 8178SOL    HW136167   3.272   0.172   1.116 -1.8237  0.5675  0.8555
 8178SOL    HW236168   3.248   0.315   1.112 -0.9583 -0.3042 -0.3517
 8179SOL     OW36169   1.843   0.271  14.572 -0.6962  0.6009 -0.0688
 8179SOL    HW136170   1.805   0.217  14.641  1.2106 -0.2598  0.2864
 8179SOL    HW236171   1.905   0.324  14.622 -0.1188 -2.2200  2.1880
 8180SOL     OW36172   4.143   1.595  13.188  0.3286 -0.1961 -0.1561
 8180SOL    HW136173   4.137   1.535  13.113 -3.4330  0.4566 -0.3267
 8180SOL    HW236174   4.098   1.675  13.162 -0.0373 -0.5259 -0.5554
 8181SOL     OW36175   3.389   3.866   1.441  0.3972  0.3997  0.2309
 8181SOL    HW136176   3.377   3.850   1.535  0.4147  0.6808  0.2813
 8181SOL    HW236177   3.349   3.953   1.431  2.4007  1.0689 -1.9727
 8182SOL     OW36178   3.655   1.300   9.659 -0.2686 -0.2239 -0.0694
 8182SOL    HW136179   3.689   1.388   9.644 -1.6447  0.6442  1.9066
 8182SOL    HW236180   3.687   1.240   9.591  0.0704 -0.1763  0.0459
 8183SOL     OW36181   1.507   0.933   4.197  0.6587 -0.6601 -0.2855
 8183SOL    HW136182   1.570   1.001   4.221  0.0189  0.1276 -0.8301
 8183SOL    HW236183   1.446   0.982   4.141 -1.6488 -3.0529  0.1096
 8184SOL     OW36184   0.202   2.041   3.803 -0.2792 -0.2333 -0.1308
 8184SOL    HW136185   0.267   2.080   3.745 -0.2853  0.5370  0.3831
 8184SOL    HW236186   0.193   2.113   3.865 -1.0474 -1.2575  0.9458
 8185SOL     OW36187   2.341   2.362   1.790  0.5052  0.4142  0.3460
 8185SOL    HW136188   2.415   2.415   1.761 -1.0690  1.7607 -1.1624
 8185SOL    HW236189   2.324   2.411   1.870  3.5472  0.2506  1.0960
 8186SOL     OW36190   1.277   2.714   7.416  0.2086  0.6918 -0.5060
 8186SOL    HW136191   1.285   2.734   7.509 -2.2767 -1.4816  0.1380
 8186SOL    HW236192   1.182   2.715   7.405  0.1495 -1.6604 -0.1374
 8187SOL     OW36193   4.485   3.320   9.939 -0.2090 -0.2972  0.1342
 8187SOL    HW136194   4.570   3.278   9.947 -0.1192 -0.4498 -1.6743
 8187SOL    HW236195   4.461   3.275   9.858  0.0083  0.0053 -0.0987
 8188SOL     OW36196   2.123   4.468   1.617 -0.1524  0.4524  0.7343
 8188SOL    HW136197   2.058   4.399   1.632 -1.0427  1.0358 -0.4464
 8188SOL    HW236198   2.061   4.527   1.575 -0.5637 -0.4997  0.0149
 8189SOL     OW36199   0.632   3.504   3.539  0.4009 -0.1615  0.2931
 8189SOL    HW136200   0.647   3.544   3.624 -0.6628 -0.7506  0.7672
 8189SOL    HW236201   0.536   3.496   3.545  0.4784 -1.1369  0.1337
 8190SOL     OW36202   3.433   3.323   7.416 -0.5805  0.3244 -0.1900
 8190SOL    HW136203   3.505   3.342   7.357 -0.9975  2.0366 -0.1377
 8190SOL    HW236204   3.481   3.345   7.496  1.7565  1.5795 -1.9373
 8191SOL     OW36205   2.071   0.537   4.860 -0.7803 -0.5636  0.0115
 8191SOL    HW136206   2.149   0.548   4.807 -1.7676 -2.4455 -1.8219
 8191SOL    HW236207   2.011   0.494   4.800  0.0602 -1.5831 -0.0920
 8192SOL     OW36208   2.174   4.013  15.623 -0.0825  0.5411  0.0037
 8192SOL    HW136209   2.139   4.101  15.613 -0.1744  0.3886 -1.0700
 8192SOL    HW236210   2.135   3.983  15.705  1.2178 -2.4114 -0.4338
 8193SOL     OW36211   4.635   4.589  11.066 -0.1041  0.3057 -0.3795
 8193SOL    HW136212   4.722   4.623  11.046  0.8708 -1.2130  1.3388
 8193SOL    HW236213   4.578   4.666  11.074 -0.1708  0.0980  1.1527
 8194SOL     OW36214   0.973   1.460  11.675  0.4463  0.1479  0.0987
 8194SOL    HW136215   1.043   1.398  11.656 -1.9390 -3.2978  2.4206
 8194SOL    HW236216   1.023   1.538  11.654  2.0678 -1.1556 -0.8619
 8195SOL     OW36217   3.256   3.296   6.091 -0.1212 -0.2696 -0.3793
 8195SOL    HW136218   3.340   3.263   6.059 -0.6022 -2.4326  0.5811
 8195SOL    HW236219   3.221   3.213   6.125  4.2407 -1.0016  2.2835
 8196SOL     OW36220   3.421   3.765   7.611 -0.3217 -1.0096  0.4542
 8196SOL    HW136221   3.433   3.778   7.517  1.3044 -2.7218  0.4208
 8196SOL    HW236222   3.325   3.771   7.606 -0.0986  2.0410 -0.3923
 8197SOL     OW36223   0.004   4.631  17.588  0.0223  0.0995  0.2008
 8197SOL    HW136224   0.019   4.537  17.597 -0.3180  0.1645  1.4168
 8197SOL    HW236225   0.061   4.648  17.512 -1.2013  0.4380 -0.6469
 8198SOL     OW36226   3.164   4.674  15.856 -0.1935 -0.2152 -0.0647
 8198SOL    HW136227   3.112   0.013  15.863  2.6200  1.5446  0.5295
 8198SOL    HW236228   3.237   4.696  15.914  0.6081 -3.1406  0.0023
 8199SOL     OW36229   4.213   0.762   3.541 -0.3452 -0.0199  0.1584
 8199SOL    HW136230   4.129   0.727   3.570 -0.9026  0.5564 -0.7789
 8199SOL    HW236231   4.192   0.748   3.449 -2.5627  0.8071  0.5497
 8200SOL     OW36232   3.423   3.522   6.602  0.4931  0.0313 -0.7895
 8200SOL    HW136233   3.423   3.426   6.604 -2.3471  0.0445  0.6579
 8200SOL    HW236234   3.366   3.530   6.526 -0.9740 -2.7135  0.0003
 8201SOL     OW36235   3.918   4.447   8.611 -0.2595 -0.2673 -0.2251
 8201SOL    HW136236   3.883   4.359   8.621 -0.1062 -0.5306 -1.9876
 8201SOL    HW236237   3.993   4.437   8.552  1.2048 -1.7932  1.9159
 8202SOL     OW36238   1.913   4.436  17.582 -0.4266  0.0681  0.1943
 8202SOL    HW136239   1.876   4.521  17.558  1.5888  0.9111  0.1242
 8202SOL    HW236240   1.848   4.391  17.637 -2.5929  0.7353 -1.8559
 8203SOL     OW36241   4.278   3.918   8.830  0.6967 -0.0123  0.4652
 8203SOL    HW136242   4.325   3.961   8.902  1.3097 -0.7222  0.4996
 8203SOL    HW236243   4.188   3.947   8.836 -0.0979 -1.9664 -1.8327
 8204SOL     OW36244   3.763   3.450   6.869  0.0017  0.1027 -0.4510
 8204SOL    HW136245   3.818   3.487   6.937 -0.7042 -1.7699  1.1485
 8204SOL    HW236246   3.673   3.481   6.885  0.0894 -0.8077  1.8836
 8205SOL     OW36247   4.286   2.842   6.722  0.1555  0.2360  0.2718
 8205SOL    HW136248   4.373   2.883   6.723 -0.9033  2.4715  1.2789
 8205SOL    HW236249   4.292   2.773   6.789  0.0325  0.6708  0.7321
 8206SOL     OW36250   0.272   0.287   1.693  0.1077 -1.2793  0.1260
 8206SOL    HW136251   0.313   0.274   1.607  1.3327 -2.3432  0.8670
 8206SOL    HW236252   0.194   0.338   1.671 -0.5182 -2.7198 -1.0069
 8207SOL     OW36253   0.691   3.747   7.340 -0.1810  0.0965 -0.1357
 8207SOL    HW136254   0.639   3.668   7.357  2.3495 -1.2582  1.4289
 8207SOL    HW236255   0.696   3.784   7.428  0.6720 -0.1171 -0.0885
 8208SOL     OW36256   3.039   1.593  12.551 -0.1726  0.0706  0.3086
 8208SOL    HW136257   3.030   1.502  12.579  0.6817  0.0612  0.5560
 8208SOL    HW236258   2.982   1.598  12.474  0.4104 -0.0061 -0.1222
 8209SOL     OW36259   3.023   3.852   2.761 -0.2757 -0.1251  0.0388
 8209SOL    HW136260   3.082   3.891   2.825  0.3669  0.9064 -1.2004
 8209SOL    HW236261   3.059   3.879   2.676  1.4850  0.5992  1.0144
 8210SOL     OW36262   1.310   0.009   7.807  0.0149  0.1511  0.1583
 8210SOL    HW136263   1.389   0.062   7.806  0.1412 -0.0145  2.0194
 8210SOL    HW236264   1.256   0.087   7.803 -1.4829 -0.8947 -0.0957
 8211SOL     OW36265   2.528   0.163   0.968 -0.1143  0.0331  0.1125
 8211SOL    HW136266   2.601   0.102   0.969  0.4813  0.7533  1.5313
 8211SOL    HW236267   2.484   0.158   0.883  1.8275 -1.7021 -0.7836
 8212SOL     OW36268   4.009   2.607   6.848  0.0193 -0.8086  0.1471
 8212SOL    HW136269   3.927   2.581   6.891 -0.0576 -2.0397 -0.7442
 8212SOL    HW236270   4.068   2.614   6.923  0.2415  2.1002 -0.3014
 8213SOL     OW36271   3.892   2.765  17.757 -0.1210 -0.0061  0.0701
 8213SOL    HW136272   3.802   2.731   0.005  0.8510 -3.0204 -1.4477
 8213SOL    HW236273   3.896   2.768  17.662  1.7472 -0.1447  0.1487
 8214SOL     OW36274   2.875   1.555   7.534  0.4995 -0.5534 -0.2821
 8214SOL    HW136275   2.878   1.621   7.464 -0.3814 -0.1751  0.0411
 8214SOL    HW236276   2.914   1.476   7.496 -1.4669 -1.9415  0.5679
 8215SOL     OW36277   3.011   0.581   7.574 -0.0638 -0.1117 -0.1267
 8215SOL    HW136278   3.019   0.545   7.486  1.0695 -2.1467  0.8132
 8215SOL    HW236279   3.021   0.496   7.617 -1.0994 -0.4120 -0.4783
 8216SOL     OW36280   3.136   0.775   0.253 -0.0971  0.5950 -0.0330
 8216SOL    HW136281   3.183   0.774   0.336 -1.7962  1.0773  0.9348
 8216SOL    HW236282   3.107   0.685   0.236 -1.0563  0.7104  0.9832
 8217SOL     OW36283   1.212   0.442   1.565  0.3252  0.6925 -0.2197
 8217SOL    HW136284   1.178   0.358   1.535  0.6182 -0.0966  1.6494
 8217SOL    HW236285   1.306   0.429   1.563 -0.0623 -1.9951 -0.4189
 8218SOL     OW36286   1.920   4.604   8.975 -0.5623 -0.0721 -0.2324
 8218SOL    HW136287   1.866   4.683   8.965  0.7117  1.1621  2.5746
 8218SOL    HW236288   1.978   4.609   8.899  1.1344  4.1741  1.3105
 8219SOL     OW36289   3.981   1.030   1.470  0.0968 -0.1734  0.0259
 8219SOL    HW136290   4.027   1.083   1.405  1.4657 -0.2086  0.9701
 8219SOL    HW236291   3.935   0.973   1.408 -2.4962  0.6952  1.1571
 8220SOL     OW36292   1.170   3.053   8.211  0.3968  0.4758 -0.4231
 8220SOL    HW136293   1.222   2.990   8.262  0.1117  1.2339  0.7888
 8220SOL    HW236294   1.234   3.079   8.144 -0.4857 -0.8340 -1.7872
 8221SOL     OW36295   0.554   3.941   8.632  0.2007 -0.5014 -0.1950
 8221SOL    HW136296   0.540   3.915   8.723  0.2070  0.7409  0.1648
 8221SOL    HW236297   0.626   4.003   8.645  0.1405 -0.8695  1.9849
 8222SOL     OW36298   2.712   2.865   2.936  0.1247  0.2683  0.5040
 8222SOL    HW136299   2.631   2.900   2.973 -0.5584 -0.4968 -0.2573
 8222SOL    HW236300   2.745   2.935   2.879 -3.0082  2.3445  1.2351
 8223SOL     OW36301   0.786   2.243   0.774 -0.7532  0.5144  0.2552
 8223SOL    HW136302   0.712   2.235   0.713 -0.2489 -0.2461 -0.2568
 8223SOL    HW236303   0.835   2.162   0.775  1.0767  1.6493  1.8099
 8224SOL     OW36304   3.856   1.994   4.685  0.7259 -0.2508 -0.4349
 8224SOL    HW136305   3.876   2.071   4.630  1.0055 -0.4981 -0.6817
 8224SOL    HW236306   3.940   1.948   4.680 -0.8326 -3.0262 -0.7799
 8225SOL     OW36307   2.744   1.666   5.419  0.1873  0.4161  0.0984
 8225SOL    HW136308   2.790   1.587   5.446  0.8767  0.5314 -0.7472
 8225SOL    HW236309   2.703   1.694   5.501 -0.4049 -0.8627  0.2366
 8226SOL     OW36310   0.883   0.340   9.514 -0.3009 -0.3855 -0.2192
 8226SOL    HW136311   0.807   0.306   9.467  0.0880 -0.7138 -0.6102
 8226SOL    HW236312   0.918   0.404   9.451 -1.4913  0.3735 -0.0932
 8227SOL     OW36313   1.750   0.523  16.280 -0.1304 -0.6323  0.3831
 8227SOL    HW136314   1.801   0.443  16.298 -1.1694 -1.3077  0.3173
 8227SOL    HW236315   1.760   0.541  16.187  1.3517  2.1889  1.0738
 8228SOL     OW36316   1.729   2.833   5.188 -0.0048 -0.9161 -0.4811
 8228SOL    HW136317   1.756   2.764   5.248 -2.1438 -1.6228 -0.3509
 8228SOL    HW236318   1.802   2.892   5.206 -0.5152 -0.4202 -0.0460
 8229SOL     OW36319   2.718   0.868   6.820  0.3756  0.1430  0.2247
 8229SOL    HW136320   2.746   0.819   6.897  0.2095  3.0259  2.1430
 8229SOL    HW236321   2.679   0.943   6.867 -0.0244  1.2683 -1.9010
 8230SOL     OW36322   3.168   2.591   0.982  0.5465 -0.3876 -0.8370
 8230SOL    HW136323   3.167   2.598   0.887 -0.3262  0.7112 -0.7416
 8230SOL    HW236324   3.149   2.682   1.004  0.5249 -0.3751 -0.9090
 8231SOL     OW36325   1.384   2.891  16.310 -0.1699 -0.0709  0.2407
 8231SOL    HW136326   1.320   2.896  16.382 -0.1702  1.3320  0.1345
 8231SOL    HW236327   1.404   2.797  16.310 -0.1861 -0.0885  1.9948
 8232SOL     OW36328   0.425   3.325   6.301  0.5356  0.4997  0.3248
 8232SOL    HW136329   0.413   3.235   6.330  1.2714  1.3606  3.4005
 8232SOL    HW236330   0.472   3.321   6.218 -0.7025 -2.7426 -0.2205
 8233SOL     OW36331   0.682   3.549   6.787  0.4859 -0.2713  0.1500
 8233SOL    HW136332   0.682   3.645   6.782  0.4441 -0.4020 -2.4394
 8233SOL    HW236333   0.622   3.531   6.859 -1.2384  3.6791 -0.2398
 8234SOL     OW36334   3.086   1.084  14.557  0.2451 -0.0895  0.1055
 8234SOL    HW136335   3.141   1.127  14.622  0.9482  1.5984 -1.6109
 8234SOL    HW236336   3.112   1.142  14.485 -0.8368 -1.3815 -1.3230
 8235SOL     OW36337   1.214   1.384   5.197  0.1159 -0.6520  0.0862
 8235SOL    HW136338   1.134   1.344   5.161 -0.8469 -1.2075  2.8725
 8235SOL    HW236339   1.287   1.341   5.154  0.5956  2.0428 -1.8545
 8236SOL     OW36340   4.333   0.645   8.636 -0.0619  0.2672  0.2021
 8236SOL    HW136341   4.395   0.672   8.704  0.3800  1.5747 -0.7301
 8236SOL    HW236342   4.258   0.615   8.688 -0.4985 -0.0281 -0.6112
 8237SOL     OW36343   1.901   3.181  16.261  0.0661  0.0380 -0.4247
 8237SOL    HW136344   1.904   3.143  16.349 -0.1578  1.0700  0.0261
 8237SOL    HW236345   1.835   3.250  16.270 -1.1321 -1.2644  0.7195
 8238SOL     OW36346   2.544   1.426   9.648  0.0652 -0.0830 -1.0171
 8238SOL    HW136347   2.633   1.426   9.683 -0.7681  2.1439  1.1427
 8238SOL    HW236348   2.530   1.520   9.634 -1.5511 -0.2944 -0.7380
 8239SOL     OW36349   4.370   2.645   7.282 -0.3642  0.9348  0.1913
 8239SOL    HW136350   4.282   2.634   7.245 -1.3409  2.0552  2.1772
 8239SOL    HW236351   4.409   2.706   7.219 -0.1671  0.5670 -0.0402
 8240SOL     OW36352   1.327   1.506   8.897 -0.4600 -0.2951 -0.2632
 8240SOL    HW136353   1.335   1.454   8.977 -2.2855 -0.7861 -0.3981
 8240SOL    HW236354   1.252   1.559   8.925 -1.0458  0.1043 -2.5455
 8241SOL     OW36355   1.875   1.735   7.161 -0.0864  0.2895 -0.5429
 8241SOL    HW136356   1.899   1.787   7.238  0.5456 -0.7488 -0.0362
 8241SOL    HW236357   1.780   1.723   7.170 -0.4406  3.0796 -0.6926
 8242SOL     OW36358   1.063   1.905   9.789 -0.2514 -0.1870  0.0922
 8242SOL    HW136359   1.076   1.811   9.800 -0.6547 -0.5237 -2.2828
 8242SOL    HW236360   1.088   1.942   9.874 -4.0708  1.8516  0.3246
 8243SOL     OW36361   4.242   4.022  13.761 -0.2747 -0.6445 -0.1477
 8243SOL    HW136362   4.171   4.082  13.786 -0.2816 -0.9272  0.4974
 8243SOL    HW236363   4.231   4.022  13.665  2.2867 -0.4497 -0.4318
 8244SOL     OW36364   4.388   0.226  11.734 -0.6168  0.4094  0.0246
 8244SOL    HW136365   4.457   0.255  11.794 -0.2681  1.0086 -0.6739
 8244SOL    HW236366   4.318   0.249  11.796 -0.0133  1.1108  0.4466
 8245SOL     OW36367   2.675   4.710   0.679  0.0421 -0.1180 -0.4566
 8245SOL    HW136368   2.704   4.715   0.770  1.3450  0.3703 -0.8954
 8245SOL    HW236369   2.678   4.615   0.668  0.5000 -0.3322  1.4769
 8246SOL     OW36370   0.384   3.376   5.747  0.5576 -0.1846 -0.2536
 8246SOL    HW136371   0.428   3.425   5.678 -0.4785 -0.2764 -0.9785
 8246SOL    HW236372   0.445   3.303   5.752 -1.2639 -1.5354  2.4092
 8247SOL     OW36373   0.755   2.020   6.112  0.3040 -0.3070 -0.3905
 8247SOL    HW136374   0.813   1.947   6.135  0.8854  0.3782  0.2747
 8247SOL    HW236375   0.709   2.023   6.196 -0.2263 -1.3119 -0.6377
 8248SOL     OW36376   2.688   2.075   2.055  0.0886  0.0234  0.1667
 8248SOL    HW136377   2.595   2.053   2.060  0.5702 -1.8739  0.6991
 8248SOL    HW236378   2.703   2.035   1.969 -1.3453  0.5318 -0.3254
 8249SOL     OW36379   0.180   0.593   0.937  0.9069  0.1223  0.1510
 8249SOL    HW136380   0.088   0.567   0.934  0.8770  0.3225 -0.6176
 8249SOL    HW236381   0.224   0.508   0.934  0.1269 -0.2725  0.0763
 8250SOL     OW36382   2.518   1.956  10.072  0.4285  0.5805  0.4764
 8250SOL    HW136383   2.426   1.984  10.067 -0.2358 -1.1807  2.6589
 8250SOL    HW236384   2.504   1.861  10.073 -0.0298  0.6500  0.5445
 8251SOL     OW36385   1.434   1.954  14.647 -0.4431  0.6773  0.5657
 8251SOL    HW136386   1.511   1.898  14.654 -1.8111 -1.2590  0.2297
 8251SOL    HW236387   1.365   1.887  14.645 -0.4899  0.7426 -0.1723
 8252SOL     OW36388   2.375   0.748   2.331  0.0878  0.0737  0.2582
 8252SOL    HW136389   2.317   0.707   2.266 -0.5358 -0.3196  1.0635
 8252SOL    HW236390   2.354   0.835   2.297  1.3721  1.2773  2.5241
 8253SOL     OW36391   2.317   1.039  12.889 -0.8209 -0.1297 -0.1509
 8253SOL    HW136392   2.314   1.083  12.974  1.9248  0.6532 -0.4656
 8253SOL    HW236393   2.401   1.071  12.856 -1.4321  1.4029 -0.2502
 8254SOL     OW36394   0.275   0.759   4.505 -0.1019  0.5454  0.4080
 8254SOL    HW136395   0.337   0.687   4.515 -1.4870 -0.6664  0.4044
 8254SOL    HW236396   0.192   0.716   4.481  0.2894 -1.5007  2.7757
 8255SOL     OW36397   2.572   1.045   2.787  0.0666 -0.7722 -0.6131
 8255SOL    HW136398   2.557   1.032   2.881  1.6894  1.6062 -0.0388
 8255SOL    HW236399   2.662   1.018   2.768 -0.0571 -0.4049 -1.7203
 8256SOL     OW36400   2.884   1.189   4.869  0.1994 -0.0996 -0.3047
 8256SOL    HW136401   2.807   1.138   4.842  0.8998 -0.2686 -1.9835
 8256SOL    HW236402   2.906   1.213   4.779 -1.0567  2.6868  0.1176
 8257SOL     OW36403   0.036   0.634   4.387 -0.1003 -0.6569 -0.2689
 8257SOL    HW136404   4.722   0.712   4.384  1.6564  0.5849 -0.1770
 8257SOL    HW236405   0.017   0.591   4.303  0.4868 -1.3022 -0.0742
 8258SOL     OW36406   3.221   1.382   2.929 -0.1734 -0.2800  0.8134
 8258SOL    HW136407   3.216   1.447   2.860  1.2632  0.0409  1.0186
 8258SOL    HW236408   3.285   1.322   2.892 -0.6388  0.0255 -0.4734
 8259SOL     OW36409   3.804   1.503   8.687 -0.1902 -0.0044  0.0773
 8259SOL    HW136410   3.736   1.514   8.754 -0.9079 -2.6588 -0.2044
 8259SOL    HW236411   3.864   1.442   8.728 -1.5006  0.3101  2.4799
 8260SOL     OW36412   1.989   3.368   5.361 -0.0311 -0.0229  0.0975
 8260SOL    HW136413   1.909   3.421   5.370  0.7612  1.4746 -1.6598
 8260SOL    HW236414   1.968   3.305   5.430  3.3676  0.2901  1.4256
 8261SOL     OW36415   1.701   0.136   4.404  0.0835  0.0122 -0.2005
 8261SOL    HW136416   1.638   0.115   4.473  0.2441  0.1284 -0.0179
 8261SOL    HW236417   1.787   0.130   4.446  0.2220  1.8604 -0.2243
 8262SOL     OW36418   4.203   3.309   8.229  0.0986 -0.0727 -0.0073
 8262SOL    HW136419   4.277   3.324   8.288 -1.4163  0.8681  1.6327
 8262SOL    HW236420   4.152   3.389   8.243  0.5502  0.3089 -0.5100
 8263SOL     OW36421   1.268   3.645   3.394  0.2186 -0.4509 -0.3468
 8263SOL    HW136422   1.338   3.711   3.397 -0.5518  0.3914 -1.0013
 8263SOL    HW236423   1.232   3.678   3.312  0.0126 -1.0859 -0.5108
 8264SOL     OW36424   0.623   1.109  14.956  0.1596  0.4454  0.2964
 8264SOL    HW136425   0.652   1.129  14.867  0.3242 -2.0291 -0.1938
 8264SOL    HW236426   0.652   1.018  14.956  1.0259  0.7165 -0.6527
 8265SOL     OW36427   0.070   3.049   7.132  0.3347 -0.2524  0.2103
 8265SOL    HW136428   0.122   3.115   7.178  0.0825  0.0267  0.0990
 8265SOL    HW236429   0.129   2.975   7.148  2.4083  1.1096 -1.1310
 8266SOL     OW36430   4.647   2.333   8.322 -0.4120  0.6339 -0.2692
 8266SOL    HW136431   4.697   2.257   8.293  0.5527  0.6692  1.3180
 8266SOL    HW236432   4.615   2.301   8.407 -0.4739  2.1716  0.2827
 8267SOL     OW36433   1.692   0.488  14.165  0.1323 -0.1877 -0.3474
 8267SOL    HW136434   1.601   0.468  14.189  0.4955  0.1099  1.2631
 8267SOL    HW236435   1.747   0.481  14.243  0.7806 -1.4472 -0.9226
 8268SOL     OW36436   3.114   4.707   9.564 -0.1820 -1.1155 -0.4868
 8268SOL    HW136437   3.163   4.641   9.515 -0.8962 -2.6499  0.8536
 8268SOL    HW236438   3.180   4.740   9.625 -0.2583  0.0358 -1.0369
 8269SOL     OW36439   0.476   2.204   9.915  0.0293 -0.5913  0.0441
 8269SOL    HW136440   0.549   2.144   9.930 -0.3388 -0.7844  1.0358
 8269SOL    HW236441   0.477   2.252   9.997  2.6074 -0.9275  0.2231
 8270SOL     OW36442   3.207   1.313  14.690  0.4098  0.0547 -0.5062
 8270SOL    HW136443   3.278   1.315  14.626 -1.1209 -3.2489 -2.2980
 8270SOL    HW236444   3.134   1.351  14.641 -0.9110 -0.7623  0.7999
 8271SOL     OW36445   3.885   4.235   3.790 -1.1534 -0.2086 -0.3049
 8271SOL    HW136446   3.938   4.160   3.764  0.6027  0.5455  1.0045
 8271SOL    HW236447   3.887   4.218   3.885 -0.9132 -1.3327 -0.5122
 8272SOL     OW36448   0.479   0.163   4.069 -0.0397  0.3680 -0.1311
 8272SOL    HW136449   0.428   0.084   4.087 -1.3064  1.1877 -0.1004
 8272SOL    HW236450   0.481   0.165   3.973 -2.4287 -0.5537 -0.2011
 8273SOL     OW36451   2.200   2.135   5.259 -0.0715 -0.6058  0.4028
 8273SOL    HW136452   2.228   2.184   5.336 -0.0604  0.9015 -0.5582
 8273SOL    HW236453   2.139   2.203   5.229  1.3194 -0.6681 -2.5498
 8274SOL     OW36454   2.616   4.717   1.214  0.7029 -0.4595 -0.2253
 8274SOL    HW136455   2.591   4.731   1.306 -1.0093  0.8309 -0.8964
 8274SOL    HW236456   2.693   0.033   1.208  0.8510 -0.6038  0.2914
 8275SOL     OW36457   1.591   2.987   2.390  0.3769  0.4956  0.0089
 8275SOL    HW136458   1.680   3.010   2.418  0.4344 -0.0979  0.3077
 8275SOL    HW236459   1.570   2.910   2.442  0.3070  0.6237  0.1688
 8276SOL     OW36460   1.254   3.824   2.948 -0.2987  0.6078  0.0646
 8276SOL    HW136461   1.235   3.879   2.872 -2.4717 -0.6098 -0.2554
 8276SOL    HW236462   1.207   3.868   3.018  0.6281  2.1952 -0.3079
 8277SOL     OW36463   0.113   3.220  12.883  0.3576 -0.2400 -0.2370
 8277SOL    HW136464   0.035   3.167  12.894 -0.3686  1.1380  1.1753
 8277SOL    HW236465   0.094   3.258  12.797  0.5309  0.5906  0.0872
 8278SOL     OW36466   0.856   3.503   7.210 -0.5767  0.0876 -0.1567
 8278SOL    HW136467   0.908   3.563   7.156 -1.6849  2.8248  1.7871
 8278SOL    HW236468   0.879   3.544   7.294 -1.2124  0.5434 -0.2001
 8279SOL     OW36469   4.288   1.722   9.571  0.1618 -0.1072  0.3978
 8279SOL    HW136470   4.344   1.682   9.505  0.1270  0.5573 -0.0298
 8279SOL    HW236471   4.331   1.720   9.657  1.6103  1.9125 -0.2902
 8280SOL     OW36472   1.633   2.930   5.991  0.2392  0.2066 -0.1062
 8280SOL    HW136473   1.677   2.846   5.978 -0.3189  0.2586 -2.3250
 8280SOL    HW236474   1.677   2.996   5.938  1.4834  0.7447  1.5842
 8281SOL     OW36475   4.538   4.439   8.499  0.5566 -0.0848  0.0100
 8281SOL    HW136476   4.485   4.475   8.428  1.0235 -0.1370 -0.3659
 8281SOL    HW236477   4.475   4.376   8.534 -3.1570  1.7254 -3.5118
 8282SOL     OW36478   2.579   0.689   3.307  0.1431  0.6780  0.2806
 8282SOL    HW136479   2.601   0.778   3.280 -0.5729  0.6534 -0.4065
 8282SOL    HW236480   2.489   0.712   3.326 -0.8382 -1.3084 -1.9087
 8283SOL     OW36481   4.247   2.374   6.641  0.8512  0.4887  0.3040
 8283SOL    HW136482   4.244   2.430   6.564 -1.5369 -0.1189 -0.0663
 8283SOL    HW236483   4.311   2.415   6.699 -0.2288  1.7717  0.5830
 8284SOL     OW36484   0.008   4.678   5.314 -0.1974 -0.0818 -0.0372
 8284SOL    HW136485   0.050   4.608   5.263  1.6190  1.1100 -0.2167
 8284SOL    HW236486   0.059   0.010   5.278 -1.7680  0.0047 -2.0879
 8285SOL     OW36487   1.858   1.196   8.058 -0.0112  0.1647  0.4729
 8285SOL    HW136488   1.920   1.151   8.115  0.1530 -0.1333  0.0654
 8285SOL    HW236489   1.929   1.248   8.019 -0.2445 -0.5293 -0.8903
 8286SOL     OW36490   2.296   3.673  11.533  0.0980  0.0543 -0.2055
 8286SOL    HW136491   2.353   3.702  11.461 -2.4431 -0.4133 -2.4025
 8286SOL    HW236492   2.354   3.651  11.606 -1.1344 -0.3267  0.6460
 8287SOL     OW36493   2.477   0.013   2.073 -0.0881  0.4658  0.3962
 8287SOL    HW136494   2.472   0.019   1.977 -1.6167 -0.8769  0.3948
 8287SOL    HW236495   2.508   0.099   2.101  0.1770  1.0255 -1.5913
 8288SOL     OW36496   3.732   2.568   8.708 -0.2410  0.0398 -0.1075
 8288SOL    HW136497   3.792   2.528   8.646 -1.1903 -0.9142 -0.4079
 8288SOL    HW236498   3.770   2.542   8.791  1.7613 -1.4629 -1.4912
 8289SOL     OW36499   0.290   1.568   4.975 -0.0765  0.4046  0.3181
 8289SOL    HW136500   0.221   1.503   4.988 -0.2976  0.4484 -0.6603
 8289SOL    HW236501   0.344   1.529   4.906  0.3211  0.8737  0.3619
 8290SOL     OW36502   2.882   4.232   9.394  0.0901  0.2317  0.2988
 8290SOL    HW136503   2.873   4.137   9.394  1.4751  0.0783 -3.6127
 8290SOL    HW236504   2.801   4.263   9.435 -0.1683  2.2919 -1.7541
 8291SOL     OW36505   4.267   0.051   0.718  0.0941 -1.3147  0.2038
 8291SOL    HW136506   4.269   4.700   0.744  0.8536 -0.9789  1.3339
 8291SOL    HW236507   4.327   0.101   0.774 -1.2505  0.3748  0.1501
 8292SOL     OW36508   3.226   2.532   3.261  0.1692 -0.2151 -0.1506
 8292SOL    HW136509   3.133   2.517   3.242 -0.3485 -0.1581  2.4094
 8292SOL    HW236510   3.234   2.528   3.356  0.2878  1.4939 -0.0849
 8293SOL     OW36511   1.557   2.915   4.532  0.4349 -0.0361  0.2714
 8293SOL    HW136512   1.642   2.943   4.565  0.8708 -0.8590 -0.1770
 8293SOL    HW236513   1.564   2.821   4.545  2.4427  0.0421 -0.3728
 8294SOL     OW36514   2.892   3.428   9.193 -0.2328 -0.4696 -0.0295
 8294SOL    HW136515   2.841   3.349   9.213 -0.3882 -0.7791 -1.6542
 8294SOL    HW236516   2.964   3.411   9.254 -1.3697 -0.7025  1.2658
 8295SOL     OW36517   4.240   4.218   0.757  0.8329 -0.7203  0.4684
 8295SOL    HW136518   4.243   4.150   0.690  0.7242  2.6242 -2.9761
 8295SOL    HW236519   4.236   4.292   0.696 -0.2579  1.4517  3.1587
 8296SOL     OW36520   1.841   3.431  13.909  0.6507 -0.6963  0.2297
 8296SOL    HW136521   1.908   3.488  13.871 -0.9429  1.2202  0.3208
 8296SOL    HW236522   1.899   3.373  13.958  0.2531 -0.5829  0.8255
 8297SOL     OW36523   2.078   4.236   3.601 -0.1337 -0.1753 -0.2197
 8297SOL    HW136524   2.165   4.276   3.590  0.4382 -1.3957 -0.0836
 8297SOL    HW236525   2.078   4.181   3.679 -1.5074  0.0792 -0.0467
 8298SOL     OW36526   4.009   2.794   2.563  0.2341 -0.9282 -0.5942
 8298SOL    HW136527   3.918   2.807   2.537 -0.3299 -2.4811  0.6186
 8298SOL    HW236528   4.062   2.870   2.537 -2.1572  0.4056 -1.5298
 8299SOL     OW36529   3.869   1.227   3.822  0.2352  0.8622  0.2099
 8299SOL    HW136530   3.822   1.213   3.740  2.0503 -1.1161 -0.4830
 8299SOL    HW236531   3.892   1.136   3.843  1.0301  1.2158  0.8482
 8300SOL     OW36532   0.967   4.392   1.163 -0.1621 -0.8190  0.3223
 8300SOL    HW136533   0.893   4.332   1.172 -1.8331  1.3496  0.9595
 8300SOL    HW236534   1.009   4.386   1.249  0.8443 -1.2697 -0.1927
 8301SOL     OW36535   1.759   4.393  13.485  0.2516 -0.0450  0.0756
 8301SOL    HW136536   1.738   4.456  13.415  3.0129 -0.6423 -1.2507
 8301SOL    HW236537   1.692   4.327  13.470  1.6057 -1.5869  0.8919
 8302SOL     OW36538   1.247   3.403   5.232 -0.7310 -0.4399  0.4418
 8302SOL    HW136539   1.192   3.330   5.204 -0.9521  0.5461 -1.7213
 8302SOL    HW236540   1.181   3.471   5.249 -1.0186 -0.9373  1.2791
 8303SOL     OW36541   0.128   0.781   8.165  0.3347  0.8248 -0.2827
 8303SOL    HW136542   0.075   0.845   8.212  1.7219  0.4421  1.7978
 8303SOL    HW236543   0.216   0.817   8.158  0.3395  1.0207  0.8227
 8304SOL     OW36544   3.635   4.193   6.404 -0.6625 -0.4133  0.0355
 8304SOL    HW136545   3.583   4.198   6.483 -0.5263 -0.0991  0.1088
 8304SOL    HW236546   3.634   4.285   6.377  2.1690 -0.3392  0.1160
 8305SOL     OW36547   1.429   2.518   5.758  0.2490  0.4020 -0.6020
 8305SOL    HW136548   1.442   2.613   5.764  0.8788  0.2252  0.8681
 8305SOL    HW236549   1.346   2.505   5.713 -0.9303 -0.3550  1.8248
 8306SOL     OW36550   4.542   2.170   2.043 -0.4257  0.1919  0.5543
 8306SOL    HW136551   4.599   2.098   2.015 -0.3601  1.0399 -1.4180
 8306SOL    HW236552   4.454   2.134   2.034 -0.0927 -0.3929 -0.3068
 8307SOL     OW36553   2.218   3.580   8.536  0.0816  0.1534 -0.0715
 8307SOL    HW136554   2.252   3.501   8.578 -1.8396 -0.0360  1.1403
 8307SOL    HW236555   2.292   3.636   8.515  1.2781 -0.1384  3.4976
 8308SOL     OW36556   1.882   4.717   7.171  0.0992 -0.1232  0.5689
 8308SOL    HW136557   1.869   4.660   7.246  0.5992 -1.4665 -0.3709
 8308SOL    HW236558   1.795   4.739   7.139 -0.7791 -3.9991  0.3314
 8309SOL     OW36559   3.826   0.529   6.349 -0.6010  0.0234  0.2107
 8309SOL    HW136560   3.804   0.463   6.283 -0.2120  0.4054 -0.3049
 8309SOL    HW236561   3.788   0.608   6.311 -1.6858 -1.2010 -1.2278
 8310SOL     OW36562   3.100   2.492   5.555  0.1921 -0.1224 -0.0934
 8310SOL    HW136563   3.176   2.434   5.548 -0.8480 -1.7069  1.4825
 8310SOL    HW236564   3.072   2.485   5.464 -1.1725 -1.7705  0.4525
 8311SOL     OW36565   1.251   3.859  14.068 -0.0494  0.2815  0.0222
 8311SOL    HW136566   1.230   3.880  14.159 -1.3215  1.5348 -0.5609
 8311SOL    HW236567   1.329   3.803  14.074 -1.5106 -1.6804  0.6493
 8312SOL     OW36568   0.626   1.436   4.363 -0.6196  0.4559  0.0125
 8312SOL    HW136569   0.714   1.472   4.348  0.0721 -0.3928  2.1028
 8312SOL    HW236570   0.571   1.511   4.341 -1.2005  0.0244 -0.0145
 8313SOL     OW36571   0.287   4.376   3.227 -0.6697 -0.0703  0.5742
 8313SOL    HW136572   0.282   4.297   3.281  1.2852  0.0878  1.0056
 8313SOL    HW236573   0.200   4.395   3.193 -0.2555 -3.2692 -2.3133
 8314SOL     OW36574   1.120   1.610   2.699 -0.3549 -0.6612 -0.2271
 8314SOL    HW136575   1.180   1.626   2.771  0.6374 -1.3827 -0.8984
 8314SOL    HW236576   1.049   1.667   2.728  1.3247  1.2624  0.1360
 8315SOL     OW36577   3.392   2.227   2.360  0.1852 -0.6375  0.0906
 8315SOL    HW136578   3.361   2.317   2.350 -2.3794 -1.7544 -1.7601
 8315SOL    HW236579   3.352   2.196   2.442 -1.6950 -0.1033 -0.6257
 8316SOL     OW36580   0.628   4.149   3.471  0.0462  0.2008 -0.2240
 8316SOL    HW136581   0.665   4.179   3.388  0.5074  2.8483  0.9285
 8316SOL    HW236582   0.617   4.235   3.512  0.3281  0.0017  0.2718
 8317SOL     OW36583   3.592   2.660   5.021  0.3736  0.3403  0.0458
 8317SOL    HW136584   3.675   2.642   5.065  0.8996 -1.5944 -1.7063
 8317SOL    HW236585   3.632   2.713   4.952  0.3414 -1.1561 -1.1368
 8318SOL     OW36586   0.961   0.412  16.731  0.0862 -0.0980 -0.2893
 8318SOL    HW136587   0.929   0.425  16.642 -3.4141 -0.3176  0.9352
 8318SOL    HW236588   1.008   0.495  16.740 -0.4841  0.3148 -1.0915
 8319SOL     OW36589   4.257   0.577   2.375  0.2158 -0.1351  0.3883
 8319SOL    HW136590   4.175   0.562   2.422  1.2189  0.1297  2.2523
 8319SOL    HW236591   4.328   0.579   2.440 -1.0224  1.1884  1.7141
 8320SOL     OW36592   3.118   3.952  16.782 -0.2021  0.0506  0.1990
 8320SOL    HW136593   3.186   4.016  16.759 -0.2963 -0.6045 -1.8732
 8320SOL    HW236594   3.036   4.000  16.794 -1.0884 -1.3422 -0.2922
 8321SOL     OW36595   1.461   2.179   5.275 -0.0169  0.4126  0.0846
 8321SOL    HW136596   1.497   2.261   5.309  0.7101 -0.3143  1.0769
 8321SOL    HW236597   1.402   2.154   5.346  1.0542  1.1315  1.2416
 8322SOL     OW36598   0.411   2.397   4.136 -0.2578  0.1705 -0.1333
 8322SOL    HW136599   0.450   2.467   4.187 -1.5421  1.0352 -0.3418
 8322SOL    HW236600   0.331   2.437   4.101 -0.9345 -0.8347  0.2464
 8323SOL     OW36601   2.922   1.341  16.354  0.5228 -0.5334 -0.0928
 8323SOL    HW136602   3.013   1.325  16.377  0.8520 -0.1542 -1.1216
 8323SOL    HW236603   2.902   1.282  16.281  0.7924 -1.8379  0.9019
 8324SOL     OW36604   3.911   1.344   1.728 -0.1948  0.3140  0.2293
 8324SOL    HW136605   3.856   1.393   1.666 -0.6455 -1.6354 -0.8941
 8324SOL    HW236606   3.867   1.357   1.812 -1.7602  2.3418 -0.8965
 8325SOL     OW36607   4.551   0.678  12.028 -0.5794 -0.2325  0.2231
 8325SOL    HW136608   4.475   0.619  12.035  0.8351 -1.8593  1.9682
 8325SOL    HW236609   4.520   0.765  12.006 -0.6467 -0.8738 -2.2047
 8326SOL     OW36610   1.086   2.123   9.636  0.6836  0.0260 -0.3190
 8326SOL    HW136611   1.094   2.045   9.691  1.1067  1.5635  1.7847
 8326SOL    HW236612   1.148   2.093   9.570 -0.1506 -2.8101  0.1733
 8327SOL     OW36613   0.300   1.667   1.423  0.2936 -0.6942 -0.3204
 8327SOL    HW136614   0.373   1.624   1.468  0.4229 -2.0114 -1.8336
 8327SOL    HW236615   0.278   1.746   1.474  0.9775 -1.3083  0.9379
 8328SOL     OW36616   0.205   3.887   0.858  0.2703 -0.2204 -0.0573
 8328SOL    HW136617   0.159   3.970   0.870 -0.2168 -0.7980  2.0449
 8328SOL    HW236618   0.275   3.922   0.803 -1.5058  0.4644 -1.8631
 8329SOL     OW36619   0.419   1.173  12.274  0.3189 -0.0870  0.2633
 8329SOL    HW136620   0.441   1.190  12.366  4.7531  2.6193 -1.2829
 8329SOL    HW236621   0.465   1.246  12.232 -0.7062 -0.7510 -2.0468
 8330SOL     OW36622   1.842   2.824  14.023  0.2214 -0.0671 -0.6741
 8330SOL    HW136623   1.802   2.831  13.936  0.1554  0.1536 -0.6262
 8330SOL    HW236624   1.763   2.794  14.069 -0.2597 -1.1767 -2.2143
 8331SOL     OW36625   4.396   4.210  13.260 -0.4204 -0.4594  0.6346
 8331SOL    HW136626   4.438   4.203  13.346 -1.7432  0.9266  1.3733
 8331SOL    HW236627   4.451   4.151  13.208  0.0842 -0.5305  1.2427
 8332SOL     OW36628   2.569   3.496  16.375 -0.1902  0.3058 -0.5419
 8332SOL    HW136629   2.642   3.557  16.385  0.3130 -0.1752 -1.3060
 8332SOL    HW236630   2.613   3.411  16.373 -0.8339 -0.0534  0.3683
 8333SOL     OW36631   3.684   0.212   5.431 -0.0193  0.2932  0.6654
 8333SOL    HW136632   3.612   0.154   5.408  0.5447 -0.1310  0.0037
 8333SOL    HW236633   3.744   0.204   5.357  0.3527 -1.1331  1.1309
 8334SOL     OW36634   0.460   1.882   5.369 -0.2724 -0.0099 -0.7854
 8334SOL    HW136635   0.471   1.973   5.341  1.2454  0.3994  1.1166
 8334SOL    HW236636   0.365   1.878   5.369 -0.2281 -1.0367  0.4930
 8335SOL     OW36637   1.855   4.721  17.030 -0.4992  0.5615 -0.2413
 8335SOL    HW136638   1.777   0.034  17.014 -1.1337  0.3769  2.3140
 8335SOL    HW236639   1.868   0.005  17.121 -1.4326  0.2529 -0.0214
 8336SOL     OW36640   0.417   1.753   3.274  0.1637  0.4955 -0.4495
 8336SOL    HW136641   0.511   1.752   3.292  0.0715 -1.1506 -0.0302
 8336SOL    HW236642   0.398   1.838   3.315 -3.0472 -0.1192 -0.6799
 8337SOL     OW36643   3.020   4.245   4.100  1.0204  0.1352  0.3236
 8337SOL    HW136644   3.105   4.223   4.063  0.0716 -1.5922 -0.7775
 8337SOL    HW236645   3.033   4.306   4.173  1.5054 -1.2351  1.3705
 8338SOL     OW36646   4.645   4.518   4.450  0.4384  0.0100 -0.2197
 8338SOL    HW136647   4.576   4.542   4.388 -1.2229 -2.3289  0.7200
 8338SOL    HW236648   4.683   4.438   4.413  0.8861 -0.6096  1.5743
 8339SOL     OW36649   2.813   0.387  15.939  0.2572 -0.5707  0.2938
 8339SOL    HW136650   2.872   0.462  15.927 -0.2834  0.0926  1.9098
 8339SOL    HW236651   2.766   0.394  15.856 -2.4749  0.7179  1.9753
 8340SOL     OW36652   1.910   3.683   2.488 -0.4476 -0.0369  0.1625
 8340SOL    HW136653   1.901   3.778   2.485 -1.4388 -0.1431 -0.2243
 8340SOL    HW236654   1.833   3.655   2.537 -0.6499 -2.4688 -1.5642
 8341SOL     OW36655   1.554   0.259   6.399  0.1694  0.0208 -0.3016
 8341SOL    HW136656   1.574   0.207   6.321 -0.5410 -3.0821  1.5898
 8341SOL    HW236657   1.461   0.264   6.381 -0.0586  1.0846  1.2348
 8342SOL     OW36658   2.286   3.950   4.548 -0.6495  0.0029 -0.2673
 8342SOL    HW136659   2.285   3.891   4.624  0.0358 -0.1504 -0.3753
 8342SOL    HW236660   2.224   4.013   4.586  0.7221 -0.2817  2.4253
 8343SOL     OW36661   4.653   2.611   4.197 -0.2803  0.0756  0.1609
 8343SOL    HW136662   4.604   2.615   4.115  1.0059  1.2470 -0.5497
 8343SOL    HW236663   4.740   2.592   4.163 -0.8293  1.7589 -2.1339
 8344SOL     OW36664   4.464   4.387   0.892  0.5104 -0.1956  0.6000
 8344SOL    HW136665   4.405   4.328   0.845 -0.5773 -0.7885  2.7181
 8344SOL    HW236666   4.418   4.399   0.975  0.4206  1.1412  0.3560
 8345SOL     OW36667   2.622   0.898   1.204  0.2454 -0.2861  0.5394
 8345SOL    HW136668   2.668   0.869   1.125 -1.4762 -0.8116 -0.2612
 8345SOL    HW236669   2.681   0.971   1.225 -0.8509  0.8082 -0.1638
 8346SOL     OW36670   2.455   3.136   2.496 -0.2392  0.4566 -0.3298
 8346SOL    HW136671   2.435   3.230   2.503 -0.5881  0.4300 -0.9838
 8346SOL    HW236672   2.391   3.110   2.430 -0.0969  0.0125 -0.2875
 8347SOL     OW36673   3.985   1.125  12.077  0.0781  0.4617  0.2665
 8347SOL    HW136674   4.043   1.071  12.024 -0.1695  0.7566 -0.3014
 8347SOL    HW236675   4.011   1.103  12.167 -1.0127 -1.5350  0.1069
 8348SOL     OW36676   1.402   3.494   6.089 -0.2250  0.1713  0.4105
 8348SOL    HW136677   1.419   3.575   6.138  0.9464  1.2149 -1.7385
 8348SOL    HW236678   1.404   3.438   6.167  0.1188  2.1518  1.8309
 8349SOL     OW36679   4.285   4.423  16.569 -0.1437  0.7076  0.0578
 8349SOL    HW136680   4.280   4.462  16.482 -1.1983 -0.4674 -0.3972
 8349SOL    HW236681   4.198   4.382  16.570  0.6421 -0.9673 -1.1692
 8350SOL     OW36682   1.439   2.167  14.473 -0.2430 -0.3383 -0.6198
 8350SOL    HW136683   1.532   2.182  14.492 -0.6756  1.1536  0.2429
 8350SOL    HW236684   1.427   2.093  14.532  0.8597 -0.8033 -0.9654
 8351SOL     OW36685   0.784   1.318  10.000  0.6263 -0.0029  0.7126
 8351SOL    HW136686   0.837   1.367  10.063  3.2031 -0.9201 -0.7218
 8351SOL    HW236687   0.832   1.235   9.998  0.3391 -0.1820  1.3653
 8352SOL     OW36688   3.736   1.673   4.608  0.0985  0.1796  0.2774
 8352SOL    HW136689   3.716   1.765   4.589  0.7451  0.1030 -0.7997
 8352SOL    HW236690   3.733   1.646   4.516 -0.4993  4.3585 -0.9452
 8353SOL     OW36691   4.451   0.539   7.435  0.2879  0.2853  0.3460
 8353SOL    HW136692   4.363   0.538   7.471  0.4622 -1.7676  0.7211
 8353SOL    HW236693   4.500   0.526   7.516 -2.1687  0.2501  1.8122
 8354SOL     OW36694   2.294   4.374   3.568 -0.0598 -0.3112  0.5756
 8354SOL    HW136695   2.388   4.362   3.559  0.0061  2.0309 -1.6454
 8354SOL    HW236696   2.276   4.431   3.494 -0.6194 -2.4551 -0.9473
 8355SOL     OW36697   4.256   1.250   5.493 -0.6634 -0.3777  0.2621
 8355SOL    HW136698   4.213   1.182   5.545  0.0515  0.2039  1.6080
 8355SOL    HW236699   4.346   1.223   5.514 -1.0516 -1.3965  0.5983
 8356SOL     OW36700   2.513   3.477   8.606  0.3989  0.4447  0.1445
 8356SOL    HW136701   2.516   3.551   8.667  0.1236 -0.1462  0.8739
 8356SOL    HW236702   2.561   3.516   8.533  0.0189  0.2983 -0.1810
 8357SOL     OW36703   2.182   4.556  16.609 -0.8050  0.1635 -0.1166
 8357SOL    HW136704   2.098   4.598  16.589  0.1571  1.4760 -1.4290
 8357SOL    HW236705   2.221   4.631  16.653  0.4437 -0.8692  0.5261
 8358SOL     OW36706   1.787   2.609  10.223 -0.5702 -0.1850 -0.0964
 8358SOL    HW136707   1.760   2.517  10.225  2.0592 -0.9943 -0.8792
 8358SOL    HW236708   1.814   2.622  10.132 -1.3390  0.9969 -0.1474
 8359SOL     OW36709   4.458   2.099  17.700  0.2147  0.2079  0.2950
 8359SOL    HW136710   4.524   2.155  17.741  0.3408  2.1889 -2.5776
 8359SOL    HW236711   4.519   2.029  17.674 -0.8599 -0.9222  0.8336
 8360SOL     OW36712   4.558   3.084   7.077  0.1258 -0.3044  0.2985
 8360SOL    HW136713   4.647   3.072   7.110  0.0040  1.3757  1.2713
 8360SOL    HW236714   4.567   3.149   7.008 -0.4813  1.0376  1.4660
 8361SOL     OW36715   0.952   4.352   3.831 -0.3545 -0.8746 -0.2467
 8361SOL    HW136716   0.884   4.287   3.849 -2.0878  0.7350 -0.9424
 8361SOL    HW236717   0.968   4.385   3.920  2.2958 -2.8410 -0.0120
 8362SOL     OW36718   0.297   0.854  10.560  0.0399  0.4615 -0.3841
 8362SOL    HW136719   0.215   0.807  10.550 -0.2626  1.1890 -1.2784
 8362SOL    HW236720   0.267   0.939  10.593  2.0574 -0.1956  3.1814
 8363SOL     OW36721   0.365   1.209   9.115 -0.0689  0.7138 -0.1979
 8363SOL    HW136722   0.386   1.240   9.026  0.4189 -2.8762 -1.3194
 8363SOL    HW236723   0.359   1.291   9.165 -0.1380  0.4631  0.2046
 8364SOL     OW36724   0.677   4.655  14.465 -0.2422 -0.2180 -0.2920
 8364SOL    HW136725   0.663   4.614  14.379 -2.1062  0.1857 -0.1929
 8364SOL    HW236726   0.719   4.583  14.512  1.9971  1.9030  0.9466
 8365SOL     OW36727   2.065   1.941  17.542  0.3997 -0.6235 -0.2183
 8365SOL    HW136728   1.972   1.957  17.559 -0.0861 -3.3618 -0.2888
 8365SOL    HW236729   2.098   1.930  17.631 -2.6562 -0.4194  0.9553
 8366SOL     OW36730   0.689   3.356   7.906  0.2191  0.0580 -0.1196
 8366SOL    HW136731   0.737   3.274   7.920  1.6762  0.8158 -0.6643
 8366SOL    HW236732   0.753   3.417   7.870  0.1093  1.2994  1.7991
 8367SOL     OW36733   0.509   4.560   5.369  0.0441 -0.1837  0.4004
 8367SOL    HW136734   0.483   4.468   5.362 -1.6107  0.4493 -1.7171
 8367SOL    HW236735   0.448   4.600   5.307 -0.6990  0.3859  1.5018
 8368SOL     OW36736   1.114   4.515   2.670  0.0496  0.2765  0.1651
 8368SOL    HW136737   1.173   4.583   2.700  1.7965  0.0202 -2.6815
 8368SOL    HW236738   1.074   4.554   2.592 -1.7344 -4.6870 -1.4144
 8369SOL     OW36739   3.074   3.341   3.254  0.4197 -0.4755 -0.1144
 8369SOL    HW136740   3.098   3.270   3.194 -3.2914 -1.7889 -0.0607
 8369SOL    HW236741   3.004   3.384   3.205  1.4661  1.5263  0.1791
 8370SOL     OW36742   2.591   3.258   3.404  0.1666 -0.8604 -0.2907
 8370SOL    HW136743   2.550   3.205   3.472  1.2538  1.1755  1.9543
 8370SOL    HW236744   2.665   3.200   3.385  2.1838  1.5158  0.2836
 8371SOL     OW36745   2.377   4.225   1.957  0.1622 -0.1038  0.4151
 8371SOL    HW136746   2.350   4.313   1.931  1.5681 -0.5055 -2.3615
 8371SOL    HW236747   2.311   4.214   2.025 -0.2942  2.3700  0.3611
 8372SOL     OW36748   2.470   0.202  11.908  0.4884  0.0148 -0.5127
 8372SOL    HW136749   2.511   0.123  11.874  1.7099 -0.0707  1.1840
 8372SOL    HW236750   2.443   0.241  11.825 -0.3395  0.6699  0.0680
 8373SOL     OW36751   0.480   0.799   1.164 -0.9770  0.2757 -0.0055
 8373SOL    HW136752   0.485   0.746   1.244  0.2169  0.6662  0.1703
 8373SOL    HW236753   0.544   0.869   1.180 -0.8451 -0.3490  2.2277
 8374SOL     OW36754   4.235   3.212  12.340  0.2888 -0.1762 -0.2991
 8374SOL    HW136755   4.196   3.267  12.273  0.6726  0.0739 -0.3191
 8374SOL    HW236756   4.269   3.135  12.295 -1.3102 -1.4492  0.6748
 8375SOL     OW36757   2.141   4.718  10.315 -0.2235 -0.1630 -0.0407
 8375SOL    HW136758   2.117   0.040  10.383  0.2341 -0.3190  0.2642
 8375SOL    HW236759   2.189   4.654  10.368  1.3166  1.2855  0.3027
 8376SOL     OW36760   4.054   1.396   7.463 -0.5990  0.0291 -0.3866
 8376SOL    HW136761   4.024   1.331   7.400 -2.2129 -0.2111  0.6341
 8376SOL    HW236762   4.148   1.394   7.442 -1.1427  1.9237 -2.9795
 8377SOL     OW36763   3.743   1.757  12.168  0.6051  0.3307 -0.4283
 8377SOL    HW136764   3.682   1.822  12.134  1.0877  0.8575 -0.2807
 8377SOL    HW236765   3.679   1.689  12.188  1.9096 -0.7053  0.2255
 8378SOL     OW36766   4.618   0.145   5.937 -0.4843 -0.1480 -0.6160
 8378SOL    HW136767   4.608   0.110   6.025 -0.7143  2.1236  0.2601
 8378SOL    HW236768   4.532   0.133   5.896 -1.3860  0.2672  1.1286
 8379SOL     OW36769   4.389   4.399   2.191  0.4671  0.8043 -0.2826
 8379SOL    HW136770   4.478   4.433   2.206 -0.4629  3.2555 -0.3117
 8379SOL    HW236771   4.374   4.332   2.258 -1.4655  0.1934 -1.3313
 8380SOL     OW36772   2.827   0.907  16.229  0.3995  0.3065  0.1550
 8380SOL    HW136773   2.756   0.955  16.186 -0.1613  2.8874  3.9469
 8380SOL    HW236774   2.880   0.889  16.151 -0.0040  1.9179 -0.4870
 8381SOL     OW36775   1.587   0.198   1.791 -0.4234  0.8545  0.0527
 8381SOL    HW136776   1.607   0.195   1.884 -2.1482 -1.8041  0.3397
 8381SOL    HW236777   1.575   0.105   1.772 -2.2839  0.9457  0.7854
 8382SOL     OW36778   2.568   3.774   8.697  0.0575  0.9649 -0.1315
 8382SOL    HW136779   2.563   3.801   8.605  2.4461 -0.3758 -0.6664
 8382SOL    HW236780   2.659   3.746   8.709 -0.3489 -0.1399  0.3877
 8383SOL     OW36781   3.580   1.312  13.477 -0.0299 -0.1692  0.2713
 8383SOL    HW136782   3.514   1.380  13.492 -0.5713 -0.8232  0.8662
 8383SOL    HW236783   3.593   1.317  13.382 -2.2269  2.2082  0.0671
 8384SOL     OW36784   1.058   1.304  11.943 -0.0299  0.9528 -0.8278
 8384SOL    HW136785   1.055   1.334  11.852 -1.4239  0.0519 -1.0712
 8384SOL    HW236786   1.069   1.389  11.984  2.2995  0.1678  0.1846
 8385SOL     OW36787   3.159   3.155   2.424  0.2746  0.3215 -0.3836
 8385SOL    HW136788   3.152   3.200   2.340 -0.0601 -0.7288 -0.9233
 8385SOL    HW236789   3.073   3.165   2.463  0.8339 -0.2179  1.0071
 8386SOL     OW36790   4.147   3.720   3.829  0.2598  0.8910  0.3357
 8386SOL    HW136791   4.126   3.708   3.737  1.0242 -1.8636  0.5265
 8386SOL    HW236792   4.136   3.632   3.865 -1.6700  0.0189 -2.3724
 8387SOL     OW36793   4.237   0.796   8.935  0.6157  0.0577  0.5267
 8387SOL    HW136794   4.295   0.852   8.884 -0.4388  1.6484  1.0740
 8387SOL    HW236795   4.155   0.844   8.927 -0.8903 -2.8367 -1.2630
 8388SOL     OW36796   0.038   1.911  12.495 -0.5109 -0.6928  0.9368
 8388SOL    HW136797   0.084   1.958  12.564  1.6015 -1.6222  0.1678
 8388SOL    HW236798   4.694   1.954  12.484 -0.9224 -1.7622 -0.1084
 8389SOL     OW36799   4.507   0.420  16.488  0.1555 -0.5044 -0.1512
 8389SOL    HW136800   4.561   0.356  16.441 -1.3028 -1.9898  0.2091
 8389SOL    HW236801   4.572   0.437  16.557 -0.1241 -0.3822  0.0840
 8390SOL     OW36802   4.449   2.151   3.182 -0.0908 -0.1577 -0.4303
 8390SOL    HW136803   4.411   2.068   3.209  1.1608 -0.6195 -0.0688
 8390SOL    HW236804   4.390   2.217   3.219  1.1486  1.9823 -2.2369
 8391SOL     OW36805   0.469   1.269   5.146  0.3647 -0.1089  0.0447
 8391SOL    HW136806   0.457   1.228   5.232  0.0551  0.1795  0.1411
 8391SOL    HW236807   0.564   1.266   5.134  0.4291 -0.8146  0.7535
 8392SOL     OW36808   4.048   2.216   0.615  0.1777  0.1746 -1.1709
 8392SOL    HW136809   4.132   2.232   0.658 -0.5359  2.6535 -0.6521
 8392SOL    HW236810   4.069   2.150   0.550  0.2005  0.8010 -1.7925
 8393SOL     OW36811   3.107   3.263   6.618  0.1993 -0.0389  0.5031
 8393SOL    HW136812   3.080   3.294   6.532 -0.3779  0.0987  0.7313
 8393SOL    HW236813   3.200   3.278   6.600  0.0415 -0.3125 -0.4986
 8394SOL     OW36814   1.290   0.233   6.411  0.2772  0.7358 -0.3555
 8394SOL    HW136815   1.255   0.315   6.375 -0.8939 -1.2868 -3.8431
 8394SOL    HW236816   1.210   0.192   6.444  2.3335 -1.2387  2.2034
 8395SOL     OW36817   3.223   4.573   6.865 -0.0691  0.0455 -0.0612
 8395SOL    HW136818   3.205   4.484   6.895  0.1127  0.6302  1.7940
 8395SOL    HW236819   3.292   4.559   6.801  1.8014  0.3216  1.9198
 8396SOL     OW36820   2.072   3.909  13.155  0.6294  0.1132 -0.7516
 8396SOL    HW136821   2.013   3.958  13.099 -1.3347 -0.6004  0.7021
 8396SOL    HW236822   2.007   3.889  13.222  0.6578  2.0746 -0.1184
 8397SOL     OW36823   3.879   1.819   8.677 -0.3769 -0.0434 -0.5361
 8397SOL    HW136824   3.941   1.757   8.714  1.1069  0.9922 -1.3026
 8397SOL    HW236825   3.856   1.768   8.599 -2.1965 -0.7607  0.4640
 8398SOL     OW36826   1.465   3.169   7.115  0.0578  0.3432 -0.0726
 8398SOL    HW136827   1.474   3.091   7.170  0.9042 -0.3877 -1.2563
 8398SOL    HW236828   1.499   3.238   7.172 -1.4204  2.8842 -2.2626
 8399SOL     OW36829   4.525   1.850   2.763  0.1178  0.2295  0.2708
 8399SOL    HW136830   4.532   1.824   2.855 -1.6391 -0.2043  0.2857
 8399SOL    HW236831   4.587   1.791   2.720  0.2899  0.2869  0.4429
 8400SOL     OW36832   4.289   0.653  13.558 -0.1727 -0.4111  0.3640
 8400SOL    HW136833   4.244   0.735  13.579 -0.7467 -0.6555  0.0681
 8400SOL    HW236834   4.342   0.642  13.636 -1.8500  0.7747  1.6626
 8401SOL     OW36835   3.223   0.782   8.743  0.1840  0.4130 -0.1730
 8401SOL    HW136836   3.182   0.721   8.681 -0.3656  0.3394  0.2692
 8401SOL    HW236837   3.163   0.857   8.742 -1.8954 -1.2355 -1.2671
 8402SOL     OW36838   0.496   0.845   6.975  0.5193 -1.1347 -0.6166
 8402SOL    HW136839   0.536   0.902   6.910 -0.0072  0.2188  0.2542
 8402SOL    HW236840   0.404   0.870   6.965  0.6845 -0.7991 -1.3352
 8403SOL     OW36841   2.290   4.413   8.841  0.0886 -0.7026 -0.4457
 8403SOL    HW136842   2.234   4.337   8.855 -1.0143 -0.1382 -1.8017
 8403SOL    HW236843   2.341   4.415   8.923  0.1533  0.6075 -0.5126
 8404SOL     OW36844   3.541   4.424  12.924  0.1278 -0.6807  0.0508
 8404SOL    HW136845   3.515   4.469  13.005  0.4889 -1.1414  0.4210
 8404SOL    HW236846   3.555   4.499  12.866 -1.8306 -0.9614 -0.8165
 8405SOL     OW36847   1.175   2.852   5.820  0.4304  0.2297  0.6116
 8405SOL    HW136848   1.152   2.901   5.898 -1.4345 -0.6663  0.6235
 8405SOL    HW236849   1.103   2.789   5.814 -0.2490  1.1548 -0.9399
 8406SOL     OW36850   3.528   4.593   5.757  0.4992 -0.1206  0.4922
 8406SOL    HW136851   3.553   4.629   5.672  0.6440 -1.1342  0.0995
 8406SOL    HW236852   3.434   4.606   5.761  1.1299  3.3967  3.4793
 8407SOL     OW36853   3.782   1.295   0.933  0.4383 -0.4804 -0.7079
 8407SOL    HW136854   3.776   1.205   0.901 -0.3150 -0.1263 -1.5856
 8407SOL    HW236855   3.691   1.327   0.937  1.0136  1.4343 -2.6124
 8408SOL     OW36856   4.319   1.624   4.440  0.1006 -0.7144  0.0574
 8408SOL    HW136857   4.261   1.641   4.515  0.2232 -1.2153  0.2666
 8408SOL    HW236858   4.259   1.578   4.381 -1.1477 -0.1078  0.8361
 8409SOL     OW36859   4.421   1.587   1.892  0.4583 -0.1099 -0.7450
 8409SOL    HW136860   4.483   1.586   1.818 -0.6980 -0.8769 -1.7073
 8409SOL    HW236861   4.396   1.679   1.887 -2.0275 -0.7245  0.5540
 8410SOL     OW36862   1.991   3.470   6.914  0.0779 -0.9411  0.5717
 8410SOL    HW136863   1.960   3.517   6.837  2.6576 -1.0948 -0.5251
 8410SOL    HW236864   2.075   3.509   6.938  1.0037 -2.3560 -0.4186
 8411SOL     OW36865   3.695   2.336   9.657 -0.7751 -0.1778  0.5535
 8411SOL    HW136866   3.731   2.403   9.714  1.8913  1.0362 -2.5610
 8411SOL    HW236867   3.764   2.315   9.593 -2.1945 -0.4779 -0.8971
 8412SOL     OW36868   1.495   4.157   5.919 -0.2253 -0.0046  0.3105
 8412SOL    HW136869   1.554   4.217   5.874 -0.4926 -2.1460 -2.9260
 8412SOL    HW236870   1.507   4.177   6.011  2.3368  0.2336 -0.0687
 8413SOL     OW36871   4.282   4.322  17.668 -0.0055 -0.4849  0.4005
 8413SOL    HW136872   4.357   4.297  17.722 -0.0407 -1.3079  0.0722
 8413SOL    HW236873   4.318   4.348  17.583  0.4185 -3.1230 -0.2292
 8414SOL     OW36874   2.123   4.041   6.828  0.8085  0.6814 -0.0239
 8414SOL    HW136875   2.063   4.074   6.761 -1.3150 -1.5253  0.7810
 8414SOL    HW236876   2.068   3.987   6.885  0.4474 -0.3568 -1.3805
 8415SOL     OW36877   0.464   1.006   7.349  0.6864 -0.3031  0.5515
 8415SOL    HW136878   0.378   0.995   7.307  0.4589 -1.6171  1.3347
 8415SOL    HW236879   0.441   1.038   7.436  2.2328  0.0657  0.8181
 8416SOL     OW36880   4.731   0.408  10.744 -0.5265  0.4170  0.8948
 8416SOL    HW136881   0.066   0.403  10.802 -1.8437 -0.9328  2.5046
 8416SOL    HW236882   4.669   0.452  10.802  0.4499  2.2252  0.5453
 8417SOL     OW36883   0.636   2.970   6.118  0.2211 -0.1563  0.7136
 8417SOL    HW136884   0.652   3.063   6.132 -2.1779  0.1691  1.1598
 8417SOL    HW236885   0.699   2.941   6.184  2.0534  1.9487 -0.1012
 8418SOL     OW36886   1.862   1.041   4.396  0.0279  0.8138  0.3473
 8418SOL    HW136887   1.890   1.050   4.487  0.9519  0.8901  0.0515
 8418SOL    HW236888   1.850   0.946   4.397 -1.4859  0.9718 -1.4649
 8419SOL     OW36889   2.603   1.024   4.619 -0.0311 -0.2179  0.0398
 8419SOL    HW136890   2.670   0.956   4.607  0.5660  0.6298 -1.3801
 8419SOL    HW236891   2.634   1.091   4.558 -2.4965 -0.6470 -1.6884
 8420SOL     OW36892   3.773   3.496  12.682  0.1892 -0.1159  0.9513
 8420SOL    HW136893   3.834   3.544  12.625 -0.5979  0.9936  1.0350
 8420SOL    HW236894   3.842   3.465  12.741  0.7781 -0.3737  0.1318
 8421SOL     OW36895   3.324   2.495   8.287  0.3372  0.0479 -0.2552
 8421SOL    HW136896   3.366   2.533   8.365 -0.1940 -0.6446  0.3695
 8421SOL    HW236897   3.241   2.540   8.302  1.3043  1.9231 -0.4490
 8422SOL     OW36898   4.460   2.503   4.381 -0.1004  0.1530 -0.6711
 8422SOL    HW136899   4.381   2.498   4.328 -1.8079 -1.4651  2.0179
 8422SOL    HW236900   4.527   2.525   4.316 -1.3178  1.7052 -1.3870
 8423SOL     OW36901   0.931   1.810   9.550  0.1286 -0.1942 -0.1514
 8423SOL    HW136902   0.981   1.867   9.609  0.5652 -1.6848  0.8977
 8423SOL    HW236903   0.866   1.873   9.519  0.3139 -0.4997 -1.1735
 8424SOL     OW36904   3.263   4.680   5.396 -0.0478  0.3917  0.3181
 8424SOL    HW136905   3.236   4.656   5.308 -1.1326 -0.1807  0.8097
 8424SOL    HW236906   3.180   4.724   5.417 -0.2951  0.5284 -0.9277
 8425SOL     OW36907   3.121   0.338  12.088 -0.6897  0.3835  0.4202
 8425SOL    HW136908   3.058   0.323  12.159  1.0276  1.4562  2.1797
 8425SOL    HW236909   3.094   0.420  12.046  2.0503  0.2129 -1.6907
 8426SOL     OW36910   2.761   2.620   4.804 -0.4948  0.2045 -0.0488
 8426SOL    HW136911   2.688   2.604   4.864 -0.7171  0.5339 -0.2295
 8426SOL    HW236912   2.816   2.545   4.827  0.0288  0.3323 -0.9137
 8427SOL     OW36913   0.412   4.136  12.027 -0.2119  0.0732  0.2061
 8427SOL    HW136914   0.378   4.077  11.959  1.0114 -0.7405  0.3047
 8427SOL    HW236915   0.370   4.217  11.998  0.8063  0.8350  0.8537
 8428SOL     OW36916   1.958   3.710  10.894 -0.7514  0.0718  0.0398
 8428SOL    HW136917   1.906   3.664  10.828  0.1885 -0.4182 -0.3549
 8428SOL    HW236918   1.898   3.709  10.968  0.1946 -2.4796  0.7328
 8429SOL     OW36919   2.331   0.218   3.670 -0.3183  0.7902 -0.2941
 8429SOL    HW136920   2.379   0.280   3.615  1.8073  1.5356  2.4418
 8429SOL    HW236921   2.375   0.212   3.754 -0.5415 -1.5339 -0.3400
 8430SOL     OW36922   3.356   4.340   5.468  0.1612 -0.0958  0.0195
 8430SOL    HW136923   3.447   4.356   5.495  0.4220 -1.1769 -0.2247
 8430SOL    HW236924   3.368   4.275   5.399  0.1404 -0.9199  0.7893
 8431SOL     OW36925   2.992   2.823  14.402  0.1706  0.0420 -0.5352
 8431SOL    HW136926   3.019   2.914  14.391  1.5073 -0.2118  0.8062
 8431SOL    HW236927   2.898   2.843  14.410  0.3710  0.8667 -0.1959
 8432SOL     OW36928   3.010   4.639   3.621 -0.0694 -0.2661  0.0222
 8432SOL    HW136929   3.096   4.630   3.662 -0.7771 -1.3481  1.2399
 8432SOL    HW236930   2.959   4.687   3.686  0.4526  2.7720 -1.7790
 8433SOL     OW36931   3.901   1.939   1.862  0.0080 -0.3039  0.0624
 8433SOL    HW136932   3.811   1.959   1.888  0.6307  1.2175  1.0354
 8433SOL    HW236933   3.909   1.846   1.885  0.5168 -0.4446 -0.6665
 8434SOL     OW36934   1.617   1.729   7.179 -0.0212  0.5143 -0.2531
 8434SOL    HW136935   1.594   1.802   7.237 -0.0061 -1.4388  2.2253
 8434SOL    HW236936   1.558   1.754   7.108 -1.0253 -0.5421  0.2188
 8435SOL     OW36937   3.972   1.098   1.725  0.3632  0.8013 -0.0949
 8435SOL    HW136938   3.949   1.191   1.736 -2.8833 -0.4618  3.7476
 8435SOL    HW236939   3.958   1.081   1.632 -0.7986 -1.7702  0.5539
 8436SOL     OW36940   2.504   0.360   5.174  0.1053  0.3726 -0.6043
 8436SOL    HW136941   2.462   0.281   5.210  1.3456  0.9209  2.0383
 8436SOL    HW236942   2.552   0.327   5.098  0.5522 -2.1358  0.7579
 8437SOL     OW36943   1.001   4.454   0.623 -0.0973  0.0973 -1.0468
 8437SOL    HW136944   1.055   4.468   0.545  0.9898 -4.4347 -1.0793
 8437SOL    HW236945   0.933   4.397   0.587 -2.1890  2.0325 -0.2058
 8438SOL     OW36946   2.373   4.468   1.851  0.1531  0.1019  0.0298
 8438SOL    HW136947   2.460   4.500   1.875  0.2638 -1.2717  1.4647
 8438SOL    HW236948   2.382   4.473   1.756  0.1716 -2.3706 -0.0811
 8439SOL     OW36949   2.939   0.734  11.165 -0.4622 -0.5822  0.2400
 8439SOL    HW136950   2.902   0.822  11.167 -0.0210 -0.3731 -1.2205
 8439SOL    HW236951   3.031   0.752  11.148 -0.9867  0.5588 -1.2917
 8440SOL     OW36952   2.325   4.633   1.553  0.1491 -0.3298  0.1600
 8440SOL    HW136953   2.254   4.570   1.564  0.1050  0.1269  2.3593
 8440SOL    HW236954   2.298   4.656   1.464  2.2038 -1.1011 -0.6457
 8441SOL     OW36955   1.815   2.599   8.100  0.0602 -0.1625 -0.3364
 8441SOL    HW136956   1.758   2.534   8.140  0.9155 -2.0792 -2.2285
 8441SOL    HW236957   1.760   2.630   8.028  1.4209  0.4755 -1.0787
 8442SOL     OW36958   3.606   4.430   6.290 -0.2277 -0.0918 -0.3791
 8442SOL    HW136959   3.624   4.481   6.212 -0.2607  0.0588 -0.2870
 8442SOL    HW236960   3.546   4.489   6.335  1.7872  0.9252  0.9696
 8443SOL     OW36961   1.723   3.402   1.863  0.0268 -0.2894 -0.3586
 8443SOL    HW136962   1.682   3.381   1.947  0.0983 -0.0332 -0.2603
 8443SOL    HW236963   1.794   3.339   1.873  0.5498  0.2694 -0.5684
 8444SOL     OW36964   4.277   2.751   1.411  0.2081  0.1679  0.0558
 8444SOL    HW136965   4.184   2.771   1.402  0.2417 -0.8538 -2.4326
 8444SOL    HW236966   4.270   2.672   1.357 -1.2290  1.0922 -1.0786
 8445SOL     OW36967   1.132   2.498   7.697  0.3038  0.4259 -0.2000
 8445SOL    HW136968   1.181   2.416   7.704  0.9411  0.7643 -0.6398
 8445SOL    HW236969   1.043   2.465   7.686  0.6330 -0.6558  0.4508
 8446SOL     OW36970   1.379   2.796  10.468 -0.3735 -0.2309 -0.8111
 8446SOL    HW136971   1.439   2.737  10.424  1.4585 -0.0533  1.3981
 8446SOL    HW236972   1.323   2.739  10.520  1.0830 -0.5068  0.4891
 8447SOL     OW36973   0.270   2.740   1.108  0.3736  0.1964  0.4296
 8447SOL    HW136974   0.277   2.725   1.014 -0.7408 -3.2381  0.8927
 8447SOL    HW236975   0.175   2.735   1.120  0.2883  0.7527 -0.0199
 8448SOL     OW36976   2.901   1.518   3.749  0.3824  0.2112  0.4249
 8448SOL    HW136977   2.985   1.562   3.737  0.2435  0.2742 -0.3049
 8448SOL    HW236978   2.895   1.465   3.670 -0.2133  0.4826  0.2911
 8449SOL     OW36979   2.043   2.437   2.119 -0.1443 -0.7649  0.3595
 8449SOL    HW136980   2.059   2.531   2.126 -2.4657 -0.4574  1.3934
 8449SOL    HW236981   2.012   2.417   2.207 -0.1839 -1.6199  0.1473
 8450SOL     OW36982   1.870   2.169   4.272 -0.0033 -0.6602 -0.0418
 8450SOL    HW136983   1.863   2.079   4.306 -2.9706 -0.8227 -1.0618
 8450SOL    HW236984   1.778   2.187   4.252 -0.0189  0.5641  1.1933
 8451SOL     OW36985   1.976   2.386  17.582  0.0272  0.1000 -0.1987
 8451SOL    HW136986   1.909   2.450  17.603 -0.2085 -0.5712  1.1031
 8451SOL    HW236987   1.971   2.328  17.658 -2.1945  1.1202  0.4436
 8452SOL     OW36988   2.571   1.344  15.833 -0.1081 -0.0126  0.0474
 8452SOL    HW136989   2.532   1.262  15.802 -0.2371 -0.3929  1.2047
 8452SOL    HW236990   2.660   1.311  15.847 -0.1199 -0.5256 -1.0979
 8453SOL     OW36991   1.873   4.706   4.132 -0.6901 -0.2169 -0.4917
 8453SOL    HW136992   1.859   4.652   4.054 -0.7466  0.0482 -0.6650
 8453SOL    HW236993   1.820   4.654   4.192  0.0291  1.1066  1.2961
 8454SOL     OW36994   2.472   0.476   8.632  0.2687 -0.0464  0.3929
 8454SOL    HW136995   2.533   0.447   8.700 -0.1567  0.5286  1.0165
 8454SOL    HW236996   2.477   0.571   8.643 -1.0265 -0.0235  0.7958
 8455SOL     OW36997   1.152   0.124  14.632 -0.4568  0.1993 -0.4214
 8455SOL    HW136998   1.148   0.139  14.727  0.3367 -1.5139 -0.1150
 8455SOL    HW236999   1.061   0.115  14.604 -0.7369  0.8419  0.2744
 8456SOL     OW37000   0.264   2.962   9.932  0.1369  0.0046  0.5028
 8456SOL    HW137001   0.208   3.036   9.957  2.0603  1.3571  0.8491
 8456SOL    HW237002   0.341   2.978   9.986 -0.9369  1.1761  1.6857
 8457SOL     OW37003   4.469   0.337   2.177 -0.7589  1.1704  0.5314
 8457SOL    HW137004   4.425   0.290   2.249 -0.0813  1.6306  1.2449
 8457SOL    HW237005   4.525   0.408   2.207  1.3853 -1.6209  3.2173
 8458SOL     OW37006   4.616   3.212   4.632  0.4288 -0.4366  0.1682
 8458SOL    HW137007   4.645   3.170   4.713  0.1564  2.1038  1.5861
 8458SOL    HW237008   4.529   3.247   4.652 -0.2965 -2.1262 -0.0050
 8459SOL     OW37009   2.556   1.904  13.704  0.0846  0.5531  0.6210
 8459SOL    HW137010   2.565   1.822  13.753  2.8586  0.8023  0.5279
 8459SOL    HW237011   2.635   1.955  13.717  0.0273  0.4398  1.3819
 8460SOL     OW37012   0.452   4.605   8.521 -0.0620  0.2930  0.5190
 8460SOL    HW137013   0.410   4.581   8.438 -0.9017 -0.7051  1.2290
 8460SOL    HW237014   0.498   4.522   8.531  0.4112  0.2153 -2.2392
 8461SOL     OW37015   1.972   4.028   5.581  0.3121 -0.3446 -0.1692
 8461SOL    HW137016   2.014   3.960   5.634  0.0201 -0.5340 -0.1815
 8461SOL    HW237017   1.910   3.980   5.526  0.1308 -1.7113  1.2398
 8462SOL     OW37018   2.190   0.880  11.565 -0.6754  0.1420  0.5666
 8462SOL    HW137019   2.214   0.831  11.644 -1.1450 -0.8993  0.0547
 8462SOL    HW237020   2.103   0.843  11.552  0.3750 -1.6569 -1.1913
 8463SOL     OW37021   1.511   1.178   0.661 -0.1492 -0.1418 -0.3369
 8463SOL    HW137022   1.582   1.157   0.600  1.3751  1.8098  0.7807
 8463SOL    HW237023   1.436   1.203   0.607 -0.1194 -1.3571 -0.9413
 8464SOL     OW37024   3.080   2.107   6.970 -0.6997  0.2639 -0.0913
 8464SOL    HW137025   3.106   2.150   6.888  2.3114  1.6382  1.5652
 8464SOL    HW237026   3.123   2.162   7.036  2.4912 -0.3114 -1.6428
 8465SOL     OW37027   1.128   4.080   2.319  0.3517  0.3449  0.2636
 8465SOL    HW137028   1.087   3.996   2.339 -0.1094  0.3936 -0.4582
 8465SOL    HW237029   1.206   4.083   2.375  0.7143  0.8988 -0.2572
 8466SOL     OW37030   1.610   1.308  11.596  0.3198  0.4898 -1.0635
 8466SOL    HW137031   1.691   1.274  11.557 -0.1232 -1.2366 -0.4541
 8466SOL    HW237032   1.575   1.384  11.549 -4.6260 -1.4364 -0.3956
 8467SOL     OW37033   1.939   3.348   7.947 -0.8774 -0.2839 -0.0588
 8467SOL    HW137034   1.956   3.259   7.979  1.2614 -0.3307 -1.3894
 8467SOL    HW237035   1.987   3.403   8.009  0.0676 -1.1328 -0.0337
 8468SOL     OW37036   4.021   2.815   3.664  0.0414  0.2461  0.4478
 8468SOL    HW137037   4.081   2.888   3.681 -2.3588  1.9265  1.8076
 8468SOL    HW237038   4.079   2.739   3.664  0.9957  0.9734  1.2371
 8469SOL     OW37039   1.442   4.086  14.456  0.0665  0.2735 -0.2609
 8469SOL    HW137040   1.396   4.099  14.540 -1.5074 -0.0952 -1.0600
 8469SOL    HW237041   1.427   3.999  14.418 -0.6135  0.3696 -0.2093
 8470SOL     OW37042   4.515   2.279   3.695 -0.2329 -0.0753 -0.1530
 8470SOL    HW137043   4.435   2.312   3.735  0.0161  0.7782 -0.3591
 8470SOL    HW237044   4.529   2.348   3.630  2.7799 -1.3423 -0.8327
 8471SOL     OW37045   1.594   2.708  16.055  0.3683 -0.6102 -0.2126
 8471SOL    HW137046   1.612   2.703  15.961  0.4912  3.8207 -0.4281
 8471SOL    HW237047   1.507   2.747  16.056  0.8035  0.3976 -1.0819
 8472SOL     OW37048   2.053   4.242  15.655 -0.3777  0.3217 -0.1675
 8472SOL    HW137049   2.036   4.295  15.733  2.2429  0.8008  0.0862
 8472SOL    HW237050   2.054   4.306  15.583 -2.5133  0.5935  0.0427
 8473SOL     OW37051   3.795   2.698  13.887 -0.4514 -0.4456 -0.2379
 8473SOL    HW137052   3.860   2.632  13.912  3.4113  4.4670  2.8534
 8473SOL    HW237053   3.834   2.781  13.914 -3.2999  1.5443 -2.3294
 8474SOL     OW37054   0.364   3.064   7.482  0.1708 -0.1153  0.0549
 8474SOL    HW137055   0.397   2.980   7.449 -0.5199  0.6813 -2.7191
 8474SOL    HW237056   0.296   3.031   7.541  0.3320 -0.6881 -0.0749
 8475SOL     OW37057   0.418   3.935   5.783 -0.1010 -0.2017 -0.2438
 8475SOL    HW137058   0.362   4.007   5.812  0.4545 -0.5951  1.7475
 8475SOL    HW237059   0.507   3.971   5.790 -0.0151 -0.0027 -2.1187
 8476SOL     OW37060   2.857   0.607   3.880 -0.0069  0.1324 -0.3590
 8476SOL    HW137061   2.818   0.676   3.934  2.6178  0.1269  1.5451
 8476SOL    HW237062   2.785   0.589   3.820 -2.4694  0.9296  2.3376
 8477SOL     OW37063   4.574   1.017   0.866  0.1067 -0.0127 -0.1727
 8477SOL    HW137064   4.526   0.939   0.839 -0.0377  0.1935 -0.5149
 8477SOL    HW237065   4.633   0.980   0.932  1.0389 -0.0987 -1.0429
 8478SOL     OW37066   1.159   2.635  15.550  0.1719 -0.1941  0.2258
 8478SOL    HW137067   1.177   2.645  15.644  0.5868  1.0969  0.0198
 8478SOL    HW237068   1.205   2.554  15.533 -1.2628 -1.0014  0.1555
 8479SOL     OW37069   2.577   0.337   6.457  0.2601  0.1112 -0.1435
 8479SOL    HW137070   2.531   0.383   6.386  0.0208 -0.3010 -0.2543
 8479SOL    HW237071   2.564   0.252   6.416  3.3281 -0.4105 -0.0447
 8480SOL     OW37072   3.507   2.599   8.517 -0.0363 -0.0617  0.5400
 8480SOL    HW137073   3.561   2.539   8.569  3.5074  3.7693  1.3434
 8480SOL    HW237074   3.477   2.669   8.575 -1.5882  0.5951 -1.0428
 8481SOL     OW37075   1.477   4.443  11.276 -0.5124  0.1055  0.7909
 8481SOL    HW137076   1.406   4.484  11.226  0.0632 -1.2997 -1.2191
 8481SOL    HW237077   1.520   4.396  11.204  0.4462  0.8845  0.8643
 8482SOL     OW37078   4.047   0.671  11.994 -0.4238 -0.0449 -0.1314
 8482SOL    HW137079   4.132   0.642  11.960 -0.8899  1.7646 -2.8482
 8482SOL    HW237080   4.075   0.721  12.070  1.4693 -0.0035 -0.8416
 8483SOL     OW37081   4.156   3.244  16.607  0.0735 -0.2536 -0.6411
 8483SOL    HW137082   4.162   3.149  16.613  3.5206  0.0538  0.5574
 8483SOL    HW237083   4.073   3.265  16.650  1.1211  2.9772 -0.2210
 8484SOL     OW37084   0.958   4.011   2.673 -0.1315  0.1224  0.2283
 8484SOL    HW137085   0.915   3.990   2.755 -0.7375 -2.1767 -0.6878
 8484SOL    HW237086   0.956   4.107   2.674 -1.0880  0.0978  0.5158
 8485SOL     OW37087   2.721   0.123   4.072  0.5247  0.0659 -0.3532
 8485SOL    HW137088   2.627   0.141   4.077  0.3283 -0.8707 -0.6587
 8485SOL    HW237089   2.716   0.027   4.076  0.1402  0.1156  0.3022
 8486SOL     OW37090   0.356   3.508   2.047 -0.2907 -0.3120  0.2803
 8486SOL    HW137091   0.307   3.590   2.038  0.6763  0.1171 -1.1029
 8486SOL    HW237092   0.441   3.536   2.082 -0.4661  1.9822 -1.1277
 8487SOL     OW37093   1.816   1.607   2.535  0.5315  0.1624 -0.3267
 8487SOL    HW137094   1.826   1.532   2.476 -1.9736  0.8052 -1.5213
 8487SOL    HW237095   1.798   1.681   2.477  1.2957  1.3449  0.9368
 8488SOL     OW37096   1.103   2.365   5.904  0.0679 -0.2579 -0.7332
 8488SOL    HW137097   1.035   2.338   5.966 -0.0630  0.4358 -0.5761
 8488SOL    HW237098   1.108   2.285   5.851 -1.4998 -0.2344 -0.9283
 8489SOL     OW37099   0.480   2.714   8.869 -0.5152  0.3367 -0.0439
 8489SOL    HW137100   0.548   2.729   8.934 -0.0247  2.5594 -1.0321
 8489SOL    HW237101   0.537   2.679   8.801 -2.1478  1.6781 -2.1232
 8490SOL     OW37102   3.831   1.198   4.267 -0.0567 -0.3790  0.0557
 8490SOL    HW137103   3.926   1.199   4.258 -0.2012 -1.8858 -1.6345
 8490SOL    HW237104   3.805   1.110   4.293 -1.6657  0.5900  1.7040
 8491SOL     OW37105   3.056   2.973   5.756 -0.8298 -0.2317 -0.3664
 8491SOL    HW137106   3.109   2.911   5.807 -1.4298 -0.7152 -0.3202
 8491SOL    HW237107   3.076   2.937   5.670 -1.3232  1.0268 -0.9905
 8492SOL     OW37108   3.361   2.826   3.506  0.0435  0.4037  0.3088
 8492SOL    HW137109   3.453   2.853   3.494 -0.0818  0.3175 -0.8874
 8492SOL    HW237110   3.341   2.889   3.575 -0.4969 -0.6773  1.1349
 8493SOL     OW37111   1.637   3.297  12.751  0.2208  0.1508 -0.7419
 8493SOL    HW137112   1.714   3.344  12.785 -0.7912  0.8185  0.6441
 8493SOL    HW237113   1.620   3.237  12.824 -2.4327  0.4940 -1.0887
 8494SOL     OW37114   3.657   0.656   5.935  0.2496  0.3905  0.0768
 8494SOL    HW137115   3.578   0.706   5.915  0.8546  1.0450 -0.6790
 8494SOL    HW237116   3.616   0.570   5.924  3.7801 -0.8348 -3.6150
 8495SOL     OW37117   4.523   1.857   2.276  0.1855 -0.5583 -0.2492
 8495SOL    HW137118   4.584   1.835   2.206  1.2187 -0.1650  0.5409
 8495SOL    HW237119   4.483   1.773   2.302  0.8337 -0.7433  0.1289
 8496SOL     OW37120   0.597   2.141   8.969  0.0420 -0.3960 -0.1082
 8496SOL    HW137121   0.513   2.187   8.975  0.0474 -0.4325  0.2742
 8496SOL    HW237122   0.571   2.063   9.019 -2.6821  0.3779 -0.3051
 8497SOL     OW37123   4.629   0.140   0.502 -0.2618 -0.3536 -0.1171
 8497SOL    HW137124   4.581   0.060   0.526 -1.5205  0.4265 -0.0569
 8497SOL    HW237125   4.710   0.107   0.465 -0.7159  0.5548 -1.9010
 8498SOL     OW37126   4.535   3.329   8.000  0.0817 -0.4192  0.1045
 8498SOL    HW137127   4.576   3.315   8.086 -3.3672 -1.4661  1.5946
 8498SOL    HW237128   4.481   3.407   8.016  0.4715 -0.1173 -0.0578
 8499SOL     OW37129   4.533   2.002  15.311  0.2631  0.0743 -0.2350
 8499SOL    HW137130   4.613   1.966  15.350 -0.4551 -0.5928  0.6260
 8499SOL    HW237131   4.467   1.935  15.329 -0.4401  1.2439  1.5810
 8500SOL     OW37132   3.853   2.502   7.389  0.1208 -0.5738 -0.7810
 8500SOL    HW137133   3.909   2.426   7.371  1.4986  0.5906 -1.4441
 8500SOL    HW237134   3.835   2.487   7.482  0.8488 -1.1852 -0.7354
 8501SOL     OW37135   1.334   2.015   3.172 -0.2389 -0.0382 -0.0582
 8501SOL    HW137136   1.278   1.979   3.240  0.3564  1.7512  1.3909
 8501SOL    HW237137   1.380   1.938   3.139 -1.7646 -1.7373  1.7907
 8502SOL     OW37138   2.514   0.609  15.805 -0.4945 -0.6099  0.1099
 8502SOL    HW137139   2.553   0.535  15.758 -1.1296  1.5151 -3.7959
 8502SOL    HW237140   2.433   0.569  15.837  0.0365 -1.7974 -0.0273
 8503SOL     OW37141   3.114   1.038   8.726 -0.2113  0.5605  0.1261
 8503SOL    HW137142   3.149   1.125   8.711 -0.8689  0.4165 -2.2825
 8503SOL    HW237143   3.019   1.053   8.720 -0.2007  0.6746  0.2449
 8504SOL     OW37144   1.854   0.282   0.203  0.3221  0.0494 -0.4931
 8504SOL    HW137145   1.776   0.281   0.258 -0.2924  1.3333 -1.3502
 8504SOL    HW237146   1.874   0.375   0.203  0.5226  0.0052  1.6957
 8505SOL     OW37147   2.524   2.223   6.735  0.0237 -0.0964 -0.8353
 8505SOL    HW137148   2.526   2.211   6.830 -0.2869 -2.9002 -1.1772
 8505SOL    HW237149   2.431   2.219   6.715 -0.1927  0.2230  0.1341
 8506SOL     OW37150   1.208   3.957  14.884 -0.1018  0.3375  0.0283
 8506SOL    HW137151   1.233   4.002  14.803 -0.4542 -0.4899 -0.5413
 8506SOL    HW237152   1.239   4.022  14.947  2.4627 -1.2747  0.4444
 8507SOL     OW37153   0.682   3.452   2.803  0.3514 -0.2681 -0.2973
 8507SOL    HW137154   0.654   3.520   2.742 -0.5740 -0.9563 -0.6487
 8507SOL    HW237155   0.772   3.482   2.799  0.0697  1.1957  4.5250
 8508SOL     OW37156   1.112   2.285   4.290 -0.0856  0.0882 -0.1834
 8508SOL    HW137157   1.054   2.218   4.326 -1.5633  0.5864 -1.6085
 8508SOL    HW237158   1.083   2.365   4.333 -1.7711 -0.1063 -0.9732
 8509SOL     OW37159   2.989   3.979  11.348  0.0726  0.3703 -0.2700
 8509SOL    HW137160   3.073   4.014  11.379  0.0067 -0.2408  0.6003
 8509SOL    HW237161   3.010   3.958  11.257  0.7383  3.3209 -0.7971
 8510SOL     OW37162   1.048   4.022   5.775 -0.0213  0.0357 -0.0049
 8510SOL    HW137163   1.104   4.039   5.851  1.1442  0.5550 -0.9659
 8510SOL    HW237164   0.966   4.057   5.809  1.2746 -0.5170  3.6766
 8511SOL     OW37165   3.947   3.098   6.909  0.7695  0.1084  0.1144
 8511SOL    HW137166   3.890   3.036   6.865  2.4796 -1.1386 -0.3487
 8511SOL    HW237167   4.019   3.100   6.845  2.2407 -0.5188  1.7575
 8512SOL     OW37168   1.050   3.704   3.233  0.8159 -0.2566 -0.3262
 8512SOL    HW137169   1.019   3.781   3.185  0.7836 -0.5216 -0.7357
 8512SOL    HW237170   0.978   3.696   3.294  1.3711 -0.0957  0.3503
 8513SOL     OW37171   3.813   0.121   6.956 -0.1272 -0.7343 -1.1352
 8513SOL    HW137172   3.751   0.106   7.027 -1.3361  0.5620 -1.9121
 8513SOL    HW237173   3.744   0.133   6.891 -1.8762 -0.9006  0.6900
 8514SOL     OW37174   1.209   4.069   8.591  0.4512 -0.1093 -0.0892
 8514SOL    HW137175   1.181   4.072   8.682 -0.4279 -0.1252 -0.3562
 8514SOL    HW237176   1.301   4.094   8.598 -0.1657  1.8847  0.9898
 8515SOL     OW37177   3.945   3.560   8.554  0.1172 -0.3812 -0.1790
 8515SOL    HW137178   3.988   3.574   8.639 -0.5780  0.3851  0.0542
 8515SOL    HW237179   4.008   3.497   8.520 -0.2734 -1.0175  0.2651
 8516SOL     OW37180   3.077   4.301  11.664 -0.0896 -0.2083 -0.1764
 8516SOL    HW137181   3.053   4.264  11.750 -1.0143  0.5786 -0.1028
 8516SOL    HW237182   3.110   4.383  11.701  0.4695 -1.2259  1.6163
 8517SOL     OW37183   0.661   1.012   1.157  0.0810  0.2695  0.5260
 8517SOL    HW137184   0.618   1.095   1.177 -2.1421 -0.7434 -0.0147
 8517SOL    HW237185   0.706   0.996   1.240 -0.4764 -2.4340  0.3319
 8518SOL     OW37186   3.334   1.590   7.111 -0.4945  0.6680  0.1838
 8518SOL    HW137187   3.270   1.535   7.066  0.2036  0.1210 -0.1400
 8518SOL    HW237188   3.303   1.679   7.093 -0.1425  0.6694 -0.4406
 8519SOL     OW37189   2.250   2.905  13.152 -0.1120  0.2049  0.2168
 8519SOL    HW137190   2.185   2.948  13.096  1.7238  3.3446  0.4509
 8519SOL    HW237191   2.207   2.901  13.237  0.2301 -1.7593  0.2885
 8520SOL     OW37192   1.496   2.468   2.199  0.5226  0.2464 -0.0506
 8520SOL    HW137193   1.432   2.500   2.135 -0.0882  0.9667  0.9258
 8520SOL    HW237194   1.440   2.476   2.276  0.3132 -0.6147 -0.1077
 8521SOL     OW37195   4.047   4.657   2.834  0.0149  0.0663  0.0249
 8521SOL    HW137196   4.103   4.653   2.757  0.1184  0.6410  0.0692
 8521SOL    HW237197   3.997   4.578   2.813  0.1659 -0.6825  2.4320
 8522SOL     OW37198   0.821   4.016   6.496  0.1334  0.1307  0.1498
 8522SOL    HW137199   0.835   4.108   6.520 -1.8158  0.3248  0.5945
 8522SOL    HW237200   0.855   3.969   6.572  2.3227  0.4440 -0.6450
 8523SOL     OW37201   1.584   1.089   3.255  0.0490  0.1358  0.0971
 8523SOL    HW137202   1.539   1.037   3.321  0.6597 -0.1156  0.3195
 8523SOL    HW237203   1.605   1.173   3.295  1.0232  0.2006 -0.5344
 8524SOL     OW37204   0.731   4.524   4.922  0.3801 -0.2238  0.1593
 8524SOL    HW137205   0.664   4.507   4.988  1.2411 -0.8941  0.8551
 8524SOL    HW237206   0.717   4.450   4.863  0.5126 -0.2964  0.2174
 8525SOL     OW37207   2.242   4.702   3.112 -0.1864 -0.2736  0.0852
 8525SOL    HW137208   2.296   0.039   3.104  1.8331 -1.7103 -0.2409
 8525SOL    HW237209   2.228   4.674   3.022 -2.0879 -0.3370  0.3802
 8526SOL     OW37210   4.498   4.490   9.179  0.1953  0.6740  0.2907
 8526SOL    HW137211   4.500   4.467   9.086 -0.3189 -3.0657  1.2074
 8526SOL    HW237212   4.416   4.448   9.202  0.6741 -0.6751 -0.5253
 8527SOL     OW37213   3.249   4.586  17.728  0.3552  0.4128  0.1482
 8527SOL    HW137214   3.171   4.638  17.707 -1.0488 -1.5066  0.6856
 8527SOL    HW237215   3.269   4.629   0.050 -2.6536  0.8097  0.6721
 8528SOL     OW37216   0.072   2.368   6.549 -0.1125  0.0234  0.1996
 8528SOL    HW137217   0.061   2.350   6.455  1.2148  0.6880 -0.0694
 8528SOL    HW237218   0.097   2.459   6.560 -0.5317  0.0957  0.5689
 8529SOL     OW37219   1.802   4.270   3.547 -0.2627  0.0356  0.5056
 8529SOL    HW137220   1.894   4.275   3.571  0.4267 -2.3109 -1.6251
 8529SOL    HW237221   1.764   4.191   3.586 -0.9443  0.1272  0.0274
 8530SOL     OW37222   3.148   1.706  16.150 -0.1141  0.3229  0.0216
 8530SOL    HW137223   3.166   1.677  16.060  1.8204  1.0030  0.1901
 8530SOL    HW237224   3.123   1.623  16.189 -0.8572  0.4233 -0.2299
 8531SOL     OW37225   2.766   0.108   2.389 -0.4020  0.0791  0.7017
 8531SOL    HW137226   2.749   0.166   2.464 -1.6841  0.8046 -0.1595
 8531SOL    HW237227   2.800   0.168   2.322 -1.1636 -0.4083 -0.1180
 8532SOL     OW37228   4.135   3.078   5.479  0.3242 -0.0033  0.2686
 8532SOL    HW137229   4.185   3.006   5.518  1.5643  1.6074  1.6907
 8532SOL    HW237230   4.097   3.026   5.409 -1.5991  1.7414  0.0492
 8533SOL     OW37231   2.242   0.563  15.414  0.1725  0.3659 -0.0977
 8533SOL    HW137232   2.224   0.508  15.338 -0.7386  0.9835 -0.3252
 8533SOL    HW237233   2.253   0.650  15.374 -0.8483  1.4548  1.9919
 8534SOL     OW37234   1.311   1.018   0.185  0.0296  0.7008 -0.1392
 8534SOL    HW137235   1.372   1.051   0.118 -0.5829  2.2583  0.0716
 8534SOL    HW237236   1.243   1.085   0.186 -1.0862 -0.4655  0.9821
 8535SOL     OW37237   4.223   1.083   3.929  0.1845  0.2952 -0.2132
 8535SOL    HW137238   4.209   1.094   3.835 -0.7027 -3.0909 -0.5124
 8535SOL    HW237239   4.249   1.170   3.960 -0.5182  0.4174  0.0492
 8536SOL     OW37240   3.119   4.105   3.083 -0.3077 -1.1079 -0.6855
 8536SOL    HW137241   3.190   4.049   3.052 -0.2352 -0.8042 -1.0708
 8536SOL    HW237242   3.047   4.043   3.081 -2.9967  1.9277  1.0780
 8537SOL     OW37243   0.012   0.677   0.122  0.3375  0.0740  0.0820
 8537SOL    HW137244   0.036   0.680   0.215 -0.7935  0.1479  0.3707
 8537SOL    HW237245   4.659   0.662   0.127  0.8686 -3.2452  0.3214
 8538SOL     OW37246   1.242   1.030   3.812  0.7469  0.4420  0.6024
 8538SOL    HW137247   1.185   0.957   3.790  0.4609  0.2952  1.8482
 8538SOL    HW237248   1.182   1.104   3.807  1.7058  1.1278 -0.8050
 8539SOL     OW37249   3.043   1.443   7.937 -0.2162  0.0281  0.2209
 8539SOL    HW137250   2.979   1.504   7.898 -1.3815 -2.8690 -2.4345
 8539SOL    HW237251   2.993   1.365   7.913 -0.3960  0.3981 -0.6121
 8540SOL     OW37252   4.371   3.861  13.235  0.1827 -0.2879 -0.0241
 8540SOL    HW137253   4.275   3.868  13.230  0.1506  0.0818  1.2082
 8540SOL    HW237254   4.387   3.811  13.155 -1.7131 -1.1820  0.1592
 8541SOL     OW37255   4.155   1.805  17.379 -0.2551  0.4075  0.4107
 8541SOL    HW137256   4.193   1.890  17.400 -2.7263  2.0885 -1.7977
 8541SOL    HW237257   4.069   1.821  17.419 -0.9563  1.6581 -1.5600
 8542SOL     OW37258   3.732   2.980   0.720  0.0119  0.0514 -0.1649
 8542SOL    HW137259   3.688   2.957   0.638  0.4131  1.6569 -0.8320
 8542SOL    HW237260   3.664   3.018   0.776 -1.3497  0.1651 -1.8988
 8543SOL     OW37261   0.527   2.240  11.997  0.3897 -0.3194  0.3017
 8543SOL    HW137262   0.509   2.161  12.048  1.9577 -1.0464 -0.2737
 8543SOL    HW237263   0.595   2.220  11.934  0.6548  0.9278  0.1877
 8544SOL     OW37264   2.460   0.065   7.440 -0.3429  0.0902 -0.4350
 8544SOL    HW137265   2.475   0.089   7.348 -0.5156  2.0650  0.0671
 8544SOL    HW237266   2.467   0.148   7.486  0.7535  0.0285 -0.4912
 8545SOL     OW37267   0.149   3.223   6.823  0.3844  0.1845 -0.1329
 8545SOL    HW137268   0.147   3.279   6.901  1.0803 -4.4797  3.2007
 8545SOL    HW237269   0.151   3.138   6.866  1.0603 -0.8882 -2.3439
 8546SOL     OW37270   4.628   4.252  10.311 -0.4211  0.0214  0.0288
 8546SOL    HW137271   4.631   4.167  10.266 -0.6765  0.2738 -0.4725
 8546SOL    HW237272   4.716   4.286  10.298 -0.9426  1.3465  0.0038
 8547SOL     OW37273   4.275   2.143   1.709 -0.2786  0.4024  0.2127
 8547SOL    HW137274   4.239   2.124   1.623 -3.8142  0.9682  1.5836
 8547SOL    HW237275   4.365   2.109   1.703 -0.9229 -1.3592  0.4288
 8548SOL     OW37276   1.931   0.502   8.086 -1.1969  0.0059 -0.7752
 8548SOL    HW137277   2.011   0.497   8.035 -0.6742  0.4660 -0.0087
 8548SOL    HW237278   1.883   0.547   8.017 -0.9859 -1.7589 -2.0547
 8549SOL     OW37279   4.706   0.056   9.497 -0.4103 -0.7871 -0.0926
 8549SOL    HW137280   4.640   0.078   9.431  0.1322  3.0683  0.6828
 8549SOL    HW237281   4.652   0.013   9.564 -0.3611  1.2305  1.2329
 8550SOL     OW37282   2.084   0.489   5.876  0.2594  0.3840 -0.5862
 8550SOL    HW137283   1.990   0.488   5.858  0.1277 -0.7889  0.1820
 8550SOL    HW237284   2.111   0.499   5.785  0.3145  0.9093 -0.5156
 8551SOL     OW37285   1.862   4.523   4.401 -0.1732  0.5448  0.1218
 8551SOL    HW137286   1.786   4.471   4.373  0.9868 -1.8673  1.4348
 8551SOL    HW237287   1.819   4.583   4.461 -0.5931  2.2619 -1.8859
 8552SOL     OW37288   2.275   3.123   2.314 -0.6190 -0.0185  0.3353
 8552SOL    HW137289   2.207   3.113   2.381 -1.1338  0.8343 -0.0524
 8552SOL    HW237290   2.210   3.141   2.245 -1.2878 -0.4756  0.8450
 8553SOL     OW37291   1.573   2.134   5.029 -0.5434 -0.0476 -0.5778
 8553SOL    HW137292   1.513   2.168   5.096 -1.0638 -2.3041  0.1036
 8553SOL    HW237293   1.538   2.045   5.021 -1.0951  0.0596  0.5687
 8554SOL     OW37294   2.626   0.252   5.449 -0.1655  0.3114 -0.0869
 8554SOL    HW137295   2.644   0.221   5.360 -1.7295  0.9620 -0.6336
 8554SOL    HW237296   2.703   0.211   5.489 -0.4847 -0.8214 -0.6124
 8555SOL     OW37297   4.405   2.156   2.888  0.0274 -0.2119  0.0017
 8555SOL    HW137298   4.358   2.167   2.806  1.3103  0.0950 -0.7069
 8555SOL    HW237299   4.485   2.125   2.844  1.4958 -0.3274  2.7456
 8556SOL     OW37300   4.012   2.035  12.496 -0.0360  0.3811 -0.4999
 8556SOL    HW137301   3.980   1.947  12.474  0.2443  0.0735  0.3216
 8556SOL    HW237302   4.071   2.056  12.423 -0.0486  0.9883 -0.3357
 8557SOL     OW37303   2.792   2.133   8.104  0.0004  0.1032 -0.1765
 8557SOL    HW137304   2.744   2.171   8.177 -0.1967 -0.3786 -0.0516
 8557SOL    HW237305   2.829   2.056   8.148  0.6632  0.4007 -0.2197
 8558SOL     OW37306   2.630   4.515  13.769 -0.2631 -0.1461 -0.1819
 8558SOL    HW137307   2.663   4.528  13.858 -0.6007 -1.5699  0.1459
 8558SOL    HW237308   2.537   4.532  13.784 -0.4379 -0.6082 -0.7569
 8559SOL     OW37309   3.944   1.663   6.411 -0.0835  0.7661  0.6171
 8559SOL    HW137310   3.959   1.629   6.323  3.1324  0.3474  1.3111
 8559SOL    HW237311   3.889   1.597   6.454 -0.0214  1.5402  1.9040
 8560SOL     OW37312   1.066   1.860   6.009  0.1021  0.9357 -0.6893
 8560SOL    HW137313   1.153   1.821   6.013  0.3498  1.4639 -0.8740
 8560SOL    HW237314   1.068   1.935   6.069  0.5837 -0.8044  1.4320
 8561SOL     OW37315   3.772   0.802   6.174 -0.1246  0.0363 -0.2125
 8561SOL    HW137316   3.769   0.753   6.092  1.3243 -1.1483  0.4415
 8561SOL    HW237317   3.698   0.860   6.158 -1.4321 -1.8462 -1.0514
 8562SOL     OW37318   4.142   1.949   1.504 -0.3983 -0.6778 -0.0658
 8562SOL    HW137319   4.137   1.899   1.585  1.9136  0.0252  0.5024
 8562SOL    HW237320   4.205   1.903   1.448 -1.9952 -2.4266 -0.4219
 8563SOL     OW37321   3.943   2.842   2.993 -0.2762  0.2169  0.0404
 8563SOL    HW137322   4.025   2.889   3.006  0.7514 -1.5099 -0.2784
 8563SOL    HW237323   3.983   2.775   2.937  0.2490  0.5671 -0.0061
 8564SOL     OW37324   0.163   2.119   8.354 -0.6178  0.3316  0.2607
 8564SOL    HW137325   0.157   2.112   8.258  1.0220 -0.0371  0.1931
 8564SOL    HW237326   0.203   2.034   8.373 -0.5538  0.5911  1.2494
 8565SOL     OW37327   1.599   1.117   4.778  0.0998 -0.1646 -0.4900
 8565SOL    HW137328   1.663   1.188   4.783 -0.1266  0.0796 -1.1269
 8565SOL    HW237329   1.651   1.039   4.756 -1.4847 -1.2390 -0.4260
 8566SOL     OW37330   1.613   2.765   6.526  0.1143 -0.0017  0.5692
 8566SOL    HW137331   1.633   2.858   6.531  2.1621 -0.3872 -0.7318
 8566SOL    HW237332   1.666   2.732   6.598  1.6553  1.2221 -0.0085
 8567SOL     OW37333   4.539   3.056   8.319  0.4354 -0.5159  0.0126
 8567SOL    HW137334   4.483   3.022   8.249  0.8723 -0.2525 -0.4630
 8567SOL    HW237335   4.590   3.122   8.273 -1.1043  1.3909  1.0231
 8568SOL     OW37336   2.990   1.105   2.383 -0.1418  0.6697  0.1702
 8568SOL    HW137337   2.993   1.152   2.300  0.3680 -2.6019 -1.6560
 8568SOL    HW237338   2.938   1.175   2.423  0.2382  0.3164  1.2878
 8569SOL     OW37339   3.215   0.950  10.083 -0.0365  0.1658  0.5234
 8569SOL    HW137340   3.243   1.033  10.045 -0.9894  0.8882  1.3845
 8569SOL    HW237341   3.183   0.905  10.004  2.5513  0.1920 -0.5245
 8570SOL     OW37342   0.343   0.337   2.849 -0.3939 -0.0410 -0.2281
 8570SOL    HW137343   0.286   0.396   2.799  0.1102 -0.3800 -1.1967
 8570SOL    HW237344   0.281   0.291   2.906  1.5776 -1.5192  0.7283
 8571SOL     OW37345   3.816   0.735   4.625  0.0509 -0.1467  0.4861
 8571SOL    HW137346   3.803   0.702   4.714  0.2329 -1.6709 -0.0673
 8571SOL    HW237347   3.770   0.677   4.565 -0.6603  2.1546 -1.2274
 8572SOL     OW37348   3.361   2.593   9.284  0.0785 -0.5590  0.8073
 8572SOL    HW137349   3.307   2.527   9.240 -0.3281  1.6651 -2.0731
 8572SOL    HW237350   3.419   2.625   9.214 -0.1316 -0.0587  0.8626
 8573SOL     OW37351   2.440   4.317  11.176  0.2229  0.8459 -1.4272
 8573SOL    HW137352   2.419   4.287  11.087  2.1831 -0.3004 -1.5135
 8573SOL    HW237353   2.503   4.247  11.196 -0.2282  0.7568 -0.3474
 8574SOL     OW37354   0.145   2.480  17.572 -0.1349  0.1999 -0.6750
 8574SOL    HW137355   0.178   2.459  17.660  1.4485 -1.3427 -1.6462
 8574SOL    HW237356   0.180   2.569  17.564  0.5206 -0.0315 -0.3533
 8575SOL     OW37357   2.449   1.841   1.949  0.4590  0.7573  0.1856
 8575SOL    HW137358   2.357   1.860   1.931  0.5490 -0.0485 -1.0883
 8575SOL    HW237359   2.492   1.922   1.921 -0.5372  0.4043 -2.3318
 8576SOL     OW37360   3.735   2.452  12.641 -0.1597  0.4095  0.0175
 8576SOL    HW137361   3.735   2.541  12.604  0.6222  0.2390 -0.3802
 8576SOL    HW237362   3.669   2.460  12.710 -0.3157  2.6667 -0.3830
 8577SOL     OW37363   2.425   2.618   3.717 -0.0418 -0.0923  0.2121
 8577SOL    HW137364   2.432   2.574   3.801 -0.8578  0.3840  0.5275
 8577SOL    HW237365   2.374   2.557   3.664 -2.1817  0.4115  1.6908
 8578SOL     OW37366   3.859   0.004   5.270 -0.1666 -0.0776  0.1441
 8578SOL    HW137367   3.830   4.682   5.203 -0.2480  0.3951 -0.2670
 8578SOL    HW237368   3.935   4.690   5.288  0.7734  0.9446 -0.7029
 8579SOL     OW37369   0.117   2.972   4.894  0.0968 -0.3232  0.4349
 8579SOL    HW137370   0.172   2.963   4.816 -1.4051 -0.9016 -0.5633
 8579SOL    HW237371   0.183   2.977   4.963 -2.8631  0.7329  3.1541
 8580SOL     OW37372   0.339   0.513   8.657 -0.1444  0.3120  0.1451
 8580SOL    HW137373   0.266   0.452   8.645 -0.1060  0.4179 -0.6160
 8580SOL    HW237374   0.295   0.592   8.689  0.7032  0.7903  0.1341
 8581SOL     OW37375   0.809   4.538   5.832  0.1571  0.0032 -0.3163
 8581SOL    HW137376   0.751   4.551   5.757 -1.0776 -2.6364  0.1793
 8581SOL    HW237377   0.851   4.624   5.834  0.4673 -0.0797 -2.5382
 8582SOL     OW37378   0.253   1.021  12.492 -0.2276 -0.5217 -0.1133
 8582SOL    HW137379   0.277   1.079  12.420 -2.2144  0.2370 -0.1812
 8582SOL    HW237380   0.185   1.081  12.524 -1.4798 -1.4300 -1.0830
 8583SOL     OW37381   0.975   4.391  17.296 -0.2158  0.2487 -0.1049
 8583SOL    HW137382   0.920   4.468  17.281 -0.7038 -0.1408 -0.2683
 8583SOL    HW237383   0.972   4.344  17.212  0.1321 -0.4391  0.2672
 8584SOL     OW37384   0.826   3.009   4.729  0.1728  0.0428  0.3585
 8584SOL    HW137385   0.873   2.926   4.719  2.4613  1.4596 -0.6624
 8584SOL    HW237386   0.827   3.016   4.824  0.9227  2.1793  0.1953
 8585SOL     OW37387   4.489   0.234   5.318  0.1764  0.1789  0.1801
 8585SOL    HW137388   4.573   0.227   5.273  0.7324 -0.7666  1.3731
 8585SOL    HW237389   4.431   0.250   5.244  2.5347 -0.9816 -1.9226
 8586SOL     OW37390   4.045   3.111   0.676  0.0039 -0.2179 -0.8544
 8586SOL    HW137391   3.984   3.043   0.645 -2.2389  0.9777  0.9729
 8586SOL    HW237392   3.987   3.187   0.681 -0.7988 -0.9995  1.5953
 8587SOL     OW37393   1.781   2.091   5.681 -0.0083 -0.4826 -0.4159
 8587SOL    HW137394   1.755   1.999   5.677  2.9317 -1.4399  2.5565
 8587SOL    HW237395   1.695   2.131   5.666 -0.1758 -0.4556  0.5673
 8588SOL     OW37396   1.023   1.489   3.861 -0.1710 -0.1350  0.2578
 8588SOL    HW137397   1.087   1.545   3.817 -1.0585 -0.5060 -1.4818
 8588SOL    HW237398   0.968   1.470   3.786 -0.0652  0.0614  0.1316
 8589SOL     OW37399   0.490   4.259   9.140 -0.4006  0.4442 -0.0519
 8589SOL    HW137400   0.409   4.236   9.093  1.2552  1.5777 -3.4710
 8589SOL    HW237401   0.550   4.219   9.078  1.5187 -0.3710  2.3496
 8590SOL     OW37402   0.226   1.410   3.161  1.1436 -0.0745  0.0627
 8590SOL    HW137403   0.322   1.419   3.155  1.2894 -1.9797 -0.5731
 8590SOL    HW237404   0.207   1.341   3.225 -0.0972  0.7390  0.5508
 8591SOL     OW37405   1.739   1.115   4.188 -0.8045  0.4760 -0.2089
 8591SOL    HW137406   1.786   1.071   4.118 -0.8743 -1.0046  0.6700
 8591SOL    HW237407   1.794   1.088   4.262 -1.1724 -1.3557 -0.6180
 8592SOL     OW37408   2.305   1.032   8.324  0.5939  0.0664  0.2387
 8592SOL    HW137409   2.294   1.119   8.362 -0.7391 -0.2216  0.4985
 8592SOL    HW237410   2.399   1.038   8.305 -0.0158 -1.0423 -3.2372
 8593SOL     OW37411   3.847   2.734   3.444  0.2651 -0.3164  0.1249
 8593SOL    HW137412   3.904   2.746   3.519  1.6079 -1.0780 -0.7772
 8593SOL    HW237413   3.789   2.663   3.473 -0.2595  0.5690  1.2444
 8594SOL     OW37414   1.459   3.316   6.572 -0.1969  0.8989 -0.0452
 8594SOL    HW137415   1.504   3.257   6.632  1.9607 -0.3559 -2.8618
 8594SOL    HW237416   1.366   3.306   6.593  0.2962 -0.0718  1.6002
 8595SOL     OW37417   2.109   4.040  14.604  0.3586  0.3033 -0.6730
 8595SOL    HW137418   2.031   4.073  14.560 -0.5433  2.4865  2.5387
 8595SOL    HW237419   2.185   4.079  14.560  1.0851 -1.4459 -0.9658
 8596SOL     OW37420   2.189   1.108   1.951  0.3709 -0.0023  0.0746
 8596SOL    HW137421   2.187   1.100   1.856  1.4355 -3.7036  0.3311
 8596SOL    HW237422   2.251   1.180   1.957  0.0268  0.2204  0.9408
 8597SOL     OW37423   3.809   2.233  13.663  0.2986 -0.2038  0.8927
 8597SOL    HW137424   3.719   2.260  13.684  0.3860 -0.7177  1.9027
 8597SOL    HW237425   3.818   2.172  13.736  2.9196  0.7883  1.3903
 8598SOL     OW37426   4.218   3.165   4.579 -0.1357  0.2371 -0.6080
 8598SOL    HW137427   4.272   3.224   4.631 -2.2685  2.1079 -0.5468
 8598SOL    HW237428   4.151   3.128   4.637  1.0407  0.9053  1.1760
 8599SOL     OW37429   4.488   3.849   7.473 -0.3960 -1.1922  0.3868
 8599SOL    HW137430   4.502   3.874   7.564  0.5190 -1.1466  0.2417
 8599SOL    HW237431   4.396   3.825   7.470 -1.3443  2.3212  0.4690
 8600SOL     OW37432   3.281   3.462   4.496 -0.7326 -0.3632  0.6525
 8600SOL    HW137433   3.295   3.496   4.585 -1.6718  0.6705  0.4054
 8600SOL    HW237434   3.325   3.525   4.440 -0.9196 -1.8518 -1.1563
 8601SOL     OW37435   1.404   4.099   7.290  0.2364 -0.5454  0.6747
 8601SOL    HW137436   1.370   4.047   7.363 -0.7110 -2.2113 -0.9733
 8601SOL    HW237437   1.439   4.174   7.340 -3.0489  1.1580  0.3742
 8602SOL     OW37438   3.846   3.441   1.396 -0.3735  0.0917 -0.0203
 8602SOL    HW137439   3.889   3.385   1.459  1.2321  1.6065  0.2207
 8602SOL    HW237440   3.821   3.517   1.449 -3.6903  0.8929 -2.6908
 8603SOL     OW37441   1.236   4.689  13.923  0.0873  0.3655 -0.4865
 8603SOL    HW137442   1.285   4.609  13.908 -1.1166 -0.3974 -0.3159
 8603SOL    HW237443   1.146   4.655  13.921 -0.0120  0.5911  0.0353
 8604SOL     OW37444   1.063   3.172   4.216  0.4422  0.0090 -0.3415
 8604SOL    HW137445   1.061   3.259   4.256 -1.9608 -0.2273  0.0648
 8604SOL    HW237446   1.098   3.125   4.292 -0.7437 -0.5592 -0.1406
 8605SOL     OW37447   2.885   3.154   6.906 -0.2660  0.1075 -0.3449
 8605SOL    HW137448   2.955   3.152   6.971  0.6303  1.6052 -1.2581
 8605SOL    HW237449   2.931   3.186   6.828 -2.0856 -2.0339 -2.2762
 8606SOL     OW37450   0.543   2.180   5.390  0.2186  0.1528 -0.1477
 8606SOL    HW137451   0.572   2.130   5.466  0.6641 -0.2519 -0.5920
 8606SOL    HW237452   0.447   2.174   5.396  0.2102  0.1864 -0.2498
 8607SOL     OW37453   4.570   4.675   0.678  0.1334 -0.5903  0.3210
 8607SOL    HW137454   4.545   4.711   0.764 -0.4363 -0.3346  0.0513
 8607SOL    HW237455   4.661   4.651   0.694  0.1364 -1.5255 -1.2179
 8608SOL     OW37456   2.452   0.820   1.898 -0.0363 -0.4445 -0.4825
 8608SOL    HW137457   2.459   0.899   1.843  1.7931  0.4666  1.0940
 8608SOL    HW237458   2.421   0.758   1.832 -0.2376 -0.2502 -0.5751
 8609SOL     OW37459   0.227   1.986   4.576  0.0894  0.0899  0.2088
 8609SOL    HW137460   0.313   1.959   4.608  0.8698  3.0508  0.6353
 8609SOL    HW237461   0.230   1.961   4.484 -0.4202  0.6767  0.0337
 8610SOL     OW37462   1.403   3.594  17.663  0.8525  0.0208  0.1520
 8610SOL    HW137463   1.390   3.666  17.602  0.1306 -1.1421 -1.0615
 8610SOL    HW237464   1.479   3.618  17.716  1.2130  1.3812 -0.9781
 8611SOL     OW37465   3.202   3.078   5.493  0.4744 -0.3163  0.6147
 8611SOL    HW137466   3.273   3.014   5.495 -0.4589 -1.4334 -2.4022
 8611SOL    HW237467   3.241   3.142   5.552  0.7149  0.3631 -0.2864
 8612SOL     OW37468   2.109   4.174   8.668  0.3534 -0.5670 -0.4116
 8612SOL    HW137469   2.061   4.131   8.598  1.8508  0.2096 -1.9071
 8612SOL    HW237470   2.086   4.126   8.748 -0.2564 -0.2249 -0.3747
 8613SOL     OW37471   2.013   1.843   6.436  0.0403 -0.4081 -0.3038
 8613SOL    HW137472   1.943   1.859   6.374 -0.2479 -0.4780  0.0021
 8613SOL    HW237473   2.068   1.775   6.397  1.1239  1.1548 -1.5133
 8614SOL     OW37474   1.113   1.464   3.573  0.0771  0.0962  0.6793
 8614SOL    HW137475   1.152   1.405   3.508  1.5419  0.3315  1.3403
 8614SOL    HW237476   1.191   1.483   3.626  0.6534  2.2670 -0.9626
 8615SOL     OW37477   1.951   0.729   5.028  0.5053 -0.6212 -0.3333
 8615SOL    HW137478   1.983   0.664   4.964 -1.9260  0.9549 -3.1211
 8615SOL    HW237479   1.895   0.683   5.090  0.8678 -0.5454  0.0448
 8616SOL     OW37480   3.997   2.984   5.257 -0.0037 -0.3391  0.4514
 8616SOL    HW137481   4.014   2.901   5.301 -0.0494 -1.9356 -2.4671
 8616SOL    HW237482   4.045   2.976   5.174  1.0945  0.5728  1.0201
 8617SOL     OW37483   2.906   0.893   7.194 -0.6254  0.0845 -0.2307
 8617SOL    HW137484   2.858   0.957   7.247  1.5127 -0.1769  2.0570
 8617SOL    HW237485   2.846   0.819   7.200 -0.2951 -0.1405  0.3688
 8618SOL     OW37486   1.883   2.815   6.978 -0.3975 -0.2628 -1.1532
 8618SOL    HW137487   1.941   2.739   6.988 -1.0909 -0.7295 -0.6927
 8618SOL    HW237488   1.906   2.853   6.894 -2.3113 -0.4306 -1.7336
 8619SOL     OW37489   4.534   4.541   7.868  0.2963  0.1780  0.0189
 8619SOL    HW137490   4.458   4.584   7.906  0.6410 -0.2902  1.2334
 8619SOL    HW237491   4.507   4.449   7.863  0.6204  0.0841 -0.0238
 8620SOL     OW37492   3.658   1.964   5.289 -0.1620  0.5223  0.0494
 8620SOL    HW137493   3.569   1.978   5.322 -0.1114 -0.9095  0.7981
 8620SOL    HW237494   3.667   1.870   5.305  1.4040  0.5744 -0.5075
 8621SOL     OW37495   4.377   2.700   2.980 -0.5331 -0.1144  0.3013
 8621SOL    HW137496   4.385   2.753   2.901 -3.6302  0.0125  0.0618
 8621SOL    HW237497   4.458   2.702   3.030  0.7822 -1.1242 -1.7932
 8622SOL     OW37498   3.719   1.939  15.598  0.5520  0.5779 -0.1207
 8622SOL    HW137499   3.711   1.978  15.511 -2.0487  2.8968  1.1638
 8622SOL    HW237500   3.731   1.848  15.571 -0.0722  1.4272 -3.2684
 8623SOL     OW37501   3.967   3.305   5.317  0.1284  0.3456 -0.2849
 8623SOL    HW137502   4.004   3.229   5.361  0.1191 -0.1086 -1.0724
 8623SOL    HW237503   4.034   3.365   5.350 -0.1360  1.1851 -1.2903
 8624SOL     OW37504   1.964   4.220   9.777 -0.2423 -0.1137 -0.0927
 8624SOL    HW137505   1.922   4.273   9.709  0.7156  0.3477 -0.3412
 8624SOL    HW237506   2.044   4.210   9.725 -0.7530 -2.9466 -0.3213
 8625SOL     OW37507   4.335   1.533   2.799 -0.2884 -0.0774  0.2121
 8625SOL    HW137508   4.275   1.588   2.749  1.4143  1.4967 -0.0803
 8625SOL    HW237509   4.349   1.585   2.878 -1.6239  2.7920 -1.4786
 8626SOL     OW37510   3.271   0.028   6.298  0.3455 -0.3866  0.3093
 8626SOL    HW137511   3.232   0.081   6.368  0.2996  0.0760 -0.0723
 8626SOL    HW237512   3.295   0.088   6.229 -0.7365 -0.4935 -0.1574
 8627SOL     OW37513   1.027   4.003  12.906  0.6197 -0.5263  0.3861
 8627SOL    HW137514   1.011   3.940  12.835 -1.7186  1.2761 -0.6818
 8627SOL    HW237515   1.123   4.011  12.901  0.7421  0.7639  5.2813
 8628SOL     OW37516   2.667   3.706   2.972  0.4510  0.0100 -0.1700
 8628SOL    HW137517   2.580   3.743   2.982  1.3105  2.5636 -2.0455
 8628SOL    HW237518   2.705   3.761   2.903  1.3435  0.6207  0.8031
 8629SOL     OW37519   1.640   0.448   2.642  0.4879  0.2569  0.4630
 8629SOL    HW137520   1.653   0.461   2.548 -0.3262  2.3573  0.6303
 8629SOL    HW237521   1.665   0.532   2.681 -0.3435  1.3527 -1.3455
 8630SOL     OW37522   0.508   0.633   0.637 -0.7130  0.1006  0.5553
 8630SOL    HW137523   0.604   0.636   0.640 -0.6885  2.2113 -1.8629
 8630SOL    HW237524   0.483   0.643   0.729 -0.4707 -0.0076  0.6325
 8631SOL     OW37525   0.750   3.275   5.271  0.1275  0.1250  0.4404
 8631SOL    HW137526   0.832   3.258   5.317 -0.0823  0.8338  1.0905
 8631SOL    HW237527   0.694   3.285   5.348  1.1598  1.4707  1.0112
 8632SOL     OW37528   3.012   0.163   0.189  0.1460 -0.0075 -0.3365
 8632SOL    HW137529   2.934   0.157   0.244  0.0438  0.2220 -0.4498
 8632SOL    HW237530   2.998   0.243   0.137 -2.7856  0.2219  0.8030
 8633SOL     OW37531   3.431   3.391   7.698 -0.0876  0.3926 -0.1589
 8633SOL    HW137532   3.425   3.296   7.701  0.7040  0.3896  1.3503
 8633SOL    HW237533   3.349   3.423   7.662  1.6305  0.2793 -4.1625
 8634SOL     OW37534   4.338   3.836   2.246 -0.4221  0.4228 -0.2484
 8634SOL    HW137535   4.432   3.826   2.264 -0.1089  1.4879 -1.2762
 8634SOL    HW237536   4.330   3.767   2.179 -0.8371 -0.1433  0.3874
 8635SOL     OW37537   1.816   3.112   7.600  0.4144  0.2945 -0.0034
 8635SOL    HW137538   1.797   3.179   7.666 -1.9041  1.5395 -1.9527
 8635SOL    HW237539   1.842   3.044   7.663 -1.0079  0.8103  1.1417
 8636SOL     OW37540   0.492   1.926  14.565  0.2210 -0.3995  0.3794
 8636SOL    HW137541   0.435   1.999  14.541  0.6460 -0.1015  0.2918
 8636SOL    HW237542   0.475   1.857  14.500 -0.8473  0.2076  0.0086
 8637SOL     OW37543   2.943   3.481  10.592 -0.5940 -0.2678 -0.3167
 8637SOL    HW137544   3.025   3.487  10.543  0.2941 -3.1158  0.7923
 8637SOL    HW237545   2.952   3.564  10.640  0.0666  0.5373 -1.8405
 8638SOL     OW37546   2.340   0.997   5.407 -0.2596 -0.7417  0.0920
 8638SOL    HW137547   2.391   1.069   5.444  0.1000  0.2106 -2.3313
 8638SOL    HW237548   2.373   0.977   5.320 -0.9866 -2.0729  0.1201
 8639SOL     OW37549   0.818   3.712  17.497  0.3184 -0.0562  0.2520
 8639SOL    HW137550   0.831   3.799  17.533 -1.9937  0.5274 -0.2886
 8639SOL    HW237551   0.735   3.692  17.541  0.1267 -1.3293 -0.6799
 8640SOL     OW37552   2.931   1.218   3.817  0.1469  0.1407  0.0350
 8640SOL    HW137553   2.941   1.210   3.722 -1.2622 -0.9533 -0.0192
 8640SOL    HW237554   2.983   1.146   3.854 -1.3773 -0.8059  0.3236
 8641SOL     OW37555   1.667   1.137  15.550  0.2575 -0.1025  0.1661
 8641SOL    HW137556   1.615   1.073  15.599  0.3755 -2.2128 -2.4817
 8641SOL    HW237557   1.709   1.189  15.619 -1.3853  0.8599  0.4463
 8642SOL     OW37558   4.294   3.419  16.764 -0.0541 -0.8500  0.6405
 8642SOL    HW137559   4.233   3.387  16.698  0.6189 -0.4064 -0.1975
 8642SOL    HW237560   4.294   3.344  16.824 -2.2505 -0.9865  0.4557
 8643SOL     OW37561   0.340   2.509   5.696 -0.2136  0.3059  0.5536
 8643SOL    HW137562   0.431   2.510   5.667 -0.2358  2.8759  0.5514
 8643SOL    HW237563   0.361   2.462   5.777 -0.4528  1.6111  1.3756
 8644SOL     OW37564   0.813   0.974   9.290 -0.1072  0.0452 -0.7320
 8644SOL    HW137565   0.774   1.060   9.273  0.0585  0.0590 -1.0625
 8644SOL    HW237566   0.755   0.934   9.354 -0.2364  1.8874  0.3068
 8645SOL     OW37567   1.553   2.406   5.411 -0.5251  0.1432  0.6067
 8645SOL    HW137568   1.629   2.446   5.369  0.3531 -1.0616  1.0201
 8645SOL    HW237569   1.500   2.483   5.431  0.0368  0.8112 -0.4593
 8646SOL     OW37570   3.977   2.195   9.162 -0.2362  0.0513  0.0589
 8646SOL    HW137571   3.910   2.190   9.094 -0.5445 -0.5774  0.4127
 8646SOL    HW237572   4.026   2.274   9.139 -1.1999  0.5487 -0.2763
 8647SOL     OW37573   4.511   3.492   5.589  0.3310 -0.0267 -0.3725
 8647SOL    HW137574   4.448   3.439   5.639  0.2853  0.5928  0.2213
 8647SOL    HW237575   4.587   3.503   5.646  0.7089 -1.1580 -0.6435
 8648SOL     OW37576   2.295   3.227   1.384 -0.6403 -1.2324  0.1890
 8648SOL    HW137577   2.306   3.214   1.478  1.2355  1.3355  0.3191
 8648SOL    HW237578   2.295   3.322   1.383 -2.0645 -1.2303  0.0028
 8649SOL     OW37579   1.491   2.985   2.136 -0.4788  0.4898  0.4579
 8649SOL    HW137580   1.554   2.914   2.123 -1.3080 -0.3906  1.2827
 8649SOL    HW237581   1.503   2.998   2.230 -1.1024  0.3936  0.5496
 8650SOL     OW37582   3.299   3.112   8.709 -0.2491 -0.2499 -0.4234
 8650SOL    HW137583   3.384   3.143   8.677 -0.6716  1.1567 -0.1902
 8650SOL    HW237584   3.323   3.057   8.783 -0.7305 -0.4362 -0.4036
 8651SOL     OW37585   1.420   0.295   6.669 -0.3235  0.9298 -0.3240
 8651SOL    HW137586   1.370   0.233   6.615  1.3817 -1.0663  0.3810
 8651SOL    HW237587   1.378   0.274   6.752  0.1913  1.1591 -0.0036
 8652SOL     OW37588   1.795   2.752   0.136  0.0173 -0.4452  0.0982
 8652SOL    HW137589   1.747   2.826   0.098 -0.5810 -1.4342 -1.0727
 8652SOL    HW237590   1.728   2.711   0.190 -0.1384  0.6289  0.7281
 8653SOL     OW37591   0.947   3.927   7.548 -0.5769 -0.2273 -0.0902
 8653SOL    HW137592   0.865   3.967   7.576 -0.3914 -0.1496  0.3283
 8653SOL    HW237593   1.003   3.938   7.625  0.9515 -1.5659 -1.0002
 8654SOL     OW37594   2.560   3.467  13.746 -0.2191  0.1239  0.5584
 8654SOL    HW137595   2.573   3.485  13.653 -1.7370 -0.7100  0.1789
 8654SOL    HW237596   2.615   3.533  13.787 -0.4719  0.5270  0.2416
 8655SOL     OW37597   1.181   0.484   1.870 -0.0646 -0.2615 -0.3278
 8655SOL    HW137598   1.252   0.534   1.911 -1.5558  1.0352  0.6358
 8655SOL    HW237599   1.219   0.465   1.784  0.3548 -2.6441  0.4031
 8656SOL     OW37600   0.586   1.196   5.940  0.3285 -0.3462  0.9473
 8656SOL    HW137601   0.618   1.159   6.022  1.9526  0.3400  0.6276
 8656SOL    HW237602   0.664   1.236   5.901  0.8142  0.1513  2.4288
 8657SOL     OW37603   2.751   0.769  16.974 -0.0817 -0.3285 -0.2630
 8657SOL    HW137604   2.753   0.726  16.888  0.2522  0.4101 -0.6234
 8657SOL    HW237605   2.779   0.857  16.950 -1.5569  0.0357 -0.6185
 8658SOL     OW37606   0.338   3.833   6.849 -0.0688 -0.3244 -0.1790
 8658SOL    HW137607   0.381   3.845   6.934 -0.4633 -0.0543 -0.0175
 8658SOL    HW237608   0.398   3.879   6.791  0.5325 -0.2362  0.5126
 8659SOL     OW37609   2.198   2.730  17.512  0.3493 -0.6102  0.5376
 8659SOL    HW137610   2.134   2.727  17.582  0.5083  0.0698  0.7055
 8659SOL    HW237611   2.144   2.739  17.433 -1.7371 -1.3001  1.8887
 8660SOL     OW37612   1.991   2.323  12.131 -0.1771  0.1717  0.0903
 8660SOL    HW137613   2.058   2.289  12.190  3.1759  1.9241 -2.7307
 8660SOL    HW237614   1.910   2.317  12.182  0.6865 -4.2986  0.9655
 8661SOL     OW37615   2.277   3.149   0.330  0.4497 -0.7703  0.0145
 8661SOL    HW137616   2.198   3.143   0.383  1.4451 -3.1671  1.2358
 8661SOL    HW237617   2.258   3.230   0.283 -0.0374  0.2066  1.8724
 8662SOL     OW37618   0.150   4.727   6.584 -0.2825  0.7400  0.3777
 8662SOL    HW137619   0.245   4.728   6.574 -0.4522  1.5765 -1.0403
 8662SOL    HW237620   0.128   0.035   6.505  0.4290  1.4005  0.5871
 8663SOL     OW37621   0.642   1.244   4.610  0.0844 -0.1361 -0.6549
 8663SOL    HW137622   0.726   1.232   4.565  0.3448 -1.9383  0.3166
 8663SOL    HW237623   0.602   1.314   4.558 -4.1566 -0.8262  1.6558
 8664SOL     OW37624   4.095   1.391   6.578  0.6280 -0.3725 -0.2398
 8664SOL    HW137625   4.050   1.379   6.495  0.2158  2.6767 -0.4682
 8664SOL    HW237626   4.169   1.331   6.566  0.4729 -0.3219 -1.4237
 8665SOL     OW37627   4.550   2.239   9.039  0.2698  0.3044  0.0460
 8665SOL    HW137628   4.639   2.273   9.027 -0.2690  0.9514 -2.0835
 8665SOL    HW237629   4.532   2.230   8.945 -1.8715  1.7038  0.3276
 8666SOL     OW37630   2.311   3.469   4.158 -0.2423  0.0445 -0.6817
 8666SOL    HW137631   2.244   3.480   4.091 -1.3842 -1.6723  0.1532
 8666SOL    HW237632   2.357   3.553   4.155 -0.1505  0.0102 -0.1846
 8667SOL     OW37633   2.665   1.131   2.184 -0.5830  0.5271 -0.1431
 8667SOL    HW137634   2.711   1.156   2.104  0.1981 -0.2495  0.0678
 8667SOL    HW237635   2.678   1.213   2.232  1.3695 -0.0959  0.4050
 8668SOL     OW37636   0.665   0.917   1.764  0.1092 -0.0158 -0.7746
 8668SOL    HW137637   0.634   1.001   1.798  0.6691  1.0583 -2.8783
 8668SOL    HW237638   0.583   0.877   1.735 -1.1009  0.7069  1.6769
 8669SOL     OW37639   4.324   3.951   9.357 -0.5347 -0.0798 -0.2437
 8669SOL    HW137640   4.389   3.881   9.356 -1.4149 -0.8808 -1.5468
 8669SOL    HW237641   4.245   3.909   9.322 -0.0888  0.1758 -1.5441
 8670SOL     OW37642   2.522   4.266   5.375  0.2216 -0.6142 -0.0039
 8670SOL    HW137643   2.513   4.204   5.303 -1.8711 -1.3517  0.9030
 8670SOL    HW237644   2.511   4.203   5.446 -0.3674 -3.4824 -2.6311
 8671SOL     OW37645   4.612   3.979  13.124  0.1572  0.0627  0.3868
 8671SOL    HW137646   4.522   3.951  13.140 -0.2557  0.9609 -0.3785
 8671SOL    HW237647   4.643   3.906  13.070  2.8346  1.0959  0.4954
 8672SOL     OW37648   3.156   0.350   5.736 -0.0207  0.0841  0.2600
 8672SOL    HW137649   3.178   0.394   5.818 -2.9687 -0.7323  1.4953
 8672SOL    HW237650   3.068   0.389   5.738 -0.1381 -0.0966 -0.9426
 8673SOL     OW37651   1.184   0.329  10.449  0.2054 -0.0089  0.2106
 8673SOL    HW137652   1.133   0.310  10.370 -0.6833 -2.7160  1.4244
 8673SOL    HW237653   1.116   0.314  10.515 -0.7524 -2.8430 -1.3988
 8674SOL     OW37654   1.254   3.402   1.692  0.5268 -0.6977 -0.0076
 8674SOL    HW137655   1.252   3.314   1.729 -3.2916  0.3731  2.2516
 8674SOL    HW237656   1.162   3.426   1.681  1.5648  2.8443 -0.8818
 8675SOL     OW37657   2.242   0.838  17.711 -0.0038 -0.4899  0.1158
 8675SOL    HW137658   2.319   0.796  17.672  0.0186  0.1898 -0.5485
 8675SOL    HW237659   2.194   0.758  17.734 -0.9748  0.5329  1.6168
 8676SOL     OW37660   3.376   4.120   5.254  0.3034 -0.2692  0.3163
 8676SOL    HW137661   3.355   4.105   5.162  1.1725 -0.6409  0.1818
 8676SOL    HW237662   3.459   4.073   5.261  1.3120  1.1678 -1.9651
 8677SOL     OW37663   1.624   1.067  12.082  0.5851 -0.3252  0.3864
 8677SOL    HW137664   1.604   0.975  12.099  1.4710 -0.5459  0.2381
 8677SOL    HW237665   1.607   1.078  11.989  1.0548  1.3255  0.4861
 8678SOL     OW37666   1.353   1.228  12.116 -0.3644  0.7743  0.5872
 8678SOL    HW137667   1.259   1.219  12.104 -0.1080 -2.6990  0.9844
 8678SOL    HW237668   1.390   1.140  12.123 -0.7917  0.5835  0.4573
 8679SOL     OW37669   2.977   2.079   6.039 -0.0143 -0.5729 -0.1488
 8679SOL    HW137670   2.929   2.120   5.967 -2.6577 -1.4291  1.1580
 8679SOL    HW237671   2.904   2.032   6.077  0.7214 -0.5957  1.2200
 8680SOL     OW37672   0.012   1.206   7.915  0.0505 -0.3858  0.0151
 8680SOL    HW137673   0.084   1.209   7.978 -1.2938 -1.3736  1.5730
 8680SOL    HW237674   4.693   1.259   7.967 -0.9194 -2.9430  1.4954
 8681SOL     OW37675   2.322   4.581   4.243 -0.1607 -0.1096  0.4511
 8681SOL    HW137676   2.369   4.500   4.263  1.5720  0.9619  0.7554
 8681SOL    HW237677   2.231   4.550   4.245  0.5495 -2.1154  2.1240
 8682SOL     OW37678   1.722   0.281  16.043 -0.1958  0.0815 -0.1507
 8682SOL    HW137679   1.720   0.364  15.994 -0.1777  1.2326  1.8247
 8682SOL    HW237680   1.815   0.262  16.060 -0.2537 -1.7867 -1.9131
 8683SOL     OW37681   1.316   0.808   3.273 -0.1067  0.2724  0.4688
 8683SOL    HW137682   1.406   0.831   3.247 -0.4811  0.3158 -0.7975
 8683SOL    HW237683   1.338   0.761   3.354 -1.8356 -2.1813 -0.4964
 8684SOL     OW37684   4.429   3.114   3.229 -0.4254  0.3997 -0.4937
 8684SOL    HW137685   4.414   3.200   3.270  1.0427  0.2260  0.3982
 8684SOL    HW237686   4.428   3.149   3.140  3.2510  2.0929  0.1253
 8685SOL     OW37687   2.506   2.829   4.378 -0.0417 -0.7006 -0.1151
 8685SOL    HW137688   2.560   2.773   4.322  1.2836  1.6480 -1.1853
 8685SOL    HW237689   2.544   2.819   4.465 -1.5128  0.3571  0.6512
 8686SOL     OW37690   2.358   1.294   9.848  0.4109 -0.4866 -0.4189
 8686SOL    HW137691   2.434   1.246   9.814  1.9903 -0.3078  2.8861
 8686SOL    HW237692   2.384   1.381   9.819 -0.0784 -0.8762 -2.0142
 8687SOL     OW37693   3.643   0.110   1.578  0.0456 -0.8523 -0.2757
 8687SOL    HW137694   3.551   0.097   1.603 -0.1433  0.9688 -0.0226
 8687SOL    HW237695   3.668   0.188   1.626  0.3368 -0.4349 -1.1011
 8688SOL     OW37696   2.004   0.470   9.300 -0.0944  0.4707 -0.3443
 8688SOL    HW137697   2.028   0.429   9.216 -0.3593  0.8424 -0.6044
 8688SOL    HW237698   1.914   0.487   9.271 -0.5400 -2.7511 -0.8604
 8689SOL     OW37699   0.457   0.694   0.926  0.1166 -0.4829 -1.0581
 8689SOL    HW137700   0.463   0.734   1.013 -0.2543  0.3532 -1.4220
 8689SOL    HW237701   0.363   0.679   0.922  0.0323  0.1422 -1.4903
 8690SOL     OW37702   2.326   2.469  12.437  0.2952 -0.5466 -0.2348
 8690SOL    HW137703   2.326   2.387  12.488 -1.4706  0.0287  0.6941
 8690SOL    HW237704   2.234   2.461  12.410  0.9974 -0.7975 -2.5330
 8691SOL     OW37705   1.326   1.078   5.584  0.2456  0.5883 -0.1242
 8691SOL    HW137706   1.296   1.161   5.548  1.8826  1.8571  1.4791
 8691SOL    HW237707   1.273   1.022   5.526  0.8142  0.6906 -0.7348
 8692SOL     OW37708   0.728   2.199   7.794 -0.1439 -0.1911  0.0496
 8692SOL    HW137709   0.646   2.154   7.772  0.2296 -0.7597 -0.1933
 8692SOL    HW237710   0.706   2.288   7.767 -0.0729 -0.1428  0.1537
 8693SOL     OW37711   1.472   1.225  17.519 -0.2207  0.4018 -0.0411
 8693SOL    HW137712   1.447   1.134  17.506 -1.5656  0.7033  0.4522
 8693SOL    HW237713   1.489   1.215  17.613 -0.3628  1.0487  0.0527
 8694SOL     OW37714   2.989   0.967   4.609  0.0322 -0.2310  0.1475
 8694SOL    HW137715   3.030   0.946   4.693  1.2006  0.4507 -0.2667
 8694SOL    HW237716   2.929   0.892   4.615 -0.4139  0.3415  2.7836
 8695SOL     OW37717   4.568   3.396  12.993  0.7822 -0.1865  0.1279
 8695SOL    HW137718   4.504   3.325  12.989  1.4767 -0.6981 -1.5845
 8695SOL    HW237719   4.526   3.459  13.051 -1.6631 -1.4647 -0.2322
 8696SOL     OW37720   3.983   1.301   7.208 -0.7410 -0.7282  0.0479
 8696SOL    HW137721   3.924   1.246   7.156 -0.4188  0.2661 -1.3714
 8696SOL    HW237722   3.953   1.391   7.196  0.1110 -0.6586 -1.5672
 8697SOL     OW37723   3.059   2.613  15.450  0.3441  0.1573  0.5244
 8697SOL    HW137724   3.136   2.556  15.459 -1.9404 -2.9541  0.3426
 8697SOL    HW237725   3.096   2.697  15.478 -0.7415 -0.6348  4.4351
 8698SOL     OW37726   0.273   1.852   2.352 -0.0010 -0.0002 -0.5306
 8698SOL    HW137727   0.321   1.911   2.409  0.1755 -1.3784  0.7632
 8698SOL    HW237728   0.346   1.834   2.293  0.1810  0.6383 -0.4994
 8699SOL     OW37729   2.960   3.886   6.544  0.0789 -0.0323 -0.0042
 8699SOL    HW137730   3.005   3.946   6.604 -3.4743  2.6647 -0.0246
 8699SOL    HW237731   2.884   3.845   6.585  0.2343  1.0018  1.3088
 8700SOL     OW37732   2.445   2.839  17.481 -0.4074  0.0380  0.4177
 8700SOL    HW137733   2.388   2.914  17.467  1.3159  0.7929 -2.5979
 8700SOL    HW237734   2.381   2.769  17.490  2.2050 -1.9105  4.1401
 8701SOL     OW37735   0.046   4.235   9.473  0.4755  0.1659 -0.1277
 8701SOL    HW137736   0.049   4.182   9.393  2.6187 -0.0367  0.1018
 8701SOL    HW237737   0.032   4.317   9.427 -1.3104 -0.2674 -0.3662
 8702SOL     OW37738   3.247   2.539   6.259  0.4107  0.4456 -0.6220
 8702SOL    HW137739   3.221   2.454   6.224  0.7576 -0.0628  0.3627
 8702SOL    HW237740   3.198   2.532   6.341 -0.1223 -0.4721 -1.0197
 8703SOL     OW37741   0.788   2.008   2.601 -0.6405  0.2964 -0.2039
 8703SOL    HW137742   0.704   2.050   2.581 -0.8337  0.6184  1.2691
 8703SOL    HW237743   0.781   1.938   2.537  0.7579 -0.2927  0.2857
 8704SOL     OW37744   3.311   0.953   7.348 -0.2043 -0.1318 -0.3180
 8704SOL    HW137745   3.328   0.946   7.254 -0.4031 -2.5412 -0.1600
 8704SOL    HW237746   3.320   0.862   7.376  0.6386 -0.2145 -0.8778
 8705SOL     OW37747   2.826   0.155  17.520 -0.1708  0.3441  0.7126
 8705SOL    HW137748   2.795   0.065  17.532  0.1684 -0.0556 -1.3545
 8705SOL    HW237749   2.847   0.155  17.427 -0.6306 -1.3333  0.5990
 8706SOL     OW37750   3.897   3.870  11.651  0.9082  0.8254  0.4184
 8706SOL    HW137751   3.882   3.817  11.730  0.1697  0.8630  0.3076
 8706SOL    HW237752   3.989   3.889  11.666  1.2424 -1.4930  1.4026
 8707SOL     OW37753   1.296   1.883   0.249 -0.2246 -0.6498  0.0692
 8707SOL    HW137754   1.324   1.952   0.189 -0.0040 -1.8268 -1.1959
 8707SOL    HW237755   1.204   1.903   0.263  0.2704  2.7068 -1.5203
 8708SOL     OW37756   0.095   1.040   1.893 -0.3852  0.6734 -0.0680
 8708SOL    HW137757   0.063   0.950   1.891 -0.3022  0.6428  0.0153
 8708SOL    HW237758   0.148   1.032   1.814  0.8347 -0.0652  0.8369
 8709SOL     OW37759   4.131   1.228   9.019 -0.3233 -0.4249 -0.0976
 8709SOL    HW137760   4.174   1.266   9.096  1.8740  0.1223 -1.6076
 8709SOL    HW237761   4.137   1.133   9.021 -0.7287 -0.4033  2.0889
 8710SOL     OW37762   1.027   1.171   8.457 -0.2474 -0.7007  0.7427
 8710SOL    HW137763   1.037   1.176   8.553  1.0030  1.7841  0.4708
 8710SOL    HW237764   1.102   1.227   8.439  0.0949 -1.6372 -0.7622
 8711SOL     OW37765   0.492   2.801   1.579  0.2149  0.2470 -0.2848
 8711SOL    HW137766   0.510   2.712   1.547 -0.0494  0.5660 -1.3105
 8711SOL    HW237767   0.399   2.815   1.560  0.2787  1.0576  0.0200
 8712SOL     OW37768   0.539   0.791   2.814 -0.1290 -0.4286 -0.1990
 8712SOL    HW137769   0.567   0.787   2.905  0.3669  2.0354 -0.2588
 8712SOL    HW237770   0.606   0.737   2.772  1.2626  2.5322 -1.8069
 8713SOL     OW37771   2.680   4.717   5.806 -0.1496 -0.0406  0.4879
 8713SOL    HW137772   2.624   0.043   5.846 -1.6468  0.7771 -3.0270
 8713SOL    HW237773   2.712   4.670   5.883  2.4365 -1.4868 -1.4402
 8714SOL     OW37774   1.272   2.822   2.811 -0.0227 -0.1000  0.1383
 8714SOL    HW137775   1.285   2.876   2.734 -0.6463 -0.0572  0.0613
 8714SOL    HW237776   1.279   2.737   2.766 -0.7591  0.4544 -1.0060
 8715SOL     OW37777   3.402   2.983   1.550 -0.7435 -0.1263 -0.4991
 8715SOL    HW137778   3.348   2.956   1.476  0.8618 -1.9634 -1.0098
 8715SOL    HW237779   3.439   2.904   1.589 -0.5848  0.7977  1.2153
 8716SOL     OW37780   2.333   4.227   1.508 -1.0529  0.4312  0.0734
 8716SOL    HW137781   2.271   4.298   1.496 -0.4340  1.2657  1.8487
 8716SOL    HW237782   2.400   4.266   1.564  0.7057 -2.3070 -0.1142
 8717SOL     OW37783   4.602   2.210   4.416  0.4699  0.3557 -0.1211
 8717SOL    HW137784   4.685   2.254   4.399  0.7561  0.7753  2.4392
 8717SOL    HW237785   4.548   2.286   4.441  0.7088  0.4141  0.2178
 8718SOL     OW37786   1.784   1.988   4.467 -0.1216 -0.7082 -0.6386
 8718SOL    HW137787   1.712   1.982   4.530  2.4108 -1.0806  2.2162
 8718SOL    HW237788   1.778   1.901   4.427 -0.3125 -1.1698  0.3917
 8719SOL     OW37789   2.299   0.430   1.577 -0.1496  0.1687 -0.0551
 8719SOL    HW137790   2.212   0.390   1.587  1.1728 -3.2164 -2.1369
 8719SOL    HW237791   2.350   0.355   1.608 -1.1290  0.1302  1.5058
 8720SOL     OW37792   0.286   3.477   8.378 -0.7029  0.4554  0.5223
 8720SOL    HW137793   0.370   3.498   8.418  0.7937 -1.7816 -1.4667
 8720SOL    HW237794   0.264   3.404   8.436  1.5421 -0.3145  0.4077
 8721SOL     OW37795   1.796   1.038   1.903 -0.4550 -0.1661 -0.1677
 8721SOL    HW137796   1.817   0.998   1.818 -1.9089 -1.2056 -0.0338
 8721SOL    HW237797   1.730   1.103   1.880 -0.8609 -0.3499  0.5026
 8722SOL     OW37798   4.410   1.307   3.006 -0.4413  0.9085  0.0781
 8722SOL    HW137799   4.353   1.303   2.929  0.0035  2.5360 -0.3345
 8722SOL    HW237800   4.342   1.304   3.073 -0.3759  2.5495  0.2269
 8723SOL     OW37801   1.871   0.472   4.442  0.3281 -0.2001 -0.5919
 8723SOL    HW137802   1.847   0.454   4.351 -0.5206  1.0029 -0.6050
 8723SOL    HW237803   1.966   0.465   4.445  0.2478 -0.3753  2.0810
 8724SOL     OW37804   4.500   0.354   7.228  0.2363  0.4927 -0.1880
 8724SOL    HW137805   4.462   0.293   7.291  3.0798 -1.6633 -0.5456
 8724SOL    HW237806   4.509   0.427   7.289  1.8655  0.1915 -0.0690
 8725SOL     OW37807   3.903   1.529  14.306 -0.0030  0.9136  0.1865
 8725SOL    HW137808   3.921   1.624  14.309 -3.0061  1.4282  1.4822
 8725SOL    HW237809   3.807   1.524  14.308  0.1148 -1.1498 -0.1878
 8726SOL     OW37810   2.034   3.687   1.830  0.3895 -0.8137  0.2092
 8726SOL    HW137811   2.028   3.773   1.789 -2.1133 -0.6486  0.9179
 8726SOL    HW237812   2.042   3.707   1.923  2.6335 -1.0374  0.0608
 8727SOL     OW37813   3.300   4.593   3.171 -0.2471  0.1763 -0.1708
 8727SOL    HW137814   3.239   4.641   3.228 -0.7126  0.5345 -0.9723
 8727SOL    HW237815   3.248   4.513   3.165 -1.8863  1.2568 -0.3540
 8728SOL     OW37816   1.878   1.226   3.231 -0.0008 -0.3514  0.5084
 8728SOL    HW137817   1.866   1.296   3.166  0.6562  1.6914  2.6113
 8728SOL    HW237818   1.919   1.279   3.299 -1.0800  3.1825 -1.5482
 8729SOL     OW37819   1.018   2.941   1.508 -0.5145  0.5492 -0.7722
 8729SOL    HW137820   1.037   2.863   1.456 -1.1330  0.8622 -1.4637
 8729SOL    HW237821   0.988   2.898   1.589 -0.6149 -1.3983 -1.8426
 8730SOL     OW37822   3.233   3.886  12.013 -0.0775 -0.0507 -0.1328
 8730SOL    HW137823   3.273   3.918  11.932  1.7893 -0.4312  0.6296
 8730SOL    HW237824   3.226   3.792  11.997  1.4848 -0.1558 -0.1845
 8731SOL     OW37825   1.447   1.715   3.994 -0.2999 -0.4670  0.0805
 8731SOL    HW137826   1.477   1.759   4.073  0.6591  1.5925 -1.4216
 8731SOL    HW237827   1.377   1.665   4.036 -0.8919  0.9015  0.7272
 8732SOL     OW37828   4.670   0.391   7.016  0.5869 -0.3444 -0.1484
 8732SOL    HW137829   0.007   0.338   6.997  0.9952  0.4428 -0.6525
 8732SOL    HW237830   4.654   0.368   7.107 -0.1063 -0.4642 -0.3002
 8733SOL     OW37831   3.710   0.638   8.657  0.1924  0.1193 -0.2503
 8733SOL    HW137832   3.687   0.681   8.575  1.4111 -2.3823 -1.8982
 8733SOL    HW237833   3.740   0.554   8.622  0.1294  0.1768 -0.4430
 8734SOL     OW37834   2.210   0.845  13.825  0.4842  0.8181 -0.0970
 8734SOL    HW137835   2.280   0.781  13.822 -0.1983  0.0817 -0.3974
 8734SOL    HW237836   2.247   0.912  13.767  0.5315  0.3598 -0.5941
 8735SOL     OW37837   3.334   2.848   8.364 -0.1929  0.2337 -0.4372
 8735SOL    HW137838   3.411   2.903   8.377 -0.1024  0.0988 -0.4019
 8735SOL    HW237839   3.308   2.823   8.453  1.3785  0.3248  0.0405
 8736SOL     OW37840   0.385   3.764   8.462 -0.0437  0.3713  0.0072
 8736SOL    HW137841   0.457   3.714   8.421 -0.6546 -1.0202  0.6258
 8736SOL    HW237842   0.428   3.827   8.520 -0.0407 -0.4011  0.8483
 8737SOL     OW37843   3.833   3.105   9.476  0.1571  0.0497  0.0664
 8737SOL    HW137844   3.862   3.193   9.452 -0.1054  0.3527  0.8608
 8737SOL    HW237845   3.745   3.104   9.439  0.6422 -1.9143 -1.0347
 8738SOL     OW37846   0.094   2.597   1.968  0.1723 -0.1854 -0.6424
 8738SOL    HW137847   0.058   2.508   1.967  0.8901 -0.4842  1.6187
 8738SOL    HW237848   0.030   2.635   2.027  0.7715  0.6849 -0.5498
 8739SOL     OW37849   4.448   1.670  10.014  0.1910 -0.6043  0.1254
 8739SOL    HW137850   4.380   1.731  10.044 -0.3802 -1.6890  1.0631
 8739SOL    HW237851   4.455   1.694   9.922  0.2549  0.2051  0.3394
 8740SOL     OW37852   2.341   1.005  12.189  0.1100  0.1697  0.3315
 8740SOL    HW137853   2.414   1.008  12.127  0.5534  1.3876  0.9213
 8740SOL    HW237854   2.292   1.079  12.151 -0.1243 -0.1748 -0.0469
 8741SOL     OW37855   1.902   0.813   8.248 -0.3714 -0.1369 -0.0046
 8741SOL    HW137856   1.824   0.803   8.194 -0.9444  1.7417  0.4645
 8741SOL    HW237857   1.976   0.783   8.196 -0.3089  0.9109 -0.5168
 8742SOL     OW37858   3.642   3.377   4.239 -0.1029  0.4613 -0.2264
 8742SOL    HW137859   3.570   3.316   4.259  0.0547  0.1533 -0.5990
 8742SOL    HW237860   3.607   3.465   4.224  1.5240  1.6363  2.7741
 8743SOL     OW37861   1.402   3.815   8.618  0.5701  0.1001 -0.0279
 8743SOL    HW137862   1.376   3.862   8.540  1.1831  0.9869  0.3063
 8743SOL    HW237863   1.312   3.805   8.651  0.8582 -0.7923  0.5080
 8744SOL     OW37864   0.051   2.331   9.579  0.1434  0.3246  0.7920
 8744SOL    HW137865   0.077   2.286   9.659 -2.2471  0.7540  1.7910
 8744SOL    HW237866   0.128   2.386   9.566 -0.3512  0.6651 -0.8179
 8745SOL     OW37867   2.558   4.472   4.558 -0.1254 -0.1895  0.2918
 8745SOL    HW137868   2.544   4.395   4.502  1.9409 -0.2240 -0.1737
 8745SOL    HW237869   2.652   4.485   4.547 -0.0470 -0.9691  0.0656
 8746SOL     OW37870   2.529   4.176   9.029 -0.2747  0.2892 -0.1016
 8746SOL    HW137871   2.479   4.146   8.954 -2.1666  0.3956  1.1122
 8746SOL    HW237872   2.578   4.098   9.055  1.0111  1.1748  0.1731
 8747SOL     OW37873   3.743   0.142  12.664  0.3725  0.9972 -0.2024
 8747SOL    HW137874   3.832   0.167  12.690  0.9848 -0.1359 -1.1912
 8747SOL    HW237875   3.688   0.189  12.727 -1.2159 -0.1182 -0.7531
 8748SOL     OW37876   1.071   4.642   1.127  0.6292  0.4512  0.5449
 8748SOL    HW137877   1.033   4.555   1.140  2.6750 -0.6672 -0.9835
 8748SOL    HW237878   1.090   4.635   1.033 -1.0007  1.2685  0.1378
 8749SOL     OW37879   1.540   4.392   3.254  0.4198 -0.1006  0.1360
 8749SOL    HW137880   1.629   4.409   3.222 -0.2993  0.7692 -1.3710
 8749SOL    HW237881   1.547   4.456   3.324  1.7498  1.2148 -1.2077
 8750SOL     OW37882   3.314   4.363   6.115 -0.3205  0.2348  0.0880
 8750SOL    HW137883   3.391   4.420   6.118  0.2807 -0.6799  1.7929
 8750SOL    HW237884   3.248   4.431   6.129  1.5184  2.1361 -0.3726
 8751SOL     OW37885   1.990   0.031   7.862  0.0051  0.3744 -0.0910
 8751SOL    HW137886   1.965   0.034   7.770  1.2364 -0.1906 -0.4446
 8751SOL    HW237887   1.941   0.103   7.902  1.9607  2.6866 -1.8230
 8752SOL     OW37888   2.364   0.800   7.709  0.0477  0.1823 -0.3008
 8752SOL    HW137889   2.331   0.713   7.688 -1.0911  0.4599  0.3450
 8752SOL    HW237890   2.402   0.833   7.628  2.7733  1.7710  1.6278
 8753SOL     OW37891   3.073   2.600  13.578  0.0609 -0.4484  0.4119
 8753SOL    HW137892   3.158   2.591  13.620  0.9435 -2.3842 -1.7518
 8753SOL    HW237893   3.057   2.692  13.558  3.0709 -0.1155 -0.4227
 8754SOL     OW37894   0.474   3.894   3.734 -0.1634  0.1191  0.2631
 8754SOL    HW137895   0.455   3.808   3.771 -1.2730 -0.1949 -1.0692
 8754SOL    HW237896   0.569   3.901   3.744 -0.0913  0.4680 -0.7517
 8755SOL     OW37897   3.518   3.596   9.011  0.0570 -0.2166  0.5015
 8755SOL    HW137898   3.481   3.644   9.085  1.1382 -1.9603  2.1845
 8755SOL    HW237899   3.585   3.559   9.069 -0.2707 -0.9013  0.4309
 8756SOL     OW37900   1.755   3.335   8.254  0.3317 -0.2586  0.4306
 8756SOL    HW137901   1.788   3.423   8.237  1.1816 -0.9180 -1.3174
 8756SOL    HW237902   1.837   3.287   8.241  0.1299  0.2226 -2.7297
 8757SOL     OW37903   0.894   1.597   7.404 -0.1821 -0.2616  0.3011
 8757SOL    HW137904   0.920   1.506   7.412 -0.1453 -0.0603  2.4011
 8757SOL    HW237905   0.966   1.633   7.455  0.4538 -0.2392 -0.6000
 8758SOL     OW37906   1.115   1.708   6.251 -0.0934  0.1371  0.1928
 8758SOL    HW137907   1.023   1.721   6.229 -0.2857 -0.3943  0.6819
 8758SOL    HW237908   1.132   1.788   6.300 -2.8347 -0.0421  1.3910
 8759SOL     OW37909   1.941   2.196   3.501  0.5772  0.0904  0.4808
 8759SOL    HW137910   1.981   2.280   3.479 -1.1419  0.9480  0.6426
 8759SOL    HW237911   1.848   2.218   3.496  0.4566 -0.4893  0.1097
 8760SOL     OW37912   4.294   2.929   6.091 -0.9290 -0.2285 -0.1157
 8760SOL    HW137913   4.297   3.011   6.040  0.5608 -1.5973 -2.2201
 8760SOL    HW237914   4.304   2.958   6.182  0.1672 -1.4154  0.1385
 8761SOL     OW37915   2.282   0.483  14.416 -0.2559 -0.1990 -0.5390
 8761SOL    HW137916   2.317   0.569  14.440  0.4166 -0.5717 -0.1815
 8761SOL    HW237917   2.297   0.497  14.323  0.7184  0.3265 -0.3031
 8762SOL     OW37918   1.533   0.148   7.398  0.7064  0.5904 -0.1931
 8762SOL    HW137919   1.572   0.158   7.312 -1.0732  1.1036 -0.9302
 8762SOL    HW237920   1.546   0.235   7.436  0.7936 -0.4467  2.1841
 8763SOL     OW37921   4.406   3.622   3.383  0.1451 -0.6649  0.3081
 8763SOL    HW137922   4.439   3.641   3.471 -0.9590  0.6448  0.4302
 8763SOL    HW237923   4.447   3.690   3.330  0.5716 -0.6636  0.6375
 8764SOL     OW37924   2.852   4.563   5.952  0.8654 -0.0167  0.3026
 8764SOL    HW137925   2.907   4.641   5.951 -1.0377  1.3442  1.1836
 8764SOL    HW237926   2.917   4.496   5.931  0.7273 -0.3767  1.0052
 8765SOL     OW37927   3.850   3.424   7.716  0.4756  0.4734  0.5955
 8765SOL    HW137928   3.887   3.511   7.703  1.1287  0.4945  2.6602
 8765SOL    HW237929   3.758   3.453   7.719  0.2464 -0.4247  2.2142
 8766SOL     OW37930   1.452   1.458  16.915 -0.1015  0.7146 -0.5494
 8766SOL    HW137931   1.428   1.446  17.007 -0.2148 -2.6375 -1.0288
 8766SOL    HW237932   1.373   1.431  16.867  0.2673  0.2266 -0.8782
 8767SOL     OW37933   3.342   2.524   5.277  0.4784  0.1991  0.3036
 8767SOL    HW137934   3.399   2.473   5.335  2.8750  2.8666  0.3148
 8767SOL    HW237935   3.356   2.614   5.307 -1.3982  0.1222  1.4172
 8768SOL     OW37936   0.260   0.928   6.918 -0.0964  0.4572 -0.5300
 8768SOL    HW137937   0.249   1.021   6.898  2.1407  1.0588  0.9687
 8768SOL    HW237938   0.190   0.918   6.982 -0.7250  1.3239 -1.0797
 8769SOL     OW37939   3.231   1.125  12.451 -0.4048 -0.1558  0.0149
 8769SOL    HW137940   3.320   1.144  12.423 -1.1006 -2.2225 -3.5930
 8769SOL    HW237941   3.172   1.160  12.384  1.0723  0.3483 -1.0105
 8770SOL     OW37942   0.679   2.218   6.303 -0.0647 -0.2298  0.3781
 8770SOL    HW137943   0.756   2.262   6.339 -0.3546  1.0577 -0.5413
 8770SOL    HW237944   0.630   2.195   6.382  0.8503 -1.8384  0.4684
 8771SOL     OW37945   1.930   0.468  15.507  0.6784 -0.3314 -0.1137
 8771SOL    HW137946   1.997   0.404  15.481  1.3103  0.2629  0.0281
 8771SOL    HW237947   1.860   0.420  15.550  0.5901 -0.0232  0.0908
 8772SOL     OW37948   1.299   0.310  17.680  0.0667  0.0327 -0.1469
 8772SOL    HW137949   1.276   0.350  17.596  1.4747  2.8133  0.8246
 8772SOL    HW237950   1.382   0.355  17.691 -1.4489  2.5309  0.9685
 8773SOL     OW37951   2.970   2.922   3.481  0.2448 -0.3975 -0.1206
 8773SOL    HW137952   2.890   2.875   3.504  0.4870 -1.0463 -0.6064
 8773SOL    HW237953   2.966   3.002   3.533 -1.3557 -0.0234 -0.8286
 8774SOL     OW37954   1.896   1.340   3.892  0.1744 -0.4988 -0.7793
 8774SOL    HW137955   1.836   1.278   3.850  0.1621 -0.8101 -0.3074
 8774SOL    HW237956   1.853   1.423   3.871 -3.1154 -2.2373 -0.9574
 8775SOL     OW37957   4.450   4.122   5.695  0.1797 -0.1117 -0.0844
 8775SOL    HW137958   4.412   4.195   5.743 -0.6273 -1.1331  0.8299
 8775SOL    HW237959   4.524   4.097   5.751 -1.8668 -3.2951  1.2505
 8776SOL     OW37960   2.470   4.688   4.019 -0.2523 -0.5087  0.3177
 8776SOL    HW137961   2.557   4.655   4.044  0.1648  0.3429 -0.0324
 8776SOL    HW237962   2.423   4.686   4.103 -1.7349 -0.7167 -0.5202
 8777SOL     OW37963   3.513   2.995   6.954 -0.1756  0.0483 -0.0458
 8777SOL    HW137964   3.554   3.025   6.873 -1.7254  0.1313 -0.7889
 8777SOL    HW237965   3.592   2.980   7.007  0.4619  0.7788 -0.7804
 8778SOL     OW37966   2.367   2.200   3.855  0.2563 -0.7749  0.2522
 8778SOL    HW137967   2.404   2.173   3.939  0.7409 -1.3301 -0.1377
 8778SOL    HW237968   2.291   2.254   3.876 -0.1924 -1.5720  0.6937
 8779SOL     OW37969   1.096   3.642  15.350 -0.1469  0.5110 -0.0187
 8779SOL    HW137970   1.114   3.551  15.325 -3.6164  0.6206 -2.7390
 8779SOL    HW237971   1.009   3.630  15.388 -0.3344 -0.9484 -0.9170
 8780SOL     OW37972   3.827   3.009  14.450 -0.1716  0.0663 -0.1886
 8780SOL    HW137973   3.808   3.076  14.516  0.3845 -0.7412  0.8022
 8780SOL    HW237974   3.889   2.959  14.503  1.0526  1.5166 -0.2357
 8781SOL     OW37975   0.266   2.180   5.395  0.2222 -0.0374  0.1718
 8781SOL    HW137976   0.180   2.143   5.374  0.2533  0.7115 -1.3164
 8781SOL    HW237977   0.260   2.193   5.489 -0.7154  1.2061 -0.0535
 8782SOL     OW37978   1.811   1.456   2.270 -0.1981 -0.0908  0.3041
 8782SOL    HW137979   1.774   1.540   2.244  1.8713  0.4857 -0.7926
 8782SOL    HW237980   1.902   1.483   2.286 -0.6916  1.7907 -0.1259
 8783SOL     OW37981   0.003   4.387   8.845  0.0632 -0.4818 -0.3514
 8783SOL    HW137982   4.652   4.403   8.865  0.7522  2.8742  0.2294
 8783SOL    HW237983   0.035   4.467   8.888 -2.0053 -0.6664  1.5141
 8784SOL     OW37984   0.329   2.905   5.506  0.6719  0.6015  0.3121
 8784SOL    HW137985   0.403   2.885   5.450 -0.4502  2.2312 -1.7511
 8784SOL    HW237986   0.377   2.949   5.577 -2.2683  1.2511  1.8915
 8785SOL     OW37987   1.165   3.593   2.635 -0.5994 -0.1288 -0.3930
 8785SOL    HW137988   1.185   3.511   2.590 -0.2645 -0.3529  0.1637
 8785SOL    HW237989   1.230   3.582   2.705 -0.6828 -1.6766 -0.5604
 8786SOL     OW37990   0.815   1.667  12.000 -0.1554  0.2204  0.3017
 8786SOL    HW137991   0.786   1.727  11.931  0.3667 -1.3310 -1.2859
 8786SOL    HW237992   0.748   1.697  12.061 -0.9344 -0.3272 -0.2674
 8787SOL     OW37993   1.499   1.826   3.090  0.7487  0.0034 -0.6814
 8787SOL    HW137994   1.500   1.756   3.155  0.5458 -0.5114 -1.2287
 8787SOL    HW237995   1.568   1.794   3.032 -0.6383  0.7579 -2.7674
 8788SOL     OW37996   4.607   3.133   3.580 -0.0346  0.1294  0.2285
 8788SOL    HW137997   4.559   3.214   3.599 -0.5881  0.1793 -1.3435
 8788SOL    HW237998   4.539   3.066   3.572  1.0151 -1.0985  1.6382
 8789SOL     OW37999   1.845   0.323   5.191  0.1847  0.5313  0.4160
 8789SOL    HW138000   1.786   0.394   5.168 -1.3070 -0.2143  1.8809
 8789SOL    HW238001   1.827   0.323   5.285 -1.7880  0.3847  0.0447
 8790SOL     OW38002   1.719   1.983   6.061  0.4101  0.0434  0.1547
 8790SOL    HW138003   1.755   1.904   6.021  1.1286  0.4280  0.0445
 8790SOL    HW238004   1.727   1.963   6.155 -2.4121 -1.8252 -0.0102
 8791SOL     OW38005   1.422   3.855   7.157  0.1476  0.3796  0.0406
 8791SOL    HW138006   1.434   3.944   7.189  1.9958  0.2815 -0.3597
 8791SOL    HW238007   1.479   3.814   7.221  0.8214  1.5451  0.1767
 8792SOL     OW38008   3.648   0.038  15.694 -0.2790  0.2199  0.6442
 8792SOL    HW138009   3.662   4.684  15.688  2.9871  0.7194  0.2593
 8792SOL    HW238010   3.559   0.030  15.727  0.0282  0.4355  1.5215
 8793SOL     OW38011   4.214   0.323   2.885 -0.2217  0.3186 -0.1642
 8793SOL    HW138012   4.124   0.294   2.901 -0.7969  2.6528  0.8403
 8793SOL    HW238013   4.258   0.291   2.963 -1.2043 -0.6288  0.0045
 8794SOL     OW38014   0.738   0.534   3.262  0.7846 -0.1450  0.1239
 8794SOL    HW138015   0.813   0.593   3.273  0.0147  0.8242  0.1968
 8794SOL    HW238016   0.769   0.474   3.195 -0.3133  0.4930 -0.9491
 8795SOL     OW38017   1.941   1.250  16.865  0.3885 -0.4061 -0.2008
 8795SOL    HW138018   1.873   1.313  16.891 -1.0279 -2.8642  1.9459
 8795SOL    HW238019   1.919   1.164  16.900 -2.1219  0.3716  0.1391
 8796SOL     OW38020   2.400   4.027  16.727  0.0931 -0.1694  0.2704
 8796SOL    HW138021   2.379   4.098  16.666  0.2719  0.6798  1.1873
 8796SOL    HW238022   2.439   4.077  16.799 -0.0799  0.4455 -0.0650
 8797SOL     OW38023   1.972   1.083   5.241 -0.2680 -0.2150 -0.4135
 8797SOL    HW138024   1.890   1.036   5.254 -0.9506  1.5411  1.6801
 8797SOL    HW238025   2.024   1.024   5.186  0.0730  1.1217 -1.5286
 8798SOL     OW38026   4.539   2.286   2.515 -0.4888 -0.0975 -0.9330
 8798SOL    HW138027   4.568   2.198   2.490  0.6109  0.1880 -0.6764
 8798SOL    HW238028   4.447   2.278   2.491 -0.7598 -0.8641  0.3545
 8799SOL     OW38029   0.088   0.819   5.756  0.4552 -0.3712  0.4869
 8799SOL    HW138030   0.099   0.759   5.830  0.8121  0.6993  1.2918
 8799SOL    HW238031   0.121   0.902   5.790 -2.4429  1.4977 -1.2990
 8800SOL     OW38032   1.399   0.475   0.307  0.4407 -0.0912 -0.3694
 8800SOL    HW138033   1.311   0.479   0.270 -0.4335 -1.3372  1.6061
 8800SOL    HW238034   1.405   0.553   0.362 -2.5471 -0.0756 -0.0815
 8801SOL     OW38035   3.507   3.113   9.612  0.4028  0.4179 -0.5795
 8801SOL    HW138036   3.476   3.031   9.575  2.3542 -0.3899 -0.4298
 8801SOL    HW238037   3.435   3.142   9.668  1.1721  0.5210  0.3668
 8802SOL     OW38038   1.408   1.092   7.968 -0.5159  0.2819  0.5470
 8802SOL    HW138039   1.413   1.175   7.920 -0.0572  0.3725  0.7440
 8802SOL    HW238040   1.499   1.065   7.951 -0.6219  0.6946 -0.6900
 8803SOL     OW38041   2.279   0.446  11.054  0.1800  0.1351 -0.3166
 8803SOL    HW138042   2.290   0.355  11.084  0.0722 -0.3286 -1.7088
 8803SOL    HW238043   2.187   0.469  11.063  0.4295  1.4373 -1.2647
 8804SOL     OW38044   2.424   2.834   7.211 -0.6042  0.5609  0.4120
 8804SOL    HW138045   2.506   2.882   7.199 -1.7407  1.9018 -1.9451
 8804SOL    HW238046   2.443   2.756   7.159  0.3246  0.5561  0.7616
 8805SOL     OW38047   3.974   2.663   8.941  0.7187  0.3789  0.0467
 8805SOL    HW138048   4.013   2.716   9.011  0.7221 -1.3707  1.3730
 8805SOL    HW238049   3.997   2.723   8.871  0.4820 -0.6974 -0.9512
 8806SOL     OW38050   2.278   0.262   2.974 -0.2024  0.5420 -0.0855
 8806SOL    HW138051   2.196   0.214   2.984  0.3079 -0.5767 -1.1741
 8806SOL    HW238052   2.257   0.326   2.906  0.3116 -1.0672 -1.7796
 8807SOL     OW38053   1.434   0.244  12.208  0.0809 -0.5866 -0.4245
 8807SOL    HW138054   1.506   0.249  12.145 -0.9373 -0.0539 -1.5582
 8807SOL    HW238055   1.428   0.148  12.210 -0.2793 -0.5026  2.0809
 8808SOL     OW38056   2.461   3.205   4.158 -0.7338  0.3413 -0.1325
 8808SOL    HW138057   2.420   3.291   4.150 -0.5553  0.5238  0.9330
 8808SOL    HW238058   2.448   3.194   4.252 -0.2202  1.6553  0.0877
 8809SOL     OW38059   2.353   0.848   3.702 -0.1076  0.0456  0.0319
 8809SOL    HW138060   2.373   0.915   3.637  1.6789  0.2129  0.7556
 8809SOL    HW238061   2.412   0.879   3.770 -0.9093  1.2333  0.1837
 8810SOL     OW38062   4.081   4.592   5.358 -0.0788  0.4843  0.3954
 8810SOL    HW138063   4.125   4.625   5.280 -2.3057  1.5675 -0.3926
 8810SOL    HW238064   4.102   4.656   5.427  3.4542 -1.0942  0.7920
 8811SOL     OW38065   1.623   2.521   4.795  0.4437 -0.5620  0.2322
 8811SOL    HW138066   1.608   2.427   4.785  1.1038 -0.6073 -0.2879
 8811SOL    HW238067   1.703   2.532   4.846  0.9400 -1.7508 -0.2795
 8812SOL     OW38068   0.176   4.582   6.841 -0.1113  0.0889  0.2958
 8812SOL    HW138069   0.166   4.637   6.763 -0.0027 -0.6216 -0.2229
 8812SOL    HW238070   0.100   4.525   6.829  0.6423 -0.3522 -2.3406
 8813SOL     OW38071   1.305   2.965   4.626  0.3325  0.1089  0.3772
 8813SOL    HW138072   1.304   2.992   4.717 -0.0939 -1.4936  0.8559
 8813SOL    HW238073   1.400   2.965   4.614  0.4233 -1.3441  1.0975
 8814SOL     OW38074   1.179   0.042   9.320  0.0992 -0.0429 -0.2714
 8814SOL    HW138075   1.146   4.704   9.278 -3.2741  1.9869 -1.4291
 8814SOL    HW238076   1.191   0.005   9.408 -0.7064  2.1257  0.7599
 8815SOL     OW38077   3.960   4.476  10.135  0.2685  0.1397  0.4085
 8815SOL    HW138078   3.985   4.568  10.140  0.2988  0.3197 -2.8696
 8815SOL    HW238079   3.903   4.486  10.059  0.0815 -0.1157  0.5130
 8816SOL     OW38080   2.267   1.747   2.974 -0.0930 -0.5265 -0.8169
 8816SOL    HW138081   2.360   1.767   2.981 -0.6005  1.1084  1.3329
 8816SOL    HW238082   2.254   1.696   2.894  1.0776 -0.0773 -1.2865
 8817SOL     OW38083   1.225   0.234   4.580 -0.8112 -0.2543  0.1359
 8817SOL    HW138084   1.243   0.269   4.493  0.7775 -0.3530  0.4154
 8817SOL    HW238085   1.300   0.174   4.581 -1.2535 -0.7799  2.4082
 8818SOL     OW38086   4.217   4.633  10.921  0.3422 -0.7356 -0.3853
 8818SOL    HW138087   4.276   4.672  10.856 -0.1317 -1.6145 -1.3489
 8818SOL    HW238088   4.270   4.567  10.966  0.9303  0.5791  0.8366
 8819SOL     OW38089   1.036   4.055  11.139 -0.4863  0.1300 -0.0058
 8819SOL    HW138090   0.954   4.071  11.187 -0.4887  0.7413 -0.2168
 8819SOL    HW238091   1.053   3.962  11.153  2.2867  0.8764  1.5106
 8820SOL     OW38092   3.145   3.741   2.132 -0.0982 -0.1077 -0.3095
 8820SOL    HW138093   3.125   3.767   2.042 -2.6725  0.9996  0.5614
 8820SOL    HW238094   3.079   3.796   2.176  0.0191  0.3281 -0.6832
 8821SOL     OW38095   4.081   0.853  17.575  0.0731  0.0876  0.5445
 8821SOL    HW138096   4.113   0.922  17.518  0.8407 -0.9169 -0.2400
 8821SOL    HW238097   4.001   0.853  17.522  0.8821 -0.7559 -0.6841
 8822SOL     OW38098   3.534   4.654   4.952  0.0676  0.0396  0.0695
 8822SOL    HW138099   3.598   4.726   4.949 -0.5692  0.5772 -0.5690
 8822SOL    HW238100   3.461   4.696   4.998 -0.0193  0.0586 -0.0871
 8823SOL     OW38101   0.733   1.375   4.885  0.3195 -0.1997  0.3268
 8823SOL    HW138102   0.783   1.301   4.919 -0.5211 -1.8539 -2.0690
 8823SOL    HW238103   0.709   1.342   4.799  2.0636 -1.6653  0.3945
 8824SOL     OW38104   3.589   1.751   8.752 -0.0559  0.0227 -0.1075
 8824SOL    HW138105   3.582   1.706   8.667  0.9886 -0.6053  0.1365
 8824SOL    HW238106   3.660   1.808   8.723 -2.3143  2.3194 -1.0822
 8825SOL     OW38107   4.368   1.648   9.135  0.3642  0.1460  0.1905
 8825SOL    HW138108   4.418   1.708   9.080  1.8549 -1.5790 -0.3396
 8825SOL    HW238109   4.297   1.609   9.084  0.9410 -0.3823 -0.2205
 8826SOL     OW38110   3.031   0.556  11.893 -0.3679 -0.4314  0.4255
 8826SOL    HW138111   2.968   0.603  11.948  0.3394  1.3552 -0.2968
 8826SOL    HW238112   3.023   0.609  11.814  0.7465 -1.4932 -0.3891
 8827SOL     OW38113   0.998   1.669   4.515 -0.0037 -0.0560  0.1305
 8827SOL    HW138114   1.079   1.693   4.560 -0.5691 -1.1095  1.6817
 8827SOL    HW238115   0.940   1.728   4.562  0.4955  0.0845  0.5754
 8828SOL     OW38116   3.417   3.398   9.929 -0.4633 -0.3556  0.2116
 8828SOL    HW138117   3.380   3.419  10.016 -1.0867 -0.2491 -0.0763
 8828SOL    HW238118   3.501   3.442   9.941 -1.2145  1.3854 -0.8553
 8829SOL     OW38119   3.794   1.220  16.467 -0.0014 -0.2271  0.2368
 8829SOL    HW138120   3.877   1.220  16.516 -0.2470 -1.3121  0.6574
 8829SOL    HW238121   3.822   1.248  16.380  0.1384 -2.2152 -0.3647
 8830SOL     OW38122   1.414   0.160  14.595  0.4430 -0.1291  0.5633
 8830SOL    HW138123   1.441   0.128  14.681  0.0603 -1.9228  0.0005
 8830SOL    HW238124   1.319   0.160  14.604  0.3716 -1.7929 -0.2816
 8831SOL     OW38125   1.034   1.215   6.077 -0.3838  0.0200 -0.2822
 8831SOL    HW138126   0.968   1.165   6.029 -0.2677 -0.4567  0.0520
 8831SOL    HW238127   1.050   1.295   6.027  1.2586  0.5902  1.1499
 8832SOL     OW38128   0.652   0.327   5.159  0.2226  0.1946 -0.3783
 8832SOL    HW138129   0.672   0.234   5.160  3.2958  0.8498  1.1819
 8832SOL    HW238130   0.676   0.345   5.250  1.7081  1.2182 -0.9719
 8833SOL     OW38131   3.634   3.197   9.330 -0.3540  0.3435  0.1652
 8833SOL    HW138132   3.615   3.257   9.257 -2.5029  1.8128  1.9278
 8833SOL    HW238133   3.564   3.133   9.321  0.8057 -0.7129 -1.4631
 8834SOL     OW38134   0.274   0.460  14.463 -0.1696 -0.1198 -0.3501
 8834SOL    HW138135   0.219   0.464  14.541  1.4119 -0.8984  0.7850
 8834SOL    HW238136   0.271   0.548  14.424 -2.1095 -0.1912 -0.3370
 8835SOL     OW38137   2.202   0.834  12.372 -0.3454  0.1451 -0.0924
 8835SOL    HW138138   2.211   0.910  12.430 -0.3314  0.6886 -0.8158
 8835SOL    HW238139   2.260   0.861  12.301 -0.3428  1.8254  0.5383
 8836SOL     OW38140   2.065   4.543   0.821 -0.1818  0.1124  0.3652
 8836SOL    HW138141   1.976   4.561   0.791  1.7461  2.7635 -3.7229
 8836SOL    HW238142   2.066   4.451   0.846  1.3973  0.1878  0.5650
 8837SOL     OW38143   4.685   1.793   7.824 -0.2236 -0.0811 -0.2200
 8837SOL    HW138144   4.660   1.806   7.915  0.7330  1.3581 -0.1685
 8837SOL    HW238145   4.737   1.874   7.821 -0.1965 -0.0335  1.9550
 8838SOL     OW38146   0.195   0.414  15.899 -0.0807  0.4800 -0.3454
 8838SOL    HW138147   0.122   0.476  15.898 -1.8762 -1.5980  1.0974
 8838SOL    HW238148   0.251   0.461  15.961  0.2447  0.4445 -0.6132
 8839SOL     OW38149   2.285   2.617   7.963 -0.8679  0.0528  0.2627
 8839SOL    HW138150   2.255   2.568   8.039 -0.8922 -2.7883 -1.5856
 8839SOL    HW238151   2.251   2.557   7.896  0.7608  0.8516 -1.2846
 8840SOL     OW38152   4.284   3.203   6.159 -0.0724 -0.3064  0.7683
 8840SOL    HW138153   4.290   3.296   6.139 -2.5478 -0.2811  0.1688
 8840SOL    HW238154   4.283   3.175   6.067  0.1595  1.0915  0.3346
 8841SOL     OW38155   1.912   0.563  11.929 -0.4303  0.1639 -0.2967
 8841SOL    HW138156   1.896   0.553  11.835 -2.5486 -1.9794  0.2834
 8841SOL    HW238157   1.925   0.471  11.953  2.0249  0.2049 -1.3867
 8842SOL     OW38158   4.234   4.710   9.280 -0.1988  0.0788 -0.5458
 8842SOL    HW138159   4.205   4.711   9.189 -1.4004  0.6637 -0.1454
 8842SOL    HW238160   4.152   4.731   9.325  0.7635 -2.0078  2.2354
 8843SOL     OW38161   2.627   2.075   2.658  0.0255  0.0568  0.3810
 8843SOL    HW138162   2.713   2.037   2.639  0.9889  1.0927  2.6752
 8843SOL    HW238163   2.644   2.135   2.731 -1.8851  0.5786  0.3960
 8844SOL     OW38164   1.354   0.695   1.307 -0.0351  0.4820 -0.5231
 8844SOL    HW138165   1.281   0.686   1.368  0.1734 -0.5107 -0.4194
 8844SOL    HW238166   1.398   0.610   1.310 -2.7990 -0.9150 -0.1350
 8845SOL     OW38167   0.050   4.237   2.271  0.4192 -0.5211  0.3797
 8845SOL    HW138168   0.139   4.239   2.235 -0.2532 -0.0380 -1.2550
 8845SOL    HW238169   0.069   4.232   2.365 -0.0499  0.0550  0.5017
 8846SOL     OW38170   3.161   4.312   5.877 -0.1990  0.4412  0.1347
 8846SOL    HW138171   3.075   4.282   5.905  0.0739 -0.7763 -0.3311
 8846SOL    HW238172   3.199   4.304   5.964 -0.8710 -1.8196  0.2139
 8847SOL     OW38173   1.837   2.263   8.004  0.0724  0.2377  0.5547
 8847SOL    HW138174   1.810   2.324   8.073 -2.4920  0.6213 -0.7858
 8847SOL    HW238175   1.932   2.271   8.009  0.1546 -1.0213  0.9605
 8848SOL     OW38176   1.850   4.096   4.950  1.0136  0.8344  0.0647
 8848SOL    HW138177   1.890   4.160   5.008  1.5458  0.2177  0.3824
 8848SOL    HW238178   1.915   4.026   4.946 -0.4578 -0.4786 -1.0516
 8849SOL     OW38179   1.372   4.569   2.906 -0.2815 -0.0791  0.0646
 8849SOL    HW138180   1.458   4.603   2.880 -0.5036 -0.1774 -0.8072
 8849SOL    HW238181   1.317   4.632   2.861 -0.7740 -2.4856 -2.7460
 8850SOL     OW38182   2.216   1.306   5.926 -0.4887  0.4774  0.1990
 8850SOL    HW138183   2.219   1.399   5.904  3.2059  0.3110  0.0057
 8850SOL    HW238184   2.263   1.262   5.856  0.8601 -1.1209  2.1182
 8851SOL     OW38185   0.191   3.632   8.603  0.0628 -0.1369  0.4233
 8851SOL    HW138186   0.254   3.677   8.547  0.7296  0.0018  1.2929
 8851SOL    HW238187   0.229   3.642   8.690  1.9513  1.3906 -0.5688
 8852SOL     OW38188   3.060   4.383   0.053 -0.5076  0.3501 -0.1201
 8852SOL    HW138189   2.992   4.435   0.010 -2.4639 -2.5778 -0.6252
 8852SOL    HW238190   3.144   4.420   0.027  0.4087 -2.6046 -1.3471
 8853SOL     OW38191   0.880   0.204   1.987 -0.0943 -0.5631  0.2181
 8853SOL    HW138192   0.902   0.272   1.922 -1.6664  0.5827  0.8799
 8853SOL    HW238193   0.882   0.125   1.934 -0.2448  0.2476 -1.0080
 8854SOL     OW38194   3.325   4.172   2.394  0.1749 -0.4664  0.8353
 8854SOL    HW138195   3.402   4.215   2.355 -1.2867 -0.2307 -1.7545
 8854SOL    HW238196   3.354   4.083   2.412 -0.9956 -0.3553  3.2619
 8855SOL     OW38197   0.567   0.987   9.473 -0.0430  0.2252  0.7319
 8855SOL    HW138198   0.596   0.999   9.564 -0.3960 -2.4774  1.1975
 8855SOL    HW238199   0.494   1.049   9.474  0.4509  0.8006  1.2408
 8856SOL     OW38200   1.609   3.823   9.964 -0.6337  0.1573  0.2179
 8856SOL    HW138201   1.629   3.915   9.979 -0.0536  0.7029 -4.0104
 8856SOL    HW238202   1.513   3.827   9.963 -0.5566  2.3822  1.8550
 8857SOL     OW38203   4.608   0.595   7.965  0.4751  0.1596  0.6151
 8857SOL    HW138204   4.534   0.576   8.023 -0.3800  0.7092 -0.2920
 8857SOL    HW238205   4.666   0.522   7.988 -0.6588 -1.5069 -1.8428
 8858SOL     OW38206   4.386   0.168   6.912  0.3272 -0.2290 -0.0450
 8858SOL    HW138207   4.320   0.207   6.856  2.2111  0.8159 -1.5296
 8858SOL    HW238208   4.395   0.244   6.969 -0.3411 -1.1293  1.2631
 8859SOL     OW38209   4.499   0.911  14.402  0.2028  0.3143 -0.3361
 8859SOL    HW138210   4.534   0.823  14.388  1.8478  0.6009  2.0292
 8859SOL    HW238211   4.571   0.965  14.433  1.1191  0.5116 -2.8238
 8860SOL     OW38212   0.605   4.241  12.186 -0.3622  0.5624 -0.1704
 8860SOL    HW138213   0.572   4.208  12.269  1.4180  1.2859  0.8356
 8860SOL    HW238214   0.546   4.187  12.135  0.3956  0.0221 -0.4763
 8861SOL     OW38215   3.638   2.461   9.996 -0.1586  0.1645 -0.0384
 8861SOL    HW138216   3.554   2.458   9.949  0.2000  0.3322 -0.6868
 8861SOL    HW238217   3.616   2.527  10.061  1.6504  2.6974 -2.0092
 8862SOL     OW38218   3.539   0.821   8.858 -0.1219 -0.9970 -0.4597
 8862SOL    HW138219   3.608   0.794   8.797  1.2816  2.6441 -0.5051
 8862SOL    HW238220   3.466   0.834   8.799  0.5668  0.4245 -0.9925
 8863SOL     OW38221   3.293   3.491   4.763 -0.2590  0.6193  0.0299
 8863SOL    HW138222   3.388   3.494   4.750 -0.4193  0.9557 -1.1152
 8863SOL    HW238223   3.285   3.400   4.789 -0.6070  0.3929 -0.8906
 8864SOL     OW38224   1.164   3.077   4.434 -0.5451 -0.2296  0.2821
 8864SOL    HW138225   1.140   3.147   4.494 -2.3519 -2.2198  1.8819
 8864SOL    HW238226   1.216   3.019   4.490 -2.3387 -1.8222  0.2928
 8865SOL     OW38227   0.074   0.647   8.533  0.0502 -0.4511 -0.0348
 8865SOL    HW138228   4.734   0.596   8.533 -0.2197 -0.0177  0.3307
 8865SOL    HW238229   0.092   0.664   8.625  1.3473 -0.5947 -0.2584
 8866SOL     OW38230   0.963   3.755   2.551  0.1475  1.0169  0.0759
 8866SOL    HW138231   0.955   3.840   2.594  0.2561  1.6066 -1.0950
 8866SOL    HW238232   1.044   3.714   2.582 -0.6343  0.7328  1.7481
 8867SOL     OW38233   1.947   0.638  14.209 -0.4175 -0.1269 -0.6178
 8867SOL    HW138234   1.935   0.603  14.297 -1.3042 -1.0298 -1.0994
 8867SOL    HW238235   1.856   0.627  14.181 -0.6500 -1.4381  0.6645
 8868SOL     OW38236   3.918   0.990  10.339 -0.2933 -0.2710  0.4073
 8868SOL    HW138237   3.838   0.945  10.309  0.0027  0.7764 -1.9783
 8868SOL    HW238238   3.945   0.928  10.406 -0.2315 -0.1259  0.5174
 8869SOL     OW38239   4.642   2.099   8.130  0.6293 -0.4968  0.0424
 8869SOL    HW138240   4.579   2.128   8.063 -0.7029  0.1998  1.6104
 8869SOL    HW238241   4.584   2.042   8.180  0.5505  0.7301  1.3511
 8870SOL     OW38242   3.293   4.436   2.111  0.1987 -0.7598  0.1900
 8870SOL    HW138243   3.200   4.417   2.097 -0.0727  1.2840 -0.8348
 8870SOL    HW238244   3.279   4.530   2.104 -1.0726 -1.1866 -2.8853
 8871SOL     OW38245   2.948   1.171   6.136  0.2251  0.2394 -0.8907
 8871SOL    HW138246   2.988   1.257   6.147 -0.5706  0.3356  1.2825
 8871SOL    HW238247   2.864   1.184   6.180  1.4712 -0.0353  1.5573
 8872SOL     OW38248   0.180   3.397   3.103 -0.0639 -0.5553  0.3591
 8872SOL    HW138249   0.234   3.349   3.041  1.1842  1.4258 -0.0617
 8872SOL    HW238250   0.112   3.333   3.127 -0.8541 -0.3204 -1.3064
 8873SOL     OW38251   1.323   2.285   6.141 -0.2607  0.3788  0.1927
 8873SOL    HW138252   1.385   2.354   6.119 -0.4356  0.0234 -1.4436
 8873SOL    HW238253   1.358   2.218   6.082 -1.9915 -2.6787  2.6447
 8874SOL     OW38254   2.650   3.058  17.141  0.0704 -0.8677 -0.0039
 8874SOL    HW138255   2.708   3.130  17.118 -0.0390 -1.2499 -1.4939
 8874SOL    HW238256   2.687   3.028  17.225 -0.7833  0.5989  0.8900
 8875SOL     OW38257   2.590   1.196   4.864  0.3287  0.5218  0.6318
 8875SOL    HW138258   2.523   1.259   4.835  1.7561  1.3154 -0.9404
 8875SOL    HW238259   2.583   1.137   4.789 -0.3912 -0.2825  1.3336
 8876SOL     OW38260   3.892   3.909  15.253 -0.0725 -0.3828  0.0723
 8876SOL    HW138261   3.898   3.998  15.218  0.3142 -0.1448  0.7330
 8876SOL    HW238262   3.797   3.896  15.256 -0.2756  0.4380 -3.3598
 8877SOL     OW38263   1.861   3.251   0.190  0.1247 -0.5195  0.3629
 8877SOL    HW138264   1.942   3.214   0.154  0.0575 -0.6328  0.3264
 8877SOL    HW238265   1.823   3.294   0.114  2.5537 -0.4231 -0.7853
 8878SOL     OW38266   4.317   4.169   6.711 -0.5335  0.4573 -0.0355
 8878SOL    HW138267   4.248   4.114   6.674  0.3644  0.3052 -1.4883
 8878SOL    HW238268   4.326   4.138   6.801  3.3319 -1.1770 -0.9931
 8879SOL     OW38269   2.734   2.590   2.990  0.2286  0.8791 -0.1245
 8879SOL    HW138270   2.828   2.598   2.976  0.2860 -0.9299 -0.8136
 8879SOL    HW238271   2.708   2.678   2.962  2.4967  1.3636 -0.7070
 8880SOL     OW38272   1.658   1.997   5.364 -0.0214  0.3045  0.0110
 8880SOL    HW138273   1.589   2.055   5.332 -1.7527 -2.4218 -1.1729
 8880SOL    HW238274   1.731   2.060   5.361  0.1341 -0.0322 -3.6033
 8881SOL     OW38275   2.655   3.327   6.968  0.2605 -0.5760 -0.3559
 8881SOL    HW138276   2.681   3.362   6.883  0.1677  1.8389  0.6045
 8881SOL    HW238277   2.716   3.253   6.974  1.6572  0.6005 -0.0017
 8882SOL     OW38278   4.677   0.227   0.752  0.4675  0.4246 -0.2736
 8882SOL    HW138279   4.652   0.213   0.660 -0.4058  2.4734 -0.3618
 8882SOL    HW238280   4.603   0.182   0.794  0.7486  0.2611  0.0466
 8883SOL     OW38281   0.261   0.008   0.513 -0.3984  0.0249 -0.0326
 8883SOL    HW138282   0.351   0.023   0.486 -0.3135 -1.8617 -0.8237
 8883SOL    HW238283   0.219   0.064   0.447  0.8226  0.9266 -0.0500
 8884SOL     OW38284   0.277   1.447  13.570  0.1805 -0.3040 -0.1413
 8884SOL    HW138285   0.259   1.539  13.551 -0.0469 -0.3417 -0.1030
 8884SOL    HW238286   0.346   1.426  13.507  0.6530  0.0635  0.2554
 8885SOL     OW38287   2.190   1.181   4.100  0.0953 -0.3858  0.0899
 8885SOL    HW138288   2.253   1.110   4.085  1.4073  0.6644  0.6572
 8885SOL    HW238289   2.115   1.122   4.110  1.7374 -2.8211 -1.7804
 8886SOL     OW38290   2.074   1.368   4.925  0.2006  0.4721  0.5812
 8886SOL    HW138291   2.074   1.283   4.880  0.0417  1.4415 -1.2695
 8886SOL    HW238292   2.141   1.345   4.988 -1.2242  1.4242  2.4445
 8887SOL     OW38293   0.076   4.108   5.458  0.0056 -0.1849 -0.2931
 8887SOL    HW138294   0.103   4.071   5.374  1.2681  0.3452 -0.1075
 8887SOL    HW238295   4.731   4.140   5.430  0.2782  0.1681 -0.7234
 8888SOL     OW38296   4.514   1.186   5.579  0.5553 -0.1600  0.3258
 8888SOL    HW138297   4.518   1.091   5.578 -2.1356 -0.2845 -0.2814
 8888SOL    HW238298   4.560   1.204   5.660  1.7535 -0.0429 -0.3828
 8889SOL     OW38299   2.157   0.253   2.084 -0.6025 -0.4327  0.0016
 8889SOL    HW138300   2.075   0.281   2.045 -0.6406  0.2998  0.6004
 8889SOL    HW238301   2.222   0.314   2.049 -1.9798  1.0623  0.0551
 8890SOL     OW38302   2.463   3.606   7.850  0.0425 -0.0692 -0.0760
 8890SOL    HW138303   2.495   3.638   7.766  0.6058  2.0804  0.9494
 8890SOL    HW238304   2.417   3.524   7.831  0.1210 -0.4309  1.2960
 8891SOL     OW38305   0.844   0.767  10.302  0.4079  0.3349  0.1279
 8891SOL    HW138306   0.763   0.816  10.320  0.8970  1.9753 -2.1192
 8891SOL    HW238307   0.808   0.717  10.228 -1.6150  0.7148  0.8526
 8892SOL     OW38308   1.466   2.109  16.440  0.3829 -0.1079  0.0000
 8892SOL    HW138309   1.516   2.028  16.442 -2.8682 -2.0984  0.6202
 8892SOL    HW238310   1.548   2.157  16.434 -0.0006  0.4090 -1.0255
 8893SOL     OW38311   3.113   0.844  14.240  0.2448  0.3119 -0.0946
 8893SOL    HW138312   3.033   0.792  14.242  0.0179  0.7217  2.2577
 8893SOL    HW238313   3.185   0.786  14.217  1.0301  1.5825 -0.8171
 8894SOL     OW38314   4.197   1.472  12.097  0.5086  0.3076  0.1993
 8894SOL    HW138315   4.118   1.419  12.105 -1.3439  3.3503  2.3047
 8894SOL    HW238316   4.234   1.422  12.170 -0.6062  0.0473  0.5828
 8895SOL     OW38317   1.428   1.395   9.128 -0.3965 -0.3409 -0.3887
 8895SOL    HW138318   1.376   1.458   9.176  0.9141  0.9682 -0.6838
 8895SOL    HW238319   1.494   1.363   9.189  0.6028  3.4055  0.4376
 8896SOL     OW38320   2.045   3.805   8.189  0.1398  0.3879 -0.2959
 8896SOL    HW138321   2.056   3.804   8.284 -0.1574 -2.8985 -0.2791
 8896SOL    HW238322   2.134   3.824   8.160  0.8024 -0.8826  0.8743
 8897SOL     OW38323   0.345   2.324   7.177  0.5344  0.5578  0.5051
 8897SOL    HW138324   0.291   2.273   7.237 -0.7853  3.9628  2.2003
 8897SOL    HW238325   0.321   2.285   7.093  1.8029  0.3396  0.2431
 8898SOL     OW38326   1.270   0.695   7.802  0.2201  0.2780 -0.3101
 8898SOL    HW138327   1.226   0.746   7.870 -0.4943  0.0356 -0.5889
 8898SOL    HW238328   1.267   0.613   7.851 -1.2515  1.1827  1.0706
 8899SOL     OW38329   0.144   2.076   1.846  0.1775  0.7211 -0.0734
 8899SOL    HW138330   0.062   2.034   1.873  1.1006 -0.3916  0.9343
 8899SOL    HW238331   0.179   2.114   1.926  0.0575 -0.4858  0.5545
 8900SOL     OW38332   1.860   3.739   7.533  0.1282  0.3599  0.5840
 8900SOL    HW138333   1.909   3.766   7.611  1.6100  0.5124 -0.3927
 8900SOL    HW238334   1.817   3.816   7.497  2.4539  1.9160  1.1319
 8901SOL     OW38335   3.739   1.654   8.973  0.6410 -0.3104 -0.0990
 8901SOL    HW138336   3.727   1.730   9.030 -1.1885  0.1538 -1.1129
 8901SOL    HW238337   3.690   1.682   8.896 -1.0355 -2.9721  0.0349
 8902SOL     OW38338   0.926   0.863   8.184 -0.2096 -0.1197 -0.5639
 8902SOL    HW138339   0.926   0.851   8.089 -0.2900  0.2080 -0.6056
 8902SOL    HW238340   0.914   0.771   8.210  2.9923  0.3417  2.5610
 8903SOL     OW38341   2.490   4.407   9.820 -0.4378  0.0116  0.1828
 8903SOL    HW138342   2.400   4.408   9.787 -0.1479 -0.6410 -0.6388
 8903SOL    HW238343   2.505   4.500   9.836  0.1213  0.0812 -0.7525
 8904SOL     OW38344   4.107   1.995   5.020 -0.3825 -0.0604  0.5217
 8904SOL    HW138345   4.035   1.934   5.001  0.8381 -0.9387 -1.2491
 8904SOL    HW238346   4.190   1.948   5.015 -0.9769 -1.1663  1.0918
 8905SOL     OW38347   1.344   3.206   3.324  0.1516 -0.3487 -0.4016
 8905SOL    HW138348   1.430   3.172   3.347  0.6894 -0.4524 -2.5759
 8905SOL    HW238349   1.358   3.301   3.334 -0.8979 -0.2191 -0.1470
 8906SOL     OW38350   2.551   1.416   5.220  0.3204  0.5735 -0.6725
 8906SOL    HW138351   2.603   1.467   5.158  0.3196  0.8222 -0.4692
 8906SOL    HW238352   2.595   1.331   5.228 -1.2967 -0.0534  1.6302
 8907SOL     OW38353   1.024   0.142   1.228  0.1132  1.0676 -0.3679
 8907SOL    HW138354   1.045   0.060   1.183 -0.7312  0.2979  0.6276
 8907SOL    HW238355   1.082   0.205   1.186  0.2338  0.1917 -1.5282
 8908SOL     OW38356   3.304   0.806  12.239 -0.2168 -0.3988  0.3450
 8908SOL    HW138357   3.287   0.758  12.158  3.9036 -1.5932  0.2008
 8908SOL    HW238358   3.251   0.745  12.290 -0.6710  0.4734  0.9190
 8909SOL     OW38359   3.019   0.639  11.596 -0.3678  0.0774 -0.0258
 8909SOL    HW138360   3.011   0.567  11.534  1.1646 -0.2330  0.1494
 8909SOL    HW238361   2.973   0.710  11.550  2.2204  1.8654  0.1553
 8910SOL     OW38362   0.020   3.060   3.814  0.1424 -0.2283 -0.1915
 8910SOL    HW138363   0.114   3.069   3.798  0.1115  0.9898  0.3306
 8910SOL    HW238364   4.727   3.075   3.726 -0.0720 -0.4884 -0.1529
 8911SOL     OW38365   3.547   2.270   4.945 -0.1859 -0.0862  0.3594
 8911SOL    HW138366   3.511   2.219   5.017 -0.5284  0.6348  0.6989
 8911SOL    HW238367   3.494   2.350   4.946 -0.1774 -0.0529 -1.2717
 8912SOL     OW38368   0.501   3.140  16.521  0.0320 -0.1507 -0.4758
 8912SOL    HW138369   0.515   3.214  16.462 -1.3399  0.1199 -0.4762
 8912SOL    HW238370   0.420   3.111  16.478 -1.3949  1.0955  1.3231
 8913SOL     OW38371   0.896   1.335  10.267 -0.2197 -0.4076  0.4486
 8913SOL    HW138372   0.806   1.302  10.271 -0.9197  1.4313 -0.3317
 8913SOL    HW238373   0.960   1.268  10.291  1.4181  0.7055 -0.8810
 8914SOL     OW38374   4.310   2.140   5.931  0.7676  0.2343 -0.7382
 8914SOL    HW138375   4.355   2.223   5.950 -1.5182  1.1677  0.6780
 8914SOL    HW238376   4.229   2.167   5.888  0.8131  1.5679 -0.0019
 8915SOL     OW38377   0.218   3.381   2.678 -0.1074  0.4094  0.0991
 8915SOL    HW138378   0.228   3.455   2.737 -0.5392 -0.0669  0.7636
 8915SOL    HW238379   0.167   3.406   2.602  0.1047  1.0189  0.1617
 8916SOL     OW38380   1.339   4.067   2.455 -0.1759  0.1226 -0.0452
 8916SOL    HW138381   1.342   4.144   2.512 -4.2095 -1.4686  2.3078
 8916SOL    HW238382   1.393   4.001   2.498 -0.9823  0.3414  1.2898
 8917SOL     OW38383   0.260   4.697  10.212 -0.4429  0.4180  0.2988
 8917SOL    HW138384   0.187   0.019  10.210  0.4512  1.3597 -2.0822
 8917SOL    HW238385   0.295   4.724  10.297 -0.5783  0.2933  0.3940
 8918SOL     OW38386   4.567   0.244   5.026 -0.1893 -0.5025  0.0301
 8918SOL    HW138387   4.661   0.261   5.021 -0.4697  0.5945 -1.4221
 8918SOL    HW238388   4.564   0.194   4.945 -1.0989  1.2377 -0.9955
 8919SOL     OW38389   3.998   4.203   3.478  0.1172 -0.1485 -0.3807
 8919SOL    HW138390   4.000   4.244   3.564  1.1999  0.7134 -0.8105
 8919SOL    HW238391   3.937   4.259   3.431  0.2392  2.9514  3.1365
 8920SOL     OW38392   2.778   2.589   6.524  0.3361 -0.1963 -0.9706
 8920SOL    HW138393   2.842   2.527   6.489  1.6002  0.2027  0.6126
 8920SOL    HW238394   2.811   2.676   6.503 -0.2319  0.0865 -0.6901
 8921SOL     OW38395   0.533   2.329   3.868  0.1765 -0.2961  0.0348
 8921SOL    HW138396   0.490   2.319   3.953 -0.7672  1.8059 -0.2072
 8921SOL    HW238397   0.619   2.296   3.894 -0.1054  1.5414  3.2569
 8922SOL     OW38398   0.667   2.151  14.499 -0.2090  0.5578  0.5305
 8922SOL    HW138399   0.646   2.058  14.495 -0.7260  0.7192 -0.3916
 8922SOL    HW238400   0.663   2.168  14.405 -1.0371 -0.5538  0.3728
 8923SOL     OW38401   4.026   4.448  10.791 -0.5227 -0.1306 -0.4082
 8923SOL    HW138402   4.076   4.411  10.718  2.6612  2.4344  0.4789
 8923SOL    HW238403   4.096   4.498  10.834 -1.3517 -1.5687  2.5952
 8924SOL     OW38404   0.239   1.228   8.181  0.5134  0.5101  0.2527
 8924SOL    HW138405   0.257   1.135   8.194  0.1542  0.5472  1.0628
 8924SOL    HW238406   0.148   1.232   8.213 -0.5387  0.6121 -2.8072
 8925SOL     OW38407   0.307   2.456   9.676  0.2350  0.2992 -0.0324
 8925SOL    HW138408   0.324   2.372   9.719  1.6150  2.0763  2.8997
 8925SOL    HW238409   0.227   2.493   9.713 -0.2706 -0.7509 -0.0824
 8926SOL     OW38410   2.221   1.314   6.461 -0.4445  0.1759  0.7735
 8926SOL    HW138411   2.230   1.278   6.372  1.1672 -1.4831  1.6008
 8926SOL    HW238412   2.162   1.386   6.441 -1.5672 -0.5219  1.5279
 8927SOL     OW38413   2.056   0.244  11.299  0.3021 -0.0055 -0.5819
 8927SOL    HW138414   2.145   0.248  11.264  0.4257  0.0972 -0.2612
 8927SOL    HW238415   2.042   0.150  11.312  1.8928 -0.3951 -1.6443
 8928SOL     OW38416   0.857   4.235  12.064 -0.2337 -0.4540  0.6171
 8928SOL    HW138417   0.780   4.270  12.110 -2.8095 -1.1824 -3.1393
 8928SOL    HW238418   0.852   4.149  12.105 -2.1598 -0.7761 -0.2806
 8929SOL     OW38419   4.529   2.565  17.209 -0.2951 -0.3042  0.7284
 8929SOL    HW138420   4.576   2.519  17.279  1.1043  0.4574  0.2828
 8929SOL    HW238421   4.452   2.508  17.202 -1.1809  0.9144  0.6598
 8930SOL     OW38422   1.213   1.614   5.012 -0.5649 -0.0179 -0.8992
 8930SOL    HW138423   1.240   1.616   5.104  2.2429 -0.4114 -1.7144
 8930SOL    HW238424   1.126   1.574   5.009  0.3721 -2.2321  2.1291
 8931SOL     OW38425   0.161   3.424   5.551  0.4689 -0.2714 -0.0441
 8931SOL    HW138426   0.212   3.449   5.628  0.6428 -0.4365 -0.1083
 8931SOL    HW238427   0.228   3.384   5.497  0.1877 -0.8383  0.0292
 8932SOL     OW38428   1.103   1.656   6.578 -0.8343 -0.2133  0.7053
 8932SOL    HW138429   1.035   1.691   6.520 -0.3536  0.5965  0.6438
 8932SOL    HW238430   1.133   1.737   6.619  1.9916 -0.7545 -0.2804
 8933SOL     OW38431   4.386   4.369   5.372  0.0504 -0.2649 -0.2085
 8933SOL    HW138432   4.446   4.294   5.369  1.3366  0.7522  0.5775
 8933SOL    HW238433   4.398   4.391   5.279 -2.0787 -1.6117 -0.8093
 8934SOL     OW38434   0.108   1.674   0.127 -0.0311 -0.1697  0.1464
 8934SOL    HW138435   0.093   1.584   0.099 -1.6187  0.3086 -0.5087
 8934SOL    HW238436   0.201   1.688   0.106  0.0672 -4.7860 -2.4796
 8935SOL     OW38437   0.906   2.527  17.571 -0.2880  0.0855 -0.0290
 8935SOL    HW138438   0.845   2.531  17.498 -1.1142 -0.3512  0.6395
 8935SOL    HW238439   0.992   2.549  17.534 -0.0707 -0.6567  0.0235
 8936SOL     OW38440   2.982   3.146  14.208  0.3763  0.0800  0.4190
 8936SOL    HW138441   3.031   3.160  14.126 -1.7163  0.7195 -0.7326
 8936SOL    HW238442   3.046   3.101  14.263 -0.6171 -3.2268 -1.1412
 8937SOL     OW38443   3.032   4.541  16.093  0.1885 -0.2599  0.2961
 8937SOL    HW138444   3.041   4.446  16.100 -2.1664 -0.7056 -2.7570
 8937SOL    HW238445   3.053   4.547  16.000  1.9148 -0.5761  0.6675
 8938SOL     OW38446   0.334   3.160   8.212  0.1923 -0.7375  0.2585
 8938SOL    HW138447   0.409   3.220   8.209 -0.5835  0.1562 -1.3482
 8938SOL    HW238448   0.284   3.210   8.147  2.8961  1.6915  0.0211
 8939SOL     OW38449   2.118   4.084   0.966 -0.2727  0.7351 -0.7085
 8939SOL    HW138450   2.132   3.992   0.943  0.4900  1.0048 -1.3085
 8939SOL    HW238451   2.201   4.101   1.012 -0.3418 -0.9159  0.0177
 8940SOL     OW38452   4.607   1.094  16.140 -0.2597 -0.2805  0.0531
 8940SOL    HW138453   4.552   1.069  16.214  0.3540  0.3625  0.7264
 8940SOL    HW238454   4.627   1.186  16.155 -0.3494 -0.3136  0.3717
 8941SOL     OW38455   4.474   0.674   3.561  0.6975 -0.0597 -0.0190
 8941SOL    HW138456   4.402   0.738   3.556  1.3843  1.0363  3.6704
 8941SOL    HW238457   4.552   0.728   3.552  1.8058 -1.5520  0.7307
 8942SOL     OW38458   0.985   3.516   1.662  0.0885 -0.4462 -0.0884
 8942SOL    HW138459   0.953   3.606   1.652 -0.6930 -0.6727  0.3597
 8942SOL    HW238460   0.905   3.465   1.649  0.6211 -0.9854 -1.2341
 8943SOL     OW38461   2.449   2.521  16.064  0.1905 -0.2373  0.6472
 8943SOL    HW138462   2.378   2.547  16.121 -0.3659  2.1395 -1.1242
 8943SOL    HW238463   2.515   2.586  16.087 -0.2207  0.8496 -1.2222
 8944SOL     OW38464   2.069   4.069   2.084  0.3708 -0.4239  0.1104
 8944SOL    HW138465   2.040   4.104   2.000 -0.9202  1.5916  1.4032
 8944SOL    HW238466   2.124   4.142   2.113 -0.2920  0.7218 -1.5477
 8945SOL     OW38467   4.109   2.238   3.022  0.0914  0.7823  0.2316
 8945SOL    HW138468   4.042   2.171   3.038  0.1300  1.3962  3.0029
 8945SOL    HW238469   4.186   2.195   2.986  0.9953  3.6350 -1.2199
 8946SOL     OW38470   3.489   2.305   1.893 -0.2782  0.8732 -0.6867
 8946SOL    HW138471   3.463   2.367   1.824 -2.5809  0.4205 -0.2470
 8946SOL    HW238472   3.405   2.266   1.917  0.3611 -0.0376  0.0332
 8947SOL     OW38473   0.274   2.850  11.255 -0.6084 -0.9245 -0.0977
 8947SOL    HW138474   0.224   2.831  11.334  0.4580  0.7171  0.9681
 8947SOL    HW238475   0.313   2.768  11.224  0.4956 -0.0654 -1.0067
 8948SOL     OW38476   3.205   2.048   3.247  0.6247 -0.0632 -0.4455
 8948SOL    HW138477   3.115   2.018   3.263  0.9102 -1.5473 -1.5069
 8948SOL    HW238478   3.200   2.140   3.270  0.3663 -0.0115 -0.7025
 8949SOL     OW38479   0.747   0.007   8.166 -0.4242 -0.0443 -0.1941
 8949SOL    HW138480   0.797   0.081   8.202 -0.6402 -0.9052  1.8226
 8949SOL    HW238481   0.687   0.047   8.103  0.1643 -0.0055 -0.7405
 8950SOL     OW38482   0.210   0.468   5.766  0.1078 -0.4864 -0.2400
 8950SOL    HW138483   0.175   0.379   5.755  0.4035 -0.6871  0.4456
 8950SOL    HW238484   0.173   0.488   5.852 -0.9655  0.6237 -0.9569
 8951SOL     OW38485   4.120   1.601   3.069  0.4064  0.7128 -0.3847
 8951SOL    HW138486   4.146   1.512   3.092  0.1491  0.9320  0.7410
 8951SOL    HW238487   4.080   1.638   3.148 -0.7536 -0.2714 -0.5066
 8952SOL     OW38488   3.844   2.965  17.115  0.0947  0.1090  0.1681
 8952SOL    HW138489   3.852   2.884  17.166 -0.0786  0.9146  1.4671
 8952SOL    HW238490   3.766   2.944  17.064  0.4585  1.4638 -0.9456
 8953SOL     OW38491   2.685   1.425   2.223 -0.2434 -0.6964  0.0534
 8953SOL    HW138492   2.753   1.476   2.269 -1.8637  2.3595 -0.9362
 8953SOL    HW238493   2.609   1.437   2.280  0.2168 -0.4907  0.6214
 8954SOL     OW38494   0.085   1.982   7.069  0.4476 -0.1108  0.2162
 8954SOL    HW138495   4.732   1.968   7.081  0.4561  0.2678  0.6977
 8954SOL    HW238496   0.091   2.076   7.050 -1.5356 -0.2596 -1.2018
 8955SOL     OW38497   2.972   4.431   9.978  0.3988 -0.5815 -0.4471
 8955SOL    HW138498   2.893   4.377   9.975 -0.2991  0.4174  0.1667
 8955SOL    HW238499   3.001   4.425   9.887  3.2112  2.1416  0.2858
 8956SOL     OW38500   2.090   0.886  11.210 -0.0292 -0.6301 -0.1246
 8956SOL    HW138501   2.184   0.866  11.205  0.4108  1.1058  1.1109
 8956SOL    HW238502   2.088   0.981  11.224 -0.0520 -0.6375 -0.0779
 8957SOL     OW38503   0.093   3.430   4.422 -0.7758 -0.6044  0.4403
 8957SOL    HW138504   0.081   3.336   4.433  1.3813 -0.8979  0.2534
 8957SOL    HW238505   0.178   3.429   4.377 -0.3878  0.0777  1.1591
 8958SOL     OW38506   3.505   1.936  12.171  0.2306 -0.4141  0.5223
 8958SOL    HW138507   3.515   1.956  12.264  0.6488  1.0619  0.1527
 8958SOL    HW238508   3.464   2.019  12.148  0.9525 -0.3372 -0.5232
 8959SOL     OW38509   0.935   3.946   3.222  0.0440  0.4994  0.5371
 8959SOL    HW138510   0.935   4.028   3.172  3.7629 -0.8557 -1.6683
 8959SOL    HW238511   0.843   3.926   3.204 -0.2216  1.7385  0.4898
 8960SOL     OW38512   2.110   3.789  16.176  0.2159  0.1794  0.1089
 8960SOL    HW138513   2.196   3.811  16.210  1.1204 -1.3433 -1.2127
 8960SOL    HW238514   2.116   3.807  16.082 -0.7931 -0.0811 -0.0079
 8961SOL     OW38515   4.648   0.929   3.112  0.2636 -0.0062 -0.8877
 8961SOL    HW138516   4.734   0.888   3.104  0.5943  0.6193 -0.4642
 8961SOL    HW238517   4.600   0.872   3.052 -0.4846  0.5442 -0.8137
 8962SOL     OW38518   0.865   2.968   5.014  0.1976 -0.1644  0.2257
 8962SOL    HW138519   0.955   2.998   5.028 -0.3372  0.3049  2.6888
 8962SOL    HW238520   0.869   2.901   5.083  0.2427 -0.1277  0.2593
 8963SOL     OW38521   3.236   4.665   5.732 -0.2351  0.0249  0.3721
 8963SOL    HW138522   3.155   4.692   5.777 -1.9343 -0.3027 -2.5037
 8963SOL    HW238523   3.208   4.660   5.641  1.3789 -0.8594 -0.0675
 8964SOL     OW38524   1.799   1.647  11.925 -0.0511  0.3655 -0.2114
 8964SOL    HW138525   1.861   1.678  11.860  0.3459  1.8777  0.8971
 8964SOL    HW238526   1.807   1.552  11.915 -0.7909  0.0097  2.6892
 8965SOL     OW38527   3.605   0.692   8.402  0.5462 -0.4361  0.3854
 8965SOL    HW138528   3.607   0.597   8.404 -0.2948 -0.4718 -0.5715
 8965SOL    HW238529   3.513   0.715   8.392  1.0467  2.4108  2.0606
 8966SOL     OW38530   1.951   1.087  15.017  0.5920 -0.0451 -0.1274
 8966SOL    HW138531   1.891   1.155  14.987  0.0370 -0.4109  0.1396
 8966SOL    HW238532   2.019   1.138  15.061 -0.5723  1.7205 -0.3749
 8967SOL     OW38533   0.295   3.805   7.383 -0.1583  0.0527  0.0872
 8967SOL    HW138534   0.207   3.839   7.371  0.0995  0.7901  0.3105
 8967SOL    HW238535   0.344   3.872   7.431  1.1160  1.2050 -2.7769
 8968SOL     OW38536   3.749   3.856   8.346  0.1734  0.1013 -0.0554
 8968SOL    HW138537   3.710   3.943   8.334 -0.7452 -0.1973  0.7340
 8968SOL    HW238538   3.677   3.806   8.385 -0.7087  0.2264 -1.5162
 8969SOL     OW38539   4.085   0.330  12.494  0.7630  0.1682  0.0263
 8969SOL    HW138540   4.144   0.386  12.445 -0.3685  0.3061 -1.1710
 8969SOL    HW238541   4.119   0.241  12.485 -0.8144 -0.3771 -0.4957
 8970SOL     OW38542   1.967   1.412   6.745  0.3635 -0.2586 -0.0114
 8970SOL    HW138543   1.908   1.455   6.807 -1.1939 -2.1356 -0.1974
 8970SOL    HW238544   2.049   1.444   6.781  0.2492  0.3895 -0.3157
 8971SOL     OW38545   0.967   0.012   6.756  0.7400 -0.2175 -0.3514
 8971SOL    HW138546   1.031   4.729   6.822 -0.3306 -0.1865  0.7058
 8971SOL    HW238547   0.937   0.090   6.803  2.3107  1.1732 -1.6579
 8972SOL     OW38548   2.357   0.975   2.617  0.1934 -0.2424  0.3201
 8972SOL    HW138549   2.428   1.003   2.674 -0.6365 -1.5353  1.9980
 8972SOL    HW238550   2.398   0.980   2.530 -1.6553 -0.9882 -0.5964
 8973SOL     OW38551   0.557   0.687  10.301 -0.2035 -0.0614 -0.4356
 8973SOL    HW138552   0.489   0.620  10.298  0.1618 -0.4224 -0.7603
 8973SOL    HW238553   0.637   0.641  10.273  0.3480 -0.2959  1.4976
 8974SOL     OW38554   1.164   3.601   0.594  0.4726  0.0110 -0.6773
 8974SOL    HW138555   1.118   3.620   0.513  1.2201 -1.6834 -1.4882
 8974SOL    HW238556   1.117   3.652   0.660 -0.0942 -0.1417 -0.9666
 8975SOL     OW38557   0.783   1.199   2.068 -0.3141  0.2085 -0.2293
 8975SOL    HW138558   0.814   1.281   2.105  1.1756  0.4619 -2.0338
 8975SOL    HW238559   0.860   1.150   2.097  0.6025  1.2204 -0.9343
 8976SOL     OW38560   3.524   2.660  16.879  0.2200 -0.5319  0.1459
 8976SOL    HW138561   3.494   2.641  16.967 -0.0796  0.6819  0.3046
 8976SOL    HW238562   3.441   2.647  16.832  0.6639 -0.6464 -0.6189
 8977SOL     OW38563   0.329   2.413   3.098  0.4818  0.3677 -0.1700
 8977SOL    HW138564   0.384   2.463   3.038 -0.3852  1.9767  0.3717
 8977SOL    HW238565   0.294   2.344   3.041  0.2010 -0.8054  1.4234
 8978SOL     OW38566   3.330   2.975   1.090  0.0747  0.0047  1.1048
 8978SOL    HW138567   3.410   2.984   1.038 -0.7398  0.0837 -0.1403
 8978SOL    HW238568   3.324   3.060   1.133  1.5230  0.9167 -0.5035
 8979SOL     OW38569   1.446   0.784   6.416  0.6711  0.7258  0.6287
 8979SOL    HW138570   1.473   0.752   6.330 -1.1111  1.5244 -0.2155
 8979SOL    HW238571   1.451   0.701   6.464  0.0254  0.3986  0.1397
 8980SOL     OW38572   4.240   0.374   8.303 -0.8372 -0.6435 -0.2596
 8980SOL    HW138573   4.235   0.469   8.317  1.3815 -0.6863  0.8827
 8980SOL    HW238574   4.200   0.349   8.387 -0.3682  1.2111  0.5345
 8981SOL     OW38575   2.565   1.467   3.627  0.2041  0.4714 -0.1375
 8981SOL    HW138576   2.560   1.563   3.625 -1.1982  0.3971  0.2577
 8981SOL    HW238577   2.554   1.445   3.719 -0.1470 -0.0922 -0.3142
 8982SOL     OW38578   2.919   0.083  17.266 -0.4524 -0.6112  0.1303
 8982SOL    HW138579   2.948   0.167  17.231 -0.5299 -0.1506  1.1802
 8982SOL    HW238580   3.001   0.034  17.274 -0.3509 -0.5721 -0.6411
 8983SOL     OW38581   3.614   0.288  12.882  0.4352 -0.0693  0.2710
 8983SOL    HW138582   3.542   0.346  12.910 -0.6482 -1.6687  0.8208
 8983SOL    HW238583   3.656   0.301  12.967  1.5363 -0.0159 -0.2822
 8984SOL     OW38584   4.483   0.426  17.135  0.2776  0.1273  0.3456
 8984SOL    HW138585   4.432   0.464  17.063  1.2313  1.4644  0.3865
 8984SOL    HW238586   4.417   0.387  17.193  0.7103 -1.4954 -0.2498
 8985SOL     OW38587   0.727   1.449   9.149  0.1386  0.3944  0.3593
 8985SOL    HW138588   0.635   1.453   9.176 -0.0268  0.2626 -0.1833
 8985SOL    HW238589   0.723   1.498   9.066  0.2936  0.8934  0.6481
 8986SOL     OW38590   4.081   2.001   8.365 -0.0495 -0.3494  0.0184
 8986SOL    HW138591   4.121   1.914   8.353 -0.3646 -0.9241  3.3181
 8986SOL    HW238592   4.157   2.059   8.372  1.2027 -2.0247  0.4988
 8987SOL     OW38593   0.698   2.049   5.639  0.0903 -0.0954  0.1193
 8987SOL    HW138594   0.733   1.964   5.612  0.2543  0.5633 -1.7461
 8987SOL    HW238595   0.715   2.035   5.732 -3.2599  3.8330  1.3026
 8988SOL     OW38596   2.288   1.431   6.698 -0.5498 -0.4823 -0.0022
 8988SOL    HW138597   2.279   1.512   6.647  0.0689 -0.4540 -0.0573
 8988SOL    HW238598   2.261   1.384   6.619 -1.7397  1.7075 -0.8884
 8989SOL     OW38599   2.011   1.426   5.690 -0.1798 -0.2394 -0.0257
 8989SOL    HW138600   2.045   1.403   5.603  0.3986  0.2499  0.0711
 8989SOL    HW238601   1.997   1.334   5.712 -0.8165  0.3550  2.0171
 8990SOL     OW38602   0.729   1.804  11.789 -0.3535  0.0918 -0.2175
 8990SOL    HW138603   0.787   1.880  11.778  0.5925 -0.4822  0.7663
 8990SOL    HW238604   0.642   1.843  11.781  0.3517  1.4767 -1.0982
 8991SOL     OW38605   1.358   3.751  17.451  0.7042 -0.0875  0.5351
 8991SOL    HW138606   1.295   3.805  17.499  1.5361  1.3725 -0.0173
 8991SOL    HW238607   1.426   3.818  17.449 -0.7178  1.3231 -0.9275
 8992SOL     OW38608   0.337   2.267   1.430  0.4393  0.0718 -0.0881
 8992SOL    HW138609   0.286   2.223   1.497  1.6856 -2.2551 -0.6815
 8992SOL    HW238610   0.357   2.336   1.494  0.9659  0.1386 -0.3216
 8993SOL     OW38611   0.917   1.761   8.811 -0.5785  0.2541  0.1403
 8993SOL    HW138612   0.995   1.803   8.776 -1.2051  1.1904 -0.1402
 8993SOL    HW238613   0.851   1.806   8.758 -1.9985 -0.4243  1.3519
 8994SOL     OW38614   1.155   2.936  11.090 -0.1148  0.1997  0.4603
 8994SOL    HW138615   1.183   2.854  11.049  0.4201 -0.1812  1.5918
 8994SOL    HW238616   1.117   2.911  11.175 -1.5107  0.7596  0.0015
 8995SOL     OW38617   0.850   3.520   4.506 -0.3137  0.5720 -0.6026
 8995SOL    HW138618   0.759   3.491   4.500 -0.0787 -0.6277  1.5688
 8995SOL    HW238619   0.878   3.502   4.596 -1.0077 -1.7573 -0.8337
 8996SOL     OW38620   2.718   4.620  11.195  0.2619 -0.8766  0.4958
 8996SOL    HW138621   2.770   4.691  11.157  0.4018  0.0415  2.4375
 8996SOL    HW238622   2.771   4.543  11.175 -0.2534 -1.2902  0.7302
 8997SOL     OW38623   3.467   0.577   2.502 -0.6799 -0.5630  0.4799
 8997SOL    HW138624   3.466   0.673   2.504  1.8313 -0.4958 -0.3114
 8997SOL    HW238625   3.386   0.563   2.454 -0.4727 -2.8969  0.7936
 8998SOL     OW38626   3.439   0.336   5.289  0.2526 -0.1064  0.0690
 8998SOL    HW138627   3.482   0.276   5.350  3.1113  0.1890 -1.6532
 8998SOL    HW238628   3.356   0.352   5.334  0.5099  1.6383 -0.0733
 8999SOL     OW38629   0.005   2.593   7.036 -0.7020 -0.1302  0.8054
 8999SOL    HW138630   0.092   2.574   7.070  0.8601  1.4353 -2.2784
 8999SOL    HW238631   4.688   2.524   7.069 -2.6274 -0.0658 -2.4433
 9000SOL     OW38632   0.830   1.153  16.239 -0.1903  0.2220 -0.0619
 9000SOL    HW138633   0.735   1.144  16.252 -0.2060 -1.4499 -1.2789
 9000SOL    HW238634   0.864   1.083  16.295 -0.3826 -1.1250 -1.6104
 9001SOL     OW38635   1.524   3.017   6.243  0.4523 -0.2791 -0.6675
 9001SOL    HW138636   1.551   2.997   6.153  2.0145 -3.4081  0.5008
 9001SOL    HW238637   1.438   2.975   6.236 -0.2666  1.2977 -1.1707
 9002SOL     OW38638   3.947   3.914   3.056  0.5747 -0.3370  0.0075
 9002SOL    HW138639   3.900   3.891   3.136  0.9115 -0.0216  0.3001
 9002SOL    HW238640   3.954   3.827   3.017  2.4199 -0.9101  1.5915
 9003SOL     OW38641   0.049   1.988   9.799  0.6021  0.4760 -0.1843
 9003SOL    HW138642   0.025   1.941   9.879 -1.3263  0.3662 -0.8058
 9003SOL    HW238643   4.707   1.968   9.754  0.9324 -2.1900  0.3535
 9004SOL     OW38644   1.389   0.317  14.199  0.4541  0.5923 -0.2332
 9004SOL    HW138645   1.300   0.306  14.233  1.7729  1.1236  3.4678
 9004SOL    HW238646   1.422   0.318  14.289  0.2953 -0.7747 -0.1592
 9005SOL     OW38647   0.807   1.712   5.214 -0.5970 -0.0056  0.5944
 9005SOL    HW138648   0.770   1.693   5.301  3.0315  1.0567  2.3480
 9005SOL    HW238649   0.724   1.742   5.176 -0.7417 -1.7898 -0.4815
 9006SOL     OW38650   1.217   0.866   7.123 -0.3681 -0.3934  0.1375
 9006SOL    HW138651   1.232   0.777   7.156 -1.0042 -0.8255 -0.7556
 9006SOL    HW238652   1.306   0.898   7.135 -0.1359 -0.5229 -1.2777
 9007SOL     OW38653   4.442   4.157   8.327  0.0011 -0.4731 -0.4399
 9007SOL    HW138654   4.523   4.207   8.321 -0.0496 -0.3298  0.0775
 9007SOL    HW238655   4.414   4.168   8.418  2.2565 -0.6028  0.2730
 9008SOL     OW38656   1.060   4.188   5.292 -0.4056  0.0685  0.4515
 9008SOL    HW138657   1.019   4.153   5.371 -0.8956 -0.8699 -0.2221
 9008SOL    HW238658   1.001   4.147   5.229  0.5444  1.5484 -1.3883
 9009SOL     OW38659   3.072   4.310   9.555  0.4264  0.3288 -0.4148
 9009SOL    HW138660   3.072   4.225   9.597  0.3452 -0.8394 -2.7796
 9009SOL    HW238661   3.013   4.293   9.481  0.0289 -0.7718  0.1544
 9010SOL     OW38662   3.174   0.897   3.362 -1.0587 -0.0100 -0.2629
 9010SOL    HW138663   3.201   0.944   3.283 -0.7541  2.5319  1.3316
 9010SOL    HW238664   3.090   0.858   3.340 -0.5261 -1.3157  0.0024
 9011SOL     OW38665   0.653   1.623  17.741 -0.8370  0.5323 -0.3528
 9011SOL    HW138666   0.576   1.570   0.002 -0.8278  1.3069  1.5105
 9011SOL    HW238667   0.667   1.593  17.651 -1.0853 -0.2009 -0.1496
 9012SOL     OW38668   4.290   4.441   7.981  0.5112  0.2311 -0.4189
 9012SOL    HW138669   4.287   4.409   7.891  1.7200  0.4798 -0.5506
 9012SOL    HW238670   4.292   4.360   8.032  3.7307  0.7079  0.2124
 9013SOL     OW38671   2.783   4.314   8.936 -0.0487 -0.0092  0.5227
 9013SOL    HW138672   2.690   4.300   8.918  0.6760 -3.2118 -0.7796
 9013SOL    HW238673   2.781   4.360   9.019  0.4603  1.6686 -0.3917
 9014SOL     OW38674   1.342   2.878   8.586  0.1110 -0.3639 -0.0986
 9014SOL    HW138675   1.327   2.798   8.637  2.7169  0.7126  2.3896
 9014SOL    HW238676   1.300   2.951   8.631 -1.7216 -0.8604 -1.0093
 9015SOL     OW38677   1.835   2.571   4.975  0.3638 -0.0528 -0.2780
 9015SOL    HW138678   1.909   2.628   4.994  1.4110 -2.0724  1.5744
 9015SOL    HW238679   1.882   2.493   4.947  1.1051 -0.8464  3.1773
 9016SOL     OW38680   0.686   3.443   7.567 -0.4795  0.3035 -0.0424
 9016SOL    HW138681   0.672   3.352   7.541 -1.9745  0.5200  0.0231
 9016SOL    HW238682   0.641   3.490   7.497 -1.8144  1.2769  1.4746
 9017SOL     OW38683   3.905   4.577  15.367 -0.1238 -0.1199  0.0039
 9017SOL    HW138684   3.853   4.631  15.308 -0.0984  0.0916  0.1752
 9017SOL    HW238685   3.862   4.493  15.354 -0.6655 -0.0176  1.1206
 9018SOL     OW38686   0.426   4.423   1.874 -0.2701  0.2907  0.2281
 9018SOL    HW138687   0.521   4.422   1.872 -0.2787  0.7997 -0.4669
 9018SOL    HW238688   0.412   4.331   1.899  2.3932 -0.4979 -1.2413
 9019SOL     OW38689   3.688   3.962  13.674 -0.0081  0.0605  0.6471
 9019SOL    HW138690   3.702   3.993  13.584 -2.6545  1.2965  0.6552
 9019SOL    HW238691   3.729   4.028  13.730 -0.0094  0.4221  0.2276
 9020SOL     OW38692   1.458   2.458   7.847  0.1386  0.1644 -0.2845
 9020SOL    HW138693   1.520   2.527   7.823 -1.7512  1.7566 -0.6520
 9020SOL    HW238694   1.516   2.383   7.832 -0.2235 -0.3294  0.7505
 9021SOL     OW38695   2.179   0.420   9.066  0.2009 -0.4288 -0.5280
 9021SOL    HW138696   2.148   0.381   8.984 -1.5908 -2.1613  0.9627
 9021SOL    HW238697   2.238   0.353   9.101  2.8874  1.5914 -1.2201
 9022SOL     OW38698   0.369   3.631   2.911  0.2311  0.7569  0.2160
 9022SOL    HW138699   0.436   3.581   2.957 -1.0948  0.3537  1.7306
 9022SOL    HW238700   0.339   3.691   2.980 -0.6512 -0.7202  1.1074
 9023SOL     OW38701   1.076   2.472   3.754 -0.1814 -0.6360 -0.3155
 9023SOL    HW138702   1.017   2.428   3.815 -0.8043  0.5217 -0.0878
 9023SOL    HW238703   1.125   2.396   3.721 -2.0913 -2.2559  0.5647
 9024SOL     OW38704   4.609   2.830  12.375  0.2733  0.7484 -0.1591
 9024SOL    HW138705   4.635   2.747  12.415  0.5104  0.3080 -1.2332
 9024SOL    HW238706   4.692   2.877  12.367 -1.4182  3.3820 -2.2358
 9025SOL     OW38707   4.584   0.990   7.502 -0.7905 -0.2504 -0.3211
 9025SOL    HW138708   4.569   0.938   7.581  0.5584  1.2621  0.9406
 9025SOL    HW238709   4.680   0.997   7.497 -0.6625  0.2134  2.8347
 9026SOL     OW38710   4.169   3.761   5.782 -0.0162  0.1700  0.3428
 9026SOL    HW138711   4.250   3.765   5.832  0.2467  2.6892 -0.2535
 9026SOL    HW238712   4.110   3.801   5.845  0.6922 -0.7447  1.5675
 9027SOL     OW38713   4.603   0.563   2.213 -0.2200  0.0051  0.0148
 9027SOL    HW138714   4.571   0.626   2.149  1.7558  0.7782 -0.2256
 9027SOL    HW238715   4.693   0.592   2.231 -0.0882 -0.6641  0.4562
 9028SOL     OW38716   2.821   4.021   6.285 -0.1947 -0.0178  0.1514
 9028SOL    HW138717   2.846   4.113   6.278  1.6152 -0.6908 -2.0683
 9028SOL    HW238718   2.894   3.973   6.323 -0.1542  0.5650  0.8162
 9029SOL     OW38719   2.018   0.051  16.816  0.6303 -0.1301 -0.1080
 9029SOL    HW138720   1.961   0.025  16.889  0.6863  0.2548  0.0733
 9029SOL    HW238721   2.091   0.095  16.859  0.4460  2.7369 -2.7834
 9030SOL     OW38722   1.872   3.718  16.284 -0.3433  0.0162  0.2457
 9030SOL    HW138723   1.890   3.774  16.360  1.5636 -1.5430  0.9408
 9030SOL    HW238724   1.949   3.726  16.227 -1.0798  1.6040 -0.5453
 9031SOL     OW38725   3.637   0.571  16.658 -0.2406  0.9112 -0.3375
 9031SOL    HW138726   3.613   0.517  16.733  1.9440 -0.2247 -0.4421
 9031SOL    HW238727   3.606   0.658  16.684 -2.1613 -0.5622  2.3429
 9032SOL     OW38728   3.085   3.741   7.105  0.0763 -0.0156  0.0172
 9032SOL    HW138729   3.007   3.686   7.098  0.2523 -0.0566 -1.4692
 9032SOL    HW238730   3.103   3.735   7.199 -1.5476  0.0933  0.3358
 9033SOL     OW38731   3.351   3.161  16.927  0.2014 -0.7467  0.4662
 9033SOL    HW138732   3.370   3.255  16.924  2.2381 -1.1344  1.3225
 9033SOL    HW238733   3.263   3.152  16.963  0.7904  0.1928  2.2012
 9034SOL     OW38734   1.736   3.230   6.958 -0.1178 -0.1763 -0.4244
 9034SOL    HW138735   1.700   3.143   6.978  0.2443 -0.6318 -1.7493
 9034SOL    HW238736   1.776   3.256   7.041  1.0204 -0.8127 -0.7642
 9035SOL     OW38737   0.680   0.692   8.009 -0.3405  0.0155  0.8058
 9035SOL    HW138738   0.662   0.656   7.922  0.2568  1.3924  0.1184
 9035SOL    HW238739   0.613   0.650   8.064 -1.0914 -0.9135 -0.8026
 9036SOL     OW38740   1.030   2.950  13.561 -0.1574 -0.1805 -0.2059
 9036SOL    HW138741   0.952   2.988  13.520 -0.9845 -0.5670  0.9945
 9036SOL    HW238742   0.985   2.907  13.634  1.3931 -1.3549  0.0435
 9037SOL     OW38743   2.935   4.628   8.621  0.2450 -0.0575 -0.3028
 9037SOL    HW138744   2.848   4.590   8.616  0.0420  0.8530 -3.4558
 9037SOL    HW238745   2.950   4.628   8.715  0.0778  1.4334 -0.2803
 9038SOL     OW38746   3.846   0.211  16.587  0.1250  0.0144 -0.0398
 9038SOL    HW138747   3.932   0.188  16.623 -0.0314 -2.1629 -1.0671
 9038SOL    HW238748   3.854   0.171  16.500 -2.1043 -1.4548  0.4516
 9039SOL     OW38749   1.939   2.805  15.033  0.5674  0.0840  0.4425
 9039SOL    HW138750   2.019   2.770  15.074  0.8127  1.2020  0.9270
 9039SOL    HW238751   1.904   2.857  15.105 -1.3085 -0.0115 -0.4095
 9040SOL     OW38752   1.996   1.859   2.491 -0.0149  0.3083 -0.1241
 9040SOL    HW138753   1.951   1.910   2.558 -0.2082  1.0161 -0.7910
 9040SOL    HW238754   1.927   1.851   2.425  0.5292 -0.2086 -0.6363
 9041SOL     OW38755   0.579   2.460   2.976 -0.0525  0.6350 -0.1050
 9041SOL    HW138756   0.634   2.528   3.014  1.0900 -0.9049  0.9903
 9041SOL    HW238757   0.606   2.451   2.885  0.0440 -1.2893  0.0979
 9042SOL     OW38758   2.540   0.986  13.806  0.6617  0.1836  0.1829
 9042SOL    HW138759   2.467   1.047  13.816 -1.0375 -2.0166  1.1617
 9042SOL    HW238760   2.506   0.938  13.730  1.7313 -0.1620 -0.0780
 9043SOL     OW38761   3.738   3.216   9.760 -0.4674  0.7154  0.3125
 9043SOL    HW138762   3.672   3.174   9.705 -0.4360  0.1830  0.6847
 9043SOL    HW238763   3.701   3.184   9.842  0.6963 -1.0674  0.1353
 9044SOL     OW38764   1.832   1.327   8.638  0.0365 -0.3831  0.1933
 9044SOL    HW138765   1.755   1.351   8.690 -1.1480  0.6261 -2.0621
 9044SOL    HW238766   1.789   1.260   8.584 -0.7605  0.2103  0.0893
 9045SOL     OW38767   3.366   0.628   6.472 -0.4325 -0.0906  0.0188
 9045SOL    HW138768   3.400   0.702   6.522 -0.6178  1.8866 -2.7456
 9045SOL    HW238769   3.421   0.635   6.393 -0.7436 -0.0367 -0.1930
 9046SOL     OW38770   1.231   0.187   9.066 -0.0170  0.2797  0.6896
 9046SOL    HW138771   1.237   0.165   9.158  2.6672  0.4794  0.5580
 9046SOL    HW238772   1.302   0.251   9.061 -0.0114  0.1051 -1.5736
 9047SOL     OW38773   1.933   1.122   7.187 -0.9130  0.4041 -0.3521
 9047SOL    HW138774   1.879   1.200   7.198  2.4396  2.7141 -0.3151
 9047SOL    HW238775   1.865   1.055   7.188 -0.0128 -0.4768  0.7328
 9048SOL     OW38776   0.184   4.664   9.819  0.6495 -0.0788  0.4634
 9048SOL    HW138777   0.149   0.011   9.803 -0.0122 -0.0300  2.2058
 9048SOL    HW238778   0.135   4.615   9.752 -0.5539  0.9471  0.5723
 9049SOL     OW38779   1.599   3.569   2.764  0.0787 -0.5880 -0.5582
 9049SOL    HW138780   1.607   3.658   2.730  0.0327 -0.1169  0.6611
 9049SOL    HW238781   1.504   3.565   2.775  0.3231 -0.9762  1.3717
 9050SOL     OW38782   2.305   4.336   6.507 -0.1150  0.4804  0.1939
 9050SOL    HW138783   2.383   4.370   6.551  1.0973 -0.6691 -1.0753
 9050SOL    HW238784   2.240   4.402   6.530 -2.3313 -2.3139  2.1049
 9051SOL     OW38785   2.833   4.502  16.981 -0.0621  0.4776 -0.0258
 9051SOL    HW138786   2.853   4.448  17.057 -0.1711  0.5682  0.0671
 9051SOL    HW238787   2.780   4.570  17.023  0.8302  0.8389  0.5243
 9052SOL     OW38788   3.120   2.875   1.928 -0.4499 -0.4237 -0.1067
 9052SOL    HW138789   3.102   2.883   1.834  1.1131 -0.4819 -0.4005
 9052SOL    HW238790   3.041   2.835   1.964  0.0269  0.0291  1.4377
 9053SOL     OW38791   0.626   4.169   4.986 -0.4927 -0.0483 -0.3514
 9053SOL    HW138792   0.568   4.245   4.976  0.0924  0.6791  1.6277
 9053SOL    HW238793   0.580   4.096   4.946  1.6114 -1.5116 -0.0840
 9054SOL     OW38794   0.133   2.785   3.983 -0.4594 -0.6294 -0.1469
 9054SOL    HW138795   0.227   2.804   3.985 -0.5791 -0.2341  1.2762
 9054SOL    HW238796   0.099   2.871   3.958  1.4744 -0.4062 -2.0551
 9055SOL     OW38797   1.989   4.292   5.103  0.3809 -0.0971 -0.3140
 9055SOL    HW138798   2.035   4.327   5.027  0.2347  0.4538 -0.1447
 9055SOL    HW238799   1.953   4.372   5.141  0.6928 -0.9010  1.6555
 9056SOL     OW38800   1.990   1.014   4.148 -0.0386 -0.0760  0.4582
 9056SOL    HW138801   1.985   1.015   4.243  1.7522 -0.7486  0.5575
 9056SOL    HW238802   1.976   0.921   4.134 -1.9823  0.0583  1.5938
 9057SOL     OW38803   1.434   3.535   8.627  0.2817 -0.3832 -0.2006
 9057SOL    HW138804   1.435   3.631   8.624  0.7094 -0.3059  2.8133
 9057SOL    HW238805   1.521   3.505   8.603  0.7209  0.2796  0.5580
 9058SOL     OW38806   3.284   3.728   9.678 -0.0763  0.3786 -0.5182
 9058SOL    HW138807   3.317   3.767   9.759  0.2235 -1.8433  0.4301
 9058SOL    HW238808   3.352   3.667   9.649  1.3350  1.4001  0.6551
 9059SOL     OW38809   1.582   1.048   2.686  0.1316  0.3734 -0.0611
 9059SOL    HW138810   1.544   1.038   2.773  0.3759 -1.3582 -0.1615
 9059SOL    HW238811   1.516   1.020   2.623 -0.1833  0.0394  0.4237
 9060SOL     OW38812   1.613   4.427  17.109  0.5767  0.1447  0.0997
 9060SOL    HW138813   1.631   4.440  17.016 -0.8021 -0.1412 -0.1975
 9060SOL    HW238814   1.563   4.346  17.105 -0.0157  0.4485  1.6164
 9061SOL     OW38815   1.314   1.550  11.918  0.1776  0.3235 -0.0423
 9061SOL    HW138816   1.228   1.570  11.955  0.3712  1.3590 -0.1587
 9061SOL    HW238817   1.327   1.456  11.930 -2.2196  0.1664  1.3605
 9062SOL     OW38818   0.601   0.171   6.519  0.2946 -0.0360  0.4320
 9062SOL    HW138819   0.617   0.195   6.427  1.7682  1.4074  1.0712
 9062SOL    HW238820   0.675   0.214   6.561  1.2792  0.2730 -1.6172
 9063SOL     OW38821   3.988   2.798   4.058 -0.6096  0.5782  0.0730
 9063SOL    HW138822   3.965   2.798   4.151  0.2593 -1.7988  0.2674
 9063SOL    HW238823   4.081   2.823   4.059 -0.6827  0.8506  0.1344
 9064SOL     OW38824   2.706   1.591   1.996  0.0155 -0.7120 -1.0851
 9064SOL    HW138825   2.612   1.581   1.981 -0.2322  0.6500 -0.4153
 9064SOL    HW238826   2.717   1.566   2.088 -1.6086 -0.8693 -0.9396
 9065SOL     OW38827   0.124   2.698   3.658 -0.5067 -0.4652 -0.0852
 9065SOL    HW138828   0.082   2.732   3.579 -0.8090 -0.2397  0.1704
 9065SOL    HW238829   0.098   2.760   3.727  0.3595  0.2640 -0.4186
 9066SOL     OW38830   1.159   1.248   7.650 -0.4385 -0.6195 -0.0540
 9066SOL    HW138831   1.201   1.277   7.731 -1.3255 -0.3179  0.2999
 9066SOL    HW238832   1.184   1.155   7.648  2.0311  0.0851 -3.1358
 9067SOL     OW38833   3.766   4.229  14.448 -0.4663  0.2428 -0.4561
 9067SOL    HW138834   3.699   4.187  14.502 -0.7434 -0.3221 -1.2376
 9067SOL    HW238835   3.807   4.147  14.420 -1.0350  0.5510 -2.2501
 9068SOL     OW38836   2.962   4.132  15.629 -0.0187  0.4686 -0.3377
 9068SOL    HW138837   2.919   4.074  15.566 -1.1055 -0.5421  1.2960
 9068SOL    HW238838   2.983   4.064  15.694  0.9410  0.5040 -0.6158
 9069SOL     OW38839   1.051   3.449  16.021  0.4297  0.5134  0.3117
 9069SOL    HW138840   1.010   3.514  15.965  2.1359  0.9689 -0.4093
 9069SOL    HW238841   1.123   3.486  16.073 -0.0154  0.1726  1.1825
 9070SOL     OW38842   2.574   1.217  11.296 -0.5397 -0.0947  0.2036
 9070SOL    HW138843   2.655   1.209  11.348  0.2000  1.8126 -0.6325
 9070SOL    HW238844   2.609   1.217  11.207  0.4999 -0.1238  0.6024
 9071SOL     OW38845   0.968   2.169   3.107 -0.5904  0.3283 -0.5421
 9071SOL    HW138846   0.947   2.132   3.021  1.2384  0.6376 -1.1070
 9071SOL    HW238847   1.040   2.227   3.082  0.3925 -0.2897  0.8383
 9072SOL     OW38848   3.552   1.628   8.518  0.1111  0.5264 -0.2580
 9072SOL    HW138849   3.489   1.619   8.447 -1.5481  1.2684  1.1107
 9072SOL    HW238850   3.636   1.615   8.475  0.1839  0.1424  0.0035
 9073SOL     OW38851   1.825   1.862   3.797  0.1430  0.7921 -0.1523
 9073SOL    HW138852   1.919   1.868   3.778  0.1623  1.5721  0.2082
 9073SOL    HW238853   1.806   1.948   3.832  0.2891  0.6628  0.2459
 9074SOL     OW38854   2.060   1.477   6.323  0.2719  0.2702 -0.0144
 9074SOL    HW138855   2.078   1.536   6.250 -1.7794  1.3107  0.3403
 9074SOL    HW238856   1.991   1.518   6.375 -0.1077  0.5231 -0.7243
 9075SOL     OW38857   4.734   1.600   4.014  0.5661 -0.0140 -0.4266
 9075SOL    HW138858   0.012   1.599   4.108 -1.6026  2.4968  0.0415
 9075SOL    HW238859   0.009   1.510   3.987 -0.8313 -1.5592  3.9067
 9076SOL     OW38860   1.258   1.459  10.834  0.0270  0.6048  0.3978
 9076SOL    HW138861   1.313   1.487  10.906 -0.4637  1.7111  0.3582
 9076SOL    HW238862   1.294   1.385  10.785  1.0085  0.6107  1.1345
 9077SOL     OW38863   2.601   1.480  15.099 -0.3264  0.4612 -0.1532
 9077SOL    HW138864   2.520   1.529  15.112 -2.0729 -3.3574  3.1776
 9077SOL    HW238865   2.660   1.510  15.168 -0.0725 -1.6651  0.5356
 9078SOL     OW38866   1.908   1.617   1.572 -0.1800  0.4630  0.2775
 9078SOL    HW138867   1.831   1.611   1.515  0.7834  0.7032 -1.0363
 9078SOL    HW238868   1.962   1.671   1.515 -1.8634  1.2259 -0.6029
 9079SOL     OW38869   2.642   4.047  16.269 -0.1284 -0.4178 -0.2783
 9079SOL    HW138870   2.672   4.126  16.223  2.1664 -0.1763  1.5986
 9079SOL    HW238871   2.598   4.081  16.347 -1.7710  0.1410 -1.4563
 9080SOL     OW38872   0.292   2.915   0.814  0.2045 -0.6808  0.7065
 9080SOL    HW138873   0.386   2.910   0.828 -0.0053 -3.2266  1.2628
 9080SOL    HW238874   0.268   2.992   0.865  2.3503  0.0459  0.5955
 9081SOL     OW38875   4.420   4.282   7.259  0.3505 -0.4781 -0.6168
 9081SOL    HW138876   4.380   4.232   7.188 -0.7032 -0.5237  0.0128
 9081SOL    HW238877   4.472   4.210   7.296  0.9429  0.1214 -0.2847
 9082SOL     OW38878   1.612   2.298   8.791  0.0360 -0.3213  0.2291
 9082SOL    HW138879   1.622   2.259   8.878  0.2020  1.2727  0.9233
 9082SOL    HW238880   1.691   2.263   8.750  1.1424 -0.2565  2.2795
 9083SOL     OW38881   4.067   3.118  10.125 -0.0613  0.1253  0.1658
 9083SOL    HW138882   4.029   3.041  10.084  0.5264  0.1713 -0.4493
 9083SOL    HW238883   4.144   3.085  10.172  0.0651 -0.7074 -0.6515
 9084SOL     OW38884   1.177   2.776   2.263 -0.3310  0.0663  0.5236
 9084SOL    HW138885   1.139   2.694   2.233 -2.0520  0.7668  0.7785
 9084SOL    HW238886   1.244   2.743   2.323 -1.0218 -1.5850  0.3994
 9085SOL     OW38887   1.978   0.137   0.994 -0.3810 -0.1259 -0.1255
 9085SOL    HW138888   2.020   0.061   1.034  0.5245 -0.6042 -1.9920
 9085SOL    HW238889   1.892   0.107   0.966 -1.0838  0.6163  1.2243
 9086SOL     OW38890   2.548   2.765   7.570 -0.0887  0.1392 -0.0579
 9086SOL    HW138891   2.518   2.855   7.563 -0.1709  0.0723 -0.5988
 9086SOL    HW238892   2.481   2.719   7.620 -1.4150  1.3442 -0.7279
 9087SOL     OW38893   4.158   1.060   1.946 -0.1327  0.5614 -0.2762
 9087SOL    HW138894   4.147   1.155   1.951 -1.1791  0.5322 -2.3188
 9087SOL    HW238895   4.170   1.047   1.852 -1.9593  0.7534 -0.5315
 9088SOL     OW38896   1.630   4.600   1.790 -0.0512 -0.6481 -0.3134
 9088SOL    HW138897   1.625   4.506   1.774 -1.4541 -0.3177 -1.8389
 9088SOL    HW238898   1.637   4.598   1.885 -1.4992 -0.1304 -0.1993
 9089SOL     OW38899   3.260   1.505   0.833  0.0320  0.2180  0.2829
 9089SOL    HW138900   3.197   1.526   0.902 -0.6478  1.3031 -0.6829
 9089SOL    HW238901   3.312   1.438   0.879 -0.2299 -1.2710 -1.6164
 9090SOL     OW38902   1.638   4.398   5.821 -0.0360 -0.3291  0.0850
 9090SOL    HW138903   1.645   4.488   5.791  0.8037 -0.7957 -1.0945
 9090SOL    HW238904   1.630   4.410   5.916 -2.2972  1.4600 -0.3310
 9091SOL     OW38905   3.487   0.001   2.496 -0.1181  0.1863 -0.3647
 9091SOL    HW138906   3.491   4.646   2.500 -0.6817  0.1357 -1.0028
 9091SOL    HW238907   3.570   0.018   2.450 -0.2213  3.0227  0.5211
 9092SOL     OW38908   3.008   4.739   4.994  0.3616  0.9879  0.3087
 9092SOL    HW138909   2.922   0.038   4.985  0.6971  1.4555 -0.8103
 9092SOL    HW238910   3.019   4.683   4.918  0.0636  0.2881  0.7814
 9093SOL     OW38911   1.479   3.991   1.772  0.3098 -0.2145 -0.2610
 9093SOL    HW138912   1.425   4.038   1.836  2.8722  1.0088  1.0284
 9093SOL    HW238913   1.462   3.897   1.775  2.2774 -0.6243 -2.1329
 9094SOL     OW38914   4.355   3.539   8.962 -0.1536  0.0374  0.2116
 9094SOL    HW138915   4.403   3.553   9.044 -1.6092  0.0242  1.0657
 9094SOL    HW238916   4.409   3.596   8.907 -0.0502  1.9331  2.2733
 9095SOL     OW38917   3.321   1.827   3.389  0.3275 -0.0109  0.3331
 9095SOL    HW138918   3.286   1.905   3.345  2.5928  1.3913  1.0293
 9095SOL    HW238919   3.346   1.862   3.475 -0.6329 -0.6183  0.8567
 9096SOL     OW38920   0.577   4.477  12.617 -0.0648 -0.8039  0.0181
 9096SOL    HW138921   0.531   4.509  12.695 -1.3907 -1.0225 -0.6621
 9096SOL    HW238922   0.507   4.417  12.592  0.1928 -0.9099 -0.4368
 9097SOL     OW38923   0.056   3.759  14.239 -0.1297 -0.0758  0.7531
 9097SOL    HW138924   4.713   3.778  14.197  1.1343  0.2834 -1.6328
 9097SOL    HW238925   0.112   3.725  14.168  0.6121 -1.3610  1.9651
 9098SOL     OW38926   0.324   1.053   8.508 -0.2463  0.1149 -0.4978
 9098SOL    HW138927   0.322   1.148   8.521 -1.5251  0.0369 -0.1282
 9098SOL    HW238928   0.231   1.031   8.500 -0.2906 -0.3125  1.1529
 9099SOL     OW38929   0.861   0.965   5.989  0.4889  0.6852  0.0101
 9099SOL    HW138930   0.869   0.876   6.023 -0.0489 -0.2708 -2.3748
 9099SOL    HW238931   0.873   0.971   5.895  2.8214  0.0828  0.2664
 9100SOL     OW38932   1.091   4.653  13.070  0.3689 -0.0036  0.2247
 9100SOL    HW138933   1.127   0.001  13.068 -0.7502  0.4944  1.4653
 9100SOL    HW238934   1.167   4.612  13.111  1.2936  1.3256 -0.1632
 9101SOL     OW38935   3.094   0.722   1.494 -0.0486 -0.4683 -0.4528
 9101SOL    HW138936   3.187   0.746   1.502 -0.5639  0.0566  3.8356
 9101SOL    HW238937   3.091   0.630   1.517 -0.4687 -0.7537 -1.6217
 9102SOL     OW38938   2.890   0.821   8.350 -0.5617 -0.1191  0.0667
 9102SOL    HW138939   2.923   0.801   8.438 -1.2407 -0.0273  0.3379
 9102SOL    HW238940   2.966   0.812   8.292  0.6239 -0.1835  1.6333
 9103SOL     OW38941   1.192   1.452   8.649 -0.6042  0.5945 -0.3904
 9103SOL    HW138942   1.242   1.433   8.728  0.9124  1.3734 -1.1724
 9103SOL    HW238943   1.256   1.435   8.580 -1.1176  0.1042 -0.7563
 9104SOL     OW38944   2.022   2.241  15.443 -0.4538 -0.0566  0.3813
 9104SOL    HW138945   2.093   2.296  15.409 -1.0296  1.4114  1.5936
 9104SOL    HW238946   2.038   2.263  15.535 -2.3256 -1.6670  1.0982
 9105SOL     OW38947   2.930   3.520   5.506  0.0657 -0.4469  0.3363
 9105SOL    HW138948   3.010   3.488   5.546  1.5878  0.3098 -2.1054
 9105SOL    HW238949   2.889   3.436   5.486  0.3109 -0.6344  0.6392
 9106SOL     OW38950   3.842   3.122   1.835 -0.3794  0.1125 -1.0106
 9106SOL    HW138951   3.782   3.120   1.910 -2.2255 -0.3986 -2.4996
 9106SOL    HW238952   3.931   3.122   1.869 -0.8270 -1.5971  0.1579
 9107SOL     OW38953   0.384   2.508  16.354  0.0313 -0.0821  0.0919
 9107SOL    HW138954   0.370   2.413  16.351  1.8713 -0.3289 -1.3401
 9107SOL    HW238955   0.378   2.526  16.447  1.6342  0.8989  0.0112
 9108SOL     OW38956   2.379   4.137  14.491  0.2329  0.0778 -0.0509
 9108SOL    HW138957   2.357   4.230  14.502  2.1493  0.5109  0.0010
 9108SOL    HW238958   2.459   4.130  14.542 -0.0277 -1.1906  0.1709
 9109SOL     OW38959   4.054   1.427   3.896  0.5116 -0.3374 -0.2595
 9109SOL    HW138960   3.999   1.412   3.973 -0.9205  0.5591 -1.0833
 9109SOL    HW238961   4.014   1.371   3.829 -2.4814 -2.5309  3.3685
 9110SOL     OW38962   2.302   1.348   2.636 -0.0189  0.5431  0.0638
 9110SOL    HW138963   2.239   1.300   2.581 -0.3159  0.9236  0.0705
 9110SOL    HW238964   2.252   1.361   2.717  1.6844  0.0541  1.1890
 9111SOL     OW38965   3.718   0.364   8.532  0.0645  0.0156  0.2719
 9111SOL    HW138966   3.747   0.279   8.500  0.5207  0.2026  0.1934
 9111SOL    HW238967   3.689   0.342   8.621 -0.2614  0.0813  0.1818
 9112SOL     OW38968   2.993   3.291   0.634  0.1526 -0.0696 -0.5057
 9112SOL    HW138969   3.029   3.209   0.670  2.0838  0.5467 -1.0163
 9112SOL    HW238970   2.961   3.264   0.548  0.4304  1.1869 -1.0015
 9113SOL     OW38971   0.043   0.471  14.127 -0.7809 -0.6433 -0.3629
 9113SOL    HW138972   0.060   0.386  14.169  1.3383  0.8183  1.6832
 9113SOL    HW238973   0.134   0.500  14.130 -0.6747 -0.7223 -2.9743
 9114SOL     OW38974   1.261   3.512   8.058 -0.2122 -0.5142  0.6272
 9114SOL    HW138975   1.345   3.556   8.046 -2.1385  2.0196 -3.4627
 9114SOL    HW238976   1.277   3.446   7.991  1.0994 -1.5927  2.0044
 9115SOL     OW38977   2.219   2.834  16.931  0.0114 -0.3622  0.1015
 9115SOL    HW138978   2.269   2.904  16.974  0.5394 -0.1967 -0.7894
 9115SOL    HW238979   2.291   2.786  16.889  2.1887  1.2018  2.0152
 9116SOL     OW38980   0.475   2.646   4.258 -0.3353 -0.4432 -0.2277
 9116SOL    HW138981   0.555   2.637   4.206 -1.5159 -2.3634 -1.7014
 9116SOL    HW238982   0.478   2.730   4.304 -0.1202  0.3564 -1.7023
 9117SOL     OW38983   3.033   3.336   4.043 -0.3138  0.2941  0.1618
 9117SOL    HW138984   3.083   3.369   4.117 -0.8123 -0.2482  0.7476
 9117SOL    HW238985   3.073   3.251   4.027 -0.7703  0.3447 -1.2928
 9118SOL     OW38986   2.610   0.135  16.651 -0.2859 -0.1669 -0.2844
 9118SOL    HW138987   2.697   0.176  16.644  0.5559 -2.2185 -2.0548
 9118SOL    HW238988   2.622   0.087  16.733  1.3135  4.0824  1.9782
 9119SOL     OW38989   4.586   2.741   6.046  0.0410  0.0128 -0.2024
 9119SOL    HW138990   4.597   2.827   6.005 -2.2972 -0.7505 -2.4515
 9119SOL    HW238991   4.515   2.759   6.107 -1.8420 -0.7673 -2.1452
 9120SOL     OW38992   3.814   2.195   0.761  0.7976  0.2862 -0.3541
 9120SOL    HW138993   3.827   2.107   0.798  1.5452  0.5255 -0.0334
 9120SOL    HW238994   3.896   2.208   0.712  0.1067  2.0057 -1.0179
 9121SOL     OW38995   1.291   2.961  12.656  0.0790  0.0563  0.3643
 9121SOL    HW138996   1.259   3.034  12.708 -1.2789  0.1757 -0.6291
 9121SOL    HW238997   1.385   2.961  12.673  0.3941  1.6841 -1.4340
 9122SOL     OW38998   0.298   0.118  13.947  0.0592 -0.2365  0.1393
 9122SOL    HW138999   0.206   0.104  13.966 -0.1017  1.3903  0.6397
 9122SOL    HW239000   0.300   0.214  13.951 -2.3200 -0.1847 -0.3287
 9123SOL     OW39001   4.199   3.419   5.394 -0.0338 -0.0237  0.1148
 9123SOL    HW139002   4.206   3.390   5.484 -2.2953  2.7080  1.1709
 9123SOL    HW239003   4.287   3.398   5.362  0.0680 -0.4091  0.6580
 9124SOL     OW39004   4.734   0.730   2.699  0.3861 -0.4860 -0.5457
 9124SOL    HW139005   4.736   0.655   2.640  0.0419  0.1422 -1.3513
 9124SOL    HW239006   0.041   0.786   2.638  0.6458  1.0164  1.0183
 9125SOL     OW39007   0.668   4.250   2.227 -0.2677  0.1366  0.1245
 9125SOL    HW139008   0.725   4.289   2.293  0.5920  1.2694 -1.2887
 9125SOL    HW239009   0.614   4.324   2.199  1.4946  0.3933 -2.5892
 9126SOL     OW39010   4.582   1.022   0.233 -0.0052  0.2352  0.0564
 9126SOL    HW139011   4.557   0.930   0.236  1.7641 -0.2136  0.7178
 9126SOL    HW239012   4.567   1.038   0.326  1.3718  1.9201  0.0006
 9127SOL     OW39013   1.560   2.292  14.014  0.1541  0.0700  0.3572
 9127SOL    HW139014   1.537   2.199  14.016 -0.8220  0.2706 -1.1200
 9127SOL    HW239015   1.626   2.292  13.945 -0.6552  1.3845 -0.4237
 9128SOL     OW39016   0.967   0.804   2.112  0.4492  0.4887  1.0085
 9128SOL    HW139017   1.043   0.820   2.057 -0.4494  1.3392  0.0147
 9128SOL    HW239018   0.984   0.713   2.139 -1.4093 -0.0858  0.2596
 9129SOL     OW39019   2.085   4.532  16.157 -0.2541  0.0808  0.1589
 9129SOL    HW139020   2.064   4.551  16.066 -0.0056  0.4132  0.1692
 9129SOL    HW239021   2.035   4.457  16.188 -2.4844  1.2457 -0.6639
 9130SOL     OW39022   3.592   2.358   6.082  0.0458 -0.0860  0.2910
 9130SOL    HW139023   3.595   2.403   5.998  0.8593  0.6365  0.7116
 9130SOL    HW239024   3.572   2.431   6.140  2.3430  0.1664  0.7575
 9131SOL     OW39025   4.473   1.244   0.974  0.3760 -0.4931 -0.0270
 9131SOL    HW139026   4.562   1.266   0.999  0.0319 -0.0056  0.7882
 9131SOL    HW239027   4.481   1.161   0.926  2.9147 -0.7477  0.8471
 9132SOL     OW39028   3.139   1.472   8.184 -0.0911 -0.4016  0.2073
 9132SOL    HW139029   3.133   1.453   8.090  0.6129 -0.1906  0.1262
 9132SOL    HW239030   3.047   1.490   8.206 -0.0875 -0.7616  0.5216
 9133SOL     OW39031   0.920   4.152  17.082  0.3420 -0.8614  0.3386
 9133SOL    HW139032   0.926   4.074  17.026 -1.9738  0.1383 -1.2960
 9133SOL    HW239033   0.833   4.181  17.055 -0.0002 -0.1022  2.2904
 9134SOL     OW39034   0.674   0.471   9.854  0.1350 -0.2240  0.0213
 9134SOL    HW139035   0.689   0.423   9.773 -3.3920 -0.5466 -0.4183
 9134SOL    HW239036   0.619   0.541   9.819 -0.2169  0.6625  2.3459
 9135SOL     OW39037   2.895   0.347   6.444  0.1496  0.3917 -0.5432
 9135SOL    HW139038   2.906   0.437   6.413  2.1801  1.0083  2.0214
 9135SOL    HW239039   2.862   0.364   6.532  1.1211  0.3534 -0.1710
 9136SOL     OW39040   0.011   3.439  15.329  0.4322 -0.1969  0.1785
 9136SOL    HW139041   4.662   3.409  15.316  0.7629 -0.8700 -0.5757
 9136SOL    HW239042   0.012   3.522  15.283  0.0863  0.1758  0.8438
 9137SOL     OW39043   1.508   3.249  10.769  0.5074 -0.0804 -0.2039
 9137SOL    HW139044   1.536   3.160  10.746  1.3076  0.2687 -0.5651
 9137SOL    HW239045   1.462   3.217  10.847 -2.2343  2.8067 -0.6878
 9138SOL     OW39046   3.110   1.027   1.587 -0.0714 -0.1223  0.3338
 9138SOL    HW139047   3.022   0.992   1.601  0.4685 -1.6726 -0.2416
 9138SOL    HW239048   3.149   0.957   1.536 -3.4708 -0.2923 -2.0368
 9139SOL     OW39049   3.727   2.849   8.848  0.3553 -0.2149 -0.2734
 9139SOL    HW139050   3.697   2.760   8.829  1.1613 -0.8922  1.6523
 9139SOL    HW239051   3.733   2.851   8.943 -1.3760  2.5385 -0.2004
 9140SOL     OW39052   4.619   2.628   8.974 -0.6101  0.1136  0.2343
 9140SOL    HW139053   4.631   2.646   8.881 -2.6635 -1.9514 -0.4271
 9140SOL    HW239054   4.668   2.699   9.014  1.1579 -1.0842  0.1980
 9141SOL     OW39055   0.067   4.106   6.906 -0.1360 -0.5093 -0.8001
 9141SOL    HW139056   0.079   4.119   6.812 -0.7189 -0.5962 -0.8868
 9141SOL    HW239057   4.734   4.164   6.925 -0.2238 -0.0075 -2.7073
 9142SOL     OW39058   3.808   2.234   8.959  0.4778  0.0398 -0.2493
 9142SOL    HW139059   3.728   2.180   8.956  1.5129 -1.5163  0.0210
 9142SOL    HW239060   3.858   2.218   8.879  1.8318 -0.1551  0.6370
 9143SOL     OW39061   1.732   4.541   7.839  0.1512 -0.4016  0.4125
 9143SOL    HW139062   1.681   4.621   7.827  1.5712  0.6613  1.5026
 9143SOL    HW239063   1.727   4.515   7.747 -0.1962  1.8667 -0.2112
 9144SOL     OW39064   4.186   3.427   7.960  0.2469  0.2713  0.0675
 9144SOL    HW139065   4.199   3.403   8.052 -0.2236 -1.4647 -0.3081
 9144SOL    HW239066   4.113   3.488   7.961 -0.4983 -0.6184  0.3871
 9145SOL     OW39067   3.634   3.023   4.684  0.0114  0.8001  0.2293
 9145SOL    HW139068   3.591   2.940   4.705 -0.1709  0.2300 -2.4091
 9145SOL    HW239069   3.657   3.052   4.773  0.4210 -1.2152  0.7768
 9146SOL     OW39070   4.493   3.805   2.942  0.2714  0.1974 -0.3843
 9146SOL    HW139071   4.501   3.809   3.037  0.9502 -0.8098 -0.3989
 9146SOL    HW239072   4.510   3.713   2.922 -1.6494 -0.2912  0.2417
 9147SOL     OW39073   2.938   1.426   5.969 -0.2568 -0.2943 -0.0762
 9147SOL    HW139074   2.924   1.491   5.899  0.4522  2.5708  2.4443
 9147SOL    HW239075   2.886   1.353   5.938  1.5864 -0.9949 -1.5631
 9148SOL     OW39076   4.414   0.971   4.961 -0.3242  0.0993  0.2022
 9148SOL    HW139077   4.337   0.943   5.009 -0.3663 -0.1923 -0.0359
 9148SOL    HW239078   4.473   0.990   5.034  0.2545 -0.3258 -0.1446
 9149SOL     OW39079   3.944   2.192  16.927  0.0865 -0.0675  0.6783
 9149SOL    HW139080   3.856   2.156  16.915  0.1185 -0.0218  0.3229
 9149SOL    HW239081   3.914   2.278  16.958 -0.9306  0.6468 -2.2565
 9150SOL     OW39082   1.127   0.950   4.341 -0.2436 -0.7200 -0.2793
 9150SOL    HW139083   1.096   0.861   4.361 -0.6606 -0.5637 -0.2247
 9150SOL    HW239084   1.048   0.991   4.306 -0.4533 -1.0289 -0.1734
 9151SOL     OW39085   1.935   4.214   8.022  0.0061  0.6609 -0.9683
 9151SOL    HW139086   2.024   4.184   8.042 -0.6526 -1.1308 -0.7298
 9151SOL    HW239087   1.888   4.134   8.045  1.5214  0.6957  2.2470
 9152SOL     OW39088   3.124   0.200   6.447 -0.7492  0.6538  0.2414
 9152SOL    HW139089   3.141   0.178   6.539 -2.0910  1.0918  0.5954
 9152SOL    HW239090   3.034   0.233   6.444 -0.5437  1.0418 -1.7821
 9153SOL     OW39091   3.795   4.470   2.566 -0.2190  0.0409 -0.1689
 9153SOL    HW139092   3.758   4.410   2.631 -0.7936  1.4990  0.8366
 9153SOL    HW239093   3.856   4.412   2.520  0.4200 -0.0908  0.8385
 9154SOL     OW39094   1.613   3.149   3.381 -0.0762 -0.2068  0.4605
 9154SOL    HW139095   1.630   3.060   3.350 -3.7863 -1.3856  1.7611
 9154SOL    HW239096   1.704   3.176   3.393  0.2246 -1.7665  1.7329
 9155SOL     OW39097   0.624   2.268   6.870 -0.2419 -0.2687  0.6215
 9155SOL    HW139098   0.620   2.363   6.856  0.6717  0.0010  2.1177
 9155SOL    HW239099   0.711   2.254   6.909  0.2055 -0.9530 -0.6017
 9156SOL     OW39100   3.439   1.385   9.116 -0.2295 -0.1094 -0.0507
 9156SOL    HW139101   3.421   1.474   9.086 -1.5963 -0.2766  0.2834
 9156SOL    HW239102   3.446   1.384   9.211 -2.2847 -0.6509  0.0812
 9157SOL     OW39103   0.033   3.904   5.646 -0.1318 -0.2639  0.1503
 9157SOL    HW139104   4.681   3.924   5.649  0.0728  0.6502  0.4427
 9157SOL    HW239105   0.057   3.980   5.592 -1.3099  0.3502  0.4962
 9158SOL     OW39106   1.465   2.632   0.693  0.1535  0.1381  0.1725
 9158SOL    HW139107   1.423   2.702   0.742 -1.8775  0.0919 -1.4729
 9158SOL    HW239108   1.542   2.633   0.749  1.1077  0.9801 -1.1568
 9159SOL     OW39109   3.882   3.250   7.344  0.1175  0.1829 -0.0889
 9159SOL    HW139110   3.931   3.182   7.391  0.0429 -0.0955 -0.4099
 9159SOL    HW239111   3.913   3.226   7.256 -0.2277  0.4406 -0.2831
 9160SOL     OW39112   2.652   2.978  16.846 -0.2735  0.4584  0.6756
 9160SOL    HW139113   2.674   3.040  16.916  1.3928 -2.5169  2.7754
 9160SOL    HW239114   2.656   2.891  16.885 -2.0045  0.4783  0.9071
 9161SOL     OW39115   1.172   0.810  13.502  0.9598  0.0539 -0.1653
 9161SOL    HW139116   1.255   0.799  13.548  0.9384 -0.7771 -0.3275
 9161SOL    HW239117   1.195   0.879  13.439  0.8597 -0.3743 -0.6665
 9162SOL     OW39118   4.225   3.557   7.538 -0.1956 -0.4158 -0.4875
 9162SOL    HW139119   4.255   3.518   7.620  1.4888 -0.4872 -1.1378
 9162SOL    HW239120   4.272   3.508   7.470 -0.7385 -0.6658 -0.6814
 9163SOL     OW39121   0.837   0.392   3.055  0.0248 -0.5217 -0.1254
 9163SOL    HW139122   0.848   0.322   2.992  0.1804 -0.2500 -0.3971
 9163SOL    HW239123   0.910   0.439   3.016  0.3678 -2.0403 -1.2985
 9164SOL     OW39124   3.314   3.554   7.953  0.0090  0.0166 -0.1780
 9164SOL    HW139125   3.369   3.617   7.906 -1.1935  0.6292 -0.7578
 9164SOL    HW239126   3.230   3.568   7.910 -0.0558  0.8512  0.2161
 9165SOL     OW39127   0.219   2.842   4.262 -0.3149  0.0962 -0.0478
 9165SOL    HW139128   0.256   2.787   4.193 -0.1748  2.0358 -1.5196
 9165SOL    HW239129   0.287   2.910   4.261  1.0370 -1.2405  0.1246
 9166SOL     OW39130   4.535   4.594   3.677  0.0375  0.0856  0.5245
 9166SOL    HW139131   4.478   4.544   3.619  2.7056 -1.5923 -0.6980
 9166SOL    HW239132   4.556   4.537   3.751  0.9365 -3.0910 -2.1371
 9167SOL     OW39133   3.730   0.738   6.599 -0.4491 -0.2100 -0.2145
 9167SOL    HW139134   3.818   0.741   6.560  0.2356 -0.4873  1.3226
 9167SOL    HW239135   3.752   0.696   6.682  1.7365  1.8726  0.2693
 9168SOL     OW39136   2.979   3.121  11.283 -0.1846 -0.2896  0.4301
 9168SOL    HW139137   3.049   3.077  11.236  1.3360  2.9908 -0.3984
 9168SOL    HW239138   2.933   3.170  11.215 -1.3521 -2.4360 -0.3201
 9169SOL     OW39139   1.805   1.309   4.854  0.1175  0.1196 -0.1670
 9169SOL    HW139140   1.792   1.352   4.770  0.1315 -1.7861 -1.1528
 9169SOL    HW239141   1.899   1.319   4.867 -0.2649  3.3380  0.0068
 9170SOL     OW39142   1.474   0.709   5.689  0.0188  0.1478 -0.7792
 9170SOL    HW139143   1.505   0.751   5.609  0.0031  0.6904 -0.5014
 9170SOL    HW239144   1.426   0.782   5.728 -1.8435  0.1705 -3.1659
 9171SOL     OW39145   3.316   1.910   2.313 -0.6051  0.4802  0.1090
 9171SOL    HW139146   3.308   1.819   2.287  1.4157  0.5130 -0.5859
 9171SOL    HW239147   3.405   1.913   2.347 -1.2884 -0.0674  1.9326
 9172SOL     OW39148   3.852   3.915   9.270  0.3359  0.1121  0.1164
 9172SOL    HW139149   3.779   3.924   9.209 -0.0984 -0.4235  0.5487
 9172SOL    HW239150   3.838   3.993   9.324 -1.2524  0.2015 -0.4473
 9173SOL     OW39151   2.035   3.026  12.014  0.2548  0.2000  0.7261
 9173SOL    HW139152   1.976   2.980  12.073  0.5720 -0.7896  0.2724
 9173SOL    HW239153   2.056   2.952  11.957 -1.6937  1.4559 -1.6187
 9174SOL     OW39154   1.763   2.872   8.236 -0.1806 -0.0237 -0.0574
 9174SOL    HW139155   1.680   2.826   8.231  0.1832 -0.6464 -0.3414
 9174SOL    HW239156   1.819   2.797   8.250  0.7301  0.3883 -1.4382
 9175SOL     OW39157   1.426   0.515   5.037  0.2301 -0.9443  0.2117
 9175SOL    HW139158   1.501   0.484   4.987 -0.9165  0.4276 -2.3698
 9175SOL    HW239159   1.420   0.439   5.094 -0.4311 -1.7888 -0.9903
 9176SOL     OW39160   2.913   3.157   8.937 -0.0892  0.0411 -0.1932
 9176SOL    HW139161   2.988   3.215   8.926 -1.3527  1.1890 -2.9069
 9176SOL    HW239162   2.872   3.188   8.856  0.8691  0.6999 -0.4188
 9177SOL     OW39163   2.631   2.262   3.789  0.3022 -0.0480  0.1921
 9177SOL    HW139164   2.648   2.349   3.752 -0.5082 -1.7216 -4.2092
 9177SOL    HW239165   2.547   2.265   3.833 -0.0742  3.7588 -0.7606
 9178SOL     OW39166   2.755   3.684   1.925 -0.5993  0.4834  0.0133
 9178SOL    HW139167   2.739   3.766   1.879 -2.1073  1.2522  1.9188
 9178SOL    HW239168   2.668   3.685   1.964 -0.5283  2.6061  0.1257
 9179SOL     OW39169   1.621   3.851   8.397 -0.3556  0.2093  0.0764
 9179SOL    HW139170   1.677   3.908   8.450 -2.0106 -0.4969  2.5854
 9179SOL    HW239171   1.623   3.768   8.444  1.7634  1.2339  1.8040
 9180SOL     OW39172   0.805   2.550   2.134 -0.3651 -0.3471 -0.0137
 9180SOL    HW139173   0.787   2.550   2.040 -0.0460 -0.1892 -0.0760
 9180SOL    HW239174   0.769   2.632   2.166  2.6832  1.4837 -1.2916
 9181SOL     OW39175   1.496   2.826  11.959  0.4455 -0.6323 -0.1575
 9181SOL    HW139176   1.521   2.734  11.971  1.6429 -0.0314  1.8613
 9181SOL    HW239177   1.479   2.822  11.865  0.2591  0.7058 -0.1853
 9182SOL     OW39178   4.101   2.080   7.340  0.4162  0.6297  0.1696
 9182SOL    HW139179   4.084   2.031   7.260  0.8140 -2.1894  1.8298
 9182SOL    HW239180   4.184   2.047   7.373  0.0335  1.5965  2.0864
 9183SOL     OW39181   4.568   3.920   7.183 -0.3980 -0.4705 -0.5326
 9183SOL    HW139182   4.487   3.908   7.134  0.6187 -2.4060 -1.7205
 9183SOL    HW239183   4.622   3.882   7.114  3.8440  2.1527  1.3721
 9184SOL     OW39184   1.260   2.691   3.441  0.1436 -0.1601  0.0094
 9184SOL    HW139185   1.303   2.607   3.427 -0.3085 -0.6053  1.2340
 9184SOL    HW239186   1.168   2.663   3.441  0.1662 -0.2296 -0.1320
 9185SOL     OW39187   1.223   4.569   6.833  0.8234 -0.0359 -0.0637
 9185SOL    HW139188   1.181   4.506   6.774  1.5867 -0.1457 -0.4813
 9185SOL    HW239189   1.167   4.553   6.909  0.4865  0.2153 -0.2614
 9186SOL     OW39190   3.901   4.587  16.270 -0.0372  0.1501 -0.3221
 9186SOL    HW139191   3.911   4.492  16.262  1.6922  0.2093  1.1580
 9186SOL    HW239192   3.820   4.598  16.321  1.3278  3.6762  1.0965
 9187SOL     OW39193   3.035   4.408   7.172 -1.1022 -0.0790  0.0876
 9187SOL    HW139194   3.018   4.341   7.237 -1.3352 -1.7835 -1.7344
 9187SOL    HW239195   2.949   4.411   7.130 -0.1077  0.6753 -1.8852
 9188SOL     OW39196   0.482   2.023   6.159  0.4946 -0.0882 -0.1228
 9188SOL    HW139197   0.541   2.098   6.167  0.3338  0.1214 -0.8769
 9188SOL    HW239198   0.448   2.033   6.070  0.0685  0.1478  0.0636
 9189SOL     OW39199   2.365   1.430   0.638 -0.1114  0.1219 -0.1267
 9189SOL    HW139200   2.418   1.510   0.635  0.2090 -0.0925 -0.2954
 9189SOL    HW239201   2.291   1.463   0.687 -0.1853  2.9928 -2.1956
 9190SOL     OW39202   2.056   2.685  13.878 -0.5532  0.1977 -0.2531
 9190SOL    HW139203   1.998   2.748  13.835 -0.2930  1.2726  0.9650
 9190SOL    HW239204   2.082   2.740  13.952 -0.2584 -1.4767  0.8882
 9191SOL     OW39205   3.479   2.974   8.000  0.6819 -0.1075 -0.2642
 9191SOL    HW139206   3.479   3.009   7.911  0.0103 -0.3255 -0.3450
 9191SOL    HW239207   3.567   2.936   7.999  0.2336 -1.0880 -1.7283
 9192SOL     OW39208   1.007   3.734   4.738 -0.5898  0.4028 -0.9521
 9192SOL    HW139209   1.032   3.681   4.814 -1.6184  1.1561 -0.0830
 9192SOL    HW239210   1.036   3.822   4.762 -0.5289  0.4203 -1.0901
 9193SOL     OW39211   3.373   2.050   6.057  0.1322  0.2447 -0.2954
 9193SOL    HW139212   3.454   2.075   6.100 -0.7878  0.4901  1.2904
 9193SOL    HW239213   3.390   1.973   6.002  3.0943 -0.3130  1.3896
 9194SOL     OW39214   2.694   0.370  17.583  0.4010 -0.1550  0.2216
 9194SOL    HW139215   2.742   0.287  17.580 -2.5423 -1.7636 -1.4938
 9194SOL    HW239216   2.704   0.397  17.491 -0.4840 -1.2568 -0.1898
 9195SOL     OW39217   2.356   4.461   8.576  0.6396  0.2612 -0.2014
 9195SOL    HW139218   2.446   4.434   8.558  1.4252  1.3645  1.9989
 9195SOL    HW239219   2.348   4.426   8.665 -1.1173 -1.3629 -1.0046
 9196SOL     OW39220   3.025   3.510   5.896 -0.0568  0.3526  0.3322
 9196SOL    HW139221   3.075   3.500   5.815  0.4254  0.3492  0.6305
 9196SOL    HW239222   2.967   3.434   5.889 -3.6300  3.2221 -1.4124
 9197SOL     OW39223   0.813   2.277   5.762 -0.2611  0.4663  0.3902
 9197SOL    HW139224   0.864   2.271   5.843 -1.5617  2.7044  1.3897
 9197SOL    HW239225   0.738   2.220   5.781  0.3706 -0.4391  0.1413
 9198SOL     OW39226   4.575   2.577   6.485  0.2366  0.2088 -0.1577
 9198SOL    HW139227   4.615   2.534   6.409 -1.6031  1.5119 -1.8634
 9198SOL    HW239228   4.612   2.665   6.483  1.1165 -0.1572  0.3815
 9199SOL     OW39229   3.540   1.727   7.256  0.5679  0.4989  0.6509
 9199SOL    HW139230   3.588   1.676   7.191 -0.9142  1.1058 -0.8964
 9199SOL    HW239231   3.455   1.743   7.216  1.7671 -0.3272 -2.2456
 9200SOL     OW39232   3.219   0.014   8.768  0.0747  0.0387 -0.5067
 9200SOL    HW139233   3.207   4.661   8.783 -0.2605  0.3813  1.3946
 9200SOL    HW239234   3.150   0.022   8.701  0.4950  2.4457 -0.6501
 9201SOL     OW39235   0.764   3.593   8.676  0.2657  0.7034  0.4020
 9201SOL    HW139236   0.732   3.632   8.595  0.1942 -0.3192 -0.0572
 9201SOL    HW239237   0.789   3.672   8.723  1.7921  0.5260 -0.1154
 9202SOL     OW39238   0.108   0.024   9.260 -0.2510 -0.6025 -0.5397
 9202SOL    HW139239   0.069   0.026   9.348  1.2694 -1.2863  0.1520
 9202SOL    HW239240   0.200   0.037   9.281 -1.2346  2.2058  2.0557
 9203SOL     OW39241   0.711   3.698   8.438 -0.1328 -0.1818  0.0465
 9203SOL    HW139242   0.738   3.698   8.347  0.7071 -1.6587  0.3005
 9203SOL    HW239243   0.749   3.784   8.455 -1.5595  0.7469 -1.3859
 9204SOL     OW39244   1.921   0.608   8.779  0.3928  0.0764 -0.0029
 9204SOL    HW139245   1.908   0.624   8.685  0.9662 -1.4525 -0.3480
 9204SOL    HW239246   1.876   0.682   8.818 -1.6740 -0.1822 -1.8879
 9205SOL     OW39247   1.067   1.320  12.505 -0.0726  0.0152  0.0802
 9205SOL    HW139248   1.155   1.356  12.501 -0.8453  2.0722  1.5737
 9205SOL    HW239249   1.097   1.231  12.523 -1.2072 -0.2577  0.6192
 9206SOL     OW39250   0.763   2.900   3.662 -0.6473 -0.5296 -0.6287
 9206SOL    HW139251   0.820   2.842   3.713 -0.8732  1.2541  1.6636
 9206SOL    HW239252   0.831   2.958   3.628 -0.6956  1.3145  2.3923
 9207SOL     OW39253   0.430   1.516   1.137  0.3900 -0.3325  0.0452
 9207SOL    HW139254   0.448   1.517   1.231  1.0520  0.5853 -0.0907
 9207SOL    HW239255   0.498   1.577   1.109 -0.4741  0.5088 -0.2201
 9208SOL     OW39256   3.200   0.894   8.464 -0.1509  0.6727  0.1688
 9208SOL    HW139257   3.116   0.875   8.504  1.1270  0.6902  2.8420
 9208SOL    HW239258   3.211   0.987   8.447  2.7504  0.3101 -0.0569
 9209SOL     OW39259   0.442   2.337   6.453 -0.0025  0.0147  0.9357
 9209SOL    HW139260   0.492   2.397   6.508 -0.6940  1.6283 -0.1885
 9209SOL    HW239261   0.382   2.288   6.510  0.4469 -3.6544 -1.7369
 9210SOL     OW39262   1.948   4.730   0.497 -0.2571 -0.5528  0.3227
 9210SOL    HW139263   2.004   4.739   0.574 -0.0996  0.9112  0.0375
 9210SOL    HW239264   1.987   0.040   0.425  0.2396 -1.5067 -0.0810
 9211SOL     OW39265   3.125   0.747   9.163  0.3297  0.1729  0.1472
 9211SOL    HW139266   3.073   0.679   9.120  1.7009 -1.0911  0.4871
 9211SOL    HW239267   3.068   0.820   9.140  2.4181  1.4014 -1.0601
 9212SOL     OW39268   1.509   1.525  10.132 -0.1428 -0.5984 -0.1682
 9212SOL    HW139269   1.580   1.542  10.070  0.1323  0.3762  0.4179
 9212SOL    HW239270   1.482   1.607  10.172  0.6643  0.6547 -2.2117
 9213SOL     OW39271   1.110   3.745   7.405 -0.4290 -0.6930  0.1794
 9213SOL    HW139272   1.049   3.815   7.428 -0.4392 -0.0436 -1.8888
 9213SOL    HW239273   1.053   3.669   7.416  1.2823 -2.5961 -4.2768
 9214SOL     OW39274   3.730   0.502   2.450  0.1406 -0.2868 -0.2637
 9214SOL    HW139275   3.641   0.525   2.477 -0.1462 -0.7274 -0.8361
 9214SOL    HW239276   3.761   0.430   2.505 -0.4927  0.8709  1.6108
 9215SOL     OW39277   1.288   3.462   7.021  0.2033 -0.4834  0.7343
 9215SOL    HW139278   1.277   3.553   7.049  1.8015 -0.6731  2.0344
 9215SOL    HW239279   1.354   3.423   7.079 -0.3496  0.2649  1.8709
 9216SOL     OW39280   3.505   0.224   4.244 -0.2420  0.5714 -0.4232
 9216SOL    HW139281   3.582   0.207   4.298  0.2119  1.1169 -0.8923
 9216SOL    HW239282   3.538   0.217   4.154  0.9254 -0.0192  0.0452
 9217SOL     OW39283   0.384   3.898   3.011 -0.5442 -0.9789  0.2164
 9217SOL    HW139284   0.340   3.891   3.096  0.2409  1.1663  0.7943
 9217SOL    HW239285   0.476   3.904   3.039 -1.1856  3.0853  1.3581
 9218SOL     OW39286   3.480   3.460   8.488  0.1592  0.1009  0.3490
 9218SOL    HW139287   3.402   3.425   8.445  2.2156 -1.5436 -1.9950
 9218SOL    HW239288   3.432   3.482   8.568  1.0130  1.5212  0.4572
 9219SOL     OW39289   3.769   1.429   8.317 -0.5798  0.4348 -0.3055
 9219SOL    HW139290   3.787   1.337   8.338 -0.3454  0.4125 -0.6009
 9219SOL    HW239291   3.703   1.433   8.248  0.8840 -2.0455 -1.8377
 9220SOL     OW39292   1.875   3.089  13.098  1.0792  0.0404  0.1113
 9220SOL    HW139293   1.943   3.085  13.030 -0.7942  1.4571 -1.8577
 9220SOL    HW239294   1.839   3.000  13.093 -1.6541  1.1282  0.4188
 9221SOL     OW39295   4.171   2.425   1.982  0.0258 -0.5125 -0.5216
 9221SOL    HW139296   4.084   2.444   1.948 -0.3206  1.9607  1.7097
 9221SOL    HW239297   4.149   2.348   2.035 -1.7407  1.1449  1.1865
 9222SOL     OW39298   3.090   1.725   3.009  0.4558 -0.2872 -0.5078
 9222SOL    HW139299   3.068   1.741   2.918  1.1910  2.0554 -0.2663
 9222SOL    HW239300   3.180   1.757   3.013  0.6751 -0.9516 -0.0688
 9223SOL     OW39301   1.979   3.571   2.263  0.2402 -0.2130 -0.0598
 9223SOL    HW139302   1.975   3.582   2.358 -0.2534  0.0380 -0.1068
 9223SOL    HW239303   1.969   3.666   2.249 -0.2792 -0.3033 -0.3069
 9224SOL     OW39304   1.841   0.558  11.677  0.3913 -0.1110 -0.9290
 9224SOL    HW139305   1.856   0.509  11.596 -0.5409  0.9795 -1.7583
 9224SOL    HW239306   1.784   0.497  11.724 -1.4931  0.8789 -1.9083
 9225SOL     OW39307   0.165   2.034   0.904  0.3332 -0.1616  0.0426
 9225SOL    HW139308   0.185   2.031   0.997 -0.2243 -2.2905  0.0895
 9225SOL    HW239309   0.069   2.042   0.908  0.4154  1.5782 -1.3195
 9226SOL     OW39310   1.303   1.555   9.327 -0.0697 -0.1870 -0.2378
 9226SOL    HW139311   1.342   1.584   9.409 -2.0892  0.8872  0.3446
 9226SOL    HW239312   1.217   1.529   9.360  0.6587 -0.3837  1.4620
 9227SOL     OW39313   3.440   1.477  14.287 -0.4751 -0.1496 -0.0068
 9227SOL    HW139314   3.457   1.509  14.198 -0.2317  0.4688  0.2657
 9227SOL    HW239315   3.523   1.487  14.332  0.9408 -2.6889 -2.0288
 9228SOL     OW39316   3.390   2.833   7.240 -0.3667  0.5913  0.0766
 9228SOL    HW139317   3.345   2.888   7.176  0.0703 -1.4351 -1.9803
 9228SOL    HW239318   3.456   2.894   7.273  0.7419  0.6497 -2.2792
 9229SOL     OW39319   0.187   1.379   7.168 -0.3425  0.9278 -0.7930
 9229SOL    HW139320   0.102   1.410   7.137 -1.7932  0.1270  2.3537
 9229SOL    HW239321   0.235   1.423   7.098  1.0485  0.4682 -0.1339
 9230SOL     OW39322   4.685   3.615  15.108 -0.2427  0.0238 -0.7724
 9230SOL    HW139323   4.711   3.706  15.105  1.8602 -0.5083  1.3538
 9230SOL    HW239324   0.011   3.575  15.052  1.5605  1.1703  0.5632
 9231SOL     OW39325   2.427   1.662  10.057  0.1086 -0.4369  0.1801
 9231SOL    HW139326   2.462   1.590  10.004  2.0119 -1.1596  2.3786
 9231SOL    HW239327   2.462   1.631  10.141  0.6128  4.1150  1.6581
 9232SOL     OW39328   1.929   3.503   4.425  0.0126 -0.3743 -0.1723
 9232SOL    HW139329   1.849   3.498   4.372  0.0416  0.3293 -0.2857
 9232SOL    HW239330   1.972   3.570   4.372 -1.9092  1.9943  1.2362
 9233SOL     OW39331   2.476   1.073  15.694  0.3525 -0.3836 -0.1340
 9233SOL    HW139332   2.382   1.077  15.673  0.4128 -4.1242 -1.0948
 9233SOL    HW239333   2.524   1.091  15.613 -1.4765  0.1890 -1.0910
 9234SOL     OW39334   2.359   1.424   5.692  0.2645 -0.3723  0.4542
 9234SOL    HW139335   2.329   1.473   5.615  0.4337 -1.5404 -0.3541
 9234SOL    HW239336   2.422   1.363   5.654  2.9393  2.5300  0.2196
 9235SOL     OW39337   3.489   2.425   3.458  0.2030  0.6940 -0.3742
 9235SOL    HW139338   3.409   2.447   3.506  0.4111  1.8848 -0.5712
 9235SOL    HW239339   3.545   2.413   3.535 -0.6457 -3.5571 -0.4490
 9236SOL     OW39340   3.114   4.416  12.239 -0.0439 -0.5395 -0.1324
 9236SOL    HW139341   3.069   4.462  12.168 -0.1341 -1.2747 -0.5538
 9236SOL    HW239342   3.062   4.336  12.251  1.5256 -1.3604  1.0886
 9237SOL     OW39343   2.182   0.265  13.182  0.5644  0.3223  0.1300
 9237SOL    HW139344   2.120   0.197  13.156  1.8558 -1.4502  1.6673
 9237SOL    HW239345   2.254   0.214  13.220  0.7855  0.4062 -0.1807
 9238SOL     OW39346   4.074   4.104   6.919  0.0977 -0.7222 -0.1367
 9238SOL    HW139347   4.058   4.098   6.825  0.6134 -2.3453 -0.1365
 9238SOL    HW239348   3.996   4.151   6.948 -0.2907 -0.3992 -1.7295
 9239SOL     OW39349   1.415   4.154   3.750 -0.5449 -0.8753 -0.0496
 9239SOL    HW139350   1.400   4.214   3.677  3.5245 -0.4236 -0.5344
 9239SOL    HW239351   1.505   4.178   3.773 -0.0295 -2.1341 -0.7126
 9240SOL     OW39352   3.172   4.011  14.236  1.2123 -0.6570  0.4974
 9240SOL    HW139353   3.166   4.105  14.218 -2.5278 -1.0097  0.0480
 9240SOL    HW239354   3.224   3.986  14.160  0.3756 -0.6239 -0.0749
 9241SOL     OW39355   3.939   4.564   1.538 -0.1795 -0.5105 -0.8598
 9241SOL    HW139356   4.024   4.531   1.507  0.7212 -0.8234  1.9112
 9241SOL    HW239357   3.965   4.646   1.580  1.7434 -0.1347 -2.7579
 9242SOL     OW39358   0.229   2.902   8.662 -0.4703 -0.3355 -0.1365
 9242SOL    HW139359   0.298   2.835   8.661  0.7402  0.8879  2.2465
 9242SOL    HW239360   0.219   2.911   8.567  0.6988 -0.3617 -0.2661
 9243SOL     OW39361   1.663   3.200  14.337  0.3936  0.2721  0.0741
 9243SOL    HW139362   1.617   3.276  14.372 -0.8767 -1.0635  1.3202
 9243SOL    HW239363   1.616   3.130  14.383 -0.1267  0.6456  0.1123
 9244SOL     OW39364   1.581   0.040   0.274 -0.1271  0.9618 -0.0570
 9244SOL    HW139365   1.508   0.051   0.212 -0.4013  3.3566  0.6622
 9244SOL    HW239366   1.568   4.691   0.302  2.3837  0.6637  0.1250
 9245SOL     OW39367   3.175   1.468  14.260  0.0504 -0.2748 -0.3827
 9245SOL    HW139368   3.267   1.487  14.278 -0.2800 -0.1229  1.1982
 9245SOL    HW239369   3.161   1.542  14.201 -0.8953 -1.2083 -1.3279
 9246SOL     OW39370   3.627   0.075   7.140  0.4814 -0.4314  0.5603
 9246SOL    HW139371   3.600   0.003   7.197  1.8369 -1.9633 -0.7293
 9246SOL    HW239372   3.543   0.116   7.122  0.9812  0.0499 -0.6822
 9247SOL     OW39373   0.133   2.033  12.215 -0.1911  0.0871 -0.1115
 9247SOL    HW139374   0.131   1.960  12.277 -2.0512  2.5393  2.7120
 9247SOL    HW239375   0.162   2.104  12.274 -2.4287  0.2925  0.7449
 9248SOL     OW39376   0.721   1.926   8.226  0.3219 -0.0659  0.5110
 9248SOL    HW139377   0.690   1.957   8.311  0.2222  1.3404 -0.0465
 9248SOL    HW239378   0.791   1.990   8.215  0.2198 -0.3632 -1.7588
 9249SOL     OW39379   3.425   0.985   3.858  0.1561  0.0126 -0.7599
 9249SOL    HW139380   3.377   1.068   3.851  0.6666  0.1818 -2.2552
 9249SOL    HW239381   3.475   0.996   3.939 -0.0897  0.5223 -0.6770
 9250SOL     OW39382   0.608   2.524   5.046  0.1055 -0.1312  0.3640
 9250SOL    HW139383   0.606   2.428   5.051 -1.7509 -0.1454 -0.6916
 9250SOL    HW239384   0.655   2.531   4.962  1.3662  1.6135  1.2210
 9251SOL     OW39385   2.003   2.117   5.552  0.0304 -0.0376 -0.1770
 9251SOL    HW139386   1.930   2.106   5.613  2.5239 -0.6208  2.6908
 9251SOL    HW239387   1.954   2.136   5.471  0.8314 -2.1959 -1.1699
 9252SOL     OW39388   0.418   0.112   8.210 -0.5335 -0.2126  0.7144
 9252SOL    HW139389   0.329   0.146   8.206  0.2316  1.7761  0.2273
 9252SOL    HW239390   0.390   0.025   8.238 -3.6682  0.1206 -1.3500
 9253SOL     OW39391   2.981   0.748   8.592 -0.0474  0.0277 -0.3035
 9253SOL    HW139392   2.921   0.674   8.578 -2.1432  1.2534  2.2709
 9253SOL    HW239393   2.948   0.792   8.670  0.8204 -0.3317  0.2685
 9254SOL     OW39394   2.651   0.996   7.683  0.4666  0.0687  0.0248
 9254SOL    HW139395   2.641   1.080   7.639 -0.4868 -0.7332 -1.3201
 9254SOL    HW239396   2.654   0.924   7.619 -1.1134 -0.6538  0.7422
 9255SOL     OW39397   4.007   0.120  15.123  0.1144 -0.1002  0.6834
 9255SOL    HW139398   3.940   0.051  15.121  0.0791  0.0021 -2.7028
 9255SOL    HW239399   3.979   0.180  15.053  1.4680 -1.1874 -0.7604
 9256SOL     OW39400   1.912   3.120  15.547 -1.0044 -0.4871  0.3082
 9256SOL    HW139401   1.989   3.088  15.499 -0.7031  0.6655  0.0372
 9256SOL    HW239402   1.867   3.036  15.560 -2.1909  0.0151 -0.5345
 9257SOL     OW39403   2.004   3.637   1.462  0.4503  0.3164  0.3890
 9257SOL    HW139404   1.946   3.619   1.536 -3.7571  2.6283 -2.3406
 9257SOL    HW239405   1.983   3.730   1.456  0.9403  0.4396  0.5925
 9258SOL     OW39406   4.593   0.466   8.548  0.6258  0.4499  0.2238
 9258SOL    HW139407   4.535   0.508   8.611  1.3835  0.7047  0.7478
 9258SOL    HW239408   4.530   0.412   8.500 -0.1384  0.8988  0.7235
 9259SOL     OW39409   3.517   2.597   7.336  0.1682  0.1268 -0.2229
 9259SOL    HW139410   3.462   2.674   7.329  0.6673  0.4022 -1.2667
 9259SOL    HW239411   3.502   2.562   7.424  3.1361 -0.1366  0.1878
 9260SOL     OW39412   3.877   1.349   6.070 -0.4952 -0.1949  0.5858
 9260SOL    HW139413   3.842   1.261   6.086 -1.0272  0.3589  2.4447
 9260SOL    HW239414   3.860   1.346   5.975  0.1876  0.0748  0.4561
 9261SOL     OW39415   0.060   1.598   7.315  0.0299 -0.7864 -0.4015
 9261SOL    HW139416   0.016   1.549   7.385 -1.9917  1.9718  0.2895
 9261SOL    HW239417   0.152   1.576   7.326  0.0545 -0.5415 -0.1060
 9262SOL     OW39418   1.354   2.067  10.032  0.2255 -0.4729  0.1817
 9262SOL    HW139419   1.281   2.058  10.094 -0.3050  3.0749  0.1038
 9262SOL    HW239420   1.412   2.133  10.071 -2.0168  2.0457 -0.7101
 9263SOL     OW39421   1.895   0.029   9.331  0.5630 -0.2270 -0.0591
 9263SOL    HW139422   1.831   0.100   9.324 -0.8197 -1.4259  0.3175
 9263SOL    HW239423   1.925   0.035   9.422 -0.5096  2.3548  0.1303
 9264SOL     OW39424   0.590   0.347   2.723 -0.3849  0.6235  0.1329
 9264SOL    HW139425   0.512   0.313   2.765  0.0503 -1.8414 -1.0839
 9264SOL    HW239426   0.560   0.353   2.633  0.9393  2.4935 -0.1907
 9265SOL     OW39427   1.363   1.482  17.441 -0.1350 -0.0556 -0.1238
 9265SOL    HW139428   1.397   1.396  17.469  0.2820 -0.3126 -1.4363
 9265SOL    HW239429   1.445   1.523  17.415  0.0147  0.2969  0.8880
 9266SOL     OW39430   0.040   1.543   7.921 -0.0502  0.5592 -0.1501
 9266SOL    HW139431   0.014   1.635   7.911 -1.7952  0.0856  0.0250
 9266SOL    HW239432   0.136   1.547   7.919 -0.0025 -0.5958  0.2306
 9267SOL     OW39433   4.705   1.258   8.247  0.2109 -0.0243 -0.3923
 9267SOL    HW139434   4.631   1.296   8.200  0.7811  1.7787  0.1385
 9267SOL    HW239435   4.693   1.296   8.334 -2.9357 -1.3810 -0.2383
 9268SOL     OW39436   4.526   2.285   8.598  0.1986 -0.2443 -0.1842
 9268SOL    HW139437   4.471   2.219   8.640  1.7504 -1.9047 -0.7560
 9268SOL    HW239438   4.577   2.321   8.670 -0.7531 -0.6784  0.7098
 9269SOL     OW39439   4.181   2.682   9.742 -0.5196 -0.3305  0.0131
 9269SOL    HW139440   4.136   2.735   9.676  2.0909  1.4434 -0.3088
 9269SOL    HW239441   4.108   2.643   9.791 -0.2442 -0.4687  0.3096
 9270SOL     OW39442   1.663   1.228  15.166 -0.1261 -0.0642  0.3429
 9270SOL    HW139443   1.654   1.232  15.071 -1.3968 -1.2574  0.4068
 9270SOL    HW239444   1.606   1.153  15.184  0.8667 -0.5988  1.1955
 9271SOL     OW39445   2.349   0.039   2.486  0.2674  0.1926  0.1333
 9271SOL    HW139446   2.410   4.733   2.429 -1.0954  0.4762 -1.5513
 9271SOL    HW239447   2.283   4.713   2.499 -0.2139  0.6715  0.1624
 9272SOL     OW39448   2.661   2.609  17.465 -0.4101 -0.2104 -0.2885
 9272SOL    HW139449   2.651   2.517  17.439 -4.0427  0.4142 -1.0279
 9272SOL    HW239450   2.598   2.650  17.406 -0.7423 -2.9642 -1.8708
 9273SOL     OW39451   4.364   1.927   5.177 -0.0104 -0.4914 -0.5677
 9273SOL    HW139452   4.370   2.019   5.205 -0.8442 -0.8911  0.8944
 9273SOL    HW239453   4.454   1.914   5.147  0.0712 -0.3857 -0.3734
 9274SOL     OW39454   4.255   0.248   1.696  0.5795 -0.2167 -0.4747
 9274SOL    HW139455   4.241   0.154   1.702 -0.8951 -0.1942 -3.4255
 9274SOL    HW239456   4.291   0.264   1.784 -0.7274 -1.0356  0.2079
 9275SOL     OW39457   1.631   3.035   6.489  0.0949 -0.0046 -0.3399
 9275SOL    HW139458   1.584   3.025   6.407 -1.5858 -0.6471  0.7027
 9275SOL    HW239459   1.574   3.084   6.549 -1.4690 -3.2329  0.8195
 9276SOL     OW39460   0.523   3.913   8.908  0.9607  0.1964  0.0834
 9276SOL    HW139461   0.444   3.868   8.938  1.0962  0.4340  0.7878
 9276SOL    HW239462   0.591   3.874   8.963  1.6920 -0.1505 -1.0447
 9277SOL     OW39463   4.215   0.497   6.133  1.0364  0.3671  0.0287
 9277SOL    HW139464   4.263   0.576   6.106  0.2248  0.7676 -0.2168
 9277SOL    HW239465   4.229   0.503   6.228  2.6557  0.3638 -0.2006
 9278SOL     OW39466   1.765   0.373   1.375  0.1913  0.3001  0.0877
 9278SOL    HW139467   1.829   0.385   1.445 -0.9372  1.6784  0.8854
 9278SOL    HW239468   1.825   0.393   1.303 -2.9555  1.4670 -2.2366
 9279SOL     OW39469   1.727   1.792  16.259  0.3467 -0.5597 -0.1651
 9279SOL    HW139470   1.687   1.825  16.179 -0.7581 -0.3209  0.4770
 9279SOL    HW239471   1.729   1.699  16.236  1.4566 -0.6241  0.2283
 9280SOL     OW39472   2.047   0.597  11.161  0.6928  0.1485 -0.0274
 9280SOL    HW139473   2.085   0.574  11.245  0.6854 -1.0702 -0.3581
 9280SOL    HW239474   2.040   0.692  11.166 -0.6917  0.0296  0.3737
 9281SOL     OW39475   1.907   1.593  16.554 -0.0773 -0.2788 -0.2579
 9281SOL    HW139476   1.912   1.647  16.475 -0.9035  0.3262  0.1133
 9281SOL    HW239477   1.955   1.650  16.615 -1.4583 -0.3020  0.8472
 9282SOL     OW39478   3.577   3.160   6.250 -0.1698 -0.2982 -0.3252
 9282SOL    HW139479   3.634   3.180   6.324  0.7042 -1.7835 -0.6010
 9282SOL    HW239480   3.562   3.251   6.225 -0.8488 -0.2249  0.3468
 9283SOL     OW39481   4.219   0.219   4.145  0.0879 -0.6423  0.1851
 9283SOL    HW139482   4.273   0.281   4.095 -1.5344  0.6387 -0.0094
 9283SOL    HW239483   4.146   0.272   4.177  0.2420  0.5863 -1.4840
 9284SOL     OW39484   4.721   0.665   7.572 -0.2899 -0.4732 -0.0122
 9284SOL    HW139485   0.050   0.611   7.610  0.2680 -0.4264 -0.9670
 9284SOL    HW239486   0.033   0.739   7.542  1.2141 -2.2877 -1.8576
 9285SOL     OW39487   0.223   2.136  11.741  0.1137  0.1188 -0.2751
 9285SOL    HW139488   0.212   2.228  11.715 -2.7487  0.1485  1.0045
 9285SOL    HW239489   0.280   2.097  11.675  2.3203  0.2909  1.5588
 9286SOL     OW39490   2.891   1.396   7.196 -0.9963 -0.3328  0.4609
 9286SOL    HW139491   2.801   1.419   7.218 -1.2434 -0.5783 -0.3117
 9286SOL    HW239492   2.924   1.385   7.285 -1.0366 -0.5266  0.4525
 9287SOL     OW39493   4.196   3.560   4.454 -0.4286 -0.5978  0.2254
 9287SOL    HW139494   4.286   3.580   4.426 -0.9609 -0.2036 -1.1733
 9287SOL    HW239495   4.197   3.594   4.544 -1.2810 -2.9949  1.1282
 9288SOL     OW39496   2.780   3.154  16.631  0.4742 -0.1564  0.4881
 9288SOL    HW139497   2.723   3.109  16.694 -0.1623  0.1003  0.0863
 9288SOL    HW239498   2.827   3.079  16.595  1.1502  0.8220 -0.6227
 9289SOL     OW39499   2.158   2.389   7.224  0.0986 -0.0914 -0.2499
 9289SOL    HW139500   2.091   2.358   7.163 -0.9866 -0.0047  0.8912
 9289SOL    HW239501   2.218   2.436   7.166 -0.8025  1.5606  0.1621
 9290SOL     OW39502   2.413   3.700  16.438 -0.2784 -0.5830 -0.2398
 9290SOL    HW139503   2.445   3.610  16.423  2.5963  0.6002 -1.3158
 9290SOL    HW239504   2.392   3.696  16.531  0.4519 -1.3760 -0.1098
 9291SOL     OW39505   4.728   4.648  15.987 -0.3300  0.3495 -0.4133
 9291SOL    HW139506   0.021   4.721  15.934  2.1056  0.3142  1.0909
 9291SOL    HW239507   4.640   4.682  15.998 -0.9150 -1.4193  0.4216
 9292SOL     OW39508   0.065   2.617   3.008 -0.0248 -0.0427 -0.0493
 9292SOL    HW139509   0.128   2.581   2.946  1.5271  0.8998  0.9720
 9292SOL    HW239510   4.735   2.555   2.993 -0.1564  0.5712 -1.9266
 9293SOL     OW39511   2.106   0.558   6.479 -0.4141 -0.1624 -0.3385
 9293SOL    HW139512   2.096   0.649   6.450  0.1844  0.3444  0.9994
 9293SOL    HW239513   2.061   0.569   6.563  1.8192 -2.4396  1.1768
 9294SOL     OW39514   1.266   1.643  14.895 -0.4525 -0.2101 -0.0684
 9294SOL    HW139515   1.233   1.675  14.979  1.1462 -0.2110  0.5576
 9294SOL    HW239516   1.354   1.616  14.920  0.4633  2.6272 -0.2808
 9295SOL     OW39517   1.196   4.325   8.237 -0.5045  0.0616  0.0216
 9295SOL    HW139518   1.276   4.275   8.252 -0.6064 -0.0028  0.3574
 9295SOL    HW239519   1.198   4.391   8.307  0.2722 -0.9047  0.9011
 9296SOL     OW39520   3.417   0.460   9.915 -0.4492 -0.2163 -0.2093
 9296SOL    HW139521   3.330   0.442   9.950 -0.4102 -2.6281 -1.3122
 9296SOL    HW239522   3.399   0.491   9.826  1.8092 -0.9681 -0.9153
 9297SOL     OW39523   4.533   2.943   6.726  0.3855 -0.1176  0.3540
 9297SOL    HW139524   4.607   2.882   6.726 -1.4581 -2.3198 -1.1836
 9297SOL    HW239525   4.563   3.010   6.664  0.5498 -2.5281 -2.1398
 9298SOL     OW39526   0.184   3.143   4.106 -0.1485  0.6933  0.0163
 9298SOL    HW139527   0.108   3.103   4.148 -1.1267  1.1470 -1.3135
 9298SOL    HW239528   0.155   3.150   4.015 -1.3014  1.0397  0.4206
 9299SOL     OW39529   2.878   0.169  15.519  0.2322 -0.4471  0.1256
 9299SOL    HW139530   2.843   0.127  15.598 -0.9577  1.0957  0.4218
 9299SOL    HW239531   2.853   0.261  15.531  0.7216 -0.3832  0.6601
 9300SOL     OW39532   4.562   1.551   3.698  0.4015 -0.0327 -0.2693
 9300SOL    HW139533   4.595   1.568   3.610  0.1120  0.9797 -0.1865
 9300SOL    HW239534   4.572   1.457   3.709 -1.5034 -0.1824  0.0674
 9301SOL     OW39535   3.672   3.855   6.935 -0.2762  0.5010 -0.1934
 9301SOL    HW139536   3.585   3.895   6.934 -0.6954 -0.3869 -0.0073
 9301SOL    HW239537   3.676   3.834   7.029  0.5218 -1.3132 -0.6166
 9302SOL     OW39538   0.373   2.130   3.594 -0.1761 -0.3145 -0.3677
 9302SOL    HW139539   0.453   2.101   3.551  0.2432  1.7691 -0.9959
 9302SOL    HW239540   0.350   2.215   3.557  1.2209  0.9654  1.7570
 9303SOL     OW39541   2.138   4.532  14.885  0.1261 -0.4335 -0.1636
 9303SOL    HW139542   2.072   4.476  14.844 -1.8376  2.9051 -1.5001
 9303SOL    HW239543   2.095   4.603  14.932  0.1046 -1.7234  1.7588
 9304SOL     OW39544   3.081   0.872  13.856 -0.1734 -0.7162  0.3306
 9304SOL    HW139545   2.989   0.900  13.853  0.4452  1.0170 -2.8845
 9304SOL    HW239546   3.101   0.923  13.777  1.4431 -2.3484 -0.3027
 9305SOL     OW39547   2.670   1.578  16.713  0.0309 -0.4547  0.0020
 9305SOL    HW139548   2.612   1.538  16.649 -0.2989 -0.4465  0.3021
 9305SOL    HW239549   2.650   1.672  16.709  1.4827 -0.1251  0.4211
 9306SOL     OW39550   1.371   2.199   4.320 -0.5336 -0.7318  0.3612
 9306SOL    HW139551   1.286   2.233   4.290  0.5926 -1.3676 -3.5142
 9306SOL    HW239552   1.351   2.115   4.361 -0.5017 -0.4410  0.9773
 9307SOL     OW39553   3.055   1.315  13.868 -0.1131 -0.6030  0.4625
 9307SOL    HW139554   3.058   1.313  13.772 -0.0008 -1.6158  0.4903
 9307SOL    HW239555   3.146   1.302  13.895  1.2910  0.5836 -3.5995
 9308SOL     OW39556   4.644   4.550   7.424 -0.8119 -0.2321  0.0235
 9308SOL    HW139557   4.657   4.645   7.416  0.4651 -0.2781  1.5832
 9308SOL    HW239558   4.720   4.523   7.476 -2.5315 -1.3637  1.9485
 9309SOL     OW39559   1.329   3.449   3.819 -0.2023  0.0438 -0.2102
 9309SOL    HW139560   1.401   3.476   3.875  0.3973 -1.6345 -0.1729
 9309SOL    HW239561   1.260   3.455   3.885  1.4098 -0.0597  1.4715
 9310SOL     OW39562   0.668   1.221  11.992 -0.3583  0.0950 -0.6405
 9310SOL    HW139563   0.725   1.277  11.940  1.1036  1.5641  2.4996
 9310SOL    HW239564   0.620   1.285  12.045 -1.8282 -1.6537  0.1093
 9311SOL     OW39565   4.313   2.301   7.533  0.1105 -0.4894  0.4462
 9311SOL    HW139566   4.241   2.321   7.473  1.4214 -1.5742 -1.5109
 9311SOL    HW239567   4.388   2.332   7.482  1.3731 -0.3255  2.4118
 9312SOL     OW39568   0.892   2.951  10.316 -0.0587 -0.2238 -0.4403
 9312SOL    HW139569   0.884   2.993  10.231 -0.0484  1.2525  0.2937
 9312SOL    HW239570   0.926   3.021  10.372 -2.5535 -0.1849  1.0702
 9313SOL     OW39571   3.823   2.280  10.500 -0.5129 -0.4820 -0.5468
 9313SOL    HW139572   3.766   2.286  10.576 -0.3741 -1.2093 -0.3792
 9313SOL    HW239573   3.854   2.370  10.497 -1.1822 -0.2899 -1.5562
 9314SOL     OW39574   4.664   2.858   2.964  0.2184 -0.2405  0.4541
 9314SOL    HW139575   4.661   2.920   2.892 -0.4667  0.8838  1.4362
 9314SOL    HW239576   0.002   2.806   2.953  0.2856 -0.3029  1.2263
 9315SOL     OW39577   0.629   4.723   4.377  0.2310  0.5011  0.5323
 9315SOL    HW139578   0.645   0.069   4.414 -0.5998  0.5524  0.7581
 9315SOL    HW239579   0.539   4.712   4.408  0.4575 -2.7561  0.0302
 9316SOL     OW39580   3.527   0.004  11.975 -0.0189 -0.0306 -0.1092
 9316SOL    HW139581   3.562   0.065  12.040 -1.6695  0.9618 -0.1432
 9316SOL    HW239582   3.469   4.696  12.033  1.0399 -1.4213 -0.2231
 9317SOL     OW39583   2.312   0.684   4.943  0.3323  0.1312 -0.2773
 9317SOL    HW139584   2.403   0.708   4.956 -0.0235  1.0512  0.5437
 9317SOL    HW239585   2.294   0.639   5.027 -0.1764  1.2441  0.2095
 9318SOL     OW39586   1.038   1.640   8.530  0.3083 -0.7937  0.2803
 9318SOL    HW139587   1.075   1.579   8.593  1.6679  0.3606  0.5961
 9318SOL    HW239588   1.080   1.720   8.562  0.2129  0.1039 -1.7945
 9319SOL     OW39589   3.732   2.306   1.983  0.8660 -0.5459  0.5304
 9319SOL    HW139590   3.642   2.322   1.953  1.4444 -2.6858 -2.2609
 9319SOL    HW239591   3.717   2.242   2.052  1.0001 -1.3198 -0.1655
 9320SOL     OW39592   3.989   0.476   7.578 -0.1079  0.2201  0.4167
 9320SOL    HW139593   4.033   0.399   7.542 -0.9924 -0.3531  0.5779
 9320SOL    HW239594   4.064   0.527   7.609  1.1920 -0.5334 -1.4563
 9321SOL     OW39595   3.998   2.985   7.408  0.2593  0.1771  0.5521
 9321SOL    HW139596   3.936   2.912   7.411  0.4118  0.0136 -0.2262
 9321SOL    HW239597   4.030   2.974   7.497  2.2694 -1.9979 -0.4315
 9322SOL     OW39598   0.908   0.155  12.429 -0.3874  0.2926  0.2324
 9322SOL    HW139599   0.910   0.087  12.360 -2.4522  0.4360  0.0033
 9322SOL    HW239600   0.952   0.227  12.384  0.3994 -0.8100 -0.7688
 9323SOL     OW39601   1.080   1.323   2.325 -0.4375  0.3478 -0.0265
 9323SOL    HW139602   1.154   1.328   2.385 -1.6636  2.5263  1.2907
 9323SOL    HW239603   1.125   1.294   2.246  1.8391 -1.1263  1.8225
 9324SOL     OW39604   1.696   0.327   6.703 -0.4124  0.0512 -0.1955
 9324SOL    HW139605   1.726   0.318   6.612 -0.8642  0.5864 -0.3995
 9324SOL    HW239606   1.602   0.308   6.698 -0.6036  0.8206  0.5278
 9325SOL     OW39607   1.070   2.124   4.523 -0.1595 -0.2023 -0.3548
 9325SOL    HW139608   1.116   2.042   4.511 -1.2315 -0.9581  0.6787
 9325SOL    HW239609   0.983   2.096   4.493  0.2570 -0.9692 -0.8249
 9326SOL     OW39610   2.311   3.041   4.439 -0.1879  0.0608 -0.0371
 9326SOL    HW139611   2.282   2.968   4.494  1.9487 -0.7849 -0.0419
 9326SOL    HW239612   2.368   2.988   4.383 -0.6138  1.0412 -1.3802
 9327SOL     OW39613   0.143   2.149   1.598  0.1703 -0.5113 -0.6629
 9327SOL    HW139614   0.062   2.199   1.583  0.8590  1.3738  1.9899
 9327SOL    HW239615   0.148   2.136   1.692 -1.3676 -0.3054 -0.5491
 9328SOL     OW39616   1.957   4.664   1.451 -0.0155 -0.3173  0.1703
 9328SOL    HW139617   1.896   4.599   1.416 -1.8472  2.1767 -1.2963
 9328SOL    HW239618   2.008   4.665   1.369  0.2634  0.1477  0.3506
 9329SOL     OW39619   3.343   1.381   2.084 -0.1189 -1.1281 -0.8373
 9329SOL    HW139620   3.251   1.408   2.076  0.4201  1.0318  0.5430
 9329SOL    HW239621   3.335   1.287   2.100  0.4893 -0.9593  0.4116
 9330SOL     OW39622   0.831   3.961   1.455 -0.2497  0.2675 -0.1354
 9330SOL    HW139623   0.829   3.908   1.535  2.7953 -1.9284 -1.4993
 9330SOL    HW239624   0.748   4.008   1.465  0.6608  2.0396 -0.8213
 9331SOL     OW39625   4.409   4.187   8.612  0.2588  0.1573  0.1575
 9331SOL    HW139626   4.354   4.245   8.664  0.7959  0.5705  0.2641
 9331SOL    HW239627   4.350   4.112   8.610  0.1124  0.3263 -1.5271
 9332SOL     OW39628   2.361   3.978   0.769  0.1571  0.4231  0.4680
 9332SOL    HW139629   2.400   4.035   0.703 -1.3360  0.0345 -0.7517
 9332SOL    HW239630   2.285   3.947   0.721  1.2255 -1.2714 -0.1212
 9333SOL     OW39631   2.907   2.684   9.938 -0.2248  0.2399 -0.1903
 9333SOL    HW139632   2.886   2.748  10.006 -0.7954 -2.5508  2.3046
 9333SOL    HW239633   3.002   2.692   9.948 -0.0493  0.2419 -1.8467
 9334SOL     OW39634   3.830   1.482  16.014 -0.2658 -0.1978  0.5055
 9334SOL    HW139635   3.757   1.474  15.952 -0.5018 -0.5122  0.8226
 9334SOL    HW239636   3.881   1.548  15.968  0.4860 -0.3829  1.0749
 9335SOL     OW39637   3.741   0.454  13.097 -0.4255  0.0464 -0.1160
 9335SOL    HW139638   3.804   0.392  13.060 -0.2703 -0.9836  1.8981
 9335SOL    HW239639   3.782   0.461  13.182  0.6353 -1.4567 -0.5005
 9336SOL     OW39640   1.436   3.724   1.729  0.1540 -0.5683  0.3408
 9336SOL    HW139641   1.448   3.676   1.811  1.0193  0.1976  0.6510
 9336SOL    HW239642   1.460   3.651   1.672  0.9327  0.3452 -0.4946
 9337SOL     OW39643   2.885   2.905   5.396 -0.0805 -0.3084 -0.2251
 9337SOL    HW139644   2.825   2.841   5.433  0.6586 -0.0881  1.3458
 9337SOL    HW239645   2.951   2.892   5.464  0.8511  1.4405 -0.7710
 9338SOL     OW39646   0.624   4.286   4.377  0.6465 -0.1748 -0.1835
 9338SOL    HW139647   0.682   4.227   4.426 -0.3246 -0.5088  0.5430
 9338SOL    HW239648   0.540   4.241   4.381  1.1355 -1.0394  0.5297
 9339SOL     OW39649   0.873   2.280   6.041  0.3000 -0.4495  0.1588
 9339SOL    HW139650   0.850   2.329   6.120  0.9712 -0.0896  0.1335
 9339SOL    HW239651   0.845   2.192   6.066 -0.8544  0.5567  2.4166
 9340SOL     OW39652   1.406   1.128   1.334  0.1380 -0.2932  0.1355
 9340SOL    HW139653   1.414   1.068   1.260  0.8533  0.3979 -0.3449
 9340SOL    HW239654   1.355   1.073   1.393 -0.0468  1.5524  1.6834
 9341SOL     OW39655   4.227   1.474  14.857  0.1030 -0.1374 -0.2306
 9341SOL    HW139656   4.310   1.451  14.816  0.9373  0.6967  1.0084
 9341SOL    HW239657   4.170   1.401  14.830  2.3389 -1.1976 -2.0606
 9342SOL     OW39658   2.785   2.162   7.116  0.3724  0.5090 -0.0034
 9342SOL    HW139659   2.848   2.126   7.054 -0.2195 -0.6290  0.0563
 9342SOL    HW239660   2.827   2.241   7.149  0.5615  1.0332 -1.5130
 9343SOL     OW39661   2.494   3.225   5.157 -0.7414 -0.1148  0.1215
 9343SOL    HW139662   2.558   3.258   5.219 -1.4723  1.3003  0.1271
 9343SOL    HW239663   2.552   3.193   5.088  0.5341  0.1968  1.0626
 9344SOL     OW39664   1.718   4.656   3.157  0.0882 -0.2927 -0.4417
 9344SOL    HW139665   1.799   4.627   3.115  0.7148 -1.0044  1.2330
 9344SOL    HW239666   1.751   4.720   3.220  0.5874 -3.3474  2.4427
 9345SOL     OW39667   0.421   1.586   5.692  0.3515 -0.4213 -0.4911
 9345SOL    HW139668   0.344   1.559   5.741  0.7296 -1.5809 -0.5317
 9345SOL    HW239669   0.411   1.550   5.604 -1.5801 -0.5851 -0.1878
 9346SOL     OW39670   0.156   3.409   8.163 -0.0267 -0.6748 -0.4008
 9346SOL    HW139671   0.192   3.469   8.098  0.7986 -0.4232  0.2782
 9346SOL    HW239672   0.205   3.438   8.240  1.5286  1.6208 -2.2438
 9347SOL     OW39673   4.422   2.599   7.730  1.1496  0.2860  0.0665
 9347SOL    HW139674   4.423   2.687   7.766 -0.7387  1.0790 -1.7626
 9347SOL    HW239675   4.356   2.626   7.665  0.9826  1.4711  0.7366
 9348SOL     OW39676   0.329   0.597   7.873  0.0541  0.3919  0.1986
 9348SOL    HW139677   0.322   0.542   7.951 -3.3388  0.1491 -0.2744
 9348SOL    HW239678   0.285   0.680   7.890  0.0898  0.3783  0.3503
 9349SOL     OW39679   0.168   0.850   7.469 -0.1561  0.3885 -0.5250
 9349SOL    HW139680   0.195   0.920   7.529 -0.4348  0.8481 -0.9349
 9349SOL    HW239681   0.247   0.797   7.458 -0.6846 -0.5586  0.2676
 9350SOL     OW39682   2.632   4.646  16.816 -0.0100 -0.4127 -0.6256
 9350SOL    HW139683   2.718   4.605  16.808 -0.7700 -2.3335  1.3108
 9350SOL    HW239684   2.629   4.677  16.907  0.9536 -2.4616  0.0998
 9351SOL     OW39685   3.622   3.327   3.804  0.0191  0.5448 -0.4652
 9351SOL    HW139686   3.549   3.339   3.865  1.7820  3.0922  1.1187
 9351SOL    HW239687   3.575   3.290   3.730  0.9353 -1.5297 -0.0359
 9352SOL     OW39688   1.673   3.641  17.021  0.5960  0.2553  0.0543
 9352SOL    HW139689   1.594   3.588  17.035 -0.6994  1.4326 -2.8952
 9352SOL    HW239690   1.648   3.729  17.047  0.4841 -0.0105  0.8735
 9353SOL     OW39691   1.949   1.336   5.389  0.1823 -0.2319  0.5051
 9353SOL    HW139692   1.969   1.250   5.351 -2.3980 -1.1529  1.2596
 9353SOL    HW239693   2.015   1.382   5.337  0.8780 -2.6855 -0.7907
 9354SOL     OW39694   0.244   2.132   5.668 -0.2866  0.4294 -0.5997
 9354SOL    HW139695   0.215   2.140   5.759  0.2814 -1.1771 -0.2699
 9354SOL    HW239696   0.262   2.038   5.668 -0.2668  0.4370  0.0859
 9355SOL     OW39697   2.449   4.588   6.308  0.1480 -0.2339  0.7121
 9355SOL    HW139698   2.487   4.503   6.329 -0.6695 -0.4777  1.2091
 9355SOL    HW239699   2.357   4.562   6.314 -0.0414  0.4629  0.8648
 9356SOL     OW39700   0.582   3.727   1.493  0.7253  0.2114 -0.3513
 9356SOL    HW139701   0.605   3.635   1.480  1.7665  1.0119 -4.3877
 9356SOL    HW239702   0.512   3.737   1.429  0.2610  0.0617  0.1343
 9357SOL     OW39703   4.436   3.866  15.634 -0.1845 -0.4413 -0.5032
 9357SOL    HW139704   4.472   3.855  15.722 -0.2754 -0.4347 -0.4655
 9357SOL    HW239705   4.368   3.799  15.640 -0.4482 -0.0312  1.2768
 9358SOL     OW39706   3.306   3.399  12.881 -0.0686 -0.6148  0.0714
 9358SOL    HW139707   3.368   3.438  12.821 -0.9030  1.4279  0.5377
 9358SOL    HW239708   3.238   3.371  12.819 -1.4526  0.8387  0.9143
 9359SOL     OW39709   3.443   4.606   6.389  0.3126 -0.1094  0.2090
 9359SOL    HW139710   3.385   4.659   6.334  1.0641  2.6553  2.0578
 9359SOL    HW239711   3.383   4.540   6.425 -0.9952  0.8404 -0.2453
 9360SOL     OW39712   1.671   2.118   1.469  0.1687 -0.9995 -0.2804
 9360SOL    HW139713   1.762   2.094   1.489  0.7532  0.9987 -0.5953
 9360SOL    HW239714   1.625   2.063   1.533 -1.4780 -0.8865 -1.3578
 9361SOL     OW39715   1.430   2.303  13.250  0.3733 -0.4339  0.2293
 9361SOL    HW139716   1.357   2.317  13.309 -0.0041 -0.4049 -0.2401
 9361SOL    HW239717   1.417   2.210  13.227  0.3458 -0.4447  0.2896
 9362SOL     OW39718   0.030   2.266  15.903 -0.4400 -0.0911  0.1265
 9362SOL    HW139719   4.717   2.342  15.925 -0.5878 -0.1698  0.0315
 9362SOL    HW239720   0.013   2.209  15.978  0.8060  0.6914  1.0051
 9363SOL     OW39721   3.389   3.312   0.491  0.0720 -0.9273 -0.1420
 9363SOL    HW139722   3.382   3.225   0.451  1.7812 -1.9613  1.8182
 9363SOL    HW239723   3.311   3.351   0.451 -1.1737 -1.9138  1.3248
 9364SOL     OW39724   4.269   1.554  17.338  0.2124 -0.3122 -0.5626
 9364SOL    HW139725   4.262   1.642  17.373  0.3494 -0.4667 -0.1498
 9364SOL    HW239726   4.267   1.578  17.245  0.3508  1.6894 -0.0508
 9365SOL     OW39727   3.981   0.215   7.844 -0.9398  0.5850 -0.3596
 9365SOL    HW139728   4.029   0.245   7.921 -1.9983  1.3500  0.0041
 9365SOL    HW239729   4.050   0.210   7.777  1.0736 -0.4787  1.8054
 9366SOL     OW39730   4.050   1.155   4.528 -0.3599 -0.6390  0.5126
 9366SOL    HW139731   4.124   1.109   4.569  0.9423  1.7363  0.8373
 9366SOL    HW239732   4.077   1.151   4.437 -0.5126 -1.7867  0.5203
 9367SOL     OW39733   0.790   4.370   2.895  0.3483  0.1950 -0.0598
 9367SOL    HW139734   0.711   4.329   2.858  0.5021 -1.0991  1.0770
 9367SOL    HW239735   0.754   4.451   2.930 -0.6911 -1.1189  1.9175
 9368SOL     OW39736   3.478   3.430  10.287 -0.5243 -0.3665  0.0291
 9368SOL    HW139737   3.492   3.336  10.285 -1.0295 -0.4432  0.0523
 9368SOL    HW239738   3.487   3.448  10.381  2.3797 -0.2811 -0.2682
 9369SOL     OW39739   1.479   0.105  14.860 -0.2423  0.0441  0.0051
 9369SOL    HW139740   1.566   0.143  14.867 -1.2384  2.5429 -1.2141
 9369SOL    HW239741   1.480   0.050  14.938 -2.1959  0.0358  0.0191
 9370SOL     OW39742   0.867   1.526   1.776  0.1604 -0.0680 -0.0240
 9370SOL    HW139743   0.929   1.596   1.758 -0.0152  0.4109  1.2094
 9370SOL    HW239744   0.833   1.544   1.864 -1.3912 -0.1591 -0.5955
 9371SOL     OW39745   1.688   1.938   3.567  0.4458  0.0896  0.4759
 9371SOL    HW139746   1.712   1.963   3.656  1.6310  2.9758 -0.6733
 9371SOL    HW239747   1.607   1.890   3.586 -0.8727  1.4630 -1.7843
 9372SOL     OW39748   4.178   4.346   3.960  0.7877 -0.3408  0.2894
 9372SOL    HW139749   4.128   4.267   3.978 -1.0519  0.7977  0.1838
 9372SOL    HW239750   4.135   4.412   4.014 -0.0607  0.3575 -1.2340
 9373SOL     OW39751   1.154   0.193   1.478 -0.3104 -0.5183  0.0081
 9373SOL    HW139752   1.151   0.098   1.465  1.1038 -0.2425 -2.3679
 9373SOL    HW239753   1.107   0.213   1.398 -0.0012 -1.0421 -0.3091
 9374SOL     OW39754   3.530   3.011  16.017 -0.1234 -0.3791 -0.5250
 9374SOL    HW139755   3.498   2.961  16.093  0.3497  0.4278  0.2084
 9374SOL    HW239756   3.480   3.093  16.024  0.8908  0.2295 -0.4334
 9375SOL     OW39757   3.628   0.044   0.246  0.0021 -0.2537  0.0833
 9375SOL    HW139758   3.648   4.724   0.175  2.6867  1.4064 -0.5685
 9375SOL    HW239759   3.596   0.113   0.187  0.7674  0.2627  0.2707
 9376SOL     OW39760   2.711   0.128   8.905  0.3160 -0.5185 -0.1893
 9376SOL    HW139761   2.775   0.058   8.920  2.5644  1.6330  0.3748
 9376SOL    HW239762   2.706   0.159   8.995  1.0311 -0.9111 -0.0117
 9377SOL     OW39763   3.664   0.977  12.680  0.6053 -0.5888 -0.1365
 9377SOL    HW139764   3.643   0.985  12.587  2.3926 -0.3412 -0.5172
 9377SOL    HW239765   3.681   1.067  12.708 -0.0507 -0.7392  0.7497
 9378SOL     OW39766   3.972   4.542   4.434  0.0261 -0.0830 -0.3770
 9378SOL    HW139767   4.007   4.626   4.403 -1.8171  0.0535 -2.0935
 9378SOL    HW239768   4.033   4.479   4.396 -0.4828 -1.4288  1.0322
 9379SOL     OW39769   3.523   0.720   1.753 -0.1430  0.7737 -0.2714
 9379SOL    HW139770   3.610   0.731   1.713  0.7211  2.0522  1.9303
 9379SOL    HW239771   3.538   0.742   1.845  0.4709 -1.9608  0.2921
 9380SOL     OW39772   2.946   1.730   5.259 -0.1218 -0.2549 -0.3070
 9380SOL    HW139773   2.887   1.763   5.190 -0.8664  0.7126  0.7802
 9380SOL    HW239774   2.889   1.728   5.336  1.9414  0.2729  1.2292
 9381SOL     OW39775   3.622   3.935   4.951 -0.0624  0.3508  0.4593
 9381SOL    HW139776   3.693   3.885   4.910 -0.5763  1.0439 -1.3111
 9381SOL    HW239777   3.557   3.929   4.881 -0.4846 -0.7337  0.9583
 9382SOL     OW39778   3.736   1.961   8.363  0.0082 -0.1388 -0.0800
 9382SOL    HW139779   3.797   2.025   8.326  2.0929 -2.3179 -0.4464
 9382SOL    HW239780   3.796   1.889   8.383  0.0248  0.5587  2.4576
 9383SOL     OW39781   3.516   1.587   3.594  0.2348 -0.9082  0.1078
 9383SOL    HW139782   3.611   1.597   3.580 -0.2303  0.8127 -1.8130
 9383SOL    HW239783   3.480   1.561   3.509  0.8523 -2.3042  0.2801
 9384SOL     OW39784   2.274   0.056   6.525  0.5985 -0.0093  0.2645
 9384SOL    HW139785   2.258   0.035   6.432  2.8572  1.1583 -0.4017
 9384SOL    HW239786   2.234   0.143   6.523 -0.8343 -0.6666  0.1764
 9385SOL     OW39787   3.364   3.253   6.549  0.3584  0.1391 -0.3927
 9385SOL    HW139788   3.412   3.211   6.620  3.0415  2.7285 -0.6796
 9385SOL    HW239789   3.339   3.186   6.486 -0.9280 -0.0663  0.3277
 9386SOL     OW39790   2.542   4.595   7.639 -0.3387 -0.0312 -0.5235
 9386SOL    HW139791   2.509   4.657   7.575  0.6658  1.4772  0.4159
 9386SOL    HW239792   2.483   4.519   7.636 -1.2180  0.7189 -1.8984
 9387SOL     OW39793   2.657   0.824   7.901  0.4387  0.0834  0.6879
 9387SOL    HW139794   2.743   0.825   7.943  0.9871 -2.0500 -0.4191
 9387SOL    HW239795   2.653   0.909   7.857 -2.6283  1.4959  3.7313
 9388SOL     OW39796   3.402   3.905   5.793 -0.2614  0.4736 -0.5911
 9388SOL    HW139797   3.357   3.960   5.730 -3.2323 -0.6268  0.5832
 9388SOL    HW239798   3.465   3.964   5.836  0.6706 -0.2877 -0.8989
 9389SOL     OW39799   4.023   4.675   5.880 -0.6018  0.4263 -0.6944
 9389SOL    HW139800   4.031   0.016   5.831  1.1463 -0.7954 -2.4454
 9389SOL    HW239801   4.096   4.631   5.837 -1.6910  0.3593 -2.4818
 9390SOL     OW39802   3.822   2.387   3.093 -0.0374 -0.5266  0.2329
 9390SOL    HW139803   3.762   2.425   3.157 -0.3529 -1.9869  0.7955
 9390SOL    HW239804   3.783   2.302   3.073  3.4318 -1.4931 -2.5109
 9391SOL     OW39805   0.875   4.176  14.895 -0.3066  0.5666 -0.0647
 9391SOL    HW139806   0.807   4.111  14.879  1.7996 -1.3843 -1.0000
 9391SOL    HW239807   0.952   4.120  14.891 -1.6719 -1.5367  2.7618
 9392SOL     OW39808   2.921   0.097   6.876 -0.1823  0.2389 -0.2148
 9392SOL    HW139809   2.950   0.107   6.786  0.9866 -0.6859  0.0615
 9392SOL    HW239810   2.975   0.167   6.912 -0.6819  0.7338 -0.4192
 9393SOL     OW39811   4.064   1.809   7.789 -0.8476  0.2048 -0.6248
 9393SOL    HW139812   4.140   1.856   7.824 -0.6188 -1.2144  0.7715
 9393SOL    HW239813   4.065   1.841   7.698  0.4550 -2.7788 -1.6352
 9394SOL     OW39814   1.277   3.936   7.492 -0.3473  0.3649 -0.0544
 9394SOL    HW139815   1.226   3.869   7.445 -0.5960  0.7820 -0.3853
 9394SOL    HW239816   1.350   3.893   7.535 -0.2876 -1.0847 -1.5959
 9395SOL     OW39817   1.865   0.699  10.892 -0.7913 -0.0530  0.3969
 9395SOL    HW139818   1.961   0.702  10.892 -0.8280  0.9938  2.6463
 9395SOL    HW239819   1.842   0.643  10.818 -0.0306 -0.5822  0.5556
 9396SOL     OW39820   3.975   4.020   0.150  0.2716 -0.3205  0.1218
 9396SOL    HW139821   4.061   3.981   0.166 -0.4042 -1.9733 -0.2862
 9396SOL    HW239822   4.007   4.088   0.091  0.5223  0.3848  1.0611
 9397SOL     OW39823   3.057   3.876   6.258  0.7562  0.1908 -0.2135
 9397SOL    HW139824   3.034   3.794   6.303 -2.1503  1.0864 -0.0540
 9397SOL    HW239825   3.140   3.902   6.298  0.7574  1.0570 -0.7841
 9398SOL     OW39826   2.045   1.119  16.213  0.2764 -0.2022 -0.4611
 9398SOL    HW139827   2.112   1.052  16.226 -0.8023 -1.6037 -2.0864
 9398SOL    HW239828   2.067   1.190  16.273  4.1376  0.1057 -2.2419
 9399SOL     OW39829   1.628   3.497   3.521 -0.2325  0.1995  0.5759
 9399SOL    HW139830   1.647   3.573   3.576 -0.4992 -1.8010  3.4050
 9399SOL    HW239831   1.537   3.479   3.545 -0.8206  2.5961  0.1071
 9400SOL     OW39832   2.400   4.640   7.998 -0.0737  0.1194  0.2726
 9400SOL    HW139833   2.328   4.601   8.047  0.9693  0.4563  2.0741
 9400SOL    HW239834   2.479   4.592   8.023  0.0773  1.2270  1.8689
 9401SOL     OW39835   1.452   4.145  13.620 -0.4930 -0.2263 -0.0114
 9401SOL    HW139836   1.422   4.197  13.546 -0.6340 -1.1334 -0.5941
 9401SOL    HW239837   1.497   4.069  13.582  2.0094  0.4921  1.4506
 9402SOL     OW39838   3.898   1.895  17.433  0.0427 -0.0888  0.4423
 9402SOL    HW139839   3.865   1.965  17.378  0.2887 -0.1520  0.2150
 9402SOL    HW239840   3.835   1.825  17.417  1.4597 -1.4349  0.7147
 9403SOL     OW39841   0.526   3.248   2.816  0.4020  0.2560 -0.5325
 9403SOL    HW139842   0.591   3.318   2.814  0.9549 -0.2713 -1.2644
 9403SOL    HW239843   0.491   3.258   2.904 -1.9096 -1.6937 -1.2249
 9404SOL     OW39844   0.333   3.546   3.569 -0.3879  0.1163  0.2213
 9404SOL    HW139845   0.346   3.581   3.658 -0.9774 -1.4057  0.9143
 9404SOL    HW239846   0.280   3.468   3.584  0.4660 -0.7794 -1.4466
 9405SOL     OW39847   4.686   2.253   5.795  0.0181 -0.0838 -0.9214
 9405SOL    HW139848   0.018   2.234   5.854 -0.1552  1.6195 -0.1595
 9405SOL    HW239849   4.735   2.238   5.714 -0.6862 -0.7501 -1.2210
 9406SOL     OW39850   2.341   0.173   8.021 -0.7414 -0.2948 -0.5979
 9406SOL    HW139851   2.361   0.080   8.023  0.5842 -0.0140 -0.9076
 9406SOL    HW239852   2.273   0.186   8.088 -1.0625 -4.2969 -0.1719
 9407SOL     OW39853   3.598   1.134   1.434 -0.9807  0.4521 -0.5119
 9407SOL    HW139854   3.593   1.112   1.527  2.5164  2.9859  0.2453
 9407SOL    HW239855   3.562   1.051   1.402 -3.0225  1.5472 -1.0753
 9408SOL     OW39856   3.236   3.827  13.154  0.1542  0.5466  0.2203
 9408SOL    HW139857   3.250   3.737  13.126 -1.1820 -0.6788  3.4033
 9408SOL    HW239858   3.191   3.862  13.078  0.9657  1.4326  0.1410
 9409SOL     OW39859   0.933   3.758   4.079  0.3195 -0.0909  0.5205
 9409SOL    HW139860   0.937   3.714   4.164 -2.1698  1.4398  1.4542
 9409SOL    HW239861   0.944   3.685   4.018  0.0781 -0.9452  1.4931
 9410SOL     OW39862   2.518   0.264   2.215 -0.6281 -0.0002  0.3956
 9410SOL    HW139863   2.561   0.349   2.208 -0.9061  0.1116  0.0038
 9410SOL    HW239864   2.460   0.282   2.289 -0.5316  0.1476  0.4352
 9411SOL     OW39865   0.919   0.009   5.438 -0.0686 -0.9344  0.2080
 9411SOL    HW139866   0.903   4.677   5.378  0.7248  0.3816 -1.5911
 9411SOL    HW239867   0.831   0.041   5.460  0.4824  0.7040 -0.0274
 9412SOL     OW39868   2.099   1.368  13.362  0.1475 -0.4535  0.2574
 9412SOL    HW139869   2.082   1.351  13.269  2.1057  0.6813 -0.3035
 9412SOL    HW239870   2.046   1.447  13.369  1.0419 -0.1387  3.4020
 9413SOL     OW39871   1.870   1.905  16.611 -0.2230 -0.1649 -0.4103
 9413SOL    HW139872   1.958   1.904  16.648  0.3839  0.7688 -1.8270
 9413SOL    HW239873   1.891   1.963  16.537 -0.1257 -1.2679 -1.2539
 9414SOL     OW39874   2.751   2.473   2.128 -0.3075  0.2175  0.4053
 9414SOL    HW139875   2.752   2.566   2.103  0.3814 -0.1381 -0.9138
 9414SOL    HW239876   2.714   2.441   2.046  0.1428  1.9007 -0.4640
 9415SOL     OW39877   1.232   2.652  15.815  0.1381  0.1636 -0.3740
 9415SOL    HW139878   1.251   2.737  15.857  2.6499  0.2098 -1.5948
 9415SOL    HW239879   1.292   2.601  15.870 -1.8759 -0.8136  0.9132
 9416SOL     OW39880   2.953   0.408   1.326  0.6760 -0.2369 -0.3382
 9416SOL    HW139881   2.994   0.393   1.411 -0.4483 -0.4304  0.1825
 9416SOL    HW239882   3.022   0.405   1.260 -0.1443 -0.2058 -1.2032
 9417SOL     OW39883   0.640   1.461  10.621  0.2934  0.4017 -0.2474
 9417SOL    HW139884   0.713   1.423  10.571  0.1438 -0.7167  0.3771
 9417SOL    HW239885   0.684   1.497  10.698  0.3022 -0.4463  0.1443
 9418SOL     OW39886   3.131   4.205   8.373 -0.4029  0.5943  0.6516
 9418SOL    HW139887   3.097   4.146   8.439  0.1111 -2.3545 -1.6971
 9418SOL    HW239888   3.202   4.242   8.426  0.7711 -1.3374  0.4154
 9419SOL     OW39889   1.787   1.723   4.333  0.2600  0.0600 -0.0852
 9419SOL    HW139890   1.784   1.649   4.393 -0.7457 -0.8161 -1.2001
 9419SOL    HW239891   1.877   1.725   4.301  1.2834 -0.1961  2.8295
 9420SOL     OW39892   0.973   3.337   5.412 -0.0651 -0.2242 -0.2091
 9420SOL    HW139893   0.973   3.417   5.360  3.3998  0.0977  0.3348
 9420SOL    HW239894   1.009   3.377   5.491  0.2405  0.6528 -0.7946
 9421SOL     OW39895   1.345   1.256   7.037  0.5792 -0.2726  0.0178
 9421SOL    HW139896   1.366   1.328   6.977 -0.8051 -2.2717 -2.8396
 9421SOL    HW239897   1.278   1.211   6.987 -0.8819  2.0702 -0.1239
 9422SOL     OW39898   1.215   2.385   9.635  0.1126  0.3182  0.8324
 9422SOL    HW139899   1.228   2.296   9.667  1.8199  0.5646  0.7961
 9422SOL    HW239900   1.163   2.413   9.711 -0.6622 -0.4106  0.5755
 9423SOL     OW39901   3.729   1.397  15.767 -0.2490 -0.2951 -0.0020
 9423SOL    HW139902   3.751   1.441  15.685 -0.1801 -1.7467 -0.7514
 9423SOL    HW239903   3.634   1.397  15.750 -0.7071  0.6622  2.4265
 9424SOL     OW39904   1.592   1.760  11.561 -0.4883  0.1825  0.1822
 9424SOL    HW139905   1.602   1.706  11.483 -0.4543 -0.8523  0.8990
 9424SOL    HW239906   1.562   1.703  11.632  0.6735  1.8719  2.0318
 9425SOL     OW39907   0.625   3.893   7.564 -0.3717  0.2769  0.3361
 9425SOL    HW139908   0.543   3.919   7.521 -0.7663 -4.6081 -1.9046
 9425SOL    HW239909   0.657   3.980   7.589 -1.2357  0.6739  0.0562
 9426SOL     OW39910   0.969   4.564   8.390 -0.2397  0.2761 -0.0697
 9426SOL    HW139911   0.931   4.573   8.302 -0.7673  1.3596  0.2691
 9426SOL    HW239912   1.064   4.569   8.384 -0.2009  0.4337  0.6716
 9427SOL     OW39913   4.608   0.042   7.698 -0.0440  0.3636 -0.5442
 9427SOL    HW139914   4.647   0.069   7.781 -0.1270  1.0913 -0.7416
 9427SOL    HW239915   4.578   4.696   7.724  0.2121  0.4700  0.1004
 9428SOL     OW39916   2.154   0.418   4.478 -0.2482 -0.3411  0.5854
 9428SOL    HW139917   2.182   0.485   4.540 -0.7991 -0.8193  1.3462
 9428SOL    HW239918   2.191   0.343   4.525  2.4477  0.0305 -0.9355
 9429SOL     OW39919   1.553   1.716   5.425  0.1916  0.2560 -0.3576
 9429SOL    HW139920   1.593   1.803   5.434  0.1958  0.3759 -1.5189
 9429SOL    HW239921   1.633   1.667   5.442  1.1893  1.3293 -1.9697
 9430SOL     OW39922   1.106   4.655   1.434  0.4443 -0.1684  0.1256
 9430SOL    HW139923   1.168   4.595   1.475 -1.8325 -1.7925  1.1541
 9430SOL    HW239924   1.103   4.621   1.344  2.5609 -1.9592  0.7133
 9431SOL     OW39925   1.647   2.294  11.438  0.0786 -0.2237 -0.1153
 9431SOL    HW139926   1.635   2.289  11.533 -0.5017  0.5733 -0.1439
 9431SOL    HW239927   1.557   2.291  11.406  0.4883  0.9711 -1.3770
 9432SOL     OW39928   2.980   2.414   6.477 -0.1285 -0.6232 -0.4558
 9432SOL    HW139929   2.981   2.335   6.422  1.2853 -1.4730  0.8039
 9432SOL    HW239930   3.015   2.383   6.560  1.7144  0.6801 -0.7371
 9433SOL     OW39931   1.885   0.396   4.708 -0.0298  0.1897  0.2750
 9433SOL    HW139932   1.868   0.445   4.627 -1.2120  0.2612  0.5710
 9433SOL    HW239933   1.910   0.312   4.669 -1.0769  0.0375 -0.0634
 9434SOL     OW39934   3.148   4.349  10.974  0.6785  0.0681  0.1871
 9434SOL    HW139935   3.239   4.373  10.986 -0.1372  2.5167  1.4501
 9434SOL    HW239936   3.150   4.340  10.878  1.3649  0.1989  0.1887
 9435SOL     OW39937   0.629   0.137   6.236  0.2096  0.1364  0.2827
 9435SOL    HW139938   0.624   0.106   6.145  0.6707  1.6648 -0.2600
 9435SOL    HW239939   0.578   0.070   6.283  1.7991 -0.1496  1.6029
 9436SOL     OW39940   1.156   4.733   8.106 -0.0928 -0.4975  0.7706
 9436SOL    HW139941   1.180   4.707   8.195  0.7632 -1.4576  0.2593
 9436SOL    HW239942   1.230   0.053   8.104  0.1020 -0.7994 -1.8895
 9437SOL     OW39943   0.304   2.367   8.406 -0.2981  0.1225  0.2202
 9437SOL    HW139944   0.369   2.296   8.410 -0.6318 -0.1686  0.4968
 9437SOL    HW239945   0.227   2.312   8.388  0.5592 -0.7529 -0.7762
 9438SOL     OW39946   0.134   1.183   6.834  0.0925  0.2762  0.3762
 9438SOL    HW139947   0.072   1.152   6.900  1.4090 -3.5030 -0.1690
 9438SOL    HW239948   0.079   1.208   6.759  0.3242 -2.0795 -0.5595
 9439SOL     OW39949   2.095   2.728   1.752 -0.3632  0.0676 -0.2359
 9439SOL    HW139950   2.034   2.715   1.825 -0.2881  1.2702  0.0360
 9439SOL    HW239951   2.179   2.721   1.798  0.9523  0.8536 -2.5005
 9440SOL     OW39952   3.059   1.502   3.160 -0.4082 -0.5456 -0.2935
 9440SOL    HW139953   3.113   1.452   3.098  0.8163 -1.1501  1.2617
 9440SOL    HW239954   3.052   1.577   3.102  0.4930  0.0068  0.3089
 9441SOL     OW39955   0.063   1.104   6.551  0.2505 -0.1131 -0.1399
 9441SOL    HW139956   0.099   1.015   6.545 -0.4071 -0.4938  1.4305
 9441SOL    HW239957   4.720   1.085   6.593  1.3343 -1.5604  1.3913
 9442SOL     OW39958   2.642   4.017  12.742  0.3576 -0.0542 -0.3564
 9442SOL    HW139959   2.621   4.089  12.683  0.6847  0.9519  0.7556
 9442SOL    HW239960   2.614   4.051  12.827 -1.1809 -1.5688 -0.2741
 9443SOL     OW39961   0.689   1.862  10.755 -0.6684 -0.5608 -0.2404
 9443SOL    HW139962   0.699   1.775  10.794  2.7219  0.2048  0.5908
 9443SOL    HW239963   0.744   1.909  10.818 -2.9978  0.5870  0.9457
 9444SOL     OW39964   0.810   0.847   3.820 -0.3760 -0.1483  0.5730
 9444SOL    HW139965   0.745   0.777   3.826  1.7209 -1.8786  2.8753
 9444SOL    HW239966   0.766   0.919   3.775 -2.0783 -1.7913 -0.3819
 9445SOL     OW39967   2.774   3.857   9.757  0.4279  0.0358 -0.7174
 9445SOL    HW139968   2.853   3.825   9.800  0.6140  0.7832 -0.5117
 9445SOL    HW239969   2.708   3.789   9.772  1.8098 -1.2270 -0.4521
 9446SOL     OW39970   1.614   3.492  10.852  0.4095  0.5833  0.0897
 9446SOL    HW139971   1.636   3.482  10.944  1.6770 -2.8039 -0.5895
 9446SOL    HW239972   1.598   3.404  10.818 -1.0873  0.4545  1.1456
 9447SOL     OW39973   4.371   3.011   8.104  0.1728 -0.2868 -0.2742
 9447SOL    HW139974   4.389   3.084   8.045 -0.8544 -0.9566 -1.4200
 9447SOL    HW239975   4.297   3.040   8.157  2.7437  0.8174  2.7733
 9448SOL     OW39976   2.260   1.137  17.237 -0.3012 -0.3654  0.3243
 9448SOL    HW139977   2.276   1.222  17.277  0.6456 -0.2965 -0.1915
 9448SOL    HW239978   2.321   1.146  17.164 -0.7572  2.0589  0.2528
 9449SOL     OW39979   1.227   4.549   4.268 -0.0518 -0.2673  0.2444
 9449SOL    HW139980   1.295   4.514   4.210  0.5442  0.2901  0.6007
 9449SOL    HW239981   1.195   4.623   4.216 -0.9307 -1.6419 -1.1664
 9450SOL     OW39982   2.951   1.975   3.173  0.1892  0.0780  0.1004
 9450SOL    HW139983   2.910   1.896   3.140 -1.7477  0.7110  1.0262
 9450SOL    HW239984   3.002   2.001   3.096 -1.4003  1.0761 -0.5981
 9451SOL     OW39985   3.908   1.396  16.260 -0.0475  0.3687 -0.1528
 9451SOL    HW139986   3.877   1.406  16.170 -0.3643  0.0612 -0.0768
 9451SOL    HW239987   3.948   1.483  16.264  2.9141 -0.9441 -0.8721
 9452SOL     OW39988   1.501   0.955   7.655  0.1756  0.4076  0.0744
 9452SOL    HW139989   1.512   1.049   7.643  1.1798  0.0815 -1.5799
 9452SOL    HW239990   1.409   0.935   7.642  0.5508 -3.1868  2.9729
 9453SOL     OW39991   4.486   1.614   9.398  0.1717 -0.3264 -0.2761
 9453SOL    HW139992   4.555   1.680   9.398 -1.8893  1.7877 -1.2220
 9453SOL    HW239993   4.448   1.637   9.314 -1.4435 -0.7576  0.3306
 9454SOL     OW39994   3.575   4.636  12.728 -0.1795 -0.0770 -0.0364
 9454SOL    HW139995   3.639   4.695  12.689 -0.3814  0.7869  0.9617
 9454SOL    HW239996   3.552   4.687  12.805 -0.9361 -0.0829 -0.2563
 9455SOL     OW39997   2.292   1.404  17.285 -0.0136  0.2725  0.9368
 9455SOL    HW139998   2.205   1.407  17.245 -0.5162  1.9468  2.1477
 9455SOL    HW239999   2.318   1.494  17.304 -0.1765  0.2830  1.1093
 9456SOL     OW40000   1.774   1.796   5.155  0.1260  0.2714 -0.5366
 9456SOL    HW140001   1.726   1.868   5.194  1.4730 -0.5935  2.7790
 9456SOL    HW240002   1.863   1.825   5.174 -0.0587 -0.2723  1.2089
 9457SOL     OW40003   1.454   1.457   8.103 -0.2435  0.3377 -0.0175
 9457SOL    HW140004   1.466   1.514   8.179 -4.7425  0.2831  0.7153
 9457SOL    HW240005   1.436   1.513   8.027 -2.8194  0.4519  0.6897
 9458SOL     OW40006   0.806   4.152   3.926 -0.0845 -0.2999  0.1001
 9458SOL    HW140007   0.886   4.101   3.938  0.9763  1.9105  2.3454
 9458SOL    HW240008   0.767   4.114   3.846 -0.8755 -1.2833  0.9470
 9459SOL     OW40009   3.644   1.163   9.413 -0.0969  0.5816 -0.0588
 9459SOL    HW140010   3.579   1.130   9.475  2.6304 -1.3708  1.7435
 9459SOL    HW240011   3.611   1.252   9.400 -1.5550 -0.1709 -1.4012
 9460SOL     OW40012   2.437   0.879  17.096 -0.3378 -0.5662 -0.3373
 9460SOL    HW140013   2.511   0.936  17.115 -0.3278 -0.9772  0.8726
 9460SOL    HW240014   2.456   0.832  17.015  0.2432  2.2507 -1.8219
 9461SOL     OW40015   1.453   4.068   1.523  0.2578 -0.2890  0.0818
 9461SOL    HW140016   1.429   4.039   1.611 -2.4001 -1.7934 -1.1368
 9461SOL    HW240017   1.398   4.020   1.461 -0.3208  0.5428 -0.0561
 9462SOL     OW40018   3.501   4.669   4.243 -0.6793 -0.4481 -0.5376
 9462SOL    HW140019   3.563   4.741   4.231 -2.1997  0.6455 -1.8569
 9462SOL    HW240020   3.539   4.600   4.188 -0.9616 -0.2228 -1.0215
 9463SOL     OW40021   1.852   0.414   4.160 -0.1003 -0.3823 -0.3766
 9463SOL    HW140022   1.794   0.401   4.085  0.1092 -1.4711 -0.3573
 9463SOL    HW240023   1.929   0.368   4.124  0.2155  2.5598 -3.4777
 9464SOL     OW40024   4.384   1.497   1.431 -0.3417 -0.6306 -0.3306
 9464SOL    HW140025   4.306   1.458   1.392 -2.2803 -0.3019  3.2201
 9464SOL    HW240026   4.449   1.484   1.362 -2.4935  0.6757 -2.5836
 9465SOL     OW40027   4.314   3.138   5.891  0.0165 -0.1713 -0.4962
 9465SOL    HW140028   4.381   3.136   5.823 -1.4472  0.6972 -1.9522
 9465SOL    HW240029   4.234   3.150   5.840 -1.5218 -3.4481  1.1305
 9466SOL     OW40030   3.282   3.838   9.168 -0.5984  0.5029 -0.5532
 9466SOL    HW140031   3.259   3.847   9.260  0.2142  0.8391 -0.3763
 9466SOL    HW240032   3.209   3.787   9.135  0.1522 -0.4411 -0.7704
 9467SOL     OW40033   0.427   2.793   6.397  0.2148  0.2376 -0.0295
 9467SOL    HW140034   0.360   2.759   6.338  0.8051  1.5338 -1.4416
 9467SOL    HW240035   0.433   2.880   6.359 -0.0585  0.6532  0.8817
 9468SOL     OW40036   4.624   3.577   0.968  0.4189 -0.3210 -0.4841
 9468SOL    HW140037   4.665   3.498   1.003  0.4595  0.8380  2.0481
 9468SOL    HW240038   4.701   3.622   0.933 -0.3394  2.4710  1.4090
 9469SOL     OW40039   1.971   3.262   1.899 -0.0016  0.4578 -0.1978
 9469SOL    HW140040   2.024   3.235   1.974 -1.8192  1.2490  1.3712
 9469SOL    HW240041   2.034   3.327   1.870 -1.4288  1.5133 -0.9275
 9470SOL     OW40042   3.517   1.494   1.877  0.7851  0.6499 -0.5110
 9470SOL    HW140043   3.484   1.435   1.809  0.3005 -2.6626  2.6069
 9470SOL    HW240044   3.511   1.432   1.949  1.1470  1.0309 -0.1547
 9471SOL     OW40045   4.517   3.752   5.436  0.2353  0.3124  0.1777
 9471SOL    HW140046   4.483   3.672   5.476  1.3697 -1.3512 -2.1673
 9471SOL    HW240047   4.601   3.713   5.411 -0.4005 -0.7674 -0.3032
 9472SOL     OW40048   1.698   2.835   2.093 -0.2159  0.1560  0.2627
 9472SOL    HW140049   1.757   2.795   2.029  0.4289  0.7645  0.4755
 9472SOL    HW240050   1.752   2.892   2.147  0.3742 -0.1557 -0.0011
 9473SOL     OW40051   0.431   2.091   0.796 -0.0267 -0.7579 -0.0024
 9473SOL    HW140052   0.374   2.160   0.761 -0.0344 -1.6215 -1.7241
 9473SOL    HW240053   0.364   2.026   0.816 -0.7059 -0.4448 -1.2340
 9474SOL     OW40054   4.580   2.443   3.222  0.0064 -0.3402 -0.5687
 9474SOL    HW140055   4.507   2.500   3.246 -0.1113 -0.0657 -1.5692
 9474SOL    HW240056   4.588   2.379   3.292 -2.3636 -1.1608 -1.0343
 9475SOL     OW40057   3.655   1.682  10.465 -0.3203  0.1265 -0.0969
 9475SOL    HW140058   3.744   1.650  10.447  0.0550  1.4441 -0.5868
 9475SOL    HW240059   3.644   1.722  10.378 -3.2092 -1.2328 -0.3593
 9476SOL     OW40060   4.649   0.534   2.490  0.1857 -0.1314  0.1080
 9476SOL    HW140061   4.672   0.449   2.453 -1.5664 -1.9466  3.2429
 9476SOL    HW240062   4.610   0.565   2.408  0.1851 -3.3749 -1.0980
 9477SOL     OW40063   2.499   1.042   2.387 -0.3152 -0.1619 -0.0085
 9477SOL    HW140064   2.551   1.061   2.309  0.3678  0.4766  0.5930
 9477SOL    HW240065   2.530   0.953   2.403 -2.0306 -0.5023  1.4241
 9478SOL     OW40066   4.342   3.580   2.529  0.5611 -0.5714  0.0690
 9478SOL    HW140067   4.420   3.634   2.542  0.4964 -0.1929 -1.1576
 9478SOL    HW240068   4.283   3.656   2.529  2.1382  0.6719  1.8960
 9479SOL     OW40069   2.183   4.046   4.865 -0.1038 -0.5557 -0.4969
 9479SOL    HW140070   2.254   3.983   4.851 -0.9084 -1.6835  0.5206
 9479SOL    HW240071   2.208   4.081   4.950 -0.3602 -0.4317 -0.4730
 9480SOL     OW40072   1.503   2.889   2.631 -0.7146 -0.0978 -0.2992
 9480SOL    HW140073   1.558   2.967   2.644 -2.0828  0.9764 -0.9344
 9480SOL    HW240074   1.543   2.824   2.688 -0.4953  0.0418 -0.2941
 9481SOL     OW40075   4.139   2.589   5.195 -0.2863  0.5416 -0.7618
 9481SOL    HW140076   4.095   2.619   5.115 -2.2716  1.6121  0.7123
 9481SOL    HW240077   4.228   2.616   5.171  0.0463 -0.5504 -0.7564
 9482SOL     OW40078   2.771   2.382   4.638 -0.3975 -0.5421  0.4138
 9482SOL    HW140079   2.816   2.408   4.718 -0.1414 -0.3676  0.2136
 9482SOL    HW240080   2.797   2.291   4.623  1.5472 -0.1529  1.4057
 9483SOL     OW40081   4.204   1.677   6.883 -0.4870 -0.3439  0.5048
 9483SOL    HW140082   4.260   1.666   6.960  1.5299  0.9980 -0.7728
 9483SOL    HW240083   4.258   1.719   6.817 -1.2316  1.7639  1.2375
 9484SOL     OW40084   2.662   2.668  16.148  0.1197  0.2093 -0.5617
 9484SOL    HW140085   2.750   2.666  16.186  0.1368 -1.9913 -0.7182
 9484SOL    HW240086   2.686   2.692  16.059  0.8416  0.3955 -0.3191
 9485SOL     OW40087   0.661   1.305  12.481 -0.3082 -0.0028  0.3624
 9485SOL    HW140088   0.682   1.225  12.433 -0.8326  0.4843 -0.6730
 9485SOL    HW240089   0.616   1.279  12.562 -0.8389 -1.9016 -0.5510
 9486SOL     OW40090   1.963   2.273   7.656  0.1043 -0.1042 -0.1457
 9486SOL    HW140091   2.014   2.241   7.582  2.4086 -0.8192  1.7600
 9486SOL    HW240092   1.971   2.199   7.716 -0.4724 -0.4272 -0.4667
 9487SOL     OW40093   2.798   2.190  10.837  0.1498  0.2279 -0.1632
 9487SOL    HW140094   2.719   2.239  10.858  1.5373  2.3606  0.0731
 9487SOL    HW240095   2.787   2.168  10.744  0.9019 -0.2551 -0.1387
 9488SOL     OW40096   1.015   2.658   7.431 -0.2037 -0.0015 -0.6685
 9488SOL    HW140097   0.962   2.644   7.509  0.4752  0.4120 -0.1341
 9488SOL    HW240098   0.998   2.580   7.377 -1.3700 -1.2891  1.5343
 9489SOL     OW40099   0.660   4.153   8.928  0.6092  0.5431  0.5871
 9489SOL    HW140100   0.593   4.084   8.925  1.4373 -0.2536  0.4939
 9489SOL    HW240101   0.690   4.148   8.837  0.1314 -0.0786  0.4617
 9490SOL     OW40102   1.998   0.711  13.871  0.0039 -0.2992  0.0293
 9490SOL    HW140103   2.061   0.774  13.836 -1.7577  0.0995 -2.4235
 9490SOL    HW240104   2.039   0.627  13.852  0.0318 -0.4645  0.8378
 9491SOL     OW40105   2.377   1.098   7.771  0.4607  0.5841  0.0391
 9491SOL    HW140106   2.435   1.022   7.769 -1.2335 -0.7340  0.7789
 9491SOL    HW240107   2.298   1.060   7.811  1.9888 -1.6177  0.9370
 9492SOL     OW40108   1.218   4.572   5.365 -0.6510 -0.0685  0.2883
 9492SOL    HW140109   1.129   4.582   5.332  0.0078  1.2191 -1.0949
 9492SOL    HW240110   1.229   4.476   5.366  0.3637  0.0288 -0.7281
 9493SOL     OW40111   3.815   2.086  16.531 -0.5416 -0.1726  0.4730
 9493SOL    HW140112   3.753   2.013  16.522 -0.2735 -0.4120  0.5587
 9493SOL    HW240113   3.761   2.156  16.566 -3.0548 -2.7728  1.7782
 9494SOL     OW40114   0.574   0.170   4.717  0.0665 -0.5136 -0.1967
 9494SOL    HW140115   0.631   0.234   4.674  0.2990 -0.7914 -0.2987
 9494SOL    HW240116   0.634   0.136   4.784 -0.4990 -0.1275  0.5074
 9495SOL     OW40117   3.137   3.688   4.329  0.5539 -0.1257 -0.4863
 9495SOL    HW140118   3.124   3.697   4.235  2.2563 -0.4079 -0.7506
 9495SOL    HW240119   3.228   3.672   4.355  1.3502  1.8806 -2.0982
 9496SOL     OW40120   1.765   3.384   2.291 -0.1956 -0.4945 -0.4207
 9496SOL    HW140121   1.724   3.463   2.328 -0.4578 -0.6842 -0.3075
 9496SOL    HW240122   1.842   3.424   2.252 -1.1060 -0.2973 -2.0223
 9497SOL     OW40123   0.019   2.775  11.466  0.6239 -0.3932 -0.7375
 9497SOL    HW140124   0.011   2.854  11.519  0.5655 -1.2327  0.4975
 9497SOL    HW240125   4.734   2.815  11.383 -0.1198 -3.1123 -1.8040
 9498SOL     OW40126   3.360   0.279   9.033  1.1626  0.1392 -0.2863
 9498SOL    HW140127   3.416   0.282   9.111  1.3549  0.7862 -0.4482
 9498SOL    HW240128   3.410   0.231   8.967  1.2393  1.1171 -0.9487
 9499SOL     OW40129   3.097   0.892   4.907 -0.0615 -0.2752 -0.9387
 9499SOL    HW140130   3.123   0.815   4.957 -0.6095  1.2436  1.7571
 9499SOL    HW240131   3.181   0.919   4.870 -0.1665  2.3134  0.7284
 9500SOL     OW40132   1.199   4.308   4.864  0.4256 -0.1893 -0.0008
 9500SOL    HW140133   1.132   4.373   4.884  0.6379 -0.7786  2.6415
 9500SOL    HW240134   1.209   4.258   4.945  0.1015  1.7357  1.2375
 9501SOL     OW40135   1.869   0.917   2.703  0.0732  0.6301 -0.3164
 9501SOL    HW140136   1.854   1.011   2.708 -1.9729  0.3448 -1.4053
 9501SOL    HW240137   1.838   0.903   2.613  3.6692  1.0769 -1.6339
 9502SOL     OW40138   0.101   4.267   8.603 -0.1870 -0.3898 -0.3260
 9502SOL    HW140139   0.046   4.297   8.675  1.3266  0.8010  0.3440
 9502SOL    HW240140   0.173   4.225   8.651  1.0061  2.5095  0.4473
 9503SOL     OW40141   1.600   2.767   0.415 -0.4743  0.3588  0.1801
 9503SOL    HW140142   1.562   2.713   0.345  1.3286 -1.1965  0.3822
 9503SOL    HW240143   1.570   2.718   0.491  0.7588  1.6019  1.4757
 9504SOL     OW40144   4.125   4.739  11.461 -0.3123  0.3985 -0.1545
 9504SOL    HW140145   4.133   0.074  11.518  2.9928 -1.0605  1.2963
 9504SOL    HW240146   4.217   4.725  11.440 -0.4031 -1.9286  0.9399
 9505SOL     OW40147   2.765   0.004   0.948 -0.8949  0.8206  0.3386
 9505SOL    HW140148   2.852   4.723   0.916 -1.5310 -0.2541 -0.6359
 9505SOL    HW240149   2.753   4.687   1.023  2.5477 -0.8540 -0.4375
 9506SOL     OW40150   2.398   2.505  16.904 -0.1684 -0.0711 -0.8292
 9506SOL    HW140151   2.414   2.444  16.832 -1.2817 -0.8160 -0.4465
 9506SOL    HW240152   2.396   2.586  16.853  0.8354 -0.1276 -0.9649
 9507SOL     OW40153   3.512   0.868   5.200 -0.1606  0.4588  0.2746
 9507SOL    HW140154   3.444   0.927   5.170  0.6445 -0.1179 -2.6227
 9507SOL    HW240155   3.555   0.848   5.117 -1.8132  0.1254 -0.4798
 9508SOL     OW40156   0.280   2.760   9.318 -0.0518  0.1132  0.1344
 9508SOL    HW140157   0.314   2.839   9.276  1.1821 -0.6388 -0.2894
 9508SOL    HW240158   0.324   2.769   9.402 -0.3977 -1.3910  0.4788
 9509SOL     OW40159   4.213   2.807   9.406  0.1582  0.0868 -0.1634
 9509SOL    HW140160   4.257   2.872   9.461 -1.0044  1.3060 -0.6958
 9509SOL    HW240161   4.120   2.823   9.421  0.3819  2.4840 -1.2766
 9510SOL     OW40162   0.021   4.069  12.789  0.3735 -0.0605 -0.2002
 9510SOL    HW140163   4.697   3.999  12.797  1.2723 -0.9562 -0.7524
 9510SOL    HW240164   0.043   4.079  12.882 -0.7984  0.5120  0.0233
 9511SOL     OW40165   0.628   0.526  17.601  0.2674 -0.5843  0.1312
 9511SOL    HW140166   0.631   0.616  17.634 -2.1927 -0.6717  0.6041
 9511SOL    HW240167   0.538   0.511  17.573  0.3899 -0.4695 -0.3242
 9512SOL     OW40168   0.647   2.345   9.659 -0.2568  0.2112  0.1489
 9512SOL    HW140169   0.606   2.423   9.622  0.3043  2.1341  3.5878
 9512SOL    HW240170   0.582   2.331   9.727  0.7860  1.1130  1.3118
 9513SOL     OW40171   0.700   2.426   2.745 -0.2849 -0.2157  0.5216
 9513SOL    HW140172   0.752   2.346   2.731  0.6562  0.8924 -2.3879
 9513SOL    HW240173   0.693   2.455   2.654  0.6281 -1.3135  0.1000
 9514SOL     OW40174   2.388   2.500  10.619  0.1759  0.0071  1.1782
 9514SOL    HW140175   2.476   2.536  10.632 -0.0006  1.1252 -0.7923
 9514SOL    HW240176   2.348   2.516  10.705 -2.6631  0.6105 -0.2709
 9515SOL     OW40177   0.596   4.369   7.256  0.2222  0.1005 -0.1808
 9515SOL    HW140178   0.540   4.424   7.201 -0.5479 -0.1830  0.3147
 9515SOL    HW240179   0.670   4.429   7.265  0.6756 -0.8181  2.1944
 9516SOL     OW40180   4.101   1.550   9.036 -0.1010  0.4568  0.1476
 9516SOL    HW140181   4.065   1.502   8.962  0.6708  0.2871 -0.1254
 9516SOL    HW240182   4.109   1.474   9.094  1.6028 -0.8966 -1.8213
 9517SOL     OW40183   4.432   0.669   5.157  0.2224 -0.3209 -0.3380
 9517SOL    HW140184   4.524   0.680   5.132 -0.1353 -0.3623 -1.6797
 9517SOL    HW240185   4.443   0.613   5.234 -2.5786 -0.6817 -0.2153
 9518SOL     OW40186   4.251   2.446   3.772  0.3220 -0.0384  0.0247
 9518SOL    HW140187   4.186   2.402   3.717 -1.4322  1.6523  0.7874
 9518SOL    HW240188   4.247   2.401   3.857  0.3434  1.5943  0.8799
 9519SOL     OW40189   4.326   1.976   8.924 -0.4246 -0.3983 -0.1623
 9519SOL    HW140190   4.336   1.994   9.017 -1.4067 -1.3017  0.1184
 9519SOL    HW240191   4.364   1.889   8.913 -0.1436 -0.7195  3.4749
 9520SOL     OW40192   2.810   0.173   1.293 -0.0798 -0.5296  0.1637
 9520SOL    HW140193   2.875   0.120   1.341  0.4625 -1.5994 -1.7504
 9520SOL    HW240194   2.862   0.253   1.290  0.2723 -0.7236  0.8288
 9521SOL     OW40195   1.183   2.040   7.924  0.2100 -0.1604 -0.2445
 9521SOL    HW140196   1.255   1.979   7.909  1.1889  0.4559  2.1241
 9521SOL    HW240197   1.146   1.998   8.001  2.9631 -1.6150  0.2821
 9522SOL     OW40198   1.440   1.451  14.583  0.1792  0.2258  0.2065
 9522SOL    HW140199   1.408   1.428  14.496  2.5524 -3.9550  0.4312
 9522SOL    HW240200   1.374   1.431  14.649 -0.6812 -0.5056 -0.8895
 9523SOL     OW40201   1.816   2.760   0.594  0.1238  0.1319  0.0710
 9523SOL    HW140202   1.885   2.757   0.527  0.6961  1.8649  0.5872
 9523SOL    HW240203   1.746   2.798   0.541  0.4279  0.5432 -0.0397
 9524SOL     OW40204   4.346   3.357   6.755 -0.1465 -0.4713  0.3167
 9524SOL    HW140205   4.410   3.325   6.818 -1.4121  2.0353  2.8844
 9524SOL    HW240206   4.288   3.414   6.806  0.2054  1.8223 -1.8710
 9525SOL     OW40207   1.562   2.173   3.141  0.5194 -0.3386 -0.0375
 9525SOL    HW140208   1.596   2.143   3.057 -2.2256 -1.7856 -0.6140
 9525SOL    HW240209   1.475   2.133   3.135  0.1236  0.8304 -1.8030
 9526SOL     OW40210   1.796   1.399  13.533 -0.5885 -0.6890  0.0386
 9526SOL    HW140211   1.753   1.436  13.456 -1.5274  0.8237  1.2819
 9526SOL    HW240212   1.820   1.315  13.496 -1.2655  0.6820 -3.5177
 9527SOL     OW40213   3.049   3.868   7.970  0.2956  0.2252 -0.0709
 9527SOL    HW140214   3.102   3.891   8.046 -2.4725 -0.1255  1.9811
 9527SOL    HW240215   2.967   3.914   7.987  2.5481  3.4644  1.9867
 9528SOL     OW40216   3.559   0.281   2.281 -0.3040 -0.0246 -0.1985
 9528SOL    HW140217   3.542   0.216   2.212 -1.5450 -0.6747  0.7246
 9528SOL    HW240218   3.498   0.271   2.353  0.0767  0.6766  0.2167
 9529SOL     OW40219   3.292   1.524  12.456  0.3789 -0.0231  0.4416
 9529SOL    HW140220   3.282   1.498  12.364  1.5494 -0.8031  0.5251
 9529SOL    HW240221   3.218   1.579  12.480  2.7217  1.9423  3.2418
 9530SOL     OW40222   2.877   0.735  14.254 -0.5233 -0.0610  0.5215
 9530SOL    HW140223   2.833   0.815  14.283  0.4212  0.1395  1.4306
 9530SOL    HW240224   2.806   0.683  14.219  0.3272 -0.7202 -0.2164
 9531SOL     OW40225   3.608   4.551   6.887 -0.1451 -0.0778  0.3299
 9531SOL    HW140226   3.702   4.535   6.881 -0.1920 -0.3589  0.3457
 9531SOL    HW240227   3.573   4.528   6.801  4.2430 -0.2522 -1.4134
 9532SOL     OW40228   1.617   2.158   2.869  0.4010 -0.2029  0.9405
 9532SOL    HW140229   1.607   2.130   2.777  0.8260 -2.0988  1.4650
 9532SOL    HW240230   1.704   2.120   2.884  0.6941  1.2797  2.8602
 9533SOL     OW40231   4.597   2.848   1.031 -0.2163 -0.1209 -0.1528
 9533SOL    HW140232   4.639   2.766   1.005  2.5455  1.1194  0.3643
 9533SOL    HW240233   4.528   2.846   0.966  0.6381 -0.0556 -1.0571
 9534SOL     OW40234   1.967   1.966  15.581  0.1966 -0.0127  0.3976
 9534SOL    HW140235   2.027   1.896  15.555  0.4841  0.9915 -1.6148
 9534SOL    HW240236   1.969   2.017  15.500 -0.6756 -0.2876  0.2025
 9535SOL     OW40237   4.140   3.580   3.346 -0.0301 -0.3425 -0.5158
 9535SOL    HW140238   4.104   3.578   3.434  0.8919  0.1510 -0.1348
 9535SOL    HW240239   4.227   3.615   3.362  0.0330 -0.6668 -0.1671
 9536SOL     OW40240   3.526   4.348   3.756  0.3658  0.4862 -0.2716
 9536SOL    HW140241   3.587   4.290   3.711  0.0682 -0.6445  0.7882
 9536SOL    HW240242   3.563   4.432   3.730 -1.1780  1.2487  0.0017
 9537SOL     OW40243   3.665   2.088  15.833  0.1269 -0.2421  0.3881
 9537SOL    HW140244   3.738   2.085  15.894  0.5542 -3.4976 -0.2846
 9537SOL    HW240245   3.697   2.049  15.752 -2.0114 -0.1805 -0.4971
 9538SOL     OW40246   1.937   3.244   4.496  0.5747  0.1356  0.1660
 9538SOL    HW140247   1.991   3.210   4.425  0.6058 -0.0837  0.2947
 9538SOL    HW240248   1.942   3.338   4.480 -2.5682  0.4781  1.1211
 9539SOL     OW40249   2.691   3.382   5.297 -0.0942  0.0028  0.8288
 9539SOL    HW140250   2.686   3.456   5.358  0.9266  0.2157  0.6409
 9539SOL    HW240251   2.773   3.340   5.323 -0.1332 -0.9062 -0.5381
 9540SOL     OW40252   0.237   1.464  11.831  0.6292  0.0638  0.8524
 9540SOL    HW140253   0.192   1.381  11.847  0.0097  0.7794  2.7543
 9540SOL    HW240254   0.165   1.526  11.835  0.1495 -0.3653 -0.8984
 9541SOL     OW40255   4.160   0.150   5.453  0.4192 -0.1880 -0.0227
 9541SOL    HW140256   4.184   0.241   5.472 -1.5351  0.5427 -1.0877
 9541SOL    HW240257   4.146   0.149   5.358 -2.0609 -1.4523  0.3601
 9542SOL     OW40258   4.490   2.068  10.043  0.4412 -0.0304 -0.5544
 9542SOL    HW140259   4.569   2.013  10.048 -0.7047 -1.5943  0.6009
 9542SOL    HW240260   4.503   2.124  10.119  0.8048 -2.5242  1.2113
 9543SOL     OW40261   3.823   2.743   9.649  0.3687  1.1778  0.2236
 9543SOL    HW140262   3.838   2.667   9.705 -3.5903  1.2567  1.3661
 9543SOL    HW240263   3.743   2.777   9.688 -0.0104  0.1804  0.2961
 9544SOL     OW40264   3.943   1.685   8.147  0.3171 -0.0818  0.1908
 9544SOL    HW140265   3.868   1.744   8.159 -0.2115 -1.0737  1.7170
 9544SOL    HW240266   4.006   1.752   8.121  0.3298  0.3021  1.2104
 9545SOL     OW40267   2.801   2.941  14.185  0.0274 -0.0052  0.1628
 9545SOL    HW140268   2.858   3.017  14.183  0.6737 -0.4782  0.5025
 9545SOL    HW240269   2.727   2.969  14.131 -0.3199 -3.3296 -1.0707
 9546SOL     OW40270   0.780   3.046   2.575 -0.5774  0.4543 -0.4154
 9546SOL    HW140271   0.844   2.976   2.559  0.3756  0.7718  2.0637
 9546SOL    HW240272   0.757   3.045   2.668  0.0240 -1.6123 -0.2854
 9547SOL     OW40273   1.517   4.591  13.638  0.1190  0.2993  0.4887
 9547SOL    HW140274   1.518   4.660  13.704  2.5914  3.0297 -2.3889
 9547SOL    HW240275   1.574   4.523  13.675 -2.5949 -2.8833 -1.2259
 9548SOL     OW40276   2.424   3.979   8.844  0.2631 -0.0668 -0.2685
 9548SOL    HW140277   2.471   3.916   8.791 -0.9975 -0.6148 -0.7328
 9548SOL    HW240278   2.380   3.915   8.900  0.2794 -1.3131 -1.6887
 9549SOL     OW40279   1.297   4.322   3.552  1.0309 -0.4532  0.0549
 9549SOL    HW140280   1.205   4.321   3.525  1.1695 -0.4043 -0.4116
 9549SOL    HW240281   1.331   4.396   3.503  0.4694 -1.0441 -1.2063
 9550SOL     OW40282   0.912   2.629   2.820  0.1193 -0.2150  0.5897
 9550SOL    HW140283   0.845   2.598   2.760  1.0733 -1.9030  0.3893
 9550SOL    HW240284   0.986   2.569   2.811  1.7395  1.5122  2.3144
 9551SOL     OW40285   1.446   2.590   8.088 -0.3866  0.0311 -0.1261
 9551SOL    HW140286   1.447   2.561   7.997 -2.1116 -0.5328  0.0423
 9551SOL    HW240287   1.413   2.506   8.118  0.1146 -0.6346 -1.4425
 9552SOL     OW40288   1.737   3.987  10.887  0.3420 -0.1003  0.0273
 9552SOL    HW140289   1.656   3.999  10.839 -1.5576  0.1482  3.3333
 9552SOL    HW240290   1.709   3.909  10.935 -2.1385  0.5561 -0.3617
 9553SOL     OW40291   1.882   4.010  17.680 -0.3934 -0.1097 -0.0986
 9553SOL    HW140292   1.935   4.004  17.601  0.6291  1.3992  0.4874
 9553SOL    HW240293   1.843   3.922  17.682 -1.5670  0.3938 -0.7244
 9554SOL     OW40294   0.056   1.561   7.624 -0.2318  0.5884 -0.5008
 9554SOL    HW140295   0.030   1.607   7.703  0.0971 -0.5188  0.2539
 9554SOL    HW240296   4.737   1.487   7.619 -1.7948  1.8006  0.3551
 9555SOL     OW40297   0.954   1.810  15.017  0.2301 -0.1408  0.2912
 9555SOL    HW140298   1.010   1.881  14.984 -0.3943 -0.7881 -2.1474
 9555SOL    HW240299   1.016   1.778  15.083 -0.9770  0.3085  1.6560
 9556SOL     OW40300   2.875   0.403   3.093 -0.4211 -0.7384  0.7618
 9556SOL    HW140301   2.946   0.426   3.033 -1.5775  0.2209 -0.2190
 9556SOL    HW240302   2.824   0.483   3.087  1.5338  0.3568 -0.9020
 9557SOL     OW40303   0.717   2.949   7.366  0.2119  0.2834 -0.6928
 9557SOL    HW140304   0.672   3.033   7.379 -1.2965 -0.7083  0.4518
 9557SOL    HW240305   0.686   2.886   7.431  3.1284 -1.3154 -0.8419
 9558SOL     OW40306   3.349   2.066  13.290 -0.3488 -0.2379  0.7448
 9558SOL    HW140307   3.292   2.038  13.362  0.0166 -0.6256  0.8797
 9558SOL    HW240308   3.360   2.150  13.335  1.3950  0.4663 -1.0022
 9559SOL     OW40309   2.236   2.368   4.995 -0.0810 -0.3712 -0.3151
 9559SOL    HW140310   2.264   2.303   4.930  2.3697 -1.2387  1.5973
 9559SOL    HW240311   2.223   2.445   4.939  2.0636  2.4560  3.0360
 9560SOL     OW40312   2.731   4.498  14.024 -0.1180 -0.1159  0.3968
 9560SOL    HW140313   2.733   4.577  14.078 -0.4792 -0.5368  1.0310
 9560SOL    HW240314   2.768   4.434  14.085 -0.8887 -0.3703  0.5994
 9561SOL     OW40315   1.088   1.159   8.732  0.2861 -0.1354  0.0294
 9561SOL    HW140316   1.096   1.112   8.815 -2.0604  0.3080  0.5121
 9561SOL    HW240317   1.135   1.241   8.741  0.9074 -0.1917 -2.5796
 9562SOL     OW40318   3.263   0.017   0.163 -0.3895  0.0465  0.4938
 9562SOL    HW140319   3.190   0.072   0.134 -0.0573 -0.7404 -1.8196
 9562SOL    HW240320   3.292   0.076   0.232  1.1962 -0.0242 -0.1060
 9563SOL     OW40321   4.390   0.297  12.471  0.1740  0.0222 -0.1699
 9563SOL    HW140322   4.413   0.377  12.517  0.5973 -0.1339 -0.1099
 9563SOL    HW240323   4.340   0.244  12.534 -0.8538  1.7008  0.4164
 9564SOL     OW40324   4.380   1.734   3.003 -0.2812  0.4324  0.0124
 9564SOL    HW140325   4.439   1.754   3.075  0.5205 -2.6685  0.2058
 9564SOL    HW240326   4.296   1.729   3.048 -0.3348 -0.2576 -0.1630
 9565SOL     OW40327   3.610   1.499   4.775 -0.6567 -0.2377 -0.0719
 9565SOL    HW140328   3.624   1.422   4.720  0.3527 -2.5321  3.3953
 9565SOL    HW240329   3.634   1.565   4.709 -0.4053  0.4236  0.6754
 9566SOL     OW40330   3.364   2.390   5.882  0.2879  0.0599 -0.3990
 9566SOL    HW140331   3.453   2.383   5.848  0.9844  2.0800  1.0086
 9566SOL    HW240332   3.334   2.309   5.841  0.6297  0.2495 -1.0170
 9567SOL     OW40333   2.024   3.776   4.619  0.4855 -0.8297  0.3519
 9567SOL    HW140334   2.065   3.689   4.619  2.0780 -0.0944 -2.2031
 9567SOL    HW240335   2.020   3.776   4.714  0.2914  0.4607  0.3454
 9568SOL     OW40336   2.637   3.560   6.461  0.1134  0.6246  0.0338
 9568SOL    HW140337   2.625   3.614   6.383  1.9913  0.9549 -0.0303
 9568SOL    HW240338   2.566   3.498   6.444  0.4684  0.7187 -1.8629
 9569SOL     OW40339   2.050   1.078   8.216 -0.2863  0.0752  0.6039
 9569SOL    HW140340   2.126   1.053   8.268 -0.8377 -0.7823  0.9909
 9569SOL    HW240341   2.019   0.987   8.211  0.0705 -0.0884  1.4636
 9570SOL     OW40342   0.286   1.305   1.347 -0.4260  0.6288 -0.3486
 9570SOL    HW140343   0.310   1.284   1.437 -2.6447  0.9417  0.3052
 9570SOL    HW240344   0.191   1.294   1.349 -0.3896  1.1036  2.9603
 9571SOL     OW40345   0.308   3.063  11.093 -0.0406  0.1323  0.6821
 9571SOL    HW140346   0.394   3.024  11.079 -0.6312 -1.0238  0.2493
 9571SOL    HW240347   0.266   2.991  11.141 -0.8444  0.0338 -0.1550
   4.74097   4.74097  17.76126
